<event>
 8    1  0.3776180E-010  0.9118800E+02  0.7816164E-02  0.1184000E+00
        -11   -1    0    0    0    0  0.00000000000E+00  0.00000000000E+00  0.45593999997E+02  0.45594000000E+02  0.51100000000E-03 0. -1.
         11   -1    0    0    0    0 -0.00000000000E+00 -0.00000000000E+00 -0.45593999997E+02  0.45594000000E+02  0.51100000000E-03 0.  1.
         23    2    1    2    0    0  0.00000000000E+00 -0.71054273576E-14  0.88817841970E-15  0.91188000000E+02  0.91188000000E+02 0.  0.
    9900012    2    3    3    0    0  0.13665393718E+02  0.40723048132E+02 -0.62059609785E+01  0.47787267445E+02  0.19999983589E+02 0.  0.
         12    1    3    3    0    0 -0.13665393718E+02 -0.40723048132E+02  0.62059609785E+01  0.43400732555E+02  0.00000000000E+00 0. -1.
         11    1    4    4    0    0 -0.40262583365E+01  0.10359585787E+02 -0.18037111566E+01  0.11259891121E+02  0.51100000000E-03 0. -1.
        -11    1    4    4    0    0  0.33097836477E+01  0.83556886217E+00 -0.56103829249E+00  0.34594229785E+01  0.51100000000E-03 0.  1.
        -12    1    4    4    0    0  0.14381868407E+02  0.29527893483E+02 -0.38412115294E+01  0.33067953345E+02  0.00000000000E+00 0.  1.
</event>
<event>
 8    1  0.3776180E-010  0.9118800E+02  0.7816164E-02  0.1184000E+00
        -11   -1    0    0    0    0  0.00000000000E+00  0.00000000000E+00  0.45593999997E+02  0.45594000000E+02  0.51100000000E-03 0. -1.
         11   -1    0    0    0    0 -0.00000000000E+00 -0.00000000000E+00 -0.45593999997E+02  0.45594000000E+02  0.51100000000E-03 0.  1.
         23    2    1    2    0    0  0.35527136788E-14 -0.71054273576E-14  0.00000000000E+00  0.91188000000E+02  0.91188000000E+02 0.  0.
    9900012    2    3    3    0    0  0.27062838484E+02 -0.32727984253E+02  0.89501404372E+01  0.47787271966E+02  0.20000004202E+02 0.  0.
         12    1    3    3    0    0 -0.27062838484E+02  0.32727984253E+02 -0.89501404372E+01  0.43400728034E+02  0.00000000000E+00 0. -1.
         11    1    4    4    0    0  0.10910758612E+02 -0.12450382005E+02 -0.39369657761E+01  0.17016355818E+02  0.51100000000E-03 0. -1.
        -11    1    4    4    0    0  0.85937939944E+01 -0.15282702444E+02  0.38021550127E+01  0.17940754505E+02  0.51100000000E-03 0.  1.
         12    1    4    4    0    0  0.75582858775E+01 -0.49948998036E+01  0.90849512006E+01  0.12830161642E+02  0.00000000000E+00 0. -1.
</event>
<event>
 8    1  0.3776180E-010  0.9118800E+02  0.7816164E-02  0.1184000E+00
        -11   -1    0    0    0    0  0.00000000000E+00  0.00000000000E+00  0.45593999997E+02  0.45594000000E+02  0.51100000000E-03 0. -1.
         11   -1    0    0    0    0 -0.00000000000E+00 -0.00000000000E+00 -0.45593999997E+02  0.45594000000E+02  0.51100000000E-03 0.  1.
         23    2    1    2    0    0  0.88817841970E-15  0.00000000000E+00  0.71054273576E-14  0.91188000000E+02  0.91188000000E+02 0.  0.
    9900012    2    3    3    0    0 -0.26696267440E+01  0.17606267809E+02 -0.39579232841E+02  0.47787271373E+02  0.20000001497E+02 0.  0.
         12    1    3    3    0    0  0.26696267440E+01 -0.17606267809E+02  0.39579232841E+02  0.43400728627E+02  0.00000000000E+00 0. -1.
         11    1    4    4    0    0 -0.49699586623E+01 -0.22530587090E+01 -0.37096496802E+01  0.65983531023E+01  0.51100000000E-03 0. -1.
        -11    1    4    4    0    0 -0.45445089617E+00  0.98114975850E+01 -0.16933310755E+02  0.19575725372E+02  0.51100000000E-03 0.  1.
         12    1    4    4    0    0  0.27547828145E+01  0.10047828933E+02 -0.18936272406E+02  0.21613192898E+02  0.00000000000E+00 0. -1.
</event>
<event>
 8    1  0.3776180E-010  0.9118800E+02  0.7816164E-02  0.1184000E+00
        -11   -1    0    0    0    0  0.00000000000E+00  0.00000000000E+00  0.45593999997E+02  0.45594000000E+02  0.51100000000E-03 0. -1.
         11   -1    0    0    0    0 -0.00000000000E+00 -0.00000000000E+00 -0.45593999997E+02  0.45594000000E+02  0.51100000000E-03 0.  1.
         23    2    1    2    0    0 -0.22204460493E-15  0.00000000000E+00  0.00000000000E+00  0.91188000000E+02  0.91188000000E+02 0.  0.
    9900012    2    3    3    0    0 -0.18874762599E+01 -0.22687320668E+02 -0.36950592114E+02  0.47787270245E+02  0.19999996354E+02 0.  0.
         12    1    3    3    0    0  0.18874762599E+01  0.22687320668E+02  0.36950592114E+02  0.43400729755E+02  0.00000000000E+00 0. -1.
         11    1    4    4    0    0  0.30047913094E+01 -0.26296104403E+00 -0.16616030896E+01  0.34436672911E+01  0.51100000000E-03 0. -1.
        -11    1    4    4    0    0 -0.40475483792E+00 -0.26959115847E+01  0.91012035506E+00  0.28740363729E+01  0.51100000000E-03 0.  1.
        -12    1    4    4    0    0 -0.44875127314E+01 -0.19728448039E+02 -0.36199109379E+02  0.41469566581E+02  0.00000000000E+00 0.  1.
</event>
<event>
 8    1  0.3776180E-010  0.9118800E+02  0.7816164E-02  0.1184000E+00
        -11   -1    0    0    0    0  0.00000000000E+00  0.00000000000E+00  0.45593999997E+02  0.45594000000E+02  0.51100000000E-03 0. -1.
         11   -1    0    0    0    0 -0.00000000000E+00 -0.00000000000E+00 -0.45593999997E+02  0.45594000000E+02  0.51100000000E-03 0.  1.
         23    2    1    2    0    0  0.15543122345E-14  0.00000000000E+00  0.71054273576E-14  0.91188000000E+02  0.91188000000E+02 0.  0.
    9900012    2    3    3    0    0  0.79053934806E+00 -0.10873781149E+02 -0.42009041643E+02  0.47787266726E+02  0.19999980309E+02 0.  0.
         12    1    3    3    0    0 -0.79053934806E+00  0.10873781149E+02  0.42009041643E+02  0.43400733274E+02  0.00000000000E+00 0. -1.
         11    1    4    4    0    0 -0.81124656766E+01 -0.49331999784E+01 -0.17138339483E+02  0.19592632337E+02  0.51100000000E-03 0. -1.
        -11    1    4    4    0    0 -0.65476957988E+00 -0.24473793098E+00 -0.77165923612E+01  0.77481880325E+01  0.51100000000E-03 0.  1.
         12    1    4    4    0    0  0.95577746045E+01 -0.56958432399E+01 -0.17154109799E+02  0.20446446356E+02  0.00000000000E+00 0. -1.
</event>
<event>
 8    1  0.3776180E-010  0.9118800E+02  0.7816164E-02  0.1184000E+00
        -11   -1    0    0    0    0  0.00000000000E+00  0.00000000000E+00  0.45593999997E+02  0.45594000000E+02  0.51100000000E-03 0.  1.
         11   -1    0    0    0    0 -0.00000000000E+00 -0.00000000000E+00 -0.45593999997E+02  0.45594000000E+02  0.51100000000E-03 0. -1.
         23    2    1    2    0    0  0.00000000000E+00  0.00000000000E+00  0.00000000000E+00  0.91188000000E+02  0.91188000000E+02 0.  0.
    9900012    2    3    3    0    0  0.51009283446E+01 -0.39100536817E+02  0.18131513636E+02  0.47787271480E+02  0.20000001985E+02 0.  0.
        -12    1    3    3    0    0 -0.51009283446E+01  0.39100536817E+02 -0.18131513636E+02  0.43400728520E+02  0.00000000000E+00 0.  1.
         11    1    4    4    0    0  0.87681204801E+00 -0.26570952373E+01  0.82786608216E-01  0.27992513912E+01  0.51100000000E-03 0.  1.
        -11    1    4    4    0    0  0.88097997384E+00 -0.36564519684E+02  0.19374275270E+02  0.41389645661E+02  0.51100000000E-03 0. -1.
         12    1    4    4    0    0  0.33431363227E+01  0.12107810481E+00 -0.13255482416E+01  0.35983744275E+01  0.00000000000E+00 0. -1.
</event>
<event>
 8    1  0.3776180E-010  0.9118800E+02  0.7816164E-02  0.1184000E+00
        -11   -1    0    0    0    0  0.00000000000E+00  0.00000000000E+00  0.45593999997E+02  0.45594000000E+02  0.51100000000E-03 0. -1.
         11   -1    0    0    0    0 -0.00000000000E+00 -0.00000000000E+00 -0.45593999997E+02  0.45594000000E+02  0.51100000000E-03 0.  1.
         23    2    1    2    0    0  0.00000000000E+00  0.00000000000E+00  0.00000000000E+00  0.91188000000E+02  0.91188000000E+02 0.  0.
    9900012    2    3    3    0    0 -0.41999863202E+02  0.22936187239E+01  0.10694581206E+02  0.47787271170E+02  0.20000000572E+02 0.  0.
        -12    1    3    3    0    0  0.41999863202E+02 -0.22936187239E+01 -0.10694581206E+02  0.43400728830E+02  0.00000000000E+00 0.  1.
         11    1    4    4    0    0 -0.16259422498E+02 -0.45980423874E+01  0.60153932415E+01  0.17935879400E+02  0.51100000000E-03 0. -1.
        -11    1    4    4    0    0  0.44788646963E+00 -0.16688945582E+01 -0.53807715067E+00  0.18097896611E+01  0.51100000000E-03 0.  1.
        -12    1    4    4    0    0 -0.26188327174E+02  0.85605556695E+01  0.52172651153E+01  0.28041602109E+02  0.00000000000E+00 0.  1.
</event>
<event>
 8    1  0.3776180E-010  0.9118800E+02  0.7816164E-02  0.1184000E+00
        -11   -1    0    0    0    0  0.00000000000E+00  0.00000000000E+00  0.45593999997E+02  0.45594000000E+02  0.51100000000E-03 0. -1.
         11   -1    0    0    0    0 -0.00000000000E+00 -0.00000000000E+00 -0.45593999997E+02  0.45594000000E+02  0.51100000000E-03 0.  1.
         23    2    1    2    0    0  0.71054273576E-14  0.88817841970E-15  0.00000000000E+00  0.91188000000E+02  0.91188000000E+02 0.  0.
    9900012    2    3    3    0    0 -0.37844660542E+02 -0.76313079608E+01 -0.19828449552E+02  0.47787278758E+02  0.20000035167E+02 0.  0.
         12    1    3    3    0    0  0.37844660542E+02  0.76313079608E+01  0.19828449552E+02  0.43400721242E+02  0.00000000000E+00 0. -1.
         11    1    4    4    0    0 -0.79799300422E+01 -0.70934945612E+01 -0.41188638790E+01  0.11443862481E+02  0.51100000000E-03 0. -1.
        -11    1    4    4    0    0 -0.23177358545E+02 -0.60221107687E+01 -0.13170473404E+02  0.27329784799E+02  0.51100000000E-03 0.  1.
         12    1    4    4    0    0 -0.66873719550E+01  0.54842973692E+01 -0.25391122693E+01  0.90136314776E+01  0.00000000000E+00 0. -1.
</event>
<event>
 8    1  0.3776180E-010  0.9118800E+02  0.7816164E-02  0.1184000E+00
        -11   -1    0    0    0    0  0.00000000000E+00  0.00000000000E+00  0.45593999997E+02  0.45594000000E+02  0.51100000000E-03 0. -1.
         11   -1    0    0    0    0 -0.00000000000E+00 -0.00000000000E+00 -0.45593999997E+02  0.45594000000E+02  0.51100000000E-03 0.  1.
         23    2    1    2    0    0  0.88817841970E-15 -0.88817841970E-15  0.00000000000E+00  0.91188000000E+02  0.91188000000E+02 0.  0.
    9900012    2    3    3    0    0 -0.62407446497E+01  0.76294481193E+01 -0.42266627283E+02  0.47787272422E+02  0.20000006281E+02 0.  0.
         12    1    3    3    0    0  0.62407446497E+01 -0.76294481193E+01  0.42266627283E+02  0.43400727578E+02  0.00000000000E+00 0. -1.
         11    1    4    4    0    0  0.27785167817E+01  0.47064825617E+00 -0.53732862886E+01  0.60674435380E+01  0.51100000000E-03 0.  1.
        -11    1    4    4    0    0  0.34005104114E+01  0.39189130488E+01 -0.44706511426E+01  0.68489468127E+01  0.51100000000E-03 0. -1.
         12    1    4    4    0    0 -0.12419771843E+02  0.32398868143E+01 -0.32422689852E+02  0.34870882071E+02  0.00000000000E+00 0. -1.
</event>
<event>
 8    1  0.3776180E-010  0.9118800E+02  0.7816164E-02  0.1184000E+00
        -11   -1    0    0    0    0  0.00000000000E+00  0.00000000000E+00  0.45593999997E+02  0.45594000000E+02  0.51100000000E-03 0. -1.
         11   -1    0    0    0    0 -0.00000000000E+00 -0.00000000000E+00 -0.45593999997E+02  0.45594000000E+02  0.51100000000E-03 0.  1.
         23    2    1    2    0    0  0.00000000000E+00 -0.35527136788E-14  0.71054273576E-14  0.91188000000E+02  0.91188000000E+02 0.  0.
    9900012    2    3    3    0    0  0.12846364018E+02 -0.23035006153E+02  0.34467108286E+02  0.47787284216E+02  0.20000060055E+02 0.  0.
        -12    1    3    3    0    0 -0.12846364018E+02  0.23035006153E+02 -0.34467108286E+02  0.43400715784E+02  0.00000000000E+00 0.  1.
         11    1    4    4    0    0  0.18499649996E+01 -0.18485978484E+01  0.65132946781E+01  0.70187386566E+01  0.51100000000E-03 0. -1.
        -11    1    4    4    0    0  0.99314902324E+01 -0.10050975301E+02  0.45763895454E+01  0.14852607322E+02  0.51100000000E-03 0.  1.
        -12    1    4    4    0    0  0.10649087856E+01 -0.11135433003E+02  0.23377424063E+02  0.25915938237E+02  0.00000000000E+00 0.  1.
</event>
<event>
 8    1  0.3776180E-010  0.9118800E+02  0.7816164E-02  0.1184000E+00
        -11   -1    0    0    0    0  0.00000000000E+00  0.00000000000E+00  0.45593999997E+02  0.45594000000E+02  0.51100000000E-03 0. -1.
         11   -1    0    0    0    0 -0.00000000000E+00 -0.00000000000E+00 -0.45593999997E+02  0.45594000000E+02  0.51100000000E-03 0.  1.
         23    2    1    2    0    0  0.88817841970E-15  0.00000000000E+00  0.00000000000E+00  0.91188000000E+02  0.91188000000E+02 0.  0.
    9900012    2    3    3    0    0  0.45812173538E+01  0.17333726634E+02 -0.39524391064E+02  0.47787272812E+02  0.20000008057E+02 0.  0.
         12    1    3    3    0    0 -0.45812173538E+01 -0.17333726634E+02  0.39524391064E+02  0.43400727188E+02  0.00000000000E+00 0. -1.
         11    1    4    4    0    0  0.58654772294E+01  0.13797494601E+01 -0.17271100704E+02  0.18292032459E+02  0.51100000000E-03 0.  1.
        -11    1    4    4    0    0  0.24319829047E+01  0.30965768614E+01 -0.52010019721E+00  0.39716285808E+01  0.51100000000E-03 0. -1.
        -12    1    4    4    0    0 -0.37162427803E+01  0.12857400312E+02 -0.21733190163E+02  0.25523611771E+02  0.00000000000E+00 0.  1.
</event>
<event>
 8    1  0.3776180E-010  0.9118800E+02  0.7816164E-02  0.1184000E+00
        -11   -1    0    0    0    0  0.00000000000E+00  0.00000000000E+00  0.45593999997E+02  0.45594000000E+02  0.51100000000E-03 0. -1.
         11   -1    0    0    0    0 -0.00000000000E+00 -0.00000000000E+00 -0.45593999997E+02  0.45594000000E+02  0.51100000000E-03 0.  1.
         23    2    1    2    0    0  0.00000000000E+00  0.00000000000E+00  0.00000000000E+00  0.91188000000E+02  0.91188000000E+02 0.  0.
    9900012    2    3    3    0    0  0.19557476922E+02 -0.17160919834E+02  0.34736596738E+02  0.47787271595E+02  0.20000002512E+02 0.  0.
        -12    1    3    3    0    0 -0.19557476922E+02  0.17160919834E+02 -0.34736596738E+02  0.43400728405E+02  0.00000000000E+00 0.  1.
         11    1    4    4    0    0  0.81866293546E+01 -0.88625841400E+01  0.19440442004E+02  0.22880058640E+02  0.51100000000E-03 0. -1.
        -11    1    4    4    0    0  0.14445293303E+02 -0.81342465265E+01  0.12927359157E+02  0.21022585003E+02  0.51100000000E-03 0.  1.
        -12    1    4    4    0    0 -0.30744457361E+01 -0.16408916774E+00  0.23687955780E+01  0.38846279525E+01  0.00000000000E+00 0.  1.
</event>
<event>
 8    1  0.3776180E-010  0.9118800E+02  0.7816164E-02  0.1184000E+00
        -11   -1    0    0    0    0  0.00000000000E+00  0.00000000000E+00  0.45593999997E+02  0.45594000000E+02  0.51100000000E-03 0. -1.
         11   -1    0    0    0    0 -0.00000000000E+00 -0.00000000000E+00 -0.45593999997E+02  0.45594000000E+02  0.51100000000E-03 0.  1.
         23    2    1    2    0    0 -0.17763568394E-14  0.00000000000E+00  0.00000000000E+00  0.91188000000E+02  0.91188000000E+02 0.  0.
    9900012    2    3    3    0    0  0.12000961105E+02 -0.68145070329E+01 -0.41148056681E+02  0.47787272561E+02  0.20000006916E+02 0.  0.
         12    1    3    3    0    0 -0.12000961105E+02  0.68145070329E+01  0.41148056681E+02  0.43400727439E+02  0.00000000000E+00 0. -1.
         11    1    4    4    0    0 -0.14646068810E+01  0.83767337670E+00 -0.17515720170E+01  0.24320310018E+01  0.51100000000E-03 0. -1.
        -11    1    4    4    0    0  0.24488328417E+01  0.47312357151E+01 -0.14485626505E+02  0.15434207112E+02  0.51100000000E-03 0.  1.
        -12    1    4    4    0    0  0.11016735144E+02 -0.12383416125E+02 -0.24910858159E+02  0.29921034447E+02  0.00000000000E+00 0.  1.
</event>
<event>
 8    1  0.3776180E-010  0.9118800E+02  0.7816164E-02  0.1184000E+00
        -11   -1    0    0    0    0  0.00000000000E+00  0.00000000000E+00  0.45593999997E+02  0.45594000000E+02  0.51100000000E-03 0. -1.
         11   -1    0    0    0    0 -0.00000000000E+00 -0.00000000000E+00 -0.45593999997E+02  0.45594000000E+02  0.51100000000E-03 0.  1.
         23    2    1    2    0    0  0.17763568394E-14  0.00000000000E+00  0.00000000000E+00  0.91188000000E+02  0.91188000000E+02 0.  0.
    9900012    2    3    3    0    0 -0.85726155764E+01  0.33410780173E+02  0.26341094815E+02  0.47787271369E+02  0.20000001481E+02 0.  0.
        -12    1    3    3    0    0  0.85726155764E+01 -0.33410780173E+02 -0.26341094815E+02  0.43400728631E+02  0.00000000000E+00 0.  1.
         11    1    4    4    0    0 -0.59695243309E+01  0.12402065801E+02  0.45861370835E+01  0.14507898210E+02  0.51100000000E-03 0. -1.
        -11    1    4    4    0    0 -0.39059538129E+01  0.22327678317E+02  0.17493901223E+02  0.28632468885E+02  0.51100000000E-03 0.  1.
        -12    1    4    4    0    0  0.13028625674E+01 -0.13189639446E+01  0.42610565093E+01  0.46469042740E+01  0.00000000000E+00 0.  1.
</event>
<event>
 8    1  0.3776180E-010  0.9118800E+02  0.7816164E-02  0.1184000E+00
        -11   -1    0    0    0    0  0.00000000000E+00  0.00000000000E+00  0.45593999997E+02  0.45594000000E+02  0.51100000000E-03 0. -1.
         11   -1    0    0    0    0 -0.00000000000E+00 -0.00000000000E+00 -0.45593999997E+02  0.45594000000E+02  0.51100000000E-03 0.  1.
         23    2    1    2    0    0 -0.35527136788E-14  0.44408920985E-15  0.71054273576E-14  0.91188000000E+02  0.91188000000E+02 0.  0.
    9900012    2    3    3    0    0 -0.28679269399E+02  0.26335736756E+01  0.32468251717E+02  0.47787267597E+02  0.19999984281E+02 0.  0.
        -12    1    3    3    0    0  0.28679269399E+02 -0.26335736756E+01 -0.32468251717E+02  0.43400732403E+02  0.00000000000E+00 0.  1.
         11    1    4    4    0    0 -0.38158617508E+01  0.12909815195E+01  0.98367322707E+01  0.10629615996E+02  0.51100000000E-03 0. -1.
        -11    1    4    4    0    0 -0.17027915185E+02  0.15312889085E+01  0.23725716928E+02  0.29243877740E+02  0.51100000000E-03 0.  1.
        -12    1    4    4    0    0 -0.78354924634E+01 -0.18869675239E+00 -0.10941974810E+01  0.79137738618E+01  0.00000000000E+00 0.  1.
</event>
<event>
 8    1  0.3776180E-010  0.9118800E+02  0.7816164E-02  0.1184000E+00
        -11   -1    0    0    0    0  0.00000000000E+00  0.00000000000E+00  0.45593999997E+02  0.45594000000E+02  0.51100000000E-03 0. -1.
         11   -1    0    0    0    0 -0.00000000000E+00 -0.00000000000E+00 -0.45593999997E+02  0.45594000000E+02  0.51100000000E-03 0.  1.
         23    2    1    2    0    0  0.00000000000E+00 -0.17763568394E-14  0.00000000000E+00  0.91188000000E+02  0.91188000000E+02 0.  0.
    9900012    2    3    3    0    0  0.12593086491E+02 -0.14829578947E+02 -0.38795885619E+02  0.47787274429E+02  0.20000015432E+02 0.  0.
         12    1    3    3    0    0 -0.12593086491E+02  0.14829578947E+02  0.38795885619E+02  0.43400725571E+02  0.00000000000E+00 0. -1.
         11    1    4    4    0    0  0.83063195792E+01 -0.46687784303E+01 -0.97411004107E+01  0.13626498980E+02  0.51100000000E-03 0. -1.
        -11    1    4    4    0    0  0.58371190294E+01 -0.14163122312E+01 -0.31632910810E+01  0.67885425258E+01  0.51100000000E-03 0.  1.
        -12    1    4    4    0    0 -0.15503521177E+01 -0.87444882855E+01 -0.25891494127E+02  0.27372232923E+02  0.00000000000E+00 0.  1.
</event>
<event>
 8    1  0.3776180E-010  0.9118800E+02  0.7816164E-02  0.1184000E+00
        -11   -1    0    0    0    0  0.00000000000E+00  0.00000000000E+00  0.45593999997E+02  0.45594000000E+02  0.51100000000E-03 0. -1.
         11   -1    0    0    0    0 -0.00000000000E+00 -0.00000000000E+00 -0.45593999997E+02  0.45594000000E+02  0.51100000000E-03 0.  1.
         23    2    1    2    0    0  0.71054273576E-14 -0.35527136788E-14  0.35527136788E-14  0.91188000000E+02  0.91188000000E+02 0.  0.
    9900012    2    3    3    0    0  0.25799485922E+02 -0.30198264941E+02  0.17494998987E+02  0.47787266494E+02  0.19999979255E+02 0.  0.
        -12    1    3    3    0    0 -0.25799485922E+02  0.30198264941E+02 -0.17494998987E+02  0.43400733506E+02  0.00000000000E+00 0.  1.
         11    1    4    4    0    0  0.16250167233E+02 -0.10941792621E+02  0.97552980966E+01  0.21885077155E+02  0.51100000000E-03 0. -1.
        -11    1    4    4    0    0  0.10840170835E+02 -0.17111104493E+02  0.29123286715E+01  0.20464135928E+02  0.51100000000E-03 0.  1.
         12    1    4    4    0    0 -0.12908521462E+01 -0.21453678269E+01  0.48273722185E+01  0.54380534121E+01  0.00000000000E+00 0. -1.
</event>
<event>
 8    1  0.3776180E-010  0.9118800E+02  0.7816164E-02  0.1184000E+00
        -11   -1    0    0    0    0  0.00000000000E+00  0.00000000000E+00  0.45593999997E+02  0.45594000000E+02  0.51100000000E-03 0. -1.
         11   -1    0    0    0    0 -0.00000000000E+00 -0.00000000000E+00 -0.45593999997E+02  0.45594000000E+02  0.51100000000E-03 0.  1.
         23    2    1    2    0    0  0.00000000000E+00  0.00000000000E+00  0.00000000000E+00  0.91188000000E+02  0.91188000000E+02 0.  0.
    9900012    2    3    3    0    0  0.31863674450E+02 -0.94839521989E+01 -0.27899519733E+02  0.47787282262E+02  0.20000051147E+02 0.  0.
         12    1    3    3    0    0 -0.31863674450E+02  0.94839521989E+01  0.27899519733E+02  0.43400717738E+02  0.00000000000E+00 0. -1.
         11    1    4    4    0    0  0.65187086023E+01 -0.12477515337E+01 -0.10811640394E+01  0.67245343090E+01  0.51100000000E-03 0. -1.
        -11    1    4    4    0    0  0.12143024313E+02 -0.38982450053E+01 -0.24148619974E+01  0.12980019735E+02  0.51100000000E-03 0.  1.
        -12    1    4    4    0    0  0.13201941535E+02 -0.43379556599E+01 -0.24403493696E+02  0.28082728218E+02  0.00000000000E+00 0.  1.
</event>
<event>
 8    1  0.3795673E-010  0.9118800E+02  0.7816164E-02  0.1184000E+00
        -11   -1    0    0    0    0  0.00000000000E+00  0.00000000000E+00  0.45593999997E+02  0.45594000000E+02  0.51100000000E-03 0. -1.
         11   -1    0    0    0    0 -0.00000000000E+00 -0.00000000000E+00 -0.45593999997E+02  0.45594000000E+02  0.51100000000E-03 0.  1.
         23    2    1    2    0    0  0.00000000000E+00  0.00000000000E+00  0.71054273576E-14  0.91188000000E+02  0.91188000000E+02 0.  0.
    9900012    2    3    3    0    0 -0.25708161387E+02  0.64741853172E+01  0.34362750703E+02  0.47787271051E+02  0.20000000031E+02 0.  0.
        -12    1    3    3    0    0  0.25708161387E+02 -0.64741853172E+01 -0.34362750703E+02  0.43400728949E+02  0.00000000000E+00 0.  1.
         11    1    4    4    0    0 -0.93583624966E+01 -0.20036160662E+01  0.10164541791E+02  0.13961065004E+02  0.51100000000E-03 0. -1.
        -11    1    4    4    0    0 -0.18405692134E+02  0.46499339290E+01  0.21628475268E+02  0.28778157189E+02  0.51100000000E-03 0.  1.
        -12    1    4    4    0    0  0.20558932441E+01  0.38278674544E+01  0.25697336438E+01  0.50480488587E+01  0.00000000000E+00 0.  1.
</event>
<event>
 8    1  0.3776180E-010  0.9118800E+02  0.7816164E-02  0.1184000E+00
        -11   -1    0    0    0    0  0.00000000000E+00  0.00000000000E+00  0.45593999997E+02  0.45594000000E+02  0.51100000000E-03 0. -1.
         11   -1    0    0    0    0 -0.00000000000E+00 -0.00000000000E+00 -0.45593999997E+02  0.45594000000E+02  0.51100000000E-03 0.  1.
         23    2    1    2    0    0 -0.88817841970E-15 -0.44408920985E-15  0.00000000000E+00  0.91188000000E+02  0.91188000000E+02 0.  0.
    9900012    2    3    3    0    0  0.53089408795E+01 -0.28677764008E+01  0.42979231950E+02  0.47787269893E+02  0.19999994751E+02 0.  0.
        -12    1    3    3    0    0 -0.53089408795E+01  0.28677764008E+01 -0.42979231950E+02  0.43400730107E+02  0.00000000000E+00 0.  1.
         11    1    4    4    0    0  0.70276162684E+01 -0.15519154454E+01  0.11747276418E+02  0.13776586495E+02  0.51100000000E-03 0.  1.
        -11    1    4    4    0    0  0.28763407381E+01  0.14286558741E+01  0.26992352069E+02  0.27182742027E+02  0.51100000000E-03 0. -1.
         12    1    4    4    0    0 -0.45950161269E+01 -0.27445168295E+01  0.42396034641E+01  0.68279413711E+01  0.00000000000E+00 0. -1.
</event>
<event>
 8    1  0.3776180E-010  0.9118800E+02  0.7816164E-02  0.1184000E+00
        -11   -1    0    0    0    0  0.00000000000E+00  0.00000000000E+00  0.45593999997E+02  0.45594000000E+02  0.51100000000E-03 0. -1.
         11   -1    0    0    0    0 -0.00000000000E+00 -0.00000000000E+00 -0.45593999997E+02  0.45594000000E+02  0.51100000000E-03 0.  1.
         23    2    1    2    0    0  0.88817841970E-15  0.00000000000E+00  0.00000000000E+00  0.91188000000E+02  0.91188000000E+02 0.  0.
    9900012    2    3    3    0    0  0.67101688362E+01  0.32010042174E+02 -0.28529898992E+02  0.47787259197E+02  0.19999945982E+02 0.  0.
         12    1    3    3    0    0 -0.67101688362E+01 -0.32010042174E+02  0.28529898992E+02  0.43400740803E+02  0.00000000000E+00 0. -1.
         11    1    4    4    0    0  0.72627237597E+00  0.14770005966E+02 -0.10446235400E+02  0.18105368875E+02  0.51100000000E-03 0. -1.
        -11    1    4    4    0    0  0.62542635639E+01  0.13239560700E+02 -0.20354391011E+02  0.25073950904E+02  0.51100000000E-03 0.  1.
         12    1    4    4    0    0 -0.27036710360E+00  0.40004755079E+01  0.22707274198E+01  0.46079394174E+01  0.00000000000E+00 0. -1.
</event>
<event>
 8    1  0.3776180E-010  0.9118800E+02  0.7816164E-02  0.1184000E+00
        -11   -1    0    0    0    0  0.00000000000E+00  0.00000000000E+00  0.45593999997E+02  0.45594000000E+02  0.51100000000E-03 0. -1.
         11   -1    0    0    0    0 -0.00000000000E+00 -0.00000000000E+00 -0.45593999997E+02  0.45594000000E+02  0.51100000000E-03 0.  1.
         23    2    1    2    0    0  0.17763568394E-14  0.00000000000E+00  0.00000000000E+00  0.91188000000E+02  0.91188000000E+02 0.  0.
    9900012    2    3    3    0    0  0.14233420782E+02 -0.27143281691E+02 -0.30729058279E+02  0.47787273844E+02  0.20000012765E+02 0.  0.
         12    1    3    3    0    0 -0.14233420782E+02  0.27143281691E+02  0.30729058279E+02  0.43400726156E+02  0.00000000000E+00 0. -1.
         11    1    4    4    0    0  0.11925084523E+02 -0.61086499588E+01 -0.71085770432E+01  0.15167567802E+02  0.51100000000E-03 0. -1.
        -11    1    4    4    0    0  0.51418180272E+00 -0.62372838485E+01 -0.24339325452E+01  0.67150666883E+01  0.51100000000E-03 0.  1.
        -12    1    4    4    0    0  0.17941544566E+01 -0.14797347883E+02 -0.21186548691E+02  0.25904639353E+02  0.00000000000E+00 0.  1.
</event>
<event>
 8    1  0.3776180E-010  0.9118800E+02  0.7816164E-02  0.1184000E+00
        -11   -1    0    0    0    0  0.00000000000E+00  0.00000000000E+00  0.45593999997E+02  0.45594000000E+02  0.51100000000E-03 0. -1.
         11   -1    0    0    0    0 -0.00000000000E+00 -0.00000000000E+00 -0.45593999997E+02  0.45594000000E+02  0.51100000000E-03 0.  1.
         23    2    1    2    0    0  0.00000000000E+00  0.00000000000E+00  0.00000000000E+00  0.91188000000E+02  0.91188000000E+02 0.  0.
    9900012    2    3    3    0    0 -0.89956864254E+01 -0.27530745286E+02  0.32322729022E+02  0.47787272798E+02  0.20000007993E+02 0.  0.
        -12    1    3    3    0    0  0.89956864254E+01  0.27530745286E+02 -0.32322729022E+02  0.43400727202E+02  0.00000000000E+00 0.  1.
         11    1    4    4    0    0 -0.19301110065E+01 -0.90013037851E+01  0.45414541830E+01  0.10265164621E+02  0.51100000000E-03 0. -1.
        -11    1    4    4    0    0 -0.83209788752E+01 -0.11514164103E+02  0.75827771913E+01  0.16103203862E+02  0.51100000000E-03 0.  1.
         12    1    4    4    0    0  0.12554034563E+01 -0.70152773970E+01  0.20198497648E+02  0.21418904315E+02  0.00000000000E+00 0. -1.
</event>
<event>
 8    1  0.3776180E-010  0.9118800E+02  0.7816164E-02  0.1184000E+00
        -11   -1    0    0    0    0  0.00000000000E+00  0.00000000000E+00  0.45593999997E+02  0.45594000000E+02  0.51100000000E-03 0. -1.
         11   -1    0    0    0    0 -0.00000000000E+00 -0.00000000000E+00 -0.45593999997E+02  0.45594000000E+02  0.51100000000E-03 0.  1.
         23    2    1    2    0    0 -0.71054273576E-14  0.00000000000E+00  0.00000000000E+00  0.91188000000E+02  0.91188000000E+02 0.  0.
    9900012    2    3    3    0    0 -0.33605025882E+02 -0.60617596591E+01 -0.26787693011E+02  0.47787271993E+02  0.20000004324E+02 0.  0.
         12    1    3    3    0    0  0.33605025882E+02  0.60617596591E+01  0.26787693011E+02  0.43400728007E+02  0.00000000000E+00 0. -1.
         11    1    4    4    0    0 -0.76638005025E+01 -0.70953727973E+00 -0.11394900031E+02  0.13750673739E+02  0.51100000000E-03 0. -1.
        -11    1    4    4    0    0 -0.38961306527E+01 -0.49314274479E+01 -0.91866071065E+01  0.11130703532E+02  0.51100000000E-03 0.  1.
         12    1    4    4    0    0 -0.22045094727E+02 -0.42079493145E+00 -0.62061858733E+01  0.22905894721E+02  0.00000000000E+00 0. -1.
</event>
<event>
 8    1  0.3776180E-010  0.9118800E+02  0.7816164E-02  0.1184000E+00
        -11   -1    0    0    0    0  0.00000000000E+00  0.00000000000E+00  0.45593999997E+02  0.45594000000E+02  0.51100000000E-03 0. -1.
         11   -1    0    0    0    0 -0.00000000000E+00 -0.00000000000E+00 -0.45593999997E+02  0.45594000000E+02  0.51100000000E-03 0.  1.
         23    2    1    2    0    0  0.44408920985E-15  0.17763568394E-14  0.00000000000E+00  0.91188000000E+02  0.91188000000E+02 0.  0.
    9900012    2    3    3    0    0  0.36016994409E+01 -0.13561721597E+02 -0.41069857886E+02  0.47787242422E+02  0.19999869500E+02 0.  0.
         12    1    3    3    0    0 -0.36016994409E+01  0.13561721597E+02  0.41069857886E+02  0.43400757578E+02  0.00000000000E+00 0. -1.
         11    1    4    4    0    0  0.50089476232E+01 -0.91520805975E+01 -0.12871103021E+02  0.16568507139E+02  0.51100000000E-03 0. -1.
        -11    1    4    4    0    0  0.20929393591E+01 -0.47184086549E+01 -0.34196842818E+01  0.61917700413E+01  0.51100000000E-03 0.  1.
        -12    1    4    4    0    0 -0.35001875415E+01  0.30876765588E+00 -0.24779070583E+02  0.25026965242E+02  0.00000000000E+00 0.  1.
</event>
<event>
 8    1  0.3776180E-010  0.9118800E+02  0.7816164E-02  0.1184000E+00
        -11   -1    0    0    0    0  0.00000000000E+00  0.00000000000E+00  0.45593999997E+02  0.45594000000E+02  0.51100000000E-03 0.  1.
         11   -1    0    0    0    0 -0.00000000000E+00 -0.00000000000E+00 -0.45593999997E+02  0.45594000000E+02  0.51100000000E-03 0. -1.
         23    2    1    2    0    0  0.00000000000E+00  0.00000000000E+00  0.00000000000E+00  0.91188000000E+02  0.91188000000E+02 0.  0.
    9900012    2    3    3    0    0  0.19243102913E+02  0.31952549872E+02  0.22189225342E+02  0.47787260671E+02  0.19999952701E+02 0.  0.
        -12    1    3    3    0    0 -0.19243102913E+02 -0.31952549872E+02 -0.22189225342E+02  0.43400739329E+02  0.00000000000E+00 0.  1.
         11    1    4    4    0    0  0.49980943191E+01  0.16615769916E+02  0.16567588899E+02  0.23990618143E+02  0.51100000000E-03 0. -1.
        -11    1    4    4    0    0 -0.44948370988E+00  0.44029452386E+01 -0.57002201158E+00  0.44623858791E+01  0.51100000000E-03 0.  1.
         12    1    4    4    0    0  0.14694492304E+02  0.10933834718E+02  0.61916584544E+01  0.19334256648E+02  0.00000000000E+00 0. -1.
</event>
<event>
 8    1  0.4427482E-010  0.9118800E+02  0.7816164E-02  0.1184000E+00
        -11   -1    0    0    0    0  0.00000000000E+00  0.00000000000E+00  0.45593999997E+02  0.45594000000E+02  0.51100000000E-03 0.  1.
         11   -1    0    0    0    0 -0.00000000000E+00 -0.00000000000E+00 -0.45593999997E+02  0.45594000000E+02  0.51100000000E-03 0. -1.
         23    2    1    2    0    0  0.71054273576E-14  0.00000000000E+00  0.00000000000E+00  0.91188000000E+02  0.91188000000E+02 0.  0.
    9900012    2    3    3    0    0  0.38458716376E+02 -0.13270061010E+02  0.15114763739E+02  0.47787268815E+02  0.19999989837E+02 0.  0.
        -12    1    3    3    0    0 -0.38458716376E+02  0.13270061010E+02 -0.15114763739E+02  0.43400731185E+02  0.00000000000E+00 0.  1.
         11    1    4    4    0    0  0.18502973091E+02 -0.71195004145E+01  0.20902176929E+01  0.19935303098E+02  0.51100000000E-03 0. -1.
        -11    1    4    4    0    0  0.20685904739E+02 -0.49326989777E+01  0.81488610557E+01  0.22773715350E+02  0.51100000000E-03 0.  1.
        -12    1    4    4    0    0 -0.73016145407E+00 -0.12178616176E+01  0.48756849904E+01  0.50782503675E+01  0.00000000000E+00 0.  1.
</event>
<event>
 8    1  0.3776180E-010  0.9118800E+02  0.7816164E-02  0.1184000E+00
        -11   -1    0    0    0    0  0.00000000000E+00  0.00000000000E+00  0.45593999997E+02  0.45594000000E+02  0.51100000000E-03 0.  1.
         11   -1    0    0    0    0 -0.00000000000E+00 -0.00000000000E+00 -0.45593999997E+02  0.45594000000E+02  0.51100000000E-03 0. -1.
         23    2    1    2    0    0  0.71054273576E-14  0.35527136788E-14  0.00000000000E+00  0.91188000000E+02  0.91188000000E+02 0.  0.
    9900012    2    3    3    0    0  0.38686020958E+02 -0.18679817355E+02 -0.61708436113E+01  0.47787272991E+02  0.20000008876E+02 0.  0.
         12    1    3    3    0    0 -0.38686020958E+02  0.18679817355E+02  0.61708436113E+01  0.43400727009E+02  0.00000000000E+00 0. -1.
         11    1    4    4    0    0 -0.42947937927E+00 -0.63617069889E+00 -0.95614590868E+00  0.12261243637E+01  0.51100000000E-03 0. -1.
        -11    1    4    4    0    0  0.22276797669E+02 -0.90785408162E+01  0.55071045735E+01  0.24678002731E+02  0.51100000000E-03 0.  1.
         12    1    4    4    0    0  0.16838702669E+02 -0.89651058403E+01 -0.10721802276E+02  0.21883145897E+02  0.00000000000E+00 0. -1.
</event>
<event>
 8    1  0.3776180E-010  0.9118800E+02  0.7816164E-02  0.1184000E+00
        -11   -1    0    0    0    0  0.00000000000E+00  0.00000000000E+00  0.45593999997E+02  0.45594000000E+02  0.51100000000E-03 0. -1.
         11   -1    0    0    0    0 -0.00000000000E+00 -0.00000000000E+00 -0.45593999997E+02  0.45594000000E+02  0.51100000000E-03 0.  1.
         23    2    1    2    0    0  0.00000000000E+00  0.88817841970E-15  0.00000000000E+00  0.91188000000E+02  0.91188000000E+02 0.  0.
    9900012    2    3    3    0    0 -0.32380178464E+02 -0.59089172075E+01  0.28288368702E+02  0.47787273466E+02  0.20000011039E+02 0.  0.
        -12    1    3    3    0    0  0.32380178464E+02  0.59089172075E+01 -0.28288368702E+02  0.43400726534E+02  0.00000000000E+00 0.  1.
         11    1    4    4    0    0 -0.11730988193E+02  0.31754900082E+01  0.89650416218E+01  0.15102045965E+02  0.51100000000E-03 0.  1.
        -11    1    4    4    0    0 -0.14342985749E+02  0.93510584695E+00  0.12314020051E+02  0.18926984790E+02  0.51100000000E-03 0. -1.
         12    1    4    4    0    0 -0.63062045213E+01 -0.10019513063E+02  0.70093070288E+01  0.13758242711E+02  0.00000000000E+00 0. -1.
</event>
<event>
 8    1  0.3776180E-010  0.9118800E+02  0.7816164E-02  0.1184000E+00
        -11   -1    0    0    0    0  0.00000000000E+00  0.00000000000E+00  0.45593999997E+02  0.45594000000E+02  0.51100000000E-03 0. -1.
         11   -1    0    0    0    0 -0.00000000000E+00 -0.00000000000E+00 -0.45593999997E+02  0.45594000000E+02  0.51100000000E-03 0.  1.
         23    2    1    2    0    0  0.00000000000E+00  0.35527136788E-14 -0.35527136788E-14  0.91188000000E+02  0.91188000000E+02 0.  0.
    9900012    2    3    3    0    0  0.27777897477E+02 -0.20518018547E+02  0.26287306048E+02  0.47787272672E+02  0.20000007420E+02 0.  0.
        -12    1    3    3    0    0 -0.27777897477E+02  0.20518018547E+02 -0.26287306048E+02  0.43400727328E+02  0.00000000000E+00 0.  1.
         11    1    4    4    0    0  0.15199260664E+02 -0.19880717430E+02  0.21113325473E+02  0.32741914468E+02  0.51100000000E-03 0. -1.
        -11    1    4    4    0    0  0.13905509416E+00 -0.47441397183E+00 -0.10308105757E+01  0.11432303529E+01  0.51100000000E-03 0.  1.
         12    1    4    4    0    0  0.12439581719E+02 -0.16288714595E+00  0.62047911505E+01  0.13902127851E+02  0.00000000000E+00 0. -1.
</event>
<event>
 8    1  0.3776180E-010  0.9118800E+02  0.7816164E-02  0.1184000E+00
        -11   -1    0    0    0    0  0.00000000000E+00  0.00000000000E+00  0.45593999997E+02  0.45594000000E+02  0.51100000000E-03 0. -1.
         11   -1    0    0    0    0 -0.00000000000E+00 -0.00000000000E+00 -0.45593999997E+02  0.45594000000E+02  0.51100000000E-03 0.  1.
         23    2    1    2    0    0  0.00000000000E+00  0.17763568394E-14  0.00000000000E+00  0.91188000000E+02  0.91188000000E+02 0.  0.
    9900012    2    3    3    0    0  0.24438356709E+02  0.14390824018E+02 -0.32852607726E+02  0.47787275019E+02  0.20000018120E+02 0.  0.
         12    1    3    3    0    0 -0.24438356709E+02 -0.14390824018E+02  0.32852607726E+02  0.43400724981E+02  0.00000000000E+00 0. -1.
         11    1    4    4    0    0  0.84912340502E+01  0.31882622272E+01 -0.33844949315E+01  0.96809543914E+01  0.51100000000E-03 0. -1.
        -11    1    4    4    0    0  0.93119736735E+00 -0.29877513568E+01 -0.64948331889E+01  0.72094829995E+01  0.51100000000E-03 0.  1.
        -12    1    4    4    0    0  0.15015925291E+02  0.14190313148E+02 -0.22973279605E+02  0.30896837628E+02  0.00000000000E+00 0.  1.
</event>
<event>
 8    1  0.3776180E-010  0.9118800E+02  0.7816164E-02  0.1184000E+00
        -11   -1    0    0    0    0  0.00000000000E+00  0.00000000000E+00  0.45593999997E+02  0.45594000000E+02  0.51100000000E-03 0.  1.
         11   -1    0    0    0    0 -0.00000000000E+00 -0.00000000000E+00 -0.45593999997E+02  0.45594000000E+02  0.51100000000E-03 0. -1.
         23    2    1    2    0    0  0.00000000000E+00  0.35527136788E-14  0.71054273576E-14  0.91188000000E+02  0.91188000000E+02 0.  0.
    9900012    2    3    3    0    0  0.11222258658E+02 -0.23907395992E+02 -0.34440102934E+02  0.47787270023E+02  0.19999995341E+02 0.  0.
         12    1    3    3    0    0 -0.11222258658E+02  0.23907395992E+02  0.34440102934E+02  0.43400729977E+02  0.00000000000E+00 0. -1.
         11    1    4    4    0    0  0.89925965365E+01 -0.14841336357E+02 -0.20958875871E+02  0.27210412260E+02  0.51100000000E-03 0.  1.
        -11    1    4    4    0    0  0.53748468396E+00 -0.50291095555E+01 -0.15088659497E+02  0.15913782655E+02  0.51100000000E-03 0. -1.
        -12    1    4    4    0    0  0.16921774377E+01 -0.40369500793E+01  0.16074324349E+01  0.46630751073E+01  0.00000000000E+00 0.  1.
</event>
<event>
 8    1  0.3776180E-010  0.9118800E+02  0.7816164E-02  0.1184000E+00
        -11   -1    0    0    0    0  0.00000000000E+00  0.00000000000E+00  0.45593999997E+02  0.45594000000E+02  0.51100000000E-03 0. -1.
         11   -1    0    0    0    0 -0.00000000000E+00 -0.00000000000E+00 -0.45593999997E+02  0.45594000000E+02  0.51100000000E-03 0.  1.
         23    2    1    2    0    0 -0.35527136788E-14 -0.35527136788E-14  0.00000000000E+00  0.91188000000E+02  0.91188000000E+02 0.  0.
    9900012    2    3    3    0    0  0.19614171332E+02 -0.20308111101E+02  0.32961921043E+02  0.47787270370E+02  0.19999996927E+02 0.  0.
        -12    1    3    3    0    0 -0.19614171332E+02  0.20308111101E+02 -0.32961921043E+02  0.43400729630E+02  0.00000000000E+00 0.  1.
         11    1    4    4    0    0  0.17555544441E+02 -0.15628953572E+02  0.25259020280E+02  0.34503325001E+02  0.51100000000E-03 0. -1.
        -11    1    4    4    0    0  0.53328169007E+01 -0.51577755345E+01  0.44906528188E+01  0.86722285233E+01  0.51100000000E-03 0.  1.
        -12    1    4    4    0    0 -0.32741900094E+01  0.47861800530E+00  0.32122479442E+01  0.46117168460E+01  0.00000000000E+00 0.  1.
</event>
<event>
 8    1  0.3776180E-010  0.9118800E+02  0.7816164E-02  0.1184000E+00
        -11   -1    0    0    0    0  0.00000000000E+00  0.00000000000E+00  0.45593999997E+02  0.45594000000E+02  0.51100000000E-03 0. -1.
         11   -1    0    0    0    0 -0.00000000000E+00 -0.00000000000E+00 -0.45593999997E+02  0.45594000000E+02  0.51100000000E-03 0.  1.
         23    2    1    2    0    0  0.00000000000E+00  0.00000000000E+00  0.00000000000E+00  0.91188000000E+02  0.91188000000E+02 0.  0.
    9900012    2    3    3    0    0 -0.10710546444E+02 -0.34227450352E+01 -0.41918877450E+02  0.47787271027E+02  0.19999999919E+02 0.  0.
         12    1    3    3    0    0  0.10710546444E+02  0.34227450352E+01  0.41918877450E+02  0.43400728973E+02  0.00000000000E+00 0. -1.
         11    1    4    4    0    0 -0.36952790401E+01  0.14873232398E+01 -0.63014115365E+01  0.74548645338E+01  0.51100000000E-03 0. -1.
        -11    1    4    4    0    0 -0.12181423426E+02 -0.16524870755E+01 -0.27918923436E+02  0.30505476169E+02  0.51100000000E-03 0.  1.
         12    1    4    4    0    0  0.51661560214E+01 -0.32575811995E+01 -0.76985424774E+01  0.98269303236E+01  0.00000000000E+00 0. -1.
</event>
<event>
 8    1  0.3776180E-010  0.9118800E+02  0.7816164E-02  0.1184000E+00
        -11   -1    0    0    0    0  0.00000000000E+00  0.00000000000E+00  0.45593999997E+02  0.45594000000E+02  0.51100000000E-03 0. -1.
         11   -1    0    0    0    0 -0.00000000000E+00 -0.00000000000E+00 -0.45593999997E+02  0.45594000000E+02  0.51100000000E-03 0.  1.
         23    2    1    2    0    0  0.44408920985E-15  0.71054273576E-14 -0.35527136788E-14  0.91188000000E+02  0.91188000000E+02 0.  0.
    9900012    2    3    3    0    0 -0.22275230772E+01  0.38609492535E+02 -0.19696907680E+02  0.47787274833E+02  0.20000017273E+02 0.  0.
         12    1    3    3    0    0  0.22275230772E+01 -0.38609492535E+02  0.19696907680E+02  0.43400725167E+02  0.00000000000E+00 0. -1.
         11    1    4    4    0    0 -0.37514199319E+01  0.82870701469E+01 -0.46742763835E+01  0.10227294026E+02  0.51100000000E-03 0. -1.
        -11    1    4    4    0    0  0.17926707670E+01  0.29781233863E+02 -0.17783941820E+02  0.34733329034E+02  0.51100000000E-03 0.  1.
         12    1    4    4    0    0 -0.26877391235E+00  0.54118852547E+00  0.27613105238E+01  0.28266517729E+01  0.00000000000E+00 0. -1.
</event>
<event>
 8    1  0.3776180E-010  0.9118800E+02  0.7816164E-02  0.1184000E+00
        -11   -1    0    0    0    0  0.00000000000E+00  0.00000000000E+00  0.45593999997E+02  0.45594000000E+02  0.51100000000E-03 0. -1.
         11   -1    0    0    0    0 -0.00000000000E+00 -0.00000000000E+00 -0.45593999997E+02  0.45594000000E+02  0.51100000000E-03 0.  1.
         23    2    1    2    0    0  0.00000000000E+00  0.00000000000E+00  0.00000000000E+00  0.91188000000E+02  0.91188000000E+02 0.  0.
    9900012    2    3    3    0    0 -0.34079735797E+02 -0.13604035190E+02  0.23175952207E+02  0.47787275050E+02  0.20000018263E+02 0.  0.
        -12    1    3    3    0    0  0.34079735797E+02  0.13604035190E+02 -0.23175952207E+02  0.43400724950E+02  0.00000000000E+00 0.  1.
         11    1    4    4    0    0 -0.99873268351E+01 -0.44556136816E+01  0.15266236633E+02  0.18779168559E+02  0.51100000000E-03 0.  1.
        -11    1    4    4    0    0 -0.47934317380E+00  0.71940453620E+00  0.27743917841E+01  0.29059529930E+01  0.51100000000E-03 0. -1.
         12    1    4    4    0    0 -0.23613065789E+02 -0.98678260448E+01  0.51353237900E+01  0.26102153498E+02  0.00000000000E+00 0. -1.
</event>
<event>
 8    1  0.3776180E-010  0.9118800E+02  0.7816164E-02  0.1184000E+00
        -11   -1    0    0    0    0  0.00000000000E+00  0.00000000000E+00  0.45593999997E+02  0.45594000000E+02  0.51100000000E-03 0. -1.
         11   -1    0    0    0    0 -0.00000000000E+00 -0.00000000000E+00 -0.45593999997E+02  0.45594000000E+02  0.51100000000E-03 0.  1.
         23    2    1    2    0    0 -0.44408920985E-15 -0.35527136788E-14  0.00000000000E+00  0.91188000000E+02  0.91188000000E+02 0.  0.
    9900012    2    3    3    0    0  0.23986144944E+01  0.31794777895E+02 -0.29444219190E+02  0.47787270783E+02  0.19999998807E+02 0.  0.
         12    1    3    3    0    0 -0.23986144944E+01 -0.31794777895E+02  0.29444219190E+02  0.43400729217E+02  0.00000000000E+00 0. -1.
         11    1    4    4    0    0  0.39511153285E+01  0.20524875514E+02 -0.28325912862E+02  0.35202828962E+02  0.51100000000E-03 0. -1.
        -11    1    4    4    0    0 -0.15206339472E+01  0.52610420264E+01 -0.30552874965E+01  0.62710184781E+01  0.51100000000E-03 0.  1.
         12    1    4    4    0    0 -0.31866886866E-01  0.60088603546E+01  0.19369811684E+01  0.63134233428E+01  0.00000000000E+00 0. -1.
</event>
<event>
 8    1  0.3776180E-010  0.9118800E+02  0.7816164E-02  0.1184000E+00
        -11   -1    0    0    0    0  0.00000000000E+00  0.00000000000E+00  0.45593999997E+02  0.45594000000E+02  0.51100000000E-03 0. -1.
         11   -1    0    0    0    0 -0.00000000000E+00 -0.00000000000E+00 -0.45593999997E+02  0.45594000000E+02  0.51100000000E-03 0.  1.
         23    2    1    2    0    0  0.00000000000E+00 -0.71054273576E-14  0.00000000000E+00  0.91188000000E+02  0.91188000000E+02 0.  0.
    9900012    2    3    3    0    0 -0.96872824816E+01 -0.33885118536E+02 -0.25329402783E+02  0.47787270220E+02  0.19999996242E+02 0.  0.
         12    1    3    3    0    0  0.96872824816E+01  0.33885118536E+02  0.25329402783E+02  0.43400729780E+02  0.00000000000E+00 0. -1.
         11    1    4    4    0    0  0.19323617364E+01 -0.21084351564E+02 -0.14963366866E+02  0.25926554938E+02  0.51100000000E-03 0. -1.
        -11    1    4    4    0    0 -0.69734474204E+01 -0.11988855982E+02 -0.10060858516E+02  0.17134249648E+02  0.51100000000E-03 0.  1.
         12    1    4    4    0    0 -0.46461967977E+01 -0.81191099022E+00 -0.30517740187E+00  0.47264656336E+01  0.00000000000E+00 0. -1.
</event>
<event>
 8    1  0.3776180E-010  0.9118800E+02  0.7816164E-02  0.1184000E+00
        -11   -1    0    0    0    0  0.00000000000E+00  0.00000000000E+00  0.45593999997E+02  0.45594000000E+02  0.51100000000E-03 0. -1.
         11   -1    0    0    0    0 -0.00000000000E+00 -0.00000000000E+00 -0.45593999997E+02  0.45594000000E+02  0.51100000000E-03 0.  1.
         23    2    1    2    0    0  0.13322676296E-14 -0.88817841970E-15  0.00000000000E+00  0.91188000000E+02  0.91188000000E+02 0.  0.
    9900012    2    3    3    0    0 -0.45990647759E+00  0.55127769935E+01 -0.43046718960E+02  0.47787282985E+02  0.20000054444E+02 0.  0.
         12    1    3    3    0    0  0.45990647759E+00 -0.55127769935E+01  0.43046718960E+02  0.43400717015E+02  0.00000000000E+00 0. -1.
         11    1    4    4    0    0  0.12581368344E+01  0.39425552813E+01 -0.82094440350E+01  0.91935641655E+01  0.51100000000E-03 0. -1.
        -11    1    4    4    0    0 -0.59510585733E+01  0.24058148944E+01 -0.42381205898E+01  0.76918599729E+01  0.51100000000E-03 0.  1.
         12    1    4    4    0    0  0.42330152613E+01 -0.83559318220E+00 -0.30599154335E+02  0.30901858847E+02  0.00000000000E+00 0. -1.
</event>
<event>
 8    1  0.3776180E-010  0.9118800E+02  0.7816164E-02  0.1184000E+00
        -11   -1    0    0    0    0  0.00000000000E+00  0.00000000000E+00  0.45593999997E+02  0.45594000000E+02  0.51100000000E-03 0. -1.
         11   -1    0    0    0    0 -0.00000000000E+00 -0.00000000000E+00 -0.45593999997E+02  0.45594000000E+02  0.51100000000E-03 0.  1.
         23    2    1    2    0    0  0.00000000000E+00  0.00000000000E+00  0.00000000000E+00  0.91188000000E+02  0.91188000000E+02 0.  0.
    9900012    2    3    3    0    0 -0.20332056724E+01 -0.21906880466E+02  0.37410995056E+02  0.47787217886E+02  0.19999757627E+02 0.  0.
        -12    1    3    3    0    0  0.20332056724E+01  0.21906880466E+02 -0.37410995056E+02  0.43400782114E+02  0.00000000000E+00 0.  1.
         11    1    4    4    0    0  0.93715000187E+00 -0.12928836181E+02  0.12983726226E+02  0.18346939856E+02  0.51100000000E-03 0. -1.
        -11    1    4    4    0    0  0.27188757856E+01 -0.67013236828E+01  0.21432565628E+02  0.22619789882E+02  0.51100000000E-03 0.  1.
         12    1    4    4    0    0 -0.56892314599E+01 -0.22767206024E+01  0.29947032021E+01  0.68204881478E+01  0.00000000000E+00 0. -1.
</event>
<event>
 8    1  0.3776180E-010  0.9118800E+02  0.7816164E-02  0.1184000E+00
        -11   -1    0    0    0    0  0.00000000000E+00  0.00000000000E+00  0.45593999997E+02  0.45594000000E+02  0.51100000000E-03 0. -1.
         11   -1    0    0    0    0 -0.00000000000E+00 -0.00000000000E+00 -0.45593999997E+02  0.45594000000E+02  0.51100000000E-03 0.  1.
         23    2    1    2    0    0 -0.17763568394E-14  0.17763568394E-14 -0.71054273576E-14  0.91188000000E+02  0.91188000000E+02 0.  0.
    9900012    2    3    3    0    0 -0.10310675679E+02  0.13237983045E+02 -0.40025854591E+02  0.47787271161E+02  0.20000000530E+02 0.  0.
         12    1    3    3    0    0  0.10310675679E+02 -0.13237983045E+02  0.40025854591E+02  0.43400728839E+02  0.00000000000E+00 0. -1.
         11    1    4    4    0    0 -0.44112867551E+01  0.83009845571E+01 -0.52722302367E+01  0.10777857272E+02  0.51100000000E-03 0. -1.
        -11    1    4    4    0    0  0.52814588383E+00 -0.20877365628E+01 -0.21466200321E+01  0.30406512220E+01  0.51100000000E-03 0.  1.
        -12    1    4    4    0    0 -0.64275348073E+01  0.70247350507E+01 -0.32607004322E+02  0.33968762667E+02  0.00000000000E+00 0.  1.
</event>
<event>
 8    1  0.3776180E-010  0.9118800E+02  0.7816164E-02  0.1184000E+00
        -11   -1    0    0    0    0  0.00000000000E+00  0.00000000000E+00  0.45593999997E+02  0.45594000000E+02  0.51100000000E-03 0. -1.
         11   -1    0    0    0    0 -0.00000000000E+00 -0.00000000000E+00 -0.45593999997E+02  0.45594000000E+02  0.51100000000E-03 0.  1.
         23    2    1    2    0    0  0.00000000000E+00 -0.17763568394E-14  0.00000000000E+00  0.91188000000E+02  0.91188000000E+02 0.  0.
    9900012    2    3    3    0    0 -0.37927094312E+02  0.99676179363E+01 -0.18595844973E+02  0.47787270276E+02  0.19999996498E+02 0.  0.
         12    1    3    3    0    0  0.37927094312E+02 -0.99676179363E+01  0.18595844973E+02  0.43400729724E+02  0.00000000000E+00 0. -1.
         11    1    4    4    0    0 -0.17112027628E+00 -0.18846169725E+01 -0.12988901038E+01  0.22952514121E+01  0.51100000000E-03 0. -1.
        -11    1    4    4    0    0 -0.77798172313E+01  0.89987457635E+01 -0.37430634920E+01  0.12470505444E+02  0.51100000000E-03 0.  1.
         12    1    4    4    0    0 -0.29976156805E+02  0.28534891452E+01 -0.13553891377E+02  0.33021513420E+02  0.00000000000E+00 0. -1.
</event>
<event>
 8    1  0.3776180E-010  0.9118800E+02  0.7816164E-02  0.1184000E+00
        -11   -1    0    0    0    0  0.00000000000E+00  0.00000000000E+00  0.45593999997E+02  0.45594000000E+02  0.51100000000E-03 0. -1.
         11   -1    0    0    0    0 -0.00000000000E+00 -0.00000000000E+00 -0.45593999997E+02  0.45594000000E+02  0.51100000000E-03 0.  1.
         23    2    1    2    0    0  0.00000000000E+00  0.00000000000E+00  0.00000000000E+00  0.91188000000E+02  0.91188000000E+02 0.  0.
    9900012    2    3    3    0    0 -0.28662475019E+02 -0.88384780118E+01 -0.31368246897E+02  0.47787273265E+02  0.20000010122E+02 0.  0.
         12    1    3    3    0    0  0.28662475019E+02  0.88384780118E+01  0.31368246897E+02  0.43400726735E+02  0.00000000000E+00 0. -1.
         11    1    4    4    0    0 -0.59940109151E+01 -0.19912962671E+00 -0.99188055792E+01  0.11590967338E+02  0.51100000000E-03 0. -1.
        -11    1    4    4    0    0 -0.42494430179E+01  0.24537403177E+01 -0.11502431276E+02  0.12505380163E+02  0.51100000000E-03 0.  1.
         12    1    4    4    0    0 -0.18419021086E+02 -0.11093088703E+02 -0.99470100419E+01  0.23690925763E+02  0.00000000000E+00 0. -1.
</event>
<event>
 8    1  0.3776180E-010  0.9118800E+02  0.7816164E-02  0.1184000E+00
        -11   -1    0    0    0    0  0.00000000000E+00  0.00000000000E+00  0.45593999997E+02  0.45594000000E+02  0.51100000000E-03 0.  1.
         11   -1    0    0    0    0 -0.00000000000E+00 -0.00000000000E+00 -0.45593999997E+02  0.45594000000E+02  0.51100000000E-03 0. -1.
         23    2    1    2    0    0  0.00000000000E+00  0.00000000000E+00  0.00000000000E+00  0.91188000000E+02  0.91188000000E+02 0.  0.
    9900012    2    3    3    0    0 -0.16927570574E+02 -0.32793070724E+02 -0.22840646647E+02  0.47787271063E+02  0.20000000084E+02 0.  0.
        -12    1    3    3    0    0  0.16927570574E+02  0.32793070724E+02  0.22840646647E+02  0.43400728937E+02  0.00000000000E+00 0.  1.
         11    1    4    4    0    0 -0.20538459211E+01  0.20081831190E+00 -0.27470035995E+01  0.34357881336E+01  0.51100000000E-03 0. -1.
        -11    1    4    4    0    0 -0.53825713725E+01 -0.87547187138E+00 -0.32953932313E+00  0.54632519624E+01  0.51100000000E-03 0.  1.
         12    1    4    4    0    0 -0.94911532801E+01 -0.32118417164E+02 -0.19764103725E+02  0.38888230967E+02  0.00000000000E+00 0. -1.
</event>
<event>
 8    1  0.3776180E-010  0.9118800E+02  0.7816164E-02  0.1184000E+00
        -11   -1    0    0    0    0  0.00000000000E+00  0.00000000000E+00  0.45593999997E+02  0.45594000000E+02  0.51100000000E-03 0. -1.
         11   -1    0    0    0    0 -0.00000000000E+00 -0.00000000000E+00 -0.45593999997E+02  0.45594000000E+02  0.51100000000E-03 0.  1.
         23    2    1    2    0    0  0.00000000000E+00 -0.17763568394E-14  0.71054273576E-14  0.91188000000E+02  0.91188000000E+02 0.  0.
    9900012    2    3    3    0    0  0.16269996186E+02  0.84619150858E+01  0.39335817523E+02  0.47787270478E+02  0.19999997420E+02 0.  0.
        -12    1    3    3    0    0 -0.16269996186E+02 -0.84619150858E+01 -0.39335817523E+02  0.43400729522E+02  0.00000000000E+00 0.  1.
         11    1    4    4    0    0  0.64821396209E+01 -0.27262535144E+01  0.18931173085E+02  0.20195046594E+02  0.51100000000E-03 0. -1.
        -11    1    4    4    0    0 -0.16334438374E+01 -0.90297896852E+00  0.28738625474E+01  0.34267471442E+01  0.51100000000E-03 0.  1.
         12    1    4    4    0    0  0.11421300402E+02  0.12091147569E+02  0.17530781891E+02  0.24165476741E+02  0.00000000000E+00 0. -1.
</event>
<event>
 8    1  0.3776180E-010  0.9118800E+02  0.7816164E-02  0.1184000E+00
        -11   -1    0    0    0    0  0.00000000000E+00  0.00000000000E+00  0.45593999997E+02  0.45594000000E+02  0.51100000000E-03 0. -1.
         11   -1    0    0    0    0 -0.00000000000E+00 -0.00000000000E+00 -0.45593999997E+02  0.45594000000E+02  0.51100000000E-03 0.  1.
         23    2    1    2    0    0  0.00000000000E+00 -0.17763568394E-14  0.00000000000E+00  0.91188000000E+02  0.91188000000E+02 0.  0.
    9900012    2    3    3    0    0 -0.40792780590E+02  0.19988508986E+01 -0.14682529464E+02  0.47787273916E+02  0.20000013093E+02 0.  0.
         12    1    3    3    0    0  0.40792780590E+02 -0.19988508986E+01  0.14682529464E+02  0.43400726084E+02  0.00000000000E+00 0. -1.
         11    1    4    4    0    0 -0.43778320339E+01  0.49848261506E+01 -0.23609361332E+01  0.70418694077E+01  0.51100000000E-03 0. -1.
        -11    1    4    4    0    0 -0.23932501626E+02  0.34954986042E+01 -0.43371924510E+01  0.24572227884E+02  0.51100000000E-03 0.  1.
        -12    1    4    4    0    0 -0.12482446930E+02 -0.64814738562E+01 -0.79844008801E+01  0.16173176624E+02  0.00000000000E+00 0.  1.
</event>
<event>
 8    1  0.3776180E-010  0.9118800E+02  0.7816164E-02  0.1184000E+00
        -11   -1    0    0    0    0  0.00000000000E+00  0.00000000000E+00  0.45593999997E+02  0.45594000000E+02  0.51100000000E-03 0. -1.
         11   -1    0    0    0    0 -0.00000000000E+00 -0.00000000000E+00 -0.45593999997E+02  0.45594000000E+02  0.51100000000E-03 0.  1.
         23    2    1    2    0    0  0.00000000000E+00  0.00000000000E+00  0.00000000000E+00  0.91188000000E+02  0.91188000000E+02 0.  0.
    9900012    2    3    3    0    0 -0.29874290789E+02 -0.14952069374E+02 -0.27705333527E+02  0.47787272650E+02  0.20000007319E+02 0.  0.
         12    1    3    3    0    0  0.29874290789E+02  0.14952069374E+02  0.27705333527E+02  0.43400727350E+02  0.00000000000E+00 0. -1.
         11    1    4    4    0    0 -0.34416970076E+01 -0.25951122094E+01 -0.95214474228E+01  0.10451691105E+02  0.51100000000E-03 0. -1.
        -11    1    4    4    0    0 -0.67033071913E+01 -0.10873950739E+02 -0.61396635008E+01  0.14172953120E+02  0.51100000000E-03 0.  1.
        -12    1    4    4    0    0 -0.19729286590E+02 -0.14830064254E+01 -0.12044222603E+02  0.23162628424E+02  0.00000000000E+00 0.  1.
</event>
<event>
 8    1  0.3776180E-010  0.9118800E+02  0.7816164E-02  0.1184000E+00
        -11   -1    0    0    0    0  0.00000000000E+00  0.00000000000E+00  0.45593999997E+02  0.45594000000E+02  0.51100000000E-03 0.  1.
         11   -1    0    0    0    0 -0.00000000000E+00 -0.00000000000E+00 -0.45593999997E+02  0.45594000000E+02  0.51100000000E-03 0. -1.
         23    2    1    2    0    0  0.00000000000E+00  0.00000000000E+00  0.88817841970E-15  0.91188000000E+02  0.91188000000E+02 0.  0.
    9900012    2    3    3    0    0  0.42046091091E+02 -0.83812068535E+01 -0.67457359327E+01  0.47787270080E+02  0.19999995601E+02 0.  0.
        -12    1    3    3    0    0 -0.42046091091E+02  0.83812068535E+01  0.67457359327E+01  0.43400729920E+02  0.00000000000E+00 0.  1.
         11    1    4    4    0    0  0.60014265372E+01 -0.33947766919E+01 -0.52645859748E+01  0.86751077812E+01  0.51100000000E-03 0. -1.
        -11    1    4    4    0    0  0.13150850557E+02 -0.66149893020E+01  0.45012571443E+01  0.15393643817E+02  0.51100000000E-03 0.  1.
         12    1    4    4    0    0  0.22893813997E+02  0.16285591404E+01 -0.59824071022E+01  0.23718518481E+02  0.00000000000E+00 0. -1.
</event>
<event>
 8    1  0.3776180E-010  0.9118800E+02  0.7816164E-02  0.1184000E+00
        -11   -1    0    0    0    0  0.00000000000E+00  0.00000000000E+00  0.45593999997E+02  0.45594000000E+02  0.51100000000E-03 0. -1.
         11   -1    0    0    0    0 -0.00000000000E+00 -0.00000000000E+00 -0.45593999997E+02  0.45594000000E+02  0.51100000000E-03 0.  1.
         23    2    1    2    0    0 -0.88817841970E-15  0.00000000000E+00  0.00000000000E+00  0.91188000000E+02  0.91188000000E+02 0.  0.
    9900012    2    3    3    0    0 -0.44140812974E+01  0.40006997206E+02 -0.16235113010E+02  0.47787276117E+02  0.20000023127E+02 0.  0.
         12    1    3    3    0    0  0.44140812974E+01 -0.40006997206E+02  0.16235113010E+02  0.43400723883E+02  0.00000000000E+00 0. -1.
         11    1    4    4    0    0 -0.11381080626E+01  0.65932506925E+01 -0.94232123137E+01  0.11556953544E+02  0.51100000000E-03 0.  1.
        -11    1    4    4    0    0  0.34404967059E+01  0.76156166729E+01 -0.44502695715E+01  0.94678157149E+01  0.51100000000E-03 0. -1.
        -12    1    4    4    0    0 -0.67164699407E+01  0.25798129840E+02 -0.23616311250E+01  0.26762506858E+02  0.00000000000E+00 0.  1.
</event>
<event>
 8    1  0.3776180E-010  0.9118800E+02  0.7816164E-02  0.1184000E+00
        -11   -1    0    0    0    0  0.00000000000E+00  0.00000000000E+00  0.45593999997E+02  0.45594000000E+02  0.51100000000E-03 0. -1.
         11   -1    0    0    0    0 -0.00000000000E+00 -0.00000000000E+00 -0.45593999997E+02  0.45594000000E+02  0.51100000000E-03 0.  1.
         23    2    1    2    0    0  0.00000000000E+00  0.00000000000E+00  0.00000000000E+00  0.91188000000E+02  0.91188000000E+02 0.  0.
    9900012    2    3    3    0    0  0.19819901678E+02  0.33612097687E+02  0.19000575024E+02  0.47787268846E+02  0.19999989976E+02 0.  0.
        -12    1    3    3    0    0 -0.19819901678E+02 -0.33612097687E+02 -0.19000575024E+02  0.43400731154E+02  0.00000000000E+00 0.  1.
         11    1    4    4    0    0  0.37013150674E+01  0.18371551690E+02  0.88045044795E+01  0.20705867383E+02  0.51100000000E-03 0. -1.
        -11    1    4    4    0    0 -0.12492452568E+01  0.34689345125E+01  0.34310637784E+01  0.50364987120E+01  0.51100000000E-03 0.  1.
         12    1    4    4    0    0  0.17367831868E+02  0.11771611485E+02  0.67650067665E+01  0.22044902751E+02  0.00000000000E+00 0. -1.
</event>
<event>
 8    1  0.3776180E-010  0.9118800E+02  0.7816164E-02  0.1184000E+00
        -11   -1    0    0    0    0  0.00000000000E+00  0.00000000000E+00  0.45593999997E+02  0.45594000000E+02  0.51100000000E-03 0.  1.
         11   -1    0    0    0    0 -0.00000000000E+00 -0.00000000000E+00 -0.45593999997E+02  0.45594000000E+02  0.51100000000E-03 0. -1.
         23    2    1    2    0    0  0.00000000000E+00  0.00000000000E+00 -0.17763568394E-14  0.91188000000E+02  0.91188000000E+02 0.  0.
    9900012    2    3    3    0    0 -0.19500820199E+02 -0.37476956362E+02 -0.99407783835E+01  0.47787270496E+02  0.19999997500E+02 0.  0.
         12    1    3    3    0    0  0.19500820199E+02  0.37476956362E+02  0.99407783835E+01  0.43400729504E+02  0.00000000000E+00 0. -1.
         11    1    4    4    0    0 -0.12902802642E+02 -0.15984797733E+02 -0.51881591658E+01  0.21187568770E+02  0.51100000000E-03 0. -1.
        -11    1    4    4    0    0 -0.63939952455E+01 -0.14774990790E+02  0.29610555371E+01  0.16369220452E+02  0.51100000000E-03 0.  1.
        -12    1    4    4    0    0 -0.20402231150E+00 -0.67171678392E+01 -0.77136747548E+01  0.10230481274E+02  0.00000000000E+00 0.  1.
</event>
<event>
 8    1  0.3776180E-010  0.9118800E+02  0.7816164E-02  0.1184000E+00
        -11   -1    0    0    0    0  0.00000000000E+00  0.00000000000E+00  0.45593999997E+02  0.45594000000E+02  0.51100000000E-03 0. -1.
         11   -1    0    0    0    0 -0.00000000000E+00 -0.00000000000E+00 -0.45593999997E+02  0.45594000000E+02  0.51100000000E-03 0.  1.
         23    2    1    2    0    0  0.00000000000E+00  0.44408920985E-15  0.00000000000E+00  0.91188000000E+02  0.91188000000E+02 0.  0.
    9900012    2    3    3    0    0  0.18085084314E+01 -0.31236976345E+01 -0.43250379283E+02  0.47787268465E+02  0.19999988238E+02 0.  0.
         12    1    3    3    0    0 -0.18085084314E+01  0.31236976345E+01  0.43250379283E+02  0.43400731535E+02  0.00000000000E+00 0. -1.
         11    1    4    4    0    0  0.90911307246E+01 -0.50200124364E+01 -0.23040106563E+02  0.25272429511E+02  0.51100000000E-03 0. -1.
        -11    1    4    4    0    0 -0.19371872566E+01 -0.23318575417E+01 -0.75649151611E+01  0.81497359293E+01  0.51100000000E-03 0.  1.
         12    1    4    4    0    0 -0.53454350365E+01  0.42281723436E+01 -0.12645357559E+02  0.14365103024E+02  0.00000000000E+00 0. -1.
</event>
<event>
 8    1  0.3776180E-010  0.9118800E+02  0.7816164E-02  0.1184000E+00
        -11   -1    0    0    0    0  0.00000000000E+00  0.00000000000E+00  0.45593999997E+02  0.45594000000E+02  0.51100000000E-03 0. -1.
         11   -1    0    0    0    0 -0.00000000000E+00 -0.00000000000E+00 -0.45593999997E+02  0.45594000000E+02  0.51100000000E-03 0.  1.
         23    2    1    2    0    0  0.35527136788E-14  0.00000000000E+00  0.00000000000E+00  0.91188000000E+02  0.91188000000E+02 0.  0.
    9900012    2    3    3    0    0 -0.17347009187E+02  0.50265147907E+01  0.39464388773E+02  0.47787279269E+02  0.20000037501E+02 0.  0.
        -12    1    3    3    0    0  0.17347009187E+02 -0.50265147907E+01 -0.39464388773E+02  0.43400720731E+02  0.00000000000E+00 0.  1.
         11    1    4    4    0    0 -0.13550213134E+01 -0.41721163637E+01  0.91050628538E+01  0.10106671437E+02  0.51100000000E-03 0. -1.
        -11    1    4    4    0    0 -0.66855471059E+01 -0.26937065327E+01  0.10349548103E+02  0.12612126751E+02  0.51100000000E-03 0.  1.
        -12    1    4    4    0    0 -0.93064407678E+01  0.11892337687E+02  0.20009777817E+02  0.25068481081E+02  0.00000000000E+00 0.  1.
</event>
<event>
 8    1  0.3776180E-010  0.9118800E+02  0.7816164E-02  0.1184000E+00
        -11   -1    0    0    0    0  0.00000000000E+00  0.00000000000E+00  0.45593999997E+02  0.45594000000E+02  0.51100000000E-03 0. -1.
         11   -1    0    0    0    0 -0.00000000000E+00 -0.00000000000E+00 -0.45593999997E+02  0.45594000000E+02  0.51100000000E-03 0.  1.
         23    2    1    2    0    0  0.00000000000E+00  0.00000000000E+00  0.00000000000E+00  0.91188000000E+02  0.91188000000E+02 0.  0.
    9900012    2    3    3    0    0 -0.36359301995E+02 -0.38587334708E+01  0.23382355940E+02  0.47787271494E+02  0.20000002049E+02 0.  0.
        -12    1    3    3    0    0  0.36359301995E+02  0.38587334708E+01 -0.23382355940E+02  0.43400728506E+02  0.00000000000E+00 0.  1.
         11    1    4    4    0    0 -0.10754924134E+02  0.22897987462E+01  0.64697894692E+01  0.12758124763E+02  0.51100000000E-03 0. -1.
        -11    1    4    4    0    0 -0.10007667492E+00 -0.80034764281E+00  0.71595003772E+01  0.72047912948E+01  0.51100000000E-03 0.  1.
        -12    1    4    4    0    0 -0.25504301186E+02 -0.53481845742E+01  0.97530660939E+01  0.27824355436E+02  0.00000000000E+00 0.  1.
</event>
<event>
 8    1  0.3776180E-010  0.9118800E+02  0.7816164E-02  0.1184000E+00
        -11   -1    0    0    0    0  0.00000000000E+00  0.00000000000E+00  0.45593999997E+02  0.45594000000E+02  0.51100000000E-03 0.  1.
         11   -1    0    0    0    0 -0.00000000000E+00 -0.00000000000E+00 -0.45593999997E+02  0.45594000000E+02  0.51100000000E-03 0. -1.
         23    2    1    2    0    0 -0.17763568394E-14 -0.17763568394E-14  0.00000000000E+00  0.91188000000E+02  0.91188000000E+02 0.  0.
    9900012    2    3    3    0    0  0.15558367304E+02  0.10798998416E+02 -0.39050504564E+02  0.47787273432E+02  0.20000010886E+02 0.  0.
         12    1    3    3    0    0 -0.15558367304E+02 -0.10798998416E+02  0.39050504564E+02  0.43400726568E+02  0.00000000000E+00 0. -1.
         11    1    4    4    0    0  0.31770770140E+01  0.61841574731E+01 -0.15749087798E+02  0.17215440416E+02  0.51100000000E-03 0. -1.
        -11    1    4    4    0    0 -0.32881514497E+01 -0.80992866509E-01 -0.26316925082E+01  0.42123990218E+01  0.51100000000E-03 0.  1.
        -12    1    4    4    0    0  0.15669441740E+02  0.46958338090E+01 -0.20669724258E+02  0.26359433994E+02  0.00000000000E+00 0.  1.
</event>
<event>
 8    1  0.3776180E-010  0.9118800E+02  0.7816164E-02  0.1184000E+00
        -11   -1    0    0    0    0  0.00000000000E+00  0.00000000000E+00  0.45593999997E+02  0.45594000000E+02  0.51100000000E-03 0. -1.
         11   -1    0    0    0    0 -0.00000000000E+00 -0.00000000000E+00 -0.45593999997E+02  0.45594000000E+02  0.51100000000E-03 0.  1.
         23    2    1    2    0    0  0.00000000000E+00 -0.88817841970E-15  0.00000000000E+00  0.91188000000E+02  0.91188000000E+02 0.  0.
    9900012    2    3    3    0    0 -0.17751513192E+02 -0.78827494635E+01 -0.38812020466E+02  0.47787229358E+02  0.19999809934E+02 0.  0.
         12    1    3    3    0    0  0.17751513192E+02  0.78827494635E+01  0.38812020466E+02  0.43400770642E+02  0.00000000000E+00 0. -1.
         11    1    4    4    0    0 -0.67667243214E+01 -0.46972835693E+01 -0.41575650839E+01  0.92270460420E+01  0.51100000000E-03 0. -1.
        -11    1    4    4    0    0 -0.69469611627E+01  0.18636799998E+01 -0.65713262330E+01  0.97424792152E+01  0.51100000000E-03 0.  1.
         12    1    4    4    0    0 -0.40378277077E+01 -0.50491458940E+01 -0.28083129149E+02  0.28817704101E+02  0.00000000000E+00 0. -1.
</event>
<event>
 8    1  0.3776180E-010  0.9118800E+02  0.7816164E-02  0.1184000E+00
        -11   -1    0    0    0    0  0.00000000000E+00  0.00000000000E+00  0.45593999997E+02  0.45594000000E+02  0.51100000000E-03 0. -1.
         11   -1    0    0    0    0 -0.00000000000E+00 -0.00000000000E+00 -0.45593999997E+02  0.45594000000E+02  0.51100000000E-03 0.  1.
         23    2    1    2    0    0  0.00000000000E+00  0.00000000000E+00  0.71054273576E-14  0.91188000000E+02  0.91188000000E+02 0.  0.
    9900012    2    3    3    0    0  0.61160356544E+01 -0.55888144544E+01  0.42602614453E+02  0.47787268470E+02  0.19999988260E+02 0.  0.
        -12    1    3    3    0    0 -0.61160356544E+01  0.55888144544E+01 -0.42602614453E+02  0.43400731530E+02  0.00000000000E+00 0.  1.
         11    1    4    4    0    0 -0.27962809206E+01  0.49281972222E+01  0.18061697739E+02  0.18929639202E+02  0.51100000000E-03 0. -1.
        -11    1    4    4    0    0 -0.21451952227E+00 -0.37970408702E+01  0.71708768120E+01  0.81169583287E+01  0.51100000000E-03 0.  1.
         12    1    4    4    0    0  0.91268360973E+01 -0.67199708064E+01  0.17370039902E+02  0.20740670939E+02  0.00000000000E+00 0. -1.
</event>
<event>
 8    1  0.3776180E-010  0.9118800E+02  0.7816164E-02  0.1184000E+00
        -11   -1    0    0    0    0  0.00000000000E+00  0.00000000000E+00  0.45593999997E+02  0.45594000000E+02  0.51100000000E-03 0. -1.
         11   -1    0    0    0    0 -0.00000000000E+00 -0.00000000000E+00 -0.45593999997E+02  0.45594000000E+02  0.51100000000E-03 0.  1.
         23    2    1    2    0    0  0.88817841970E-15  0.00000000000E+00 -0.71054273576E-14  0.91188000000E+02  0.91188000000E+02 0.  0.
    9900012    2    3    3    0    0  0.44269811499E+01 -0.22846412020E+02 -0.36634228754E+02  0.47787269353E+02  0.19999992289E+02 0.  0.
         12    1    3    3    0    0 -0.44269811499E+01  0.22846412020E+02  0.36634228754E+02  0.43400730647E+02  0.00000000000E+00 0. -1.
         11    1    4    4    0    0  0.41184321422E+01 -0.11151455911E+02 -0.98214523853E+01  0.15420031760E+02  0.51100000000E-03 0. -1.
        -11    1    4    4    0    0  0.63638708020E+01 -0.93441700930E+01 -0.13937403482E+02  0.17946130011E+02  0.51100000000E-03 0.  1.
         12    1    4    4    0    0 -0.60553217944E+01 -0.23507860158E+01 -0.12875372887E+02  0.14421107582E+02  0.00000000000E+00 0. -1.
</event>
<event>
 8    1  0.3776180E-010  0.9118800E+02  0.7816164E-02  0.1184000E+00
        -11   -1    0    0    0    0  0.00000000000E+00  0.00000000000E+00  0.45593999997E+02  0.45594000000E+02  0.51100000000E-03 0.  1.
         11   -1    0    0    0    0 -0.00000000000E+00 -0.00000000000E+00 -0.45593999997E+02  0.45594000000E+02  0.51100000000E-03 0. -1.
         23    2    1    2    0    0  0.22204460493E-15  0.00000000000E+00  0.88817841970E-15  0.91188000000E+02  0.91188000000E+02 0.  0.
    9900012    2    3    3    0    0  0.19833222486E+01  0.43035836602E+02  0.52541731187E+01  0.47787272652E+02  0.20000007328E+02 0.  0.
        -12    1    3    3    0    0 -0.19833222486E+01 -0.43035836602E+02 -0.52541731187E+01  0.43400727348E+02  0.00000000000E+00 0.  1.
         11    1    4    4    0    0  0.13117982806E+00  0.68035880727E-01  0.27750929776E+00  0.31440213075E+00  0.51100000000E-03 0.  1.
        -11    1    4    4    0    0  0.24936171157E+01  0.15288456380E+02 -0.73742288193E+01  0.17156173109E+02  0.51100000000E-03 0. -1.
         12    1    4    4    0    0 -0.64147469519E+00  0.27679344342E+02  0.12350892640E+02  0.30316697412E+02  0.00000000000E+00 0. -1.
</event>
<event>
 8    1  0.3776180E-010  0.9118800E+02  0.7816164E-02  0.1184000E+00
        -11   -1    0    0    0    0  0.00000000000E+00  0.00000000000E+00  0.45593999997E+02  0.45594000000E+02  0.51100000000E-03 0. -1.
         11   -1    0    0    0    0 -0.00000000000E+00 -0.00000000000E+00 -0.45593999997E+02  0.45594000000E+02  0.51100000000E-03 0.  1.
         23    2    1    2    0    0  0.00000000000E+00  0.00000000000E+00  0.00000000000E+00  0.91188000000E+02  0.91188000000E+02 0.  0.
    9900012    2    3    3    0    0  0.12757650872E+02 -0.37149731129E+02 -0.18459769878E+02  0.47787270943E+02  0.19999999538E+02 0.  0.
         12    1    3    3    0    0 -0.12757650872E+02  0.37149731129E+02  0.18459769878E+02  0.43400729057E+02  0.00000000000E+00 0. -1.
         11    1    4    4    0    0  0.41049021177E+01 -0.32346932388E+00 -0.37061118140E+01  0.55398663195E+01  0.51100000000E-03 0. -1.
        -11    1    4    4    0    0 -0.25063252843E+01 -0.48096617514E+01 -0.43039803353E+00  0.54405657171E+01  0.51100000000E-03 0.  1.
        -12    1    4    4    0    0  0.11159074038E+02 -0.32016600054E+02 -0.14323260030E+02  0.36806838907E+02  0.00000000000E+00 0.  1.
</event>
<event>
 8    1  0.3776180E-010  0.9118800E+02  0.7816164E-02  0.1184000E+00
        -11   -1    0    0    0    0  0.00000000000E+00  0.00000000000E+00  0.45593999997E+02  0.45594000000E+02  0.51100000000E-03 0. -1.
         11   -1    0    0    0    0 -0.00000000000E+00 -0.00000000000E+00 -0.45593999997E+02  0.45594000000E+02  0.51100000000E-03 0.  1.
         23    2    1    2    0    0  0.17763568394E-14  0.00000000000E+00  0.00000000000E+00  0.91188000000E+02  0.91188000000E+02 0.  0.
    9900012    2    3    3    0    0  0.39694838127E+01  0.17957351418E+02 -0.39311574723E+02  0.47787272138E+02  0.20000004987E+02 0.  0.
         12    1    3    3    0    0 -0.39694838127E+01 -0.17957351418E+02  0.39311574723E+02  0.43400727862E+02  0.00000000000E+00 0. -1.
         11    1    4    4    0    0  0.49675119257E+01  0.16936414403E+01 -0.19371456673E+01  0.55943837603E+01  0.51100000000E-03 0. -1.
        -11    1    4    4    0    0  0.17100310195E+01  0.91344066076E+01 -0.94820242520E+01  0.13276685367E+02  0.51100000000E-03 0.  1.
        -12    1    4    4    0    0 -0.27080591326E+01  0.71293033703E+01 -0.27892404804E+02  0.28916203011E+02  0.00000000000E+00 0.  1.
</event>
<event>
 8    1  0.3776180E-010  0.9118800E+02  0.7816164E-02  0.1184000E+00
        -11   -1    0    0    0    0  0.00000000000E+00  0.00000000000E+00  0.45593999997E+02  0.45594000000E+02  0.51100000000E-03 0. -1.
         11   -1    0    0    0    0 -0.00000000000E+00 -0.00000000000E+00 -0.45593999997E+02  0.45594000000E+02  0.51100000000E-03 0.  1.
         23    2    1    2    0    0  0.00000000000E+00  0.88817841970E-15  0.00000000000E+00  0.91188000000E+02  0.91188000000E+02 0.  0.
    9900012    2    3    3    0    0 -0.35686574630E+01 -0.51973684596E+01  0.42940363354E+02  0.47787276964E+02  0.20000026992E+02 0.  0.
        -12    1    3    3    0    0  0.35686574630E+01  0.51973684596E+01 -0.42940363354E+02  0.43400723036E+02  0.00000000000E+00 0.  1.
         11    1    4    4    0    0 -0.48857598077E+00 -0.35467547292E+01  0.74933605461E+01  0.83047352837E+01  0.51100000000E-03 0. -1.
        -11    1    4    4    0    0 -0.13556107110E+01 -0.91187199721E+01  0.14554976703E+02  0.17228931523E+02  0.51100000000E-03 0.  1.
        -12    1    4    4    0    0 -0.17244707713E+01  0.74681062417E+01  0.20892026105E+02  0.22253610158E+02  0.00000000000E+00 0.  1.
</event>
<event>
 8    1  0.3776180E-010  0.9118800E+02  0.7816164E-02  0.1184000E+00
        -11   -1    0    0    0    0  0.00000000000E+00  0.00000000000E+00  0.45593999997E+02  0.45594000000E+02  0.51100000000E-03 0. -1.
         11   -1    0    0    0    0 -0.00000000000E+00 -0.00000000000E+00 -0.45593999997E+02  0.45594000000E+02  0.51100000000E-03 0.  1.
         23    2    1    2    0    0  0.00000000000E+00  0.00000000000E+00  0.00000000000E+00  0.91188000000E+02  0.91188000000E+02 0.  0.
    9900012    2    3    3    0    0  0.45283671917E+01  0.41353393343E+02 -0.12369934202E+02  0.47787256659E+02  0.19999934411E+02 0.  0.
         12    1    3    3    0    0 -0.45283671917E+01 -0.41353393343E+02  0.12369934202E+02  0.43400743341E+02  0.00000000000E+00 0. -1.
         11    1    4    4    0    0  0.10200582696E+02  0.25998121536E+02 -0.11420166139E+02  0.30172411333E+02  0.51100000000E-03 0. -1.
        -11    1    4    4    0    0 -0.15018124432E+01  0.27322160999E+01 -0.28025590936E+01  0.41922289018E+01  0.51100000000E-03 0.  1.
         12    1    4    4    0    0 -0.41704030612E+01  0.12623055707E+02  0.18527910305E+01  0.13422616424E+02  0.00000000000E+00 0. -1.
</event>
<event>
 8    1  0.3776180E-010  0.9118800E+02  0.7816164E-02  0.1184000E+00
        -11   -1    0    0    0    0  0.00000000000E+00  0.00000000000E+00  0.45593999997E+02  0.45594000000E+02  0.51100000000E-03 0.  1.
         11   -1    0    0    0    0 -0.00000000000E+00 -0.00000000000E+00 -0.45593999997E+02  0.45594000000E+02  0.51100000000E-03 0. -1.
         23    2    1    2    0    0 -0.35527136788E-14  0.00000000000E+00 -0.88817841970E-15  0.91188000000E+02  0.91188000000E+02 0.  0.
    9900012    2    3    3    0    0 -0.27203554232E+02  0.33603423098E+02 -0.37946876682E+01  0.47787273494E+02  0.20000011170E+02 0.  0.
         12    1    3    3    0    0  0.27203554232E+02 -0.33603423098E+02  0.37946876682E+01  0.43400726506E+02  0.00000000000E+00 0. -1.
         11    1    4    4    0    0 -0.16949283000E+02  0.21751723533E+02  0.31137758246E+01  0.27750878743E+02  0.51100000000E-03 0. -1.
        -11    1    4    4    0    0 -0.10211055036E+02  0.13148514773E+02 -0.44114302975E+01  0.17222363461E+02  0.51100000000E-03 0.  1.
         12    1    4    4    0    0 -0.43216196283E-01 -0.12968152078E+01 -0.24970331952E+01  0.28140312900E+01  0.00000000000E+00 0. -1.
</event>
<event>
 8    1  0.3776180E-010  0.9118800E+02  0.7816164E-02  0.1184000E+00
        -11   -1    0    0    0    0  0.00000000000E+00  0.00000000000E+00  0.45593999997E+02  0.45594000000E+02  0.51100000000E-03 0. -1.
         11   -1    0    0    0    0 -0.00000000000E+00 -0.00000000000E+00 -0.45593999997E+02  0.45594000000E+02  0.51100000000E-03 0.  1.
         23    2    1    2    0    0  0.00000000000E+00  0.00000000000E+00  0.00000000000E+00  0.91188000000E+02  0.91188000000E+02 0.  0.
    9900012    2    3    3    0    0 -0.30132662792E+02 -0.30749273068E+02  0.54890583651E+01  0.47787252047E+02  0.19999913384E+02 0.  0.
        -12    1    3    3    0    0  0.30132662792E+02  0.30749273068E+02 -0.54890583651E+01  0.43400747953E+02  0.00000000000E+00 0.  1.
         11    1    4    4    0    0  0.19773476828E+00 -0.41170016631E+01  0.10975162862E+01  0.42653656341E+01  0.51100000000E-03 0. -1.
        -11    1    4    4    0    0 -0.16951526907E+02 -0.19939088905E+02 -0.38332941085E+01  0.26450249050E+02  0.51100000000E-03 0.  1.
         12    1    4    4    0    0 -0.13378870653E+02 -0.66931824992E+01  0.82248361875E+01  0.17071637363E+02  0.00000000000E+00 0. -1.
</event>
<event>
 8    1  0.3776180E-010  0.9118800E+02  0.7816164E-02  0.1184000E+00
        -11   -1    0    0    0    0  0.00000000000E+00  0.00000000000E+00  0.45593999997E+02  0.45594000000E+02  0.51100000000E-03 0. -1.
         11   -1    0    0    0    0 -0.00000000000E+00 -0.00000000000E+00 -0.45593999997E+02  0.45594000000E+02  0.51100000000E-03 0.  1.
         23    2    1    2    0    0  0.88817841970E-15  0.00000000000E+00  0.00000000000E+00  0.91188000000E+02  0.91188000000E+02 0.  0.
    9900012    2    3    3    0    0  0.53277840513E+01 -0.26508374172E+01 -0.42990881049E+02  0.47787215730E+02  0.19999747797E+02 0.  0.
         12    1    3    3    0    0 -0.53277840513E+01  0.26508374172E+01  0.42990881049E+02  0.43400784270E+02  0.00000000000E+00 0. -1.
         11    1    4    4    0    0  0.58498083308E+01 -0.20378378910E+01 -0.79678493948E+01  0.10092554930E+02  0.51100000000E-03 0. -1.
        -11    1    4    4    0    0  0.62299388807E+01 -0.25787691022E+01 -0.20028436943E+02  0.21132923962E+02  0.51100000000E-03 0.  1.
         12    1    4    4    0    0 -0.67519631602E+01  0.19657695760E+01 -0.14994594711E+02  0.16561736838E+02  0.00000000000E+00 0. -1.
</event>
<event>
 8    1  0.3776180E-010  0.9118800E+02  0.7816164E-02  0.1184000E+00
        -11   -1    0    0    0    0  0.00000000000E+00  0.00000000000E+00  0.45593999997E+02  0.45594000000E+02  0.51100000000E-03 0. -1.
         11   -1    0    0    0    0 -0.00000000000E+00 -0.00000000000E+00 -0.45593999997E+02  0.45594000000E+02  0.51100000000E-03 0.  1.
         23    2    1    2    0    0 -0.35527136788E-14  0.00000000000E+00  0.00000000000E+00  0.91188000000E+02  0.91188000000E+02 0.  0.
    9900012    2    3    3    0    0  0.22145242935E+02  0.21486646153E+02 -0.30521073388E+02  0.47787266500E+02  0.19999979281E+02 0.  0.
         12    1    3    3    0    0 -0.22145242935E+02 -0.21486646153E+02  0.30521073388E+02  0.43400733500E+02  0.00000000000E+00 0. -1.
         11    1    4    4    0    0  0.20436273474E+01  0.50418492914E+01 -0.98960599502E+01  0.11292858797E+02  0.51100000000E-03 0. -1.
        -11    1    4    4    0    0  0.19944118483E+02  0.12486588055E+02 -0.22086350406E+02  0.32272118273E+02  0.51100000000E-03 0.  1.
         12    1    4    4    0    0  0.15749710497E+00  0.39582088075E+01  0.14613369680E+01  0.42222894306E+01  0.00000000000E+00 0. -1.
</event>
<event>
 8    1  0.3776180E-010  0.9118800E+02  0.7816164E-02  0.1184000E+00
        -11   -1    0    0    0    0  0.00000000000E+00  0.00000000000E+00  0.45593999997E+02  0.45594000000E+02  0.51100000000E-03 0. -1.
         11   -1    0    0    0    0 -0.00000000000E+00 -0.00000000000E+00 -0.45593999997E+02  0.45594000000E+02  0.51100000000E-03 0.  1.
         23    2    1    2    0    0  0.00000000000E+00  0.00000000000E+00  0.00000000000E+00  0.91188000000E+02  0.91188000000E+02 0.  0.
    9900012    2    3    3    0    0  0.43300556191E+02  0.14205697898E+01 -0.25820879586E+01  0.47787270016E+02  0.19999995310E+02 0.  0.
         12    1    3    3    0    0 -0.43300556191E+02 -0.14205697898E+01  0.25820879586E+01  0.43400729984E+02  0.00000000000E+00 0. -1.
         11    1    4    4    0    0  0.79642125387E+00  0.22115534533E+01  0.14509005202E+01  0.27623120879E+01  0.51100000000E-03 0. -1.
        -11    1    4    4    0    0  0.13525300326E+02 -0.46349464447E+01  0.37361071762E+01  0.14777515845E+02  0.51100000000E-03 0.  1.
        -12    1    4    4    0    0  0.28978834611E+02  0.38439627812E+01 -0.77690956550E+01  0.30247442083E+02  0.00000000000E+00 0.  1.
</event>
<event>
 8    1  0.3776180E-010  0.9118800E+02  0.7816164E-02  0.1184000E+00
        -11   -1    0    0    0    0  0.00000000000E+00  0.00000000000E+00  0.45593999997E+02  0.45594000000E+02  0.51100000000E-03 0. -1.
         11   -1    0    0    0    0 -0.00000000000E+00 -0.00000000000E+00 -0.45593999997E+02  0.45594000000E+02  0.51100000000E-03 0.  1.
         23    2    1    2    0    0  0.00000000000E+00 -0.17763568394E-14  0.00000000000E+00  0.91188000000E+02  0.91188000000E+02 0.  0.
    9900012    2    3    3    0    0  0.11243562172E+02 -0.15092779659E+02  0.39107723384E+02  0.47787265946E+02  0.19999976755E+02 0.  0.
        -12    1    3    3    0    0 -0.11243562172E+02  0.15092779659E+02 -0.39107723384E+02  0.43400734054E+02  0.00000000000E+00 0.  1.
         11    1    4    4    0    0  0.54819849818E+01 -0.38199502348E+01  0.16152566260E+02  0.17479976435E+02  0.51100000000E-03 0. -1.
        -11    1    4    4    0    0 -0.38778245201E-01  0.32124924765E+01  0.98563989715E+00  0.33605204852E+01  0.51100000000E-03 0.  1.
         12    1    4    4    0    0  0.58003554354E+01 -0.14485321901E+02  0.21969517227E+02  0.26946769026E+02  0.00000000000E+00 0. -1.
</event>
<event>
 8    1  0.3776180E-010  0.9118800E+02  0.7816164E-02  0.1184000E+00
        -11   -1    0    0    0    0  0.00000000000E+00  0.00000000000E+00  0.45593999997E+02  0.45594000000E+02  0.51100000000E-03 0. -1.
         11   -1    0    0    0    0 -0.00000000000E+00 -0.00000000000E+00 -0.45593999997E+02  0.45594000000E+02  0.51100000000E-03 0.  1.
         23    2    1    2    0    0  0.00000000000E+00 -0.35527136788E-14  0.00000000000E+00  0.91188000000E+02  0.91188000000E+02 0.  0.
    9900012    2    3    3    0    0  0.21750835976E+02  0.26531403116E+02 -0.26582112973E+02  0.47787274809E+02  0.20000017164E+02 0.  0.
         12    1    3    3    0    0 -0.21750835976E+02 -0.26531403116E+02  0.26582112973E+02  0.43400725191E+02  0.00000000000E+00 0. -1.
         11    1    4    4    0    0  0.32312512976E+01  0.46780395893E+01 -0.92751902280E+01  0.10879071347E+02  0.51100000000E-03 0. -1.
        -11    1    4    4    0    0 -0.25880197310E+01  0.74002199711E+00 -0.20328678178E+01  0.33731336336E+01  0.51100000000E-03 0.  1.
        -12    1    4    4    0    0  0.21107604410E+02  0.21113341530E+02 -0.15274054927E+02  0.33535069828E+02  0.00000000000E+00 0.  1.
</event>
<event>
 8    1  0.3776180E-010  0.9118800E+02  0.7816164E-02  0.1184000E+00
        -11   -1    0    0    0    0  0.00000000000E+00  0.00000000000E+00  0.45593999997E+02  0.45594000000E+02  0.51100000000E-03 0. -1.
         11   -1    0    0    0    0 -0.00000000000E+00 -0.00000000000E+00 -0.45593999997E+02  0.45594000000E+02  0.51100000000E-03 0.  1.
         23    2    1    2    0    0  0.00000000000E+00  0.00000000000E+00  0.00000000000E+00  0.91188000000E+02  0.91188000000E+02 0.  0.
    9900012    2    3    3    0    0 -0.81026259962E+01  0.74205554648E+01  0.41986961221E+02  0.47787284522E+02  0.20000061449E+02 0.  0.
        -12    1    3    3    0    0  0.81026259962E+01 -0.74205554648E+01 -0.41986961221E+02  0.43400715478E+02  0.00000000000E+00 0.  1.
         11    1    4    4    0    0  0.30163744991E+01  0.49428018754E+00  0.11296828641E+02  0.11703040871E+02  0.51100000000E-03 0. -1.
        -11    1    4    4    0    0 -0.42292454700E+01 -0.31005799917E+01  0.35232156428E+01  0.63176864640E+01  0.51100000000E-03 0.  1.
         12    1    4    4    0    0 -0.68897550254E+01  0.10026855269E+02  0.27166916938E+02  0.29766557187E+02  0.00000000000E+00 0. -1.
</event>
<event>
 8    1  0.4645379E-010  0.9118800E+02  0.7816164E-02  0.1184000E+00
        -11   -1    0    0    0    0  0.00000000000E+00  0.00000000000E+00  0.45593999997E+02  0.45594000000E+02  0.51100000000E-03 0. -1.
         11   -1    0    0    0    0 -0.00000000000E+00 -0.00000000000E+00 -0.45593999997E+02  0.45594000000E+02  0.51100000000E-03 0.  1.
         23    2    1    2    0    0  0.22204460493E-15  0.35527136788E-14  0.71054273576E-14  0.91188000000E+02  0.91188000000E+02 0.  0.
    9900012    2    3    3    0    0 -0.17871139832E+01  0.29546840157E+02  0.31739784140E+02  0.47787269166E+02  0.19999991437E+02 0.  0.
        -12    1    3    3    0    0  0.17871139832E+01 -0.29546840157E+02 -0.31739784140E+02  0.43400730834E+02  0.00000000000E+00 0.  1.
         11    1    4    4    0    0  0.14730560540E+01  0.13807670652E+02  0.18555002230E+02  0.23175628816E+02  0.51100000000E-03 0. -1.
        -11    1    4    4    0    0  0.11446683814E+01 -0.14776946028E+01  0.44145649387E+01  0.47939786088E+01  0.51100000000E-03 0.  1.
        -12    1    4    4    0    0 -0.44048384186E+01  0.17216864108E+02  0.87702169711E+01  0.19817661742E+02  0.00000000000E+00 0.  1.
</event>
<event>
 8    1  0.3776180E-010  0.9118800E+02  0.7816164E-02  0.1184000E+00
        -11   -1    0    0    0    0  0.00000000000E+00  0.00000000000E+00  0.45593999997E+02  0.45594000000E+02  0.51100000000E-03 0. -1.
         11   -1    0    0    0    0 -0.00000000000E+00 -0.00000000000E+00 -0.45593999997E+02  0.45594000000E+02  0.51100000000E-03 0.  1.
         23    2    1    2    0    0  0.00000000000E+00 -0.88817841970E-15  0.00000000000E+00  0.91188000000E+02  0.91188000000E+02 0.  0.
    9900012    2    3    3    0    0  0.24425106681E+02  0.66643808162E+00 -0.35869115393E+02  0.47787269416E+02  0.19999992577E+02 0.  0.
         12    1    3    3    0    0 -0.24425106681E+02 -0.66643808162E+00  0.35869115393E+02  0.43400730584E+02  0.00000000000E+00 0. -1.
         11    1    4    4    0    0  0.61308285998E+01 -0.26061936592E+01 -0.10093619681E+02  0.12093819216E+02  0.51100000000E-03 0. -1.
        -11    1    4    4    0    0 -0.31884338346E+00 -0.44427408012E+01 -0.58872384074E+01  0.73823562131E+01  0.51100000000E-03 0.  1.
         12    1    4    4    0    0  0.18613121465E+02  0.77153725420E+01 -0.19888257305E+02  0.28311093987E+02  0.00000000000E+00 0. -1.
</event>
<event>
 8    1  0.3776180E-010  0.9118800E+02  0.7816164E-02  0.1184000E+00
        -11   -1    0    0    0    0  0.00000000000E+00  0.00000000000E+00  0.45593999997E+02  0.45594000000E+02  0.51100000000E-03 0. -1.
         11   -1    0    0    0    0 -0.00000000000E+00 -0.00000000000E+00 -0.45593999997E+02  0.45594000000E+02  0.51100000000E-03 0.  1.
         23    2    1    2    0    0  0.35527136788E-14  0.00000000000E+00  0.35527136788E-14  0.91188000000E+02  0.91188000000E+02 0.  0.
    9900012    2    3    3    0    0 -0.24555285043E+02 -0.22472456388E+02 -0.27850492866E+02  0.47787271060E+02  0.20000000070E+02 0.  0.
         12    1    3    3    0    0  0.24555285043E+02  0.22472456388E+02  0.27850492866E+02  0.43400728940E+02  0.00000000000E+00 0. -1.
         11    1    4    4    0    0 -0.11597567004E+02 -0.12184087021E+02 -0.14667063906E+02  0.22317667908E+02  0.51100000000E-03 0. -1.
        -11    1    4    4    0    0 -0.15858343060E+02 -0.68710031432E+01 -0.10970447159E+02  0.20470672679E+02  0.51100000000E-03 0.  1.
         12    1    4    4    0    0  0.29006250214E+01 -0.34173662237E+01 -0.22129818011E+01  0.49989304729E+01  0.00000000000E+00 0. -1.
</event>
<event>
 8    1  0.3776180E-010  0.9118800E+02  0.7816164E-02  0.1184000E+00
        -11   -1    0    0    0    0  0.00000000000E+00  0.00000000000E+00  0.45593999997E+02  0.45594000000E+02  0.51100000000E-03 0. -1.
         11   -1    0    0    0    0 -0.00000000000E+00 -0.00000000000E+00 -0.45593999997E+02  0.45594000000E+02  0.51100000000E-03 0.  1.
         23    2    1    2    0    0  0.88817841970E-15  0.00000000000E+00  0.00000000000E+00  0.91188000000E+02  0.91188000000E+02 0.  0.
    9900012    2    3    3    0    0 -0.58256692198E+01  0.19222790300E+02  0.38472968942E+02  0.47787269269E+02  0.19999991907E+02 0.  0.
        -12    1    3    3    0    0  0.58256692198E+01 -0.19222790300E+02 -0.38472968942E+02  0.43400730731E+02  0.00000000000E+00 0.  1.
         11    1    4    4    0    0 -0.24201165502E+01  0.18237384080E+01  0.12433845996E+01  0.32755139170E+01  0.51100000000E-03 0. -1.
        -11    1    4    4    0    0  0.19853362425E+01  0.50517062752E+00  0.18890402510E+02  0.19001159559E+02  0.51100000000E-03 0.  1.
         12    1    4    4    0    0 -0.53908889122E+01  0.16893881264E+02  0.18339181832E+02  0.25510595793E+02  0.00000000000E+00 0. -1.
</event>
<event>
 8    1  0.3776180E-010  0.9118800E+02  0.7816164E-02  0.1184000E+00
        -11   -1    0    0    0    0  0.00000000000E+00  0.00000000000E+00  0.45593999997E+02  0.45594000000E+02  0.51100000000E-03 0. -1.
         11   -1    0    0    0    0 -0.00000000000E+00 -0.00000000000E+00 -0.45593999997E+02  0.45594000000E+02  0.51100000000E-03 0.  1.
         23    2    1    2    0    0 -0.44408920985E-15  0.35527136788E-14  0.71054273576E-14  0.91188000000E+02  0.91188000000E+02 0.  0.
    9900012    2    3    3    0    0  0.26914004498E+01  0.27934200061E+02  0.33106790014E+02  0.47787277489E+02  0.20000029385E+02 0.  0.
        -12    1    3    3    0    0 -0.26914004498E+01 -0.27934200061E+02 -0.33106790014E+02  0.43400722511E+02  0.00000000000E+00 0.  1.
         11    1    4    4    0    0  0.31707047370E+00  0.11078749640E+02  0.61789681516E+01  0.12689321296E+02  0.51100000000E-03 0. -1.
        -11    1    4    4    0    0  0.28219247778E+01  0.34620767877E+01 -0.57569978322E+00  0.45034060040E+01  0.51100000000E-03 0.  1.
        -12    1    4    4    0    0 -0.44759480173E+00  0.13393373633E+02  0.27503521646E+02  0.30594550189E+02  0.00000000000E+00 0.  1.
</event>
<event>
 8    1  0.3776180E-010  0.9118800E+02  0.7816164E-02  0.1184000E+00
        -11   -1    0    0    0    0  0.00000000000E+00  0.00000000000E+00  0.45593999997E+02  0.45594000000E+02  0.51100000000E-03 0.  1.
         11   -1    0    0    0    0 -0.00000000000E+00 -0.00000000000E+00 -0.45593999997E+02  0.45594000000E+02  0.51100000000E-03 0. -1.
         23    2    1    2    0    0  0.00000000000E+00  0.17763568394E-14  0.00000000000E+00  0.91188000000E+02  0.91188000000E+02 0.  0.
    9900012    2    3    3    0    0 -0.35745782999E+02  0.11725127202E+02 -0.21642186627E+02  0.47787264383E+02  0.19999969627E+02 0.  0.
        -12    1    3    3    0    0  0.35745782999E+02 -0.11725127202E+02  0.21642186627E+02  0.43400735617E+02  0.00000000000E+00 0.  1.
         11    1    4    4    0    0 -0.13603331430E+00  0.19064379519E+01 -0.23633170938E+01  0.30394536801E+01  0.51100000000E-03 0. -1.
        -11    1    4    4    0    0 -0.88836967570E+01 -0.35995671805E+01 -0.89355517130E+01  0.13104237354E+02  0.51100000000E-03 0.  1.
         12    1    4    4    0    0 -0.26726052928E+02  0.13418256431E+02 -0.10343317820E+02  0.31643573348E+02  0.00000000000E+00 0. -1.
</event>
<event>
 8    1  0.3776180E-010  0.9118800E+02  0.7816164E-02  0.1184000E+00
        -11   -1    0    0    0    0  0.00000000000E+00  0.00000000000E+00  0.45593999997E+02  0.45594000000E+02  0.51100000000E-03 0. -1.
         11   -1    0    0    0    0 -0.00000000000E+00 -0.00000000000E+00 -0.45593999997E+02  0.45594000000E+02  0.51100000000E-03 0.  1.
         23    2    1    2    0    0  0.00000000000E+00  0.00000000000E+00 -0.71054273576E-14  0.91188000000E+02  0.91188000000E+02 0.  0.
    9900012    2    3    3    0    0 -0.16350925450E+02  0.20941752064E+02  0.34317831798E+02  0.47787270491E+02  0.19999997477E+02 0.  0.
        -12    1    3    3    0    0  0.16350925450E+02 -0.20941752064E+02 -0.34317831798E+02  0.43400729509E+02  0.00000000000E+00 0.  1.
         11    1    4    4    0    0 -0.35281697373E+01  0.63857760715E+00  0.18972638949E+01  0.40565223534E+01  0.51100000000E-03 0. -1.
        -11    1    4    4    0    0 -0.18827394056E+01  0.18247051570E+01 -0.19054067958E+01  0.32411158415E+01  0.51100000000E-03 0.  1.
         12    1    4    4    0    0 -0.10940016307E+02  0.18478469300E+02  0.34325974699E+02  0.40489632296E+02  0.00000000000E+00 0. -1.
</event>
<event>
 8    1  0.3776180E-010  0.9118800E+02  0.7816164E-02  0.1184000E+00
        -11   -1    0    0    0    0  0.00000000000E+00  0.00000000000E+00  0.45593999997E+02  0.45594000000E+02  0.51100000000E-03 0. -1.
         11   -1    0    0    0    0 -0.00000000000E+00 -0.00000000000E+00 -0.45593999997E+02  0.45594000000E+02  0.51100000000E-03 0.  1.
         23    2    1    2    0    0  0.83266726847E-15  0.00000000000E+00  0.00000000000E+00  0.91188000000E+02  0.91188000000E+02 0.  0.
    9900012    2    3    3    0    0  0.37529079654E+00  0.24975161547E+02  0.35492590429E+02  0.47787268291E+02  0.19999987446E+02 0.  0.
        -12    1    3    3    0    0 -0.37529079654E+00 -0.24975161547E+02 -0.35492590429E+02  0.43400731709E+02  0.00000000000E+00 0.  1.
         11    1    4    4    0    0  0.43861886252E+01  0.14427487934E+02  0.66721443964E+01  0.16489650386E+02  0.51100000000E-03 0. -1.
        -11    1    4    4    0    0  0.15342286525E+00 -0.12841074310E+00 -0.74307390997E-01  0.21342385996E+00  0.51100000000E-03 0.  1.
        -12    1    4    4    0    0 -0.41643206939E+01  0.10676084357E+02  0.28894753424E+02  0.31084194046E+02  0.00000000000E+00 0.  1.
</event>
<event>
 8    1  0.3776180E-010  0.9118800E+02  0.7816164E-02  0.1184000E+00
        -11   -1    0    0    0    0  0.00000000000E+00  0.00000000000E+00  0.45593999997E+02  0.45594000000E+02  0.51100000000E-03 0. -1.
         11   -1    0    0    0    0 -0.00000000000E+00 -0.00000000000E+00 -0.45593999997E+02  0.45594000000E+02  0.51100000000E-03 0.  1.
         23    2    1    2    0    0  0.00000000000E+00  0.00000000000E+00  0.00000000000E+00  0.91188000000E+02  0.91188000000E+02 0.  0.
    9900012    2    3    3    0    0  0.42526914313E+01  0.15528537195E+02 -0.40303875261E+02  0.47787271747E+02  0.20000003203E+02 0.  0.
         12    1    3    3    0    0 -0.42526914313E+01 -0.15528537195E+02  0.40303875261E+02  0.43400728253E+02  0.00000000000E+00 0. -1.
         11    1    4    4    0    0 -0.55642188573E+01  0.66514690964E+01 -0.56503167941E+01  0.10350297231E+02  0.51100000000E-03 0. -1.
        -11    1    4    4    0    0  0.80361433833E+00  0.13820413605E+01 -0.10134182096E+02  0.10259506877E+02  0.51100000000E-03 0.  1.
         12    1    4    4    0    0  0.90132959503E+01  0.74950267380E+01 -0.24519376371E+02  0.27177467640E+02  0.00000000000E+00 0. -1.
</event>
<event>
 8    1  0.3776180E-010  0.9118800E+02  0.7816164E-02  0.1184000E+00
        -11   -1    0    0    0    0  0.00000000000E+00  0.00000000000E+00  0.45593999997E+02  0.45594000000E+02  0.51100000000E-03 0. -1.
         11   -1    0    0    0    0 -0.00000000000E+00 -0.00000000000E+00 -0.45593999997E+02  0.45594000000E+02  0.51100000000E-03 0.  1.
         23    2    1    2    0    0  0.00000000000E+00  0.88817841970E-15 -0.71054273576E-14  0.91188000000E+02  0.91188000000E+02 0.  0.
    9900012    2    3    3    0    0  0.84021308098E+01 -0.48926257158E+01  0.42297632071E+02  0.47787271119E+02  0.20000000340E+02 0.  0.
        -12    1    3    3    0    0 -0.84021308098E+01  0.48926257158E+01 -0.42297632071E+02  0.43400728881E+02  0.00000000000E+00 0.  1.
         11    1    4    4    0    0  0.17132298921E+01  0.44868662822E+00 -0.75181685507E+00  0.19239816003E+01  0.51100000000E-03 0. -1.
        -11    1    4    4    0    0 -0.31310005851E+01  0.10851987555E+01  0.16593533753E+02  0.16921175600E+02  0.51100000000E-03 0.  1.
         12    1    4    4    0    0  0.98199015028E+01 -0.64265110995E+01  0.26455915173E+02  0.28942113919E+02  0.00000000000E+00 0. -1.
</event>
<event>
 8    1  0.3776180E-010  0.9118800E+02  0.7816164E-02  0.1184000E+00
        -11   -1    0    0    0    0  0.00000000000E+00  0.00000000000E+00  0.45593999997E+02  0.45594000000E+02  0.51100000000E-03 0. -1.
         11   -1    0    0    0    0 -0.00000000000E+00 -0.00000000000E+00 -0.45593999997E+02  0.45594000000E+02  0.51100000000E-03 0.  1.
         23    2    1    2    0    0  0.88817841970E-15  0.17763568394E-14  0.00000000000E+00  0.91188000000E+02  0.91188000000E+02 0.  0.
    9900012    2    3    3    0    0 -0.50040564394E+01  0.12598472361E+02 -0.41229378707E+02  0.47787265499E+02  0.19999974715E+02 0.  0.
         12    1    3    3    0    0  0.50040564394E+01 -0.12598472361E+02  0.41229378707E+02  0.43400734501E+02  0.00000000000E+00 0. -1.
         11    1    4    4    0    0  0.45356352637E+01 -0.91584834955E+00 -0.99931916271E+01  0.11012476770E+02  0.51100000000E-03 0. -1.
        -11    1    4    4    0    0  0.94389138496E+00 -0.30668982900E+00  0.58021110793E-01  0.99416110778E+00  0.51100000000E-03 0.  1.
        -12    1    4    4    0    0 -0.10483583088E+02  0.13821010539E+02 -0.31294208191E+02  0.35780627621E+02  0.00000000000E+00 0.  1.
</event>
<event>
 8    1  0.3776180E-010  0.9118800E+02  0.7816164E-02  0.1184000E+00
        -11   -1    0    0    0    0  0.00000000000E+00  0.00000000000E+00  0.45593999997E+02  0.45594000000E+02  0.51100000000E-03 0. -1.
         11   -1    0    0    0    0 -0.00000000000E+00 -0.00000000000E+00 -0.45593999997E+02  0.45594000000E+02  0.51100000000E-03 0.  1.
         23    2    1    2    0    0  0.17763568394E-14  0.00000000000E+00  0.00000000000E+00  0.91188000000E+02  0.91188000000E+02 0.  0.
    9900012    2    3    3    0    0  0.17782626646E+00  0.41558223133E+02 -0.12510230025E+02  0.47787269737E+02  0.19999994037E+02 0.  0.
         12    1    3    3    0    0 -0.17782626646E+00 -0.41558223133E+02  0.12510230025E+02  0.43400730263E+02  0.00000000000E+00 0. -1.
         11    1    4    4    0    0  0.52215899397E+01  0.10825696039E+02 -0.74559921648E+00  0.12042284446E+02  0.51100000000E-03 0. -1.
        -11    1    4    4    0    0  0.38381678363E+01  0.15176182666E+02 -0.73607684934E+01  0.17298235914E+02  0.51100000000E-03 0.  1.
        -12    1    4    4    0    0 -0.88819315095E+01  0.15556344428E+02 -0.44038623149E+01  0.18446749377E+02  0.00000000000E+00 0.  1.
</event>
<event>
 8    1  0.3776180E-010  0.9118800E+02  0.7816164E-02  0.1184000E+00
        -11   -1    0    0    0    0  0.00000000000E+00  0.00000000000E+00  0.45593999997E+02  0.45594000000E+02  0.51100000000E-03 0.  1.
         11   -1    0    0    0    0 -0.00000000000E+00 -0.00000000000E+00 -0.45593999997E+02  0.45594000000E+02  0.51100000000E-03 0. -1.
         23    2    1    2    0    0  0.35527136788E-14  0.00000000000E+00  0.00000000000E+00  0.91188000000E+02  0.91188000000E+02 0.  0.
    9900012    2    3    3    0    0  0.22526071893E+02  0.30451930994E+02  0.21186751599E+02  0.47787280426E+02  0.20000042776E+02 0.  0.
        -12    1    3    3    0    0 -0.22526071893E+02 -0.30451930994E+02 -0.21186751599E+02  0.43400719574E+02  0.00000000000E+00 0.  1.
         11    1    4    4    0    0  0.10255842219E+02  0.38684504773E+01  0.17256892110E+01  0.11096180074E+02  0.51100000000E-03 0. -1.
        -11    1    4    4    0    0  0.53137072547E+01  0.50597946902E+01  0.94258728043E+01  0.11945044390E+02  0.51100000000E-03 0.  1.
        -12    1    4    4    0    0  0.69565224194E+01  0.21523685826E+02  0.10035189583E+02  0.24746055963E+02  0.00000000000E+00 0.  1.
</event>
<event>
 8    1  0.3776180E-010  0.9118800E+02  0.7816164E-02  0.1184000E+00
        -11   -1    0    0    0    0  0.00000000000E+00  0.00000000000E+00  0.45593999997E+02  0.45594000000E+02  0.51100000000E-03 0. -1.
         11   -1    0    0    0    0 -0.00000000000E+00 -0.00000000000E+00 -0.45593999997E+02  0.45594000000E+02  0.51100000000E-03 0.  1.
         23    2    1    2    0    0  0.00000000000E+00  0.00000000000E+00  0.00000000000E+00  0.91188000000E+02  0.91188000000E+02 0.  0.
    9900012    2    3    3    0    0  0.35027150999E+02  0.83319863496E+01  0.24234273956E+02  0.47787270308E+02  0.19999996644E+02 0.  0.
        -12    1    3    3    0    0 -0.35027150999E+02 -0.83319863496E+01 -0.24234273956E+02  0.43400729692E+02  0.00000000000E+00 0.  1.
         11    1    4    4    0    0  0.59764392774E+01  0.15716648769E+01  0.96949455340E+01  0.11496952905E+02  0.51100000000E-03 0. -1.
        -11    1    4    4    0    0  0.23133403588E+02  0.10216114062E+02  0.15033704233E+02  0.29419986596E+02  0.51100000000E-03 0.  1.
         12    1    4    4    0    0  0.59173081336E+01 -0.34557925894E+01 -0.49437581082E+00  0.68703308080E+01  0.00000000000E+00 0. -1.
</event>
<event>
 8    1  0.3776180E-010  0.9118800E+02  0.7816164E-02  0.1184000E+00
        -11   -1    0    0    0    0  0.00000000000E+00  0.00000000000E+00  0.45593999997E+02  0.45594000000E+02  0.51100000000E-03 0. -1.
         11   -1    0    0    0    0 -0.00000000000E+00 -0.00000000000E+00 -0.45593999997E+02  0.45594000000E+02  0.51100000000E-03 0.  1.
         23    2    1    2    0    0  0.00000000000E+00 -0.17763568394E-14  0.00000000000E+00  0.91188000000E+02  0.91188000000E+02 0.  0.
    9900012    2    3    3    0    0 -0.35570996938E+02 -0.82056919608E+01 -0.23473265279E+02  0.47787269746E+02  0.19999994080E+02 0.  0.
         12    1    3    3    0    0  0.35570996938E+02  0.82056919608E+01  0.23473265279E+02  0.43400730254E+02  0.00000000000E+00 0. -1.
         11    1    4    4    0    0  0.14065025718E+01  0.17309115116E+01 -0.20442083969E+01  0.30254078033E+01  0.51100000000E-03 0. -1.
        -11    1    4    4    0    0 -0.63618348055E+01  0.14024054152E+01 -0.22221386079E+01  0.68831376054E+01  0.51100000000E-03 0.  1.
        -12    1    4    4    0    0 -0.30615664704E+02 -0.11339008888E+02 -0.19206918274E+02  0.37878724337E+02  0.00000000000E+00 0.  1.
</event>
<event>
 8    1  0.3776180E-010  0.9118800E+02  0.7816164E-02  0.1184000E+00
        -11   -1    0    0    0    0  0.00000000000E+00  0.00000000000E+00  0.45593999997E+02  0.45594000000E+02  0.51100000000E-03 0. -1.
         11   -1    0    0    0    0 -0.00000000000E+00 -0.00000000000E+00 -0.45593999997E+02  0.45594000000E+02  0.51100000000E-03 0.  1.
         23    2    1    2    0    0  0.00000000000E+00  0.88817841970E-15  0.00000000000E+00  0.91188000000E+02  0.91188000000E+02 0.  0.
    9900012    2    3    3    0    0 -0.57905291088E+01  0.51177839642E+01 -0.42707147827E+02  0.47787280933E+02  0.20000045085E+02 0.  0.
         12    1    3    3    0    0  0.57905291088E+01 -0.51177839642E+01  0.42707147827E+02  0.43400719067E+02  0.00000000000E+00 0. -1.
         11    1    4    4    0    0  0.21312290674E+00  0.13107626631E+01 -0.84751739186E+01  0.85785834113E+01  0.51100000000E-03 0.  1.
        -11    1    4    4    0    0 -0.14601242503E+01  0.10465198042E+02 -0.14927116435E+02  0.18288552108E+02  0.51100000000E-03 0. -1.
         12    1    4    4    0    0 -0.45435277652E+01 -0.66581767407E+01 -0.19304857473E+02  0.20920145414E+02  0.00000000000E+00 0. -1.
</event>
<event>
 8    1  0.3776180E-010  0.9118800E+02  0.7816164E-02  0.1184000E+00
        -11   -1    0    0    0    0  0.00000000000E+00  0.00000000000E+00  0.45593999997E+02  0.45594000000E+02  0.51100000000E-03 0. -1.
         11   -1    0    0    0    0 -0.00000000000E+00 -0.00000000000E+00 -0.45593999997E+02  0.45594000000E+02  0.51100000000E-03 0.  1.
         23    2    1    2    0    0  0.00000000000E+00  0.00000000000E+00  0.00000000000E+00  0.91188000000E+02  0.91188000000E+02 0.  0.
    9900012    2    3    3    0    0 -0.15288246346E+02 -0.19916535146E+02  0.35400919902E+02  0.47787262927E+02  0.19999962990E+02 0.  0.
        -12    1    3    3    0    0  0.15288246346E+02  0.19916535146E+02 -0.35400919902E+02  0.43400737073E+02  0.00000000000E+00 0.  1.
         11    1    4    4    0    0 -0.33611072817E+01 -0.59733997917E-01  0.10584646779E+02  0.11105645322E+02  0.51100000000E-03 0. -1.
        -11    1    4    4    0    0  0.20541574276E+00 -0.87705647026E+01  0.15445118343E+02  0.17762789244E+02  0.51100000000E-03 0.  1.
         12    1    4    4    0    0 -0.12132554807E+02 -0.11086236446E+02  0.93711547795E+01  0.18918828362E+02  0.00000000000E+00 0. -1.
</event>
<event>
 8    1  0.3776180E-010  0.9118800E+02  0.7816164E-02  0.1184000E+00
        -11   -1    0    0    0    0  0.00000000000E+00  0.00000000000E+00  0.45593999997E+02  0.45594000000E+02  0.51100000000E-03 0.  1.
         11   -1    0    0    0    0 -0.00000000000E+00 -0.00000000000E+00 -0.45593999997E+02  0.45594000000E+02  0.51100000000E-03 0. -1.
         23    2    1    2    0    0 -0.26645352591E-14 -0.71054273576E-14  0.17763568394E-14  0.91188000000E+02  0.91188000000E+02 0.  0.
    9900012    2    3    3    0    0 -0.71352949875E+01 -0.40349025322E+02  0.14306198236E+02  0.47787267437E+02  0.19999983554E+02 0.  0.
        -12    1    3    3    0    0  0.71352949875E+01  0.40349025322E+02 -0.14306198236E+02  0.43400732563E+02  0.00000000000E+00 0.  1.
         11    1    4    4    0    0 -0.99037224682E+01 -0.28150579603E+02  0.33662452983E+01  0.30031158126E+02  0.51100000000E-03 0. -1.
        -11    1    4    4    0    0 -0.96814152523E+00  0.14904224803E+00  0.14120672929E+01  0.17185592528E+01  0.51100000000E-03 0.  1.
         12    1    4    4    0    0  0.37365690059E+01 -0.12347487967E+02  0.95278856447E+01  0.16037550059E+02  0.00000000000E+00 0. -1.
</event>
<event>
 8    1  0.3813381E-010  0.9118800E+02  0.7816164E-02  0.1184000E+00
        -11   -1    0    0    0    0  0.00000000000E+00  0.00000000000E+00  0.45593999997E+02  0.45594000000E+02  0.51100000000E-03 0. -1.
         11   -1    0    0    0    0 -0.00000000000E+00 -0.00000000000E+00 -0.45593999997E+02  0.45594000000E+02  0.51100000000E-03 0.  1.
         23    2    1    2    0    0 -0.26645352591E-14  0.00000000000E+00 -0.35527136788E-14  0.91188000000E+02  0.91188000000E+02 0.  0.
    9900012    2    3    3    0    0  0.61819218874E+01 -0.38765299692E+02  0.18511043396E+02  0.47787270213E+02  0.19999996209E+02 0.  0.
        -12    1    3    3    0    0 -0.61819218874E+01  0.38765299692E+02 -0.18511043396E+02  0.43400729787E+02  0.00000000000E+00 0.  1.
         11    1    4    4    0    0  0.42825418054E+01 -0.30288357004E+02  0.17988366940E+02  0.35486702858E+02  0.51100000000E-03 0. -1.
        -11    1    4    4    0    0  0.38653245650E+01 -0.77646659772E+00  0.16493400910E+01  0.42736351467E+01  0.51100000000E-03 0.  1.
        -12    1    4    4    0    0 -0.19659444830E+01 -0.77004760903E+01 -0.11266636348E+01  0.80269322081E+01  0.00000000000E+00 0.  1.
</event>
<event>
 8    1  0.3776180E-010  0.9118800E+02  0.7816164E-02  0.1184000E+00
        -11   -1    0    0    0    0  0.00000000000E+00  0.00000000000E+00  0.45593999997E+02  0.45594000000E+02  0.51100000000E-03 0. -1.
         11   -1    0    0    0    0 -0.00000000000E+00 -0.00000000000E+00 -0.45593999997E+02  0.45594000000E+02  0.51100000000E-03 0.  1.
         23    2    1    2    0    0 -0.17763568394E-14  0.00000000000E+00  0.00000000000E+00  0.91188000000E+02  0.91188000000E+02 0.  0.
    9900012    2    3    3    0    0 -0.15502458463E+02 -0.22149974389E+02 -0.33951044651E+02  0.47787297048E+02  0.20000118562E+02 0.  0.
         12    1    3    3    0    0  0.15502458463E+02  0.22149974389E+02  0.33951044651E+02  0.43400702952E+02  0.00000000000E+00 0. -1.
         11    1    4    4    0    0 -0.53857430702E+01 -0.45158970601E+01 -0.11681799701E+02  0.13633194754E+02  0.51100000000E-03 0. -1.
        -11    1    4    4    0    0 -0.12268853485E+02 -0.19040234580E+02 -0.21988251857E+02  0.31567998332E+02  0.51100000000E-03 0.  1.
         12    1    4    4    0    0  0.21521380926E+01  0.14061572513E+01 -0.28099309204E+00  0.25861039621E+01  0.00000000000E+00 0. -1.
</event>
<event>
 8    1  0.3776180E-010  0.9118800E+02  0.7816164E-02  0.1184000E+00
        -11   -1    0    0    0    0  0.00000000000E+00  0.00000000000E+00  0.45593999997E+02  0.45594000000E+02  0.51100000000E-03 0. -1.
         11   -1    0    0    0    0 -0.00000000000E+00 -0.00000000000E+00 -0.45593999997E+02  0.45594000000E+02  0.51100000000E-03 0.  1.
         23    2    1    2    0    0  0.88817841970E-15 -0.71054273576E-14  0.00000000000E+00  0.91188000000E+02  0.91188000000E+02 0.  0.
    9900012    2    3    3    0    0  0.52860845796E+01  0.32795711900E+02  0.27930675104E+02  0.47787262437E+02  0.19999960754E+02 0.  0.
        -12    1    3    3    0    0 -0.52860845796E+01 -0.32795711900E+02 -0.27930675104E+02  0.43400737563E+02  0.00000000000E+00 0.  1.
         11    1    4    4    0    0  0.87461516452E+01  0.13117014355E+02  0.67198340388E+01  0.17137893802E+02  0.51100000000E-03 0.  1.
        -11    1    4    4    0    0  0.27394086986E+01  0.57892112366E+01  0.34821212495E+01  0.72900271205E+01  0.51100000000E-03 0. -1.
        -12    1    4    4    0    0 -0.61994757642E+01  0.13889486309E+02  0.17728719816E+02  0.23359341514E+02  0.00000000000E+00 0.  1.
</event>
<event>
 8    1  0.3871495E-010  0.9118800E+02  0.7816164E-02  0.1184000E+00
        -11   -1    0    0    0    0  0.00000000000E+00  0.00000000000E+00  0.45593999997E+02  0.45594000000E+02  0.51100000000E-03 0. -1.
         11   -1    0    0    0    0 -0.00000000000E+00 -0.00000000000E+00 -0.45593999997E+02  0.45594000000E+02  0.51100000000E-03 0.  1.
         23    2    1    2    0    0  0.00000000000E+00  0.00000000000E+00  0.00000000000E+00  0.91188000000E+02  0.91188000000E+02 0.  0.
    9900012    2    3    3    0    0 -0.77170098434E+01 -0.96170409020E+01  0.41612299522E+02  0.47787272032E+02  0.20000004502E+02 0.  0.
        -12    1    3    3    0    0  0.77170098434E+01  0.96170409020E+01 -0.41612299522E+02  0.43400727968E+02  0.00000000000E+00 0.  1.
         11    1    4    4    0    0 -0.25193738933E+01 -0.61667951624E+01  0.24447380446E+02  0.25338725665E+02  0.51100000000E-03 0. -1.
        -11    1    4    4    0    0 -0.70228999716E+01  0.56952770289E+00  0.16554753415E+02  0.17991813324E+02  0.51100000000E-03 0.  1.
        -12    1    4    4    0    0  0.18252640214E+01 -0.40197734425E+01  0.61016566159E+00  0.44567330424E+01  0.00000000000E+00 0.  1.
</event>
<event>
 8    1  0.3776180E-010  0.9118800E+02  0.7816164E-02  0.1184000E+00
        -11   -1    0    0    0    0  0.00000000000E+00  0.00000000000E+00  0.45593999997E+02  0.45594000000E+02  0.51100000000E-03 0. -1.
         11   -1    0    0    0    0 -0.00000000000E+00 -0.00000000000E+00 -0.45593999997E+02  0.45594000000E+02  0.51100000000E-03 0.  1.
         23    2    1    2    0    0  0.00000000000E+00  0.00000000000E+00  0.35527136788E-14  0.91188000000E+02  0.91188000000E+02 0.  0.
    9900012    2    3    3    0    0  0.16139295736E+02 -0.34015556740E+02 -0.21589079761E+02  0.47787270374E+02  0.19999996942E+02 0.  0.
         12    1    3    3    0    0 -0.16139295736E+02  0.34015556740E+02  0.21589079761E+02  0.43400729626E+02  0.00000000000E+00 0. -1.
         11    1    4    4    0    0 -0.23355794756E+01 -0.19180288310E+01 -0.11793466716E+01  0.32441678311E+01  0.51100000000E-03 0. -1.
        -11    1    4    4    0    0  0.69404036462E+01 -0.11291023437E+02 -0.15242184740E+02  0.20198529871E+02  0.51100000000E-03 0.  1.
        -12    1    4    4    0    0  0.11534471566E+02 -0.20806504472E+02 -0.51675483488E+01  0.24344572672E+02  0.00000000000E+00 0.  1.
</event>
<event>
 8    1  0.3776180E-010  0.9118800E+02  0.7816164E-02  0.1184000E+00
        -11   -1    0    0    0    0  0.00000000000E+00  0.00000000000E+00  0.45593999997E+02  0.45594000000E+02  0.51100000000E-03 0. -1.
         11   -1    0    0    0    0 -0.00000000000E+00 -0.00000000000E+00 -0.45593999997E+02  0.45594000000E+02  0.51100000000E-03 0.  1.
         23    2    1    2    0    0  0.35527136788E-14  0.00000000000E+00  0.00000000000E+00  0.91188000000E+02  0.91188000000E+02 0.  0.
    9900012    2    3    3    0    0 -0.31513598543E+02 -0.22204807977E+02  0.19936464928E+02  0.47787273921E+02  0.20000013113E+02 0.  0.
        -12    1    3    3    0    0  0.31513598543E+02  0.22204807977E+02 -0.19936464928E+02  0.43400726079E+02  0.00000000000E+00 0.  1.
         11    1    4    4    0    0 -0.11844187214E+02 -0.12205552873E+02  0.69333022716E+01  0.18366572145E+02  0.51100000000E-03 0. -1.
        -11    1    4    4    0    0 -0.17414616407E+02 -0.70487890583E+01  0.15977932882E+02  0.24662697160E+02  0.51100000000E-03 0.  1.
         12    1    4    4    0    0 -0.22547949221E+01 -0.29504660453E+01 -0.29747702256E+01  0.47580046154E+01  0.00000000000E+00 0. -1.
</event>
<event>
 8    1  0.4687379E-010  0.9118800E+02  0.7816164E-02  0.1184000E+00
        -11   -1    0    0    0    0  0.00000000000E+00  0.00000000000E+00  0.45593999997E+02  0.45594000000E+02  0.51100000000E-03 0. -1.
         11   -1    0    0    0    0 -0.00000000000E+00 -0.00000000000E+00 -0.45593999997E+02  0.45594000000E+02  0.51100000000E-03 0.  1.
         23    2    1    2    0    0  0.88817841970E-15  0.00000000000E+00 -0.71054273576E-14  0.91188000000E+02  0.91188000000E+02 0.  0.
    9900012    2    3    3    0    0  0.40929633291E+01 -0.83082485226E+01  0.42400989146E+02  0.47787271632E+02  0.20000002677E+02 0.  0.
        -12    1    3    3    0    0 -0.40929633291E+01  0.83082485226E+01 -0.42400989146E+02  0.43400728368E+02  0.00000000000E+00 0.  1.
         11    1    4    4    0    0  0.35932337160E+01 -0.81831075754E+01  0.14753890782E+02  0.17249691928E+02  0.51100000000E-03 0.  1.
        -11    1    4    4    0    0  0.25557681875E+01 -0.26426513755E+01  0.26967436078E+02  0.27216872821E+02  0.51100000000E-03 0. -1.
        -12    1    4    4    0    0 -0.20560385744E+01  0.25175104284E+01  0.67966228666E+00  0.33207068826E+01  0.00000000000E+00 0.  1.
</event>
<event>
 8    1  0.3776180E-010  0.9118800E+02  0.7816164E-02  0.1184000E+00
        -11   -1    0    0    0    0  0.00000000000E+00  0.00000000000E+00  0.45593999997E+02  0.45594000000E+02  0.51100000000E-03 0. -1.
         11   -1    0    0    0    0 -0.00000000000E+00 -0.00000000000E+00 -0.45593999997E+02  0.45594000000E+02  0.51100000000E-03 0.  1.
         23    2    1    2    0    0  0.00000000000E+00 -0.31086244690E-14 -0.71054273576E-14  0.91188000000E+02  0.91188000000E+02 0.  0.
    9900012    2    3    3    0    0  0.14797100718E+02 -0.36890676032E+01 -0.40633236322E+02  0.47787270704E+02  0.19999998447E+02 0.  0.
         12    1    3    3    0    0 -0.14797100718E+02  0.36890676032E+01  0.40633236322E+02  0.43400729296E+02  0.00000000000E+00 0. -1.
         11    1    4    4    0    0  0.40553363168E+00 -0.60719410081E+01 -0.55250154592E+01  0.82194112452E+01  0.51100000000E-03 0. -1.
        -11    1    4    4    0    0  0.70852680380E+01 -0.27506717203E+01 -0.24756613687E+02  0.25897048859E+02  0.51100000000E-03 0.  1.
         12    1    4    4    0    0  0.73062990484E+01  0.51335451252E+01 -0.10351607175E+02  0.13670810600E+02  0.00000000000E+00 0. -1.
</event>
<event>
 8    1  0.3776180E-010  0.9118800E+02  0.7816164E-02  0.1184000E+00
        -11   -1    0    0    0    0  0.00000000000E+00  0.00000000000E+00  0.45593999997E+02  0.45594000000E+02  0.51100000000E-03 0. -1.
         11   -1    0    0    0    0 -0.00000000000E+00 -0.00000000000E+00 -0.45593999997E+02  0.45594000000E+02  0.51100000000E-03 0.  1.
         23    2    1    2    0    0  0.00000000000E+00  0.71054273576E-14  0.44408920985E-15  0.91188000000E+02  0.91188000000E+02 0.  0.
    9900012    2    3    3    0    0  0.11343579976E+02 -0.41889999899E+02 -0.41821356111E+00  0.47787264974E+02  0.19999972323E+02 0.  0.
         12    1    3    3    0    0 -0.11343579976E+02  0.41889999899E+02  0.41821356111E+00  0.43400735026E+02  0.00000000000E+00 0. -1.
         11    1    4    4    0    0 -0.70593821791E+00 -0.44974957341E+01 -0.40432883860E+01  0.60888420803E+01  0.51100000000E-03 0. -1.
        -11    1    4    4    0    0  0.29711002977E+01 -0.23053405154E+01  0.39506851098E+01  0.54543510126E+01  0.51100000000E-03 0.  1.
        -12    1    4    4    0    0  0.90784178966E+01 -0.35087163649E+02 -0.32561028492E+00  0.36244071881E+02  0.00000000000E+00 0.  1.
</event>
<event>
 8    1  0.3776180E-010  0.9118800E+02  0.7816164E-02  0.1184000E+00
        -11   -1    0    0    0    0  0.00000000000E+00  0.00000000000E+00  0.45593999997E+02  0.45594000000E+02  0.51100000000E-03 0. -1.
         11   -1    0    0    0    0 -0.00000000000E+00 -0.00000000000E+00 -0.45593999997E+02  0.45594000000E+02  0.51100000000E-03 0.  1.
         23    2    1    2    0    0  0.00000000000E+00  0.17763568394E-14  0.00000000000E+00  0.91188000000E+02  0.91188000000E+02 0.  0.
    9900012    2    3    3    0    0 -0.89663010082E+01 -0.10890561269E+02 -0.41044174157E+02  0.47787272923E+02  0.20000008566E+02 0.  0.
         12    1    3    3    0    0  0.89663010082E+01  0.10890561269E+02  0.41044174157E+02  0.43400727077E+02  0.00000000000E+00 0. -1.
         11    1    4    4    0    0 -0.67715348492E+01 -0.79703036790E+01 -0.11446332138E+02  0.15504771673E+02  0.51100000000E-03 0. -1.
        -11    1    4    4    0    0 -0.38665334164E+01 -0.12698712241E+01 -0.19107985775E+01  0.44959765403E+01  0.51100000000E-03 0.  1.
        -12    1    4    4    0    0  0.16717672575E+01 -0.16503863660E+01 -0.27687043442E+02  0.27786524710E+02  0.00000000000E+00 0.  1.
</event>
<event>
 8    1  0.3776180E-010  0.9118800E+02  0.7816164E-02  0.1184000E+00
        -11   -1    0    0    0    0  0.00000000000E+00  0.00000000000E+00  0.45593999997E+02  0.45594000000E+02  0.51100000000E-03 0. -1.
         11   -1    0    0    0    0 -0.00000000000E+00 -0.00000000000E+00 -0.45593999997E+02  0.45594000000E+02  0.51100000000E-03 0.  1.
         23    2    1    2    0    0  0.71054273576E-14  0.71054273576E-14 -0.35527136788E-14  0.91188000000E+02  0.91188000000E+02 0.  0.
    9900012    2    3    3    0    0 -0.24501166456E+02 -0.23774614009E+02  0.26797080267E+02  0.47787274893E+02  0.20000017547E+02 0.  0.
        -12    1    3    3    0    0  0.24501166456E+02  0.23774614009E+02 -0.26797080267E+02  0.43400725107E+02  0.00000000000E+00 0.  1.
         11    1    4    4    0    0 -0.21069098738E+02 -0.23779437317E+02  0.19644741133E+02  0.37353506063E+02  0.51100000000E-03 0. -1.
        -11    1    4    4    0    0 -0.26273345554E+00 -0.13159292293E+01 -0.94318713850E+00  0.16402136582E+01  0.51100000000E-03 0.  1.
         12    1    4    4    0    0 -0.31693342626E+01  0.13207525374E+01  0.80955262726E+01  0.87935551720E+01  0.00000000000E+00 0. -1.
</event>
<event>
 8    1  0.3776180E-010  0.9118800E+02  0.7816164E-02  0.1184000E+00
        -11   -1    0    0    0    0  0.00000000000E+00  0.00000000000E+00  0.45593999997E+02  0.45594000000E+02  0.51100000000E-03 0. -1.
         11   -1    0    0    0    0 -0.00000000000E+00 -0.00000000000E+00 -0.45593999997E+02  0.45594000000E+02  0.51100000000E-03 0.  1.
         23    2    1    2    0    0 -0.44408920985E-15  0.00000000000E+00  0.00000000000E+00  0.91188000000E+02  0.91188000000E+02 0.  0.
    9900012    2    3    3    0    0  0.39877531305E+01 -0.12735322408E+02  0.41298094252E+02  0.47787271887E+02  0.20000003843E+02 0.  0.
        -12    1    3    3    0    0 -0.39877531305E+01  0.12735322408E+02 -0.41298094252E+02  0.43400728113E+02  0.00000000000E+00 0.  1.
         11    1    4    4    0    0  0.23898351728E+00 -0.11140685631E+02  0.20954621435E+02  0.23733270933E+02  0.51100000000E-03 0. -1.
        -11    1    4    4    0    0 -0.87276530997E-01 -0.22102015852E+01 -0.95122935521E+00  0.24077885678E+01  0.51100000000E-03 0.  1.
         12    1    4    4    0    0  0.38360461442E+01  0.61556480880E+00  0.21294702173E+02  0.21646212386E+02  0.00000000000E+00 0. -1.
</event>
<event>
 8    1  0.3776180E-010  0.9118800E+02  0.7816164E-02  0.1184000E+00
        -11   -1    0    0    0    0  0.00000000000E+00  0.00000000000E+00  0.45593999997E+02  0.45594000000E+02  0.51100000000E-03 0.  1.
         11   -1    0    0    0    0 -0.00000000000E+00 -0.00000000000E+00 -0.45593999997E+02  0.45594000000E+02  0.51100000000E-03 0. -1.
         23    2    1    2    0    0  0.00000000000E+00  0.00000000000E+00  0.00000000000E+00  0.91188000000E+02  0.91188000000E+02 0.  0.
    9900012    2    3    3    0    0 -0.36516926960E+02 -0.82894024171E+01 -0.21941352030E+02  0.47787273325E+02  0.20000010397E+02 0.  0.
        -12    1    3    3    0    0  0.36516926960E+02  0.82894024171E+01  0.21941352030E+02  0.43400726675E+02  0.00000000000E+00 0.  1.
         11    1    4    4    0    0 -0.13064204588E+02 -0.10032378718E+02 -0.81815343782E+01  0.18391834311E+02  0.51100000000E-03 0. -1.
        -11    1    4    4    0    0 -0.22659116257E+02  0.18562882843E+01 -0.88119072689E+01  0.24383007725E+02  0.51100000000E-03 0.  1.
         12    1    4    4    0    0 -0.79360611466E+00 -0.11331198332E+00 -0.49479103831E+01  0.50124312893E+01  0.00000000000E+00 0. -1.
</event>
<event>
 8    1  0.3776180E-010  0.9118800E+02  0.7816164E-02  0.1184000E+00
        -11   -1    0    0    0    0  0.00000000000E+00  0.00000000000E+00  0.45593999997E+02  0.45594000000E+02  0.51100000000E-03 0. -1.
         11   -1    0    0    0    0 -0.00000000000E+00 -0.00000000000E+00 -0.45593999997E+02  0.45594000000E+02  0.51100000000E-03 0.  1.
         23    2    1    2    0    0  0.00000000000E+00  0.55511151231E-16  0.00000000000E+00  0.91188000000E+02  0.91188000000E+02 0.  0.
    9900012    2    3    3    0    0 -0.18669844815E+02  0.47315074209E+00  0.39176984991E+02  0.47787272702E+02  0.20000007557E+02 0.  0.
        -12    1    3    3    0    0  0.18669844815E+02 -0.47315074209E+00 -0.39176984991E+02  0.43400727298E+02  0.00000000000E+00 0.  1.
         11    1    4    4    0    0 -0.11750272569E+02  0.53717651501E+01  0.20487954905E+02  0.24221500009E+02  0.51100000000E-03 0. -1.
        -11    1    4    4    0    0 -0.10101707711E+02 -0.27308221976E+01  0.14421020043E+02  0.17817623520E+02  0.51100000000E-03 0.  1.
         12    1    4    4    0    0  0.31821354648E+01 -0.21677922104E+01  0.42680100431E+01  0.57481491727E+01  0.00000000000E+00 0. -1.
</event>
<event>
 8    1  0.3776180E-010  0.9118800E+02  0.7816164E-02  0.1184000E+00
        -11   -1    0    0    0    0  0.00000000000E+00  0.00000000000E+00  0.45593999997E+02  0.45594000000E+02  0.51100000000E-03 0. -1.
         11   -1    0    0    0    0 -0.00000000000E+00 -0.00000000000E+00 -0.45593999997E+02  0.45594000000E+02  0.51100000000E-03 0.  1.
         23    2    1    2    0    0  0.00000000000E+00  0.00000000000E+00  0.00000000000E+00  0.91188000000E+02  0.91188000000E+02 0.  0.
    9900012    2    3    3    0    0  0.50714415741E+01 -0.47119786517E+01 -0.42845089415E+02  0.47787263262E+02  0.19999964516E+02 0.  0.
         12    1    3    3    0    0 -0.50714415741E+01  0.47119786517E+01  0.42845089415E+02  0.43400736738E+02  0.00000000000E+00 0. -1.
         11    1    4    4    0    0 -0.65823810479E+01  0.10778054104E+01 -0.11470996530E+02  0.13269256438E+02  0.51100000000E-03 0. -1.
        -11    1    4    4    0    0  0.33854555617E+01  0.40160732559E+00 -0.12998291583E+02  0.13437938165E+02  0.51100000000E-03 0.  1.
         12    1    4    4    0    0  0.82683670604E+01 -0.61913913877E+01 -0.18375801301E+02  0.21080068658E+02  0.00000000000E+00 0. -1.
</event>
<event>
 8    1  0.3776180E-010  0.9118800E+02  0.7816164E-02  0.1184000E+00
        -11   -1    0    0    0    0  0.00000000000E+00  0.00000000000E+00  0.45593999997E+02  0.45594000000E+02  0.51100000000E-03 0. -1.
         11   -1    0    0    0    0 -0.00000000000E+00 -0.00000000000E+00 -0.45593999997E+02  0.45594000000E+02  0.51100000000E-03 0.  1.
         23    2    1    2    0    0  0.88817841970E-15 -0.35527136788E-14  0.00000000000E+00  0.91188000000E+02  0.91188000000E+02 0.  0.
    9900012    2    3    3    0    0 -0.47606358990E+01 -0.28001647941E+02  0.32815655915E+02  0.47787271726E+02  0.20000003107E+02 0.  0.
        -12    1    3    3    0    0  0.47606358990E+01  0.28001647941E+02 -0.32815655915E+02  0.43400728274E+02  0.00000000000E+00 0.  1.
         11    1    4    4    0    0  0.38298367916E+01 -0.31872194279E+01  0.41975499992E+01  0.65150167912E+01  0.51100000000E-03 0. -1.
        -11    1    4    4    0    0  0.14482201437E+01 -0.10700451345E+02  0.47856262053E+01  0.11810978749E+02  0.51100000000E-03 0.  1.
         12    1    4    4    0    0 -0.10038692834E+02 -0.14113977168E+02  0.23832479710E+02  0.29461276185E+02  0.00000000000E+00 0. -1.
</event>
<event>
 8    1  0.3776180E-010  0.9118800E+02  0.7816164E-02  0.1184000E+00
        -11   -1    0    0    0    0  0.00000000000E+00  0.00000000000E+00  0.45593999997E+02  0.45594000000E+02  0.51100000000E-03 0. -1.
         11   -1    0    0    0    0 -0.00000000000E+00 -0.00000000000E+00 -0.45593999997E+02  0.45594000000E+02  0.51100000000E-03 0.  1.
         23    2    1    2    0    0  0.00000000000E+00 -0.88817841970E-15  0.00000000000E+00  0.91188000000E+02  0.91188000000E+02 0.  0.
    9900012    2    3    3    0    0 -0.67260291327E+01 -0.58886817579E+01 -0.42470072411E+02  0.47787273148E+02  0.20000009589E+02 0.  0.
         12    1    3    3    0    0  0.67260291327E+01  0.58886817579E+01  0.42470072411E+02  0.43400726852E+02  0.00000000000E+00 0. -1.
         11    1    4    4    0    0  0.24144145267E+01  0.17802140401E+01 -0.14631238146E+02  0.14935584671E+02  0.51100000000E-03 0. -1.
        -11    1    4    4    0    0  0.16922615771E+01 -0.10734039995E+01 -0.13750283605E+02  0.13895547664E+02  0.51100000000E-03 0.  1.
        -12    1    4    4    0    0 -0.10832705236E+02 -0.65954917985E+01 -0.14088550660E+02  0.18956140812E+02  0.00000000000E+00 0.  1.
</event>
<event>
 8    1  0.3776180E-010  0.9118800E+02  0.7816164E-02  0.1184000E+00
        -11   -1    0    0    0    0  0.00000000000E+00  0.00000000000E+00  0.45593999997E+02  0.45594000000E+02  0.51100000000E-03 0. -1.
         11   -1    0    0    0    0 -0.00000000000E+00 -0.00000000000E+00 -0.45593999997E+02  0.45594000000E+02  0.51100000000E-03 0.  1.
         23    2    1    2    0    0  0.00000000000E+00  0.00000000000E+00  0.00000000000E+00  0.91188000000E+02  0.91188000000E+02 0.  0.
    9900012    2    3    3    0    0 -0.75595700034E+01 -0.37679822718E+02  0.20166976813E+02  0.47787273135E+02  0.20000009530E+02 0.  0.
        -12    1    3    3    0    0  0.75595700034E+01  0.37679822718E+02 -0.20166976813E+02  0.43400726865E+02  0.00000000000E+00 0.  1.
         11    1    4    4    0    0  0.12319450048E+00 -0.52193766707E+01  0.31790351267E+01  0.61125554651E+01  0.51100000000E-03 0. -1.
        -11    1    4    4    0    0 -0.10814726351E+02 -0.81989559994E+01  0.54015922263E+01  0.14606792405E+02  0.51100000000E-03 0.  1.
        -12    1    4    4    0    0  0.31319618466E+01 -0.24261490048E+02  0.11586349460E+02  0.27067925265E+02  0.00000000000E+00 0.  1.
</event>
<event>
 8    1  0.3776180E-010  0.9118800E+02  0.7816164E-02  0.1184000E+00
        -11   -1    0    0    0    0  0.00000000000E+00  0.00000000000E+00  0.45593999997E+02  0.45594000000E+02  0.51100000000E-03 0. -1.
         11   -1    0    0    0    0 -0.00000000000E+00 -0.00000000000E+00 -0.45593999997E+02  0.45594000000E+02  0.51100000000E-03 0.  1.
         23    2    1    2    0    0  0.00000000000E+00  0.00000000000E+00 -0.35527136788E-14  0.91188000000E+02  0.91188000000E+02 0.  0.
    9900012    2    3    3    0    0  0.25980503749E+02  0.20553824875E+02 -0.28038840599E+02  0.47787275649E+02  0.20000020994E+02 0.  0.
         12    1    3    3    0    0 -0.25980503749E+02 -0.20553824875E+02  0.28038840599E+02  0.43400724351E+02  0.00000000000E+00 0. -1.
         11    1    4    4    0    0  0.25450495321E+02  0.15864304395E+02 -0.23456915532E+02  0.38074016764E+02  0.51100000000E-03 0. -1.
        -11    1    4    4    0    0  0.34615168643E+01  0.39972405911E+01 -0.17256130840E+01  0.55621733272E+01  0.51100000000E-03 0.  1.
         12    1    4    4    0    0 -0.29315084367E+01  0.69227988892E+00 -0.28563119834E+01  0.41510855575E+01  0.00000000000E+00 0. -1.
</event>
<event>
 8    1  0.3776180E-010  0.9118800E+02  0.7816164E-02  0.1184000E+00
        -11   -1    0    0    0    0  0.00000000000E+00  0.00000000000E+00  0.45593999997E+02  0.45594000000E+02  0.51100000000E-03 0. -1.
         11   -1    0    0    0    0 -0.00000000000E+00 -0.00000000000E+00 -0.45593999997E+02  0.45594000000E+02  0.51100000000E-03 0.  1.
         23    2    1    2    0    0  0.88817841970E-15  0.00000000000E+00 -0.71054273576E-14  0.91188000000E+02  0.91188000000E+02 0.  0.
    9900012    2    3    3    0    0 -0.68941457071E+01 -0.23138172096E+02 -0.36065485410E+02  0.47787268545E+02  0.19999988603E+02 0.  0.
         12    1    3    3    0    0  0.68941457071E+01  0.23138172096E+02  0.36065485410E+02  0.43400731455E+02  0.00000000000E+00 0. -1.
         11    1    4    4    0    0 -0.47808668799E+01 -0.49842708386E+01 -0.59938818897E+01  0.91447397057E+01  0.51100000000E-03 0.  1.
        -11    1    4    4    0    0 -0.45627532392E+01  0.11605352778E+01 -0.45977637199E+01  0.65806527593E+01  0.51100000000E-03 0. -1.
        -12    1    4    4    0    0  0.24494744120E+01 -0.19314436535E+02 -0.25473839801E+02  0.32061876080E+02  0.00000000000E+00 0.  1.
</event>
<event>
 8    1  0.3776180E-010  0.9118800E+02  0.7816164E-02  0.1184000E+00
        -11   -1    0    0    0    0  0.00000000000E+00  0.00000000000E+00  0.45593999997E+02  0.45594000000E+02  0.51100000000E-03 0. -1.
         11   -1    0    0    0    0 -0.00000000000E+00 -0.00000000000E+00 -0.45593999997E+02  0.45594000000E+02  0.51100000000E-03 0.  1.
         23    2    1    2    0    0  0.00000000000E+00  0.00000000000E+00  0.17763568394E-14  0.91188000000E+02  0.91188000000E+02 0.  0.
    9900012    2    3    3    0    0  0.82942885884E+01 -0.40838681991E+02  0.12125603786E+02  0.47787269163E+02  0.19999991424E+02 0.  0.
        -12    1    3    3    0    0 -0.82942885884E+01  0.40838681991E+02 -0.12125603786E+02  0.43400730837E+02  0.00000000000E+00 0.  1.
         11    1    4    4    0    0  0.40797748907E+01 -0.93982345402E+01 -0.42934275031E+01  0.11108775613E+02  0.51100000000E-03 0. -1.
        -11    1    4    4    0    0  0.49778905824E+01 -0.14884923852E+02  0.47111295510E+01  0.16387040448E+02  0.51100000000E-03 0.  1.
        -12    1    4    4    0    0 -0.76337688465E+00 -0.16555523599E+02  0.11707901738E+02  0.20291453103E+02  0.00000000000E+00 0.  1.
</event>
<event>
 8    1  0.3776180E-010  0.9118800E+02  0.7816164E-02  0.1184000E+00
        -11   -1    0    0    0    0  0.00000000000E+00  0.00000000000E+00  0.45593999997E+02  0.45594000000E+02  0.51100000000E-03 0.  1.
         11   -1    0    0    0    0 -0.00000000000E+00 -0.00000000000E+00 -0.45593999997E+02  0.45594000000E+02  0.51100000000E-03 0. -1.
         23    2    1    2    0    0  0.35527136788E-14  0.00000000000E+00  0.00000000000E+00  0.91188000000E+02  0.91188000000E+02 0.  0.
    9900012    2    3    3    0    0 -0.21446010990E+02 -0.32567445975E+02  0.19053955635E+02  0.47787272471E+02  0.20000006504E+02 0.  0.
        -12    1    3    3    0    0  0.21446010990E+02  0.32567445975E+02 -0.19053955635E+02  0.43400727529E+02  0.00000000000E+00 0.  1.
         11    1    4    4    0    0  0.21924186029E+01 -0.37654707201E+01  0.29687755672E+01  0.52724849648E+01  0.51100000000E-03 0. -1.
        -11    1    4    4    0    0 -0.94614080328E+01 -0.92133137503E+01  0.12286126003E+02  0.18037524349E+02  0.51100000000E-03 0.  1.
         12    1    4    4    0    0 -0.14177021560E+02 -0.19588661505E+02  0.37990540641E+01  0.24477263157E+02  0.00000000000E+00 0. -1.
</event>
<event>
 8    1  0.3776180E-010  0.9118800E+02  0.7816164E-02  0.1184000E+00
        -11   -1    0    0    0    0  0.00000000000E+00  0.00000000000E+00  0.45593999997E+02  0.45594000000E+02  0.51100000000E-03 0.  1.
         11   -1    0    0    0    0 -0.00000000000E+00 -0.00000000000E+00 -0.45593999997E+02  0.45594000000E+02  0.51100000000E-03 0. -1.
         23    2    1    2    0    0  0.17763568394E-14  0.71054273576E-14  0.35527136788E-14  0.91188000000E+02  0.91188000000E+02 0.  0.
    9900012    2    3    3    0    0  0.84180985077E+01  0.39437444795E+02  0.16045159343E+02  0.47787267601E+02  0.19999984300E+02 0.  0.
        -12    1    3    3    0    0 -0.84180985077E+01 -0.39437444795E+02 -0.16045159343E+02  0.43400732399E+02  0.00000000000E+00 0.  1.
         11    1    4    4    0    0  0.64133355754E+01  0.18865897129E+02  0.74143228169E+01  0.21260882643E+02  0.51100000000E-03 0. -1.
        -11    1    4    4    0    0  0.78319937407E+01  0.12906180338E+02  0.74203862367E+01  0.16821764148E+02  0.51100000000E-03 0.  1.
         12    1    4    4    0    0 -0.58272308084E+01  0.76653673278E+01  0.12104502893E+01  0.97046208100E+01  0.00000000000E+00 0. -1.
</event>
<event>
 8    1  0.3776180E-010  0.9118800E+02  0.7816164E-02  0.1184000E+00
        -11   -1    0    0    0    0  0.00000000000E+00  0.00000000000E+00  0.45593999997E+02  0.45594000000E+02  0.51100000000E-03 0.  1.
         11   -1    0    0    0    0 -0.00000000000E+00 -0.00000000000E+00 -0.45593999997E+02  0.45594000000E+02  0.51100000000E-03 0. -1.
         23    2    1    2    0    0 -0.35527136788E-14 -0.35527136788E-14  0.71054273576E-14  0.91188000000E+02  0.91188000000E+02 0.  0.
    9900012    2    3    3    0    0  0.20604628033E+02  0.23388184684E+02 -0.30200420293E+02  0.47787271146E+02  0.20000000463E+02 0.  0.
         12    1    3    3    0    0 -0.20604628033E+02 -0.23388184684E+02  0.30200420293E+02  0.43400728854E+02  0.00000000000E+00 0. -1.
         11    1    4    4    0    0 -0.14385091467E+00 -0.25634022295E+01 -0.41750984930E+01  0.49013438732E+01  0.51100000000E-03 0. -1.
        -11    1    4    4    0    0  0.54592534871E+01  0.80981471534E+01 -0.12157508321E+02  0.15594500466E+02  0.51100000000E-03 0.  1.
        -12    1    4    4    0    0  0.15289225461E+02  0.17853439760E+02 -0.13867813479E+02  0.27291426807E+02  0.00000000000E+00 0.  1.
</event>
<event>
 8    1  0.3776180E-010  0.9118800E+02  0.7816164E-02  0.1184000E+00
        -11   -1    0    0    0    0  0.00000000000E+00  0.00000000000E+00  0.45593999997E+02  0.45594000000E+02  0.51100000000E-03 0.  1.
         11   -1    0    0    0    0 -0.00000000000E+00 -0.00000000000E+00 -0.45593999997E+02  0.45594000000E+02  0.51100000000E-03 0. -1.
         23    2    1    2    0    0 -0.88817841970E-15  0.00000000000E+00  0.88817841970E-15  0.91188000000E+02  0.91188000000E+02 0.  0.
    9900012    2    3    3    0    0 -0.51329231334E+01  0.42605275916E+02  0.64859152919E+01  0.47787268060E+02  0.19999986391E+02 0.  0.
        -12    1    3    3    0    0  0.51329231334E+01 -0.42605275916E+02 -0.64859152919E+01  0.43400731940E+02  0.00000000000E+00 0.  1.
         11    1    4    4    0    0 -0.19159918760E+01  0.17258053303E+02 -0.13058456305E+01  0.17413117520E+02  0.51100000000E-03 0. -1.
        -11    1    4    4    0    0  0.44126025234E+01  0.21055532214E+01  0.10586024410E+01  0.50025048513E+01  0.51100000000E-03 0.  1.
        -12    1    4    4    0    0 -0.76295337808E+01  0.23241669392E+02  0.67331584815E+01  0.25371645689E+02  0.00000000000E+00 0.  1.
</event>
<event>
 8    1  0.3776180E-010  0.9118800E+02  0.7816164E-02  0.1184000E+00
        -11   -1    0    0    0    0  0.00000000000E+00  0.00000000000E+00  0.45593999997E+02  0.45594000000E+02  0.51100000000E-03 0. -1.
         11   -1    0    0    0    0 -0.00000000000E+00 -0.00000000000E+00 -0.45593999997E+02  0.45594000000E+02  0.51100000000E-03 0.  1.
         23    2    1    2    0    0  0.35527136788E-14  0.00000000000E+00  0.00000000000E+00  0.91188000000E+02  0.91188000000E+02 0.  0.
    9900012    2    3    3    0    0  0.29765038043E+02  0.54790731340E+01  0.31107003546E+02  0.47787269572E+02  0.19999993287E+02 0.  0.
        -12    1    3    3    0    0 -0.29765038043E+02 -0.54790731340E+01 -0.31107003546E+02  0.43400730428E+02  0.00000000000E+00 0.  1.
         11    1    4    4    0    0  0.54824765552E+01  0.31144321721E+01  0.16126948595E+02  0.17315764729E+02  0.51100000000E-03 0. -1.
        -11    1    4    4    0    0  0.12203616367E+01 -0.19779187559E+01  0.38530821707E+01  0.44997430599E+01  0.51100000000E-03 0.  1.
         12    1    4    4    0    0  0.23062199851E+02  0.43425597178E+01  0.11126972780E+02  0.25971761783E+02  0.00000000000E+00 0. -1.
</event>
<event>
 8    1  0.3776180E-010  0.9118800E+02  0.7816164E-02  0.1184000E+00
        -11   -1    0    0    0    0  0.00000000000E+00  0.00000000000E+00  0.45593999997E+02  0.45594000000E+02  0.51100000000E-03 0. -1.
         11   -1    0    0    0    0 -0.00000000000E+00 -0.00000000000E+00 -0.45593999997E+02  0.45594000000E+02  0.51100000000E-03 0.  1.
         23    2    1    2    0    0  0.00000000000E+00  0.00000000000E+00  0.00000000000E+00  0.91188000000E+02  0.91188000000E+02 0.  0.
    9900012    2    3    3    0    0 -0.21986088514E+02  0.36527913189E+02 -0.81207580942E+01  0.47787271411E+02  0.20000001670E+02 0.  0.
         12    1    3    3    0    0  0.21986088514E+02 -0.36527913189E+02  0.81207580942E+01  0.43400728589E+02  0.00000000000E+00 0. -1.
         11    1    4    4    0    0 -0.36312865881E+01  0.42552945538E+01 -0.27405440327E+01  0.62293142384E+01  0.51100000000E-03 0. -1.
        -11    1    4    4    0    0 -0.19112216326E+02  0.20532944697E+02  0.12030055680E+01  0.28077141120E+02  0.51100000000E-03 0.  1.
         12    1    4    4    0    0  0.75741440014E+00  0.11739673938E+02 -0.65832196295E+01  0.13480816053E+02  0.00000000000E+00 0. -1.
</event>
<event>
 8    1  0.3776180E-010  0.9118800E+02  0.7816164E-02  0.1184000E+00
        -11   -1    0    0    0    0  0.00000000000E+00  0.00000000000E+00  0.45593999997E+02  0.45594000000E+02  0.51100000000E-03 0.  1.
         11   -1    0    0    0    0 -0.00000000000E+00 -0.00000000000E+00 -0.45593999997E+02  0.45594000000E+02  0.51100000000E-03 0. -1.
         23    2    1    2    0    0  0.00000000000E+00  0.00000000000E+00  0.00000000000E+00  0.91188000000E+02  0.91188000000E+02 0.  0.
    9900012    2    3    3    0    0 -0.90470301825E+01  0.40493767211E+02  0.12728992627E+02  0.47787295036E+02  0.20000109388E+02 0.  0.
        -12    1    3    3    0    0  0.90470301825E+01 -0.40493767211E+02 -0.12728992627E+02  0.43400704964E+02  0.00000000000E+00 0.  1.
         11    1    4    4    0    0 -0.15869910753E+01  0.98180696591E+01 -0.35640557970E+00  0.99518871428E+01  0.51100000000E-03 0. -1.
        -11    1    4    4    0    0 -0.92769132577E+01  0.68468626891E+01  0.31346263371E+01  0.11948494918E+02  0.51100000000E-03 0.  1.
        -12    1    4    4    0    0  0.18168741504E+01  0.23828834863E+02  0.99507718699E+01  0.25886912975E+02  0.00000000000E+00 0.  1.
</event>
<event>
 8    1  0.3776180E-010  0.9118800E+02  0.7816164E-02  0.1184000E+00
        -11   -1    0    0    0    0  0.00000000000E+00  0.00000000000E+00  0.45593999997E+02  0.45594000000E+02  0.51100000000E-03 0. -1.
         11   -1    0    0    0    0 -0.00000000000E+00 -0.00000000000E+00 -0.45593999997E+02  0.45594000000E+02  0.51100000000E-03 0.  1.
         23    2    1    2    0    0  0.00000000000E+00 -0.22204460493E-15  0.00000000000E+00  0.91188000000E+02  0.91188000000E+02 0.  0.
    9900012    2    3    3    0    0  0.69788606222E+01  0.13314523273E+01 -0.42815254429E+02  0.47787271058E+02  0.20000000064E+02 0.  0.
         12    1    3    3    0    0 -0.69788606222E+01 -0.13314523273E+01  0.42815254429E+02  0.43400728942E+02  0.00000000000E+00 0. -1.
         11    1    4    4    0    0 -0.31307464505E+01  0.12902492808E+01 -0.17646253776E+02  0.17968210515E+02  0.51100000000E-03 0. -1.
        -11    1    4    4    0    0  0.46803911976E+01 -0.42517399163E+01 -0.20542792524E+02  0.21493945172E+02  0.51100000000E-03 0.  1.
         12    1    4    4    0    0  0.54292158750E+01  0.42929429628E+01 -0.46262081283E+01  0.83251153713E+01  0.00000000000E+00 0. -1.
</event>
<event>
 8    1  0.3776180E-010  0.9118800E+02  0.7816164E-02  0.1184000E+00
        -11   -1    0    0    0    0  0.00000000000E+00  0.00000000000E+00  0.45593999997E+02  0.45594000000E+02  0.51100000000E-03 0. -1.
         11   -1    0    0    0    0 -0.00000000000E+00 -0.00000000000E+00 -0.45593999997E+02  0.45594000000E+02  0.51100000000E-03 0.  1.
         23    2    1    2    0    0  0.00000000000E+00  0.35527136788E-14  0.00000000000E+00  0.91188000000E+02  0.91188000000E+02 0.  0.
    9900012    2    3    3    0    0 -0.25125357350E+02  0.26511433918E+02  0.23441077395E+02  0.47787264755E+02  0.19999971322E+02 0.  0.
        -12    1    3    3    0    0  0.25125357350E+02 -0.26511433918E+02 -0.23441077395E+02  0.43400735245E+02  0.00000000000E+00 0.  1.
         11    1    4    4    0    0 -0.17704614495E+02  0.12001590412E+02  0.17305476591E+02  0.27513107188E+02  0.51100000000E-03 0. -1.
        -11    1    4    4    0    0 -0.81551070774E+00 -0.47185365746E+00  0.35810431077E+01  0.37029142021E+01  0.51100000000E-03 0.  1.
        -12    1    4    4    0    0 -0.66052321479E+01  0.14981697164E+02  0.25545576969E+01  0.16571243365E+02  0.00000000000E+00 0.  1.
</event>
<event>
 8    1  0.3776180E-010  0.9118800E+02  0.7816164E-02  0.1184000E+00
        -11   -1    0    0    0    0  0.00000000000E+00  0.00000000000E+00  0.45593999997E+02  0.45594000000E+02  0.51100000000E-03 0. -1.
         11   -1    0    0    0    0 -0.00000000000E+00 -0.00000000000E+00 -0.45593999997E+02  0.45594000000E+02  0.51100000000E-03 0.  1.
         23    2    1    2    0    0  0.17763568394E-14  0.00000000000E+00 -0.35527136788E-14  0.91188000000E+02  0.91188000000E+02 0.  0.
    9900012    2    3    3    0    0  0.91279411604E+01  0.27877429069E+02 -0.31986763653E+02  0.47787269473E+02  0.19999992833E+02 0.  0.
         12    1    3    3    0    0 -0.91279411604E+01 -0.27877429069E+02  0.31986763653E+02  0.43400730527E+02  0.00000000000E+00 0. -1.
         11    1    4    4    0    0  0.61804958293E+01  0.86417640141E+01 -0.71601575252E+00  0.10648534772E+02  0.51100000000E-03 0. -1.
        -11    1    4    4    0    0 -0.35083042320E+00  0.12778438963E+02 -0.20173907224E+02  0.23883008965E+02  0.51100000000E-03 0.  1.
         12    1    4    4    0    0  0.32982757543E+01  0.64572260921E+01 -0.11096840677E+02  0.13255725735E+02  0.00000000000E+00 0. -1.
</event>
<event>
 8    1  0.3776180E-010  0.9118800E+02  0.7816164E-02  0.1184000E+00
        -11   -1    0    0    0    0  0.00000000000E+00  0.00000000000E+00  0.45593999997E+02  0.45594000000E+02  0.51100000000E-03 0. -1.
         11   -1    0    0    0    0 -0.00000000000E+00 -0.00000000000E+00 -0.45593999997E+02  0.45594000000E+02  0.51100000000E-03 0.  1.
         23    2    1    2    0    0 -0.88817841970E-15  0.00000000000E+00  0.00000000000E+00  0.91188000000E+02  0.91188000000E+02 0.  0.
    9900012    2    3    3    0    0 -0.42597172913E+01 -0.73692335467E+01  0.42557866983E+02  0.47787276082E+02  0.20000022968E+02 0.  0.
        -12    1    3    3    0    0  0.42597172913E+01  0.73692335467E+01 -0.42557866983E+02  0.43400723918E+02  0.00000000000E+00 0.  1.
         11    1    4    4    0    0  0.35788706161E+01 -0.24129934852E+01  0.16660188457E+01  0.46267128182E+01  0.51100000000E-03 0. -1.
        -11    1    4    4    0    0 -0.94464506899E+00  0.29025422740E+01  0.13520544061E+02  0.13860815919E+02  0.51100000000E-03 0.  1.
         12    1    4    4    0    0 -0.68939428384E+01 -0.78587823354E+01  0.27371304076E+02  0.29299747345E+02  0.00000000000E+00 0. -1.
</event>
<event>
 8    1  0.3776180E-010  0.9118800E+02  0.7816164E-02  0.1184000E+00
        -11   -1    0    0    0    0  0.00000000000E+00  0.00000000000E+00  0.45593999997E+02  0.45594000000E+02  0.51100000000E-03 0. -1.
         11   -1    0    0    0    0 -0.00000000000E+00 -0.00000000000E+00 -0.45593999997E+02  0.45594000000E+02  0.51100000000E-03 0.  1.
         23    2    1    2    0    0  0.00000000000E+00  0.00000000000E+00  0.00000000000E+00  0.91188000000E+02  0.91188000000E+02 0.  0.
    9900012    2    3    3    0    0  0.32528370292E+02  0.80401821062E+01 -0.27584134508E+02  0.47787264076E+02  0.19999968228E+02 0.  0.
         12    1    3    3    0    0 -0.32528370292E+02 -0.80401821062E+01  0.27584134508E+02  0.43400735924E+02  0.00000000000E+00 0. -1.
         11    1    4    4    0    0  0.68640870612E+01  0.33939985936E+01 -0.17512255343E+01  0.78550435244E+01  0.51100000000E-03 0. -1.
        -11    1    4    4    0    0  0.80872747320E+01 -0.33891904911E+01 -0.15624412154E+01  0.89068427397E+01  0.51100000000E-03 0.  1.
        -12    1    4    4    0    0  0.17577008499E+02  0.80353740037E+01 -0.24270467758E+02  0.31025377812E+02  0.00000000000E+00 0.  1.
</event>
<event>
 8    1  0.3776180E-010  0.9118800E+02  0.7816164E-02  0.1184000E+00
        -11   -1    0    0    0    0  0.00000000000E+00  0.00000000000E+00  0.45593999997E+02  0.45594000000E+02  0.51100000000E-03 0. -1.
         11   -1    0    0    0    0 -0.00000000000E+00 -0.00000000000E+00 -0.45593999997E+02  0.45594000000E+02  0.51100000000E-03 0.  1.
         23    2    1    2    0    0  0.88817841970E-15  0.00000000000E+00  0.00000000000E+00  0.91188000000E+02  0.91188000000E+02 0.  0.
    9900012    2    3    3    0    0 -0.51603455302E+01  0.22366718579E+02  0.36833736686E+02  0.47787269312E+02  0.19999992103E+02 0.  0.
        -12    1    3    3    0    0  0.51603455302E+01 -0.22366718579E+02 -0.36833736686E+02  0.43400730688E+02  0.00000000000E+00 0.  1.
         11    1    4    4    0    0 -0.48117175672E+00  0.95733214104E+01  0.11286790710E+02  0.14807824076E+02  0.51100000000E-03 0. -1.
        -11    1    4    4    0    0  0.27314093244E+01  0.38520737295E-02 -0.73272874524E+00  0.28279857516E+01  0.51100000000E-03 0.  1.
         12    1    4    4    0    0 -0.74105830978E+01  0.12789545094E+02  0.26279674722E+02  0.30151459484E+02  0.00000000000E+00 0. -1.
</event>
<event>
 8    1  0.3776180E-010  0.9118800E+02  0.7816164E-02  0.1184000E+00
        -11   -1    0    0    0    0  0.00000000000E+00  0.00000000000E+00  0.45593999997E+02  0.45594000000E+02  0.51100000000E-03 0. -1.
         11   -1    0    0    0    0 -0.00000000000E+00 -0.00000000000E+00 -0.45593999997E+02  0.45594000000E+02  0.51100000000E-03 0.  1.
         23    2    1    2    0    0  0.00000000000E+00  0.00000000000E+00  0.00000000000E+00  0.91188000000E+02  0.91188000000E+02 0.  0.
    9900012    2    3    3    0    0  0.80210901384E+01  0.17239801264E+02  0.39013773594E+02  0.47787272302E+02  0.20000005736E+02 0.  0.
        -12    1    3    3    0    0 -0.80210901384E+01 -0.17239801264E+02 -0.39013773594E+02  0.43400727698E+02  0.00000000000E+00 0.  1.
         11    1    4    4    0    0  0.49568155600E+01  0.38434088664E+01  0.10742510224E+02  0.12439587549E+02  0.51100000000E-03 0. -1.
        -11    1    4    4    0    0  0.61339518241E+01 -0.70535413849E+00  0.49126229216E+01  0.78902949040E+01  0.51100000000E-03 0.  1.
         12    1    4    4    0    0 -0.30696772457E+01  0.14101746536E+02  0.23358640448E+02  0.27457389849E+02  0.00000000000E+00 0. -1.
</event>
<event>
 8    1  0.3776180E-010  0.9118800E+02  0.7816164E-02  0.1184000E+00
        -11   -1    0    0    0    0  0.00000000000E+00  0.00000000000E+00  0.45593999997E+02  0.45594000000E+02  0.51100000000E-03 0. -1.
         11   -1    0    0    0    0 -0.00000000000E+00 -0.00000000000E+00 -0.45593999997E+02  0.45594000000E+02  0.51100000000E-03 0.  1.
         23    2    1    2    0    0  0.00000000000E+00  0.17763568394E-14  0.35527136788E-14  0.91188000000E+02  0.91188000000E+02 0.  0.
    9900012    2    3    3    0    0  0.28703221459E+02 -0.91122296835E+01 -0.31252451489E+02  0.47787269868E+02  0.19999994635E+02 0.  0.
         12    1    3    3    0    0 -0.28703221459E+02  0.91122296835E+01  0.31252451489E+02  0.43400730132E+02  0.00000000000E+00 0. -1.
         11    1    4    4    0    0  0.76408312396E+01 -0.21645524502E+01 -0.15532653204E+02  0.17445082549E+02  0.51100000000E-03 0. -1.
        -11    1    4    4    0    0  0.74466176924E+01 -0.63548259244E+01 -0.13277673719E+02  0.16496440442E+02  0.51100000000E-03 0.  1.
         12    1    4    4    0    0  0.13615772527E+02 -0.59285130888E+00 -0.24421245662E+01  0.13845746877E+02  0.00000000000E+00 0. -1.
</event>
<event>
 8    1  0.3776180E-010  0.9118800E+02  0.7816164E-02  0.1184000E+00
        -11   -1    0    0    0    0  0.00000000000E+00  0.00000000000E+00  0.45593999997E+02  0.45594000000E+02  0.51100000000E-03 0.  1.
         11   -1    0    0    0    0 -0.00000000000E+00 -0.00000000000E+00 -0.45593999997E+02  0.45594000000E+02  0.51100000000E-03 0. -1.
         23    2    1    2    0    0 -0.44408920985E-15  0.71054273576E-14  0.15543122345E-14  0.91188000000E+02  0.91188000000E+02 0.  0.
    9900012    2    3    3    0    0  0.66529171744E+00 -0.43359744737E+02  0.17644229071E+01  0.47787271147E+02  0.20000000470E+02 0.  0.
        -12    1    3    3    0    0 -0.66529171744E+00  0.43359744737E+02 -0.17644229071E+01  0.43400728853E+02  0.00000000000E+00 0.  1.
         11    1    4    4    0    0  0.27104152999E+01 -0.24392378687E+02 -0.17425753491E+01  0.24604289427E+02  0.51100000000E-03 0. -1.
        -11    1    4    4    0    0  0.73837321135E+00 -0.14409749915E+02 -0.30284863974E+01  0.14743059985E+02  0.51100000000E-03 0.  1.
        -12    1    4    4    0    0 -0.27834967938E+01 -0.45576161354E+01  0.65354846536E+01  0.84399217352E+01  0.00000000000E+00 0.  1.
</event>
<event>
 8    1  0.3776180E-010  0.9118800E+02  0.7816164E-02  0.1184000E+00
        -11   -1    0    0    0    0  0.00000000000E+00  0.00000000000E+00  0.45593999997E+02  0.45594000000E+02  0.51100000000E-03 0. -1.
         11   -1    0    0    0    0 -0.00000000000E+00 -0.00000000000E+00 -0.45593999997E+02  0.45594000000E+02  0.51100000000E-03 0.  1.
         23    2    1    2    0    0  0.71054273576E-14 -0.35527136788E-14  0.00000000000E+00  0.91188000000E+02  0.91188000000E+02 0.  0.
    9900012    2    3    3    0    0 -0.34885981327E+02  0.21434731890E+02 -0.14392527975E+02  0.47787259386E+02  0.19999946846E+02 0.  0.
         12    1    3    3    0    0  0.34885981327E+02 -0.21434731890E+02  0.14392527975E+02  0.43400740614E+02  0.00000000000E+00 0. -1.
         11    1    4    4    0    0 -0.21557370458E+02  0.12475015510E+02 -0.11489458237E+02  0.27429070052E+02  0.51100000000E-03 0. -1.
        -11    1    4    4    0    0 -0.82834627165E+01  0.34424420309E+01 -0.74043833353E+01  0.11631468289E+02  0.51100000000E-03 0.  1.
         12    1    4    4    0    0 -0.50451481520E+01  0.55172743484E+01  0.45013135975E+01  0.87267210460E+01  0.00000000000E+00 0. -1.
</event>
<event>
 8    1  0.3776180E-010  0.9118800E+02  0.7816164E-02  0.1184000E+00
        -11   -1    0    0    0    0  0.00000000000E+00  0.00000000000E+00  0.45593999997E+02  0.45594000000E+02  0.51100000000E-03 0. -1.
         11   -1    0    0    0    0 -0.00000000000E+00 -0.00000000000E+00 -0.45593999997E+02  0.45594000000E+02  0.51100000000E-03 0.  1.
         23    2    1    2    0    0  0.00000000000E+00  0.00000000000E+00  0.00000000000E+00  0.91188000000E+02  0.91188000000E+02 0.  0.
    9900012    2    3    3    0    0 -0.24548453956E+02  0.10877196761E+02  0.34098145564E+02  0.47787268071E+02  0.19999986445E+02 0.  0.
        -12    1    3    3    0    0  0.24548453956E+02 -0.10877196761E+02 -0.34098145564E+02  0.43400731929E+02  0.00000000000E+00 0.  1.
         11    1    4    4    0    0  0.20626614886E+00  0.34666921998E+00  0.24558141999E+01  0.24887243556E+01  0.51100000000E-03 0. -1.
        -11    1    4    4    0    0  0.11881170028E+01 -0.14340092672E+01  0.80052374312E+01  0.82189921025E+01  0.51100000000E-03 0.  1.
         12    1    4    4    0    0 -0.25942837108E+02  0.11964536808E+02  0.23637093933E+02  0.37079551613E+02  0.00000000000E+00 0. -1.
</event>
<event>
 8    1  0.3776180E-010  0.9118800E+02  0.7816164E-02  0.1184000E+00
        -11   -1    0    0    0    0  0.00000000000E+00  0.00000000000E+00  0.45593999997E+02  0.45594000000E+02  0.51100000000E-03 0. -1.
         11   -1    0    0    0    0 -0.00000000000E+00 -0.00000000000E+00 -0.45593999997E+02  0.45594000000E+02  0.51100000000E-03 0.  1.
         23    2    1    2    0    0  0.00000000000E+00  0.00000000000E+00  0.71054273576E-14  0.91188000000E+02  0.91188000000E+02 0.  0.
    9900012    2    3    3    0    0  0.22197682395E+02  0.12087841535E+02 -0.35281302936E+02  0.47787270126E+02  0.19999995815E+02 0.  0.
         12    1    3    3    0    0 -0.22197682395E+02 -0.12087841535E+02  0.35281302936E+02  0.43400729874E+02  0.00000000000E+00 0. -1.
         11    1    4    4    0    0  0.10237762499E+02  0.71862652314E+01 -0.25067936004E+02  0.28015274489E+02  0.51100000000E-03 0. -1.
        -11    1    4    4    0    0  0.15337247212E+01 -0.53574921934E+00 -0.75400844305E+01  0.77131194874E+01  0.51100000000E-03 0.  1.
         12    1    4    4    0    0  0.10426195175E+02  0.54373255225E+01 -0.26732825021E+01  0.12058876150E+02  0.00000000000E+00 0. -1.
</event>
<event>
 8    1  0.3776180E-010  0.9118800E+02  0.7816164E-02  0.1184000E+00
        -11   -1    0    0    0    0  0.00000000000E+00  0.00000000000E+00  0.45593999997E+02  0.45594000000E+02  0.51100000000E-03 0.  1.
         11   -1    0    0    0    0 -0.00000000000E+00 -0.00000000000E+00 -0.45593999997E+02  0.45594000000E+02  0.51100000000E-03 0. -1.
         23    2    1    2    0    0 -0.35527136788E-14 -0.17763568394E-14  0.00000000000E+00  0.91188000000E+02  0.91188000000E+02 0.  0.
    9900012    2    3    3    0    0 -0.31546456908E+02  0.11721518434E+02 -0.27405320154E+02  0.47787256797E+02  0.19999935039E+02 0.  0.
         12    1    3    3    0    0  0.31546456908E+02 -0.11721518434E+02  0.27405320154E+02  0.43400743203E+02  0.00000000000E+00 0. -1.
         11    1    4    4    0    0 -0.51153022353E+01  0.82079617508E+01 -0.10075469220E+02  0.13966103011E+02  0.51100000000E-03 0. -1.
        -11    1    4    4    0    0 -0.11352172429E+02  0.38063374043E+01 -0.13915652981E+02  0.18357707413E+02  0.51100000000E-03 0.  1.
         12    1    4    4    0    0 -0.15078982243E+02 -0.29278072107E+00 -0.34141979526E+01  0.15463446372E+02  0.00000000000E+00 0. -1.
</event>
<event>
 8    1  0.3776180E-010  0.9118800E+02  0.7816164E-02  0.1184000E+00
        -11   -1    0    0    0    0  0.00000000000E+00  0.00000000000E+00  0.45593999997E+02  0.45594000000E+02  0.51100000000E-03 0. -1.
         11   -1    0    0    0    0 -0.00000000000E+00 -0.00000000000E+00 -0.45593999997E+02  0.45594000000E+02  0.51100000000E-03 0.  1.
         23    2    1    2    0    0  0.00000000000E+00  0.71054273576E-14  0.71054273576E-14  0.91188000000E+02  0.91188000000E+02 0.  0.
    9900012    2    3    3    0    0  0.85986024657E+01 -0.26578522345E+02 -0.33215508854E+02  0.47787264489E+02  0.19999970112E+02 0.  0.
         12    1    3    3    0    0 -0.85986024657E+01  0.26578522345E+02  0.33215508854E+02  0.43400735511E+02  0.00000000000E+00 0. -1.
         11    1    4    4    0    0 -0.56222398765E+00 -0.31967022339E+01 -0.10425348250E+01  0.34090878702E+01  0.51100000000E-03 0. -1.
        -11    1    4    4    0    0  0.95302650534E+01 -0.21606632740E+02 -0.17000964936E+02  0.29098201652E+02  0.51100000000E-03 0.  1.
         12    1    4    4    0    0 -0.36943860005E+00 -0.17751873716E+01 -0.15172009093E+02  0.15279974967E+02  0.00000000000E+00 0. -1.
</event>
<event>
 8    1  0.3776180E-010  0.9118800E+02  0.7816164E-02  0.1184000E+00
        -11   -1    0    0    0    0  0.00000000000E+00  0.00000000000E+00  0.45593999997E+02  0.45594000000E+02  0.51100000000E-03 0. -1.
         11   -1    0    0    0    0 -0.00000000000E+00 -0.00000000000E+00 -0.45593999997E+02  0.45594000000E+02  0.51100000000E-03 0.  1.
         23    2    1    2    0    0 -0.17763568394E-14  0.00000000000E+00  0.00000000000E+00  0.91188000000E+02  0.91188000000E+02 0.  0.
    9900012    2    3    3    0    0  0.90459471041E+01 -0.19062568476E+02 -0.37926409370E+02  0.47787271854E+02  0.20000003690E+02 0.  0.
         12    1    3    3    0    0 -0.90459471041E+01  0.19062568476E+02  0.37926409370E+02  0.43400728146E+02  0.00000000000E+00 0. -1.
         11    1    4    4    0    0 -0.90788203204E+00 -0.10506370271E+02 -0.18124385351E+02  0.20969058412E+02  0.51100000000E-03 0. -1.
        -11    1    4    4    0    0  0.77048806031E+01 -0.11416796061E+02 -0.18245252560E+02  0.22860394980E+02  0.51100000000E-03 0.  1.
        -12    1    4    4    0    0  0.22489485330E+01  0.28605978565E+01 -0.15567714590E+01  0.39578184618E+01  0.00000000000E+00 0.  1.
</event>
<event>
 8    1  0.3776180E-010  0.9118800E+02  0.7816164E-02  0.1184000E+00
        -11   -1    0    0    0    0  0.00000000000E+00  0.00000000000E+00  0.45593999997E+02  0.45594000000E+02  0.51100000000E-03 0. -1.
         11   -1    0    0    0    0 -0.00000000000E+00 -0.00000000000E+00 -0.45593999997E+02  0.45594000000E+02  0.51100000000E-03 0.  1.
         23    2    1    2    0    0 -0.88817841970E-15  0.00000000000E+00 -0.71054273576E-14  0.91188000000E+02  0.91188000000E+02 0.  0.
    9900012    2    3    3    0    0  0.76004833057E+01  0.52072188286E+01 -0.42411564375E+02  0.47787271122E+02  0.20000000356E+02 0.  0.
         12    1    3    3    0    0 -0.76004833057E+01 -0.52072188286E+01  0.42411564375E+02  0.43400728878E+02  0.00000000000E+00 0. -1.
         11    1    4    4    0    0 -0.26467825135E+01  0.22996715855E+01 -0.25467727224E+01  0.43335895786E+01  0.51100000000E-03 0.  1.
        -11    1    4    4    0    0  0.62652326198E+01  0.75192176356E+00 -0.43804328296E+01  0.76815830500E+01  0.51100000000E-03 0. -1.
        -12    1    4    4    0    0  0.39820331994E+01  0.21556254796E+01 -0.35484358822E+02  0.35772098494E+02  0.00000000000E+00 0.  1.
</event>
<event>
 8    1  0.3776180E-010  0.9118800E+02  0.7816164E-02  0.1184000E+00
        -11   -1    0    0    0    0  0.00000000000E+00  0.00000000000E+00  0.45593999997E+02  0.45594000000E+02  0.51100000000E-03 0. -1.
         11   -1    0    0    0    0 -0.00000000000E+00 -0.00000000000E+00 -0.45593999997E+02  0.45594000000E+02  0.51100000000E-03 0.  1.
         23    2    1    2    0    0  0.00000000000E+00 -0.35527136788E-14  0.00000000000E+00  0.91188000000E+02  0.91188000000E+02 0.  0.
    9900012    2    3    3    0    0  0.30717816870E+01 -0.21765470029E+02 -0.37422607955E+02  0.47787272881E+02  0.20000008373E+02 0.  0.
         12    1    3    3    0    0 -0.30717816870E+01  0.21765470029E+02  0.37422607955E+02  0.43400727119E+02  0.00000000000E+00 0. -1.
         11    1    4    4    0    0  0.72757571161E+00 -0.57525191109E+01 -0.96488170225E+00  0.58780812769E+01  0.51100000000E-03 0. -1.
        -11    1    4    4    0    0  0.66124452931E+01 -0.37544372036E+01 -0.15338462382E+02  0.17119832358E+02  0.51100000000E-03 0.  1.
        -12    1    4    4    0    0 -0.42682393177E+01 -0.12258513715E+02 -0.21119263871E+02  0.24789359246E+02  0.00000000000E+00 0.  1.
</event>
<event>
 8    1  0.3776180E-010  0.9118800E+02  0.7816164E-02  0.1184000E+00
        -11   -1    0    0    0    0  0.00000000000E+00  0.00000000000E+00  0.45593999997E+02  0.45594000000E+02  0.51100000000E-03 0. -1.
         11   -1    0    0    0    0 -0.00000000000E+00 -0.00000000000E+00 -0.45593999997E+02  0.45594000000E+02  0.51100000000E-03 0.  1.
         23    2    1    2    0    0  0.00000000000E+00  0.00000000000E+00  0.00000000000E+00  0.91188000000E+02  0.91188000000E+02 0.  0.
    9900012    2    3    3    0    0 -0.26321573315E+02 -0.32640361017E+02 -0.11198427230E+02  0.47787272338E+02  0.20000005899E+02 0.  0.
         12    1    3    3    0    0  0.26321573315E+02  0.32640361017E+02  0.11198427230E+02  0.43400727662E+02  0.00000000000E+00 0. -1.
         11    1    4    4    0    0 -0.11879048187E+02 -0.90984264692E+01  0.26311578064E+01  0.15192634456E+02  0.51100000000E-03 0. -1.
        -11    1    4    4    0    0 -0.13217176000E+02 -0.16749204615E+02 -0.60140703483E+01  0.22167513146E+02  0.51100000000E-03 0.  1.
        -12    1    4    4    0    0 -0.12253491278E+01 -0.67927299335E+01 -0.78155146882E+01  0.10427124737E+02  0.00000000000E+00 0.  1.
</event>
<event>
 8    1  0.3776180E-010  0.9118800E+02  0.7816164E-02  0.1184000E+00
        -11   -1    0    0    0    0  0.00000000000E+00  0.00000000000E+00  0.45593999997E+02  0.45594000000E+02  0.51100000000E-03 0.  1.
         11   -1    0    0    0    0 -0.00000000000E+00 -0.00000000000E+00 -0.45593999997E+02  0.45594000000E+02  0.51100000000E-03 0. -1.
         23    2    1    2    0    0  0.00000000000E+00 -0.88817841970E-15  0.00000000000E+00  0.91188000000E+02  0.91188000000E+02 0.  0.
    9900012    2    3    3    0    0  0.42802553167E+02  0.55818227812E+01  0.45175101741E+01  0.47787271880E+02  0.20000003808E+02 0.  0.
        -12    1    3    3    0    0 -0.42802553167E+02 -0.55818227812E+01 -0.45175101741E+01  0.43400728120E+02  0.00000000000E+00 0.  1.
         11    1    4    4    0    0  0.24871069513E+02 -0.20155911365E+00  0.29127639841E+01  0.25041863331E+02  0.51100000000E-03 0. -1.
        -11    1    4    4    0    0  0.18922852376E+02  0.60600718421E+01  0.38830359660E+01  0.20245413835E+02  0.51100000000E-03 0.  1.
         12    1    4    4    0    0 -0.99136872108E+00 -0.27668994722E+00 -0.22782897760E+01  0.24999947143E+01  0.00000000000E+00 0. -1.
</event>
<event>
 8    1  0.3776180E-010  0.9118800E+02  0.7816164E-02  0.1184000E+00
        -11   -1    0    0    0    0  0.00000000000E+00  0.00000000000E+00  0.45593999997E+02  0.45594000000E+02  0.51100000000E-03 0. -1.
         11   -1    0    0    0    0 -0.00000000000E+00 -0.00000000000E+00 -0.45593999997E+02  0.45594000000E+02  0.51100000000E-03 0.  1.
         23    2    1    2    0    0 -0.44408920985E-15  0.00000000000E+00  0.00000000000E+00  0.91188000000E+02  0.91188000000E+02 0.  0.
    9900012    2    3    3    0    0  0.39567333325E+01  0.25279956915E+02 -0.35055549028E+02  0.47787268693E+02  0.19999989281E+02 0.  0.
         12    1    3    3    0    0 -0.39567333325E+01 -0.25279956915E+02  0.35055549028E+02  0.43400731307E+02  0.00000000000E+00 0. -1.
         11    1    4    4    0    0  0.31199660908E+00  0.18817974925E+02 -0.23292890841E+02  0.29946156450E+02  0.51100000000E-03 0. -1.
        -11    1    4    4    0    0  0.78918348556E+00  0.59598513954E+01 -0.13273660392E+02  0.14571640254E+02  0.51100000000E-03 0.  1.
         12    1    4    4    0    0  0.28555532379E+01  0.50213059546E+00  0.15110022046E+01  0.32694719897E+01  0.00000000000E+00 0. -1.
</event>
<event>
 8    1  0.3776180E-010  0.9118800E+02  0.7816164E-02  0.1184000E+00
        -11   -1    0    0    0    0  0.00000000000E+00  0.00000000000E+00  0.45593999997E+02  0.45594000000E+02  0.51100000000E-03 0. -1.
         11   -1    0    0    0    0 -0.00000000000E+00 -0.00000000000E+00 -0.45593999997E+02  0.45594000000E+02  0.51100000000E-03 0.  1.
         23    2    1    2    0    0  0.00000000000E+00 -0.17763568394E-14  0.00000000000E+00  0.91188000000E+02  0.91188000000E+02 0.  0.
    9900012    2    3    3    0    0 -0.14325922518E+02  0.74504179587E+01 -0.40284999957E+02  0.47787285659E+02  0.20000066634E+02 0.  0.
         12    1    3    3    0    0  0.14325922518E+02 -0.74504179587E+01  0.40284999957E+02  0.43400714341E+02  0.00000000000E+00 0. -1.
         11    1    4    4    0    0 -0.74394094210E+01  0.80499241616E+01 -0.16260593858E+02  0.19610023060E+02  0.51100000000E-03 0. -1.
        -11    1    4    4    0    0 -0.10710835611E+02 -0.60537793127E+00 -0.15685674747E+02  0.19003391130E+02  0.51100000000E-03 0.  1.
         12    1    4    4    0    0  0.38243225133E+01  0.58717284247E-02 -0.83387313523E+01  0.91738714690E+01  0.00000000000E+00 0. -1.
</event>
<event>
 8    1  0.3776180E-010  0.9118800E+02  0.7816164E-02  0.1184000E+00
        -11   -1    0    0    0    0  0.00000000000E+00  0.00000000000E+00  0.45593999997E+02  0.45594000000E+02  0.51100000000E-03 0.  1.
         11   -1    0    0    0    0 -0.00000000000E+00 -0.00000000000E+00 -0.45593999997E+02  0.45594000000E+02  0.51100000000E-03 0. -1.
         23    2    1    2    0    0  0.00000000000E+00  0.88817841970E-15  0.00000000000E+00  0.91188000000E+02  0.91188000000E+02 0.  0.
    9900012    2    3    3    0    0  0.42286389304E+02  0.17080767519E+01 -0.96211653130E+01  0.47787273410E+02  0.20000010785E+02 0.  0.
         12    1    3    3    0    0 -0.42286389304E+02 -0.17080767519E+01  0.96211653130E+01  0.43400726590E+02  0.00000000000E+00 0. -1.
         11    1    4    4    0    0  0.15447279926E+02  0.76644202403E+01 -0.35729172411E+01  0.17610438172E+02  0.51100000000E-03 0. -1.
        -11    1    4    4    0    0 -0.21039825662E+00 -0.50188049660E+00 -0.22593412457E+01  0.23239566659E+01  0.51100000000E-03 0.  1.
        -12    1    4    4    0    0  0.27049507634E+02 -0.54544629918E+01 -0.37889068262E+01  0.27852878572E+02  0.00000000000E+00 0.  1.
</event>
<event>
 8    1  0.4127447E-010  0.9118800E+02  0.7816164E-02  0.1184000E+00
        -11   -1    0    0    0    0  0.00000000000E+00  0.00000000000E+00  0.45593999997E+02  0.45594000000E+02  0.51100000000E-03 0. -1.
         11   -1    0    0    0    0 -0.00000000000E+00 -0.00000000000E+00 -0.45593999997E+02  0.45594000000E+02  0.51100000000E-03 0.  1.
         23    2    1    2    0    0  0.00000000000E+00  0.00000000000E+00  0.00000000000E+00  0.91188000000E+02  0.91188000000E+02 0.  0.
    9900012    2    3    3    0    0  0.48996485000E+01  0.13444969033E+02  0.40973757056E+02  0.47787279787E+02  0.20000039861E+02 0.  0.
        -12    1    3    3    0    0 -0.48996485000E+01 -0.13444969033E+02 -0.40973757056E+02  0.43400720213E+02  0.00000000000E+00 0.  1.
         11    1    4    4    0    0  0.15113115062E+01  0.16193738187E+01  0.23240901276E+02  0.23346218675E+02  0.51100000000E-03 0. -1.
        -11    1    4    4    0    0  0.48117278456E+01  0.20921300848E+01  0.11898527781E+02  0.13004026175E+02  0.51100000000E-03 0.  1.
        -12    1    4    4    0    0 -0.14233908518E+01  0.97334651300E+01  0.58343279992E+01  0.11437034937E+02  0.00000000000E+00 0.  1.
</event>
<event>
 8    1  0.3776180E-010  0.9118800E+02  0.7816164E-02  0.1184000E+00
        -11   -1    0    0    0    0  0.00000000000E+00  0.00000000000E+00  0.45593999997E+02  0.45594000000E+02  0.51100000000E-03 0. -1.
         11   -1    0    0    0    0 -0.00000000000E+00 -0.00000000000E+00 -0.45593999997E+02  0.45594000000E+02  0.51100000000E-03 0.  1.
         23    2    1    2    0    0  0.00000000000E+00 -0.17763568394E-14  0.00000000000E+00  0.91188000000E+02  0.91188000000E+02 0.  0.
    9900012    2    3    3    0    0  0.22151739943E+02  0.15553288912E+02 -0.33926665375E+02  0.47787274178E+02  0.20000014285E+02 0.  0.
         12    1    3    3    0    0 -0.22151739943E+02 -0.15553288912E+02  0.33926665375E+02  0.43400725822E+02  0.00000000000E+00 0. -1.
         11    1    4    4    0    0  0.22910903556E+01 -0.35120150141E+01 -0.74719038789E+01  0.85681206991E+01  0.51100000000E-03 0. -1.
        -11    1    4    4    0    0 -0.59245257920E-01  0.20695235290E+01 -0.48441985674E+01  0.52680829207E+01  0.51100000000E-03 0.  1.
        -12    1    4    4    0    0  0.19919894845E+02  0.16995780397E+02 -0.21610562929E+02  0.33951070558E+02  0.00000000000E+00 0.  1.
</event>
<event>
 8    1  0.3776180E-010  0.9118800E+02  0.7816164E-02  0.1184000E+00
        -11   -1    0    0    0    0  0.00000000000E+00  0.00000000000E+00  0.45593999997E+02  0.45594000000E+02  0.51100000000E-03 0. -1.
         11   -1    0    0    0    0 -0.00000000000E+00 -0.00000000000E+00 -0.45593999997E+02  0.45594000000E+02  0.51100000000E-03 0.  1.
         23    2    1    2    0    0  0.17763568394E-14  0.00000000000E+00 -0.35527136788E-14  0.91188000000E+02  0.91188000000E+02 0.  0.
    9900012    2    3    3    0    0  0.12509899372E+02 -0.28197439992E+02 -0.30529173049E+02  0.47787267156E+02  0.19999982270E+02 0.  0.
         12    1    3    3    0    0 -0.12509899372E+02  0.28197439992E+02  0.30529173049E+02  0.43400732844E+02  0.00000000000E+00 0. -1.
         11    1    4    4    0    0 -0.21039560050E+01 -0.55867006020E+01 -0.12074553276E+01  0.60906324069E+01  0.51100000000E-03 0. -1.
        -11    1    4    4    0    0 -0.88316247718E+00  0.86493968587E+00 -0.26887991328E+01  0.29593475056E+01  0.51100000000E-03 0.  1.
        -12    1    4    4    0    0  0.15497017855E+02 -0.23475679075E+02 -0.26632918588E+02  0.38737287243E+02  0.00000000000E+00 0.  1.
</event>
<event>
 8    1  0.3776180E-010  0.9118800E+02  0.7816164E-02  0.1184000E+00
        -11   -1    0    0    0    0  0.00000000000E+00  0.00000000000E+00  0.45593999997E+02  0.45594000000E+02  0.51100000000E-03 0. -1.
         11   -1    0    0    0    0 -0.00000000000E+00 -0.00000000000E+00 -0.45593999997E+02  0.45594000000E+02  0.51100000000E-03 0.  1.
         23    2    1    2    0    0  0.35527136788E-14  0.35527136788E-14  0.00000000000E+00  0.91188000000E+02  0.91188000000E+02 0.  0.
    9900012    2    3    3    0    0 -0.19636622585E+02 -0.22741317962E+02 -0.31318668028E+02  0.47787268943E+02  0.19999990419E+02 0.  0.
         12    1    3    3    0    0  0.19636622585E+02  0.22741317962E+02  0.31318668028E+02  0.43400731057E+02  0.00000000000E+00 0. -1.
         11    1    4    4    0    0 -0.12131695609E+02 -0.10939493934E+02 -0.14061022278E+02  0.21553721573E+02  0.51100000000E-03 0. -1.
        -11    1    4    4    0    0 -0.72478749852E+01 -0.11925085124E+02 -0.19496791983E+02  0.23976326760E+02  0.51100000000E-03 0.  1.
         12    1    4    4    0    0 -0.25705199134E+00  0.12326109574E+00  0.22391462336E+01  0.22572206094E+01  0.00000000000E+00 0. -1.
</event>
<event>
 8    1  0.3776180E-010  0.9118800E+02  0.7816164E-02  0.1184000E+00
        -11   -1    0    0    0    0  0.00000000000E+00  0.00000000000E+00  0.45593999997E+02  0.45594000000E+02  0.51100000000E-03 0. -1.
         11   -1    0    0    0    0 -0.00000000000E+00 -0.00000000000E+00 -0.45593999997E+02  0.45594000000E+02  0.51100000000E-03 0.  1.
         23    2    1    2    0    0 -0.22204460493E-15  0.77715611724E-15  0.00000000000E+00  0.91188000000E+02  0.91188000000E+02 0.  0.
    9900012    2    3    3    0    0 -0.17547653868E+01 -0.45775912259E+00  0.43362779562E+02  0.47787315716E+02  0.20000203675E+02 0.  0.
        -12    1    3    3    0    0  0.17547653868E+01  0.45775912259E+00 -0.43362779562E+02  0.43400684284E+02  0.00000000000E+00 0.  1.
         11    1    4    4    0    0 -0.26362212625E+01  0.39322127351E+01  0.25180196418E+02  0.25621363185E+02  0.51100000000E-03 0. -1.
        -11    1    4    4    0    0 -0.14309685143E+01  0.34664992134E+01  0.95825381126E+01  0.10290253866E+02  0.51100000000E-03 0.  1.
        -12    1    4    4    0    0  0.23124243900E+01 -0.78564710711E+01  0.86000450315E+01  0.11875698666E+02  0.00000000000E+00 0.  1.
</event>
<event>
 8    1  0.3776180E-010  0.9118800E+02  0.7816164E-02  0.1184000E+00
        -11   -1    0    0    0    0  0.00000000000E+00  0.00000000000E+00  0.45593999997E+02  0.45594000000E+02  0.51100000000E-03 0.  1.
         11   -1    0    0    0    0 -0.00000000000E+00 -0.00000000000E+00 -0.45593999997E+02  0.45594000000E+02  0.51100000000E-03 0. -1.
         23    2    1    2    0    0  0.71054273576E-14 -0.22204460493E-15  0.00000000000E+00  0.91188000000E+02  0.91188000000E+02 0.  0.
    9900012    2    3    3    0    0 -0.43265569110E+02 -0.12483365688E+01 -0.31867289903E+01  0.47787273551E+02  0.20000011429E+02 0.  0.
         12    1    3    3    0    0  0.43265569110E+02  0.12483365688E+01  0.31867289903E+01  0.43400726449E+02  0.00000000000E+00 0. -1.
         11    1    4    4    0    0 -0.66952447135E+01 -0.25288147128E+01  0.31061449909E+01  0.78018807086E+01  0.51100000000E-03 0. -1.
        -11    1    4    4    0    0 -0.25355434927E+02  0.25442289989E+01  0.26025359612E+01  0.25615315248E+02  0.51100000000E-03 0.  1.
         12    1    4    4    0    0 -0.11214889470E+02 -0.12637508549E+01 -0.88954099424E+01  0.14370077595E+02  0.00000000000E+00 0. -1.
</event>
<event>
 8    1  0.3776180E-010  0.9118800E+02  0.7816164E-02  0.1184000E+00
        -11   -1    0    0    0    0  0.00000000000E+00  0.00000000000E+00  0.45593999997E+02  0.45594000000E+02  0.51100000000E-03 0. -1.
         11   -1    0    0    0    0 -0.00000000000E+00 -0.00000000000E+00 -0.45593999997E+02  0.45594000000E+02  0.51100000000E-03 0.  1.
         23    2    1    2    0    0  0.00000000000E+00  0.35527136788E-14  0.00000000000E+00  0.91188000000E+02  0.91188000000E+02 0.  0.
    9900012    2    3    3    0    0  0.12816662998E+02 -0.31881476181E+02  0.26512791018E+02  0.47787268883E+02  0.19999990146E+02 0.  0.
        -12    1    3    3    0    0 -0.12816662998E+02  0.31881476181E+02 -0.26512791018E+02  0.43400731117E+02  0.00000000000E+00 0.  1.
         11    1    4    4    0    0  0.38670705241E+01 -0.42152115229E+01  0.54736506550E+01  0.79172655870E+01  0.51100000000E-03 0. -1.
        -11    1    4    4    0    0 -0.13611189529E+01 -0.52523169135E+01  0.12727555400E+02  0.13835828290E+02  0.51100000000E-03 0.  1.
         12    1    4    4    0    0  0.10310711427E+02 -0.22413947745E+02  0.83115849635E+01  0.26034175006E+02  0.00000000000E+00 0. -1.
</event>
<event>
 8    1  0.3776180E-010  0.9118800E+02  0.7816164E-02  0.1184000E+00
        -11   -1    0    0    0    0  0.00000000000E+00  0.00000000000E+00  0.45593999997E+02  0.45594000000E+02  0.51100000000E-03 0.  1.
         11   -1    0    0    0    0 -0.00000000000E+00 -0.00000000000E+00 -0.45593999997E+02  0.45594000000E+02  0.51100000000E-03 0. -1.
         23    2    1    2    0    0  0.00000000000E+00  0.00000000000E+00  0.35527136788E-14  0.91188000000E+02  0.91188000000E+02 0.  0.
    9900012    2    3    3    0    0 -0.17260142985E+01  0.29771429279E+02 -0.31532612818E+02  0.47787276529E+02  0.20000025008E+02 0.  0.
         12    1    3    3    0    0  0.17260142985E+01 -0.29771429279E+02  0.31532612818E+02  0.43400723471E+02  0.00000000000E+00 0. -1.
         11    1    4    4    0    0  0.11512315842E+01  0.15564879400E+02 -0.12666330355E+02  0.20100416161E+02  0.51100000000E-03 0. -1.
        -11    1    4    4    0    0  0.80403428696E+00  0.14910257388E+02 -0.97580496900E+01  0.17837650645E+02  0.51100000000E-03 0.  1.
         12    1    4    4    0    0 -0.36812801697E+01 -0.70370750960E+00 -0.91082327722E+01  0.98492097236E+01  0.00000000000E+00 0. -1.
</event>
<event>
 8    1  0.3776180E-010  0.9118800E+02  0.7816164E-02  0.1184000E+00
        -11   -1    0    0    0    0  0.00000000000E+00  0.00000000000E+00  0.45593999997E+02  0.45594000000E+02  0.51100000000E-03 0. -1.
         11   -1    0    0    0    0 -0.00000000000E+00 -0.00000000000E+00 -0.45593999997E+02  0.45594000000E+02  0.51100000000E-03 0.  1.
         23    2    1    2    0    0  0.00000000000E+00 -0.22204460493E-15  0.00000000000E+00  0.91188000000E+02  0.91188000000E+02 0.  0.
    9900012    2    3    3    0    0  0.22903342669E+02 -0.16325948479E+00 -0.36865070199E+02  0.47787272359E+02  0.20000005992E+02 0.  0.
         12    1    3    3    0    0 -0.22903342669E+02  0.16325948479E+00  0.36865070199E+02  0.43400727641E+02  0.00000000000E+00 0. -1.
         11    1    4    4    0    0  0.16308027699E+02  0.49980179505E+01 -0.17407851006E+02  0.24371401843E+02  0.51100000000E-03 0. -1.
        -11    1    4    4    0    0  0.64333114996E+01 -0.15607214202E+00 -0.16227463543E+02  0.17456873393E+02  0.51100000000E-03 0.  1.
         12    1    4    4    0    0  0.16200346974E+00 -0.50052052933E+01 -0.32297556498E+01  0.59589971228E+01  0.00000000000E+00 0. -1.
</event>
<event>
 8    1  0.3776180E-010  0.9118800E+02  0.7816164E-02  0.1184000E+00
        -11   -1    0    0    0    0  0.00000000000E+00  0.00000000000E+00  0.45593999997E+02  0.45594000000E+02  0.51100000000E-03 0. -1.
         11   -1    0    0    0    0 -0.00000000000E+00 -0.00000000000E+00 -0.45593999997E+02  0.45594000000E+02  0.51100000000E-03 0.  1.
         23    2    1    2    0    0  0.35527136788E-14 -0.17763568394E-14  0.71054273576E-14  0.91188000000E+02  0.91188000000E+02 0.  0.
    9900012    2    3    3    0    0  0.25722852517E+02 -0.12657999879E+02  0.32584247034E+02  0.47787271235E+02  0.20000000867E+02 0.  0.
        -12    1    3    3    0    0 -0.25722852517E+02  0.12657999879E+02 -0.32584247034E+02  0.43400728765E+02  0.00000000000E+00 0.  1.
         11    1    4    4    0    0 -0.40409407530E+00 -0.38485393502E+01  0.29162101273E+01  0.48454957351E+01  0.51100000000E-03 0. -1.
        -11    1    4    4    0    0  0.46593702095E+01  0.39080194503E+01  0.62968065000E+01  0.87539773322E+01  0.51100000000E-03 0.  1.
         12    1    4    4    0    0  0.21467576383E+02 -0.12717479979E+02  0.23371230407E+02  0.34187798167E+02  0.00000000000E+00 0. -1.
</event>
<event>
 8    1  0.3776180E-010  0.9118800E+02  0.7816164E-02  0.1184000E+00
        -11   -1    0    0    0    0  0.00000000000E+00  0.00000000000E+00  0.45593999997E+02  0.45594000000E+02  0.51100000000E-03 0.  1.
         11   -1    0    0    0    0 -0.00000000000E+00 -0.00000000000E+00 -0.45593999997E+02  0.45594000000E+02  0.51100000000E-03 0. -1.
         23    2    1    2    0    0  0.35527136788E-14  0.00000000000E+00  0.35527136788E-14  0.91188000000E+02  0.91188000000E+02 0.  0.
    9900012    2    3    3    0    0  0.29204969760E+02 -0.25384185435E+02 -0.19655435951E+02  0.47787270843E+02  0.19999999084E+02 0.  0.
         12    1    3    3    0    0 -0.29204969760E+02  0.25384185435E+02  0.19655435951E+02  0.43400729157E+02  0.00000000000E+00 0. -1.
         11    1    4    4    0    0  0.67643805512E+01 -0.10735981352E+02 -0.32182707645E+01  0.13091042999E+02  0.51100000000E-03 0. -1.
        -11    1    4    4    0    0  0.12103791201E+02 -0.10942843334E+02 -0.18262498740E+01  0.16418975928E+02  0.51100000000E-03 0.  1.
         12    1    4    4    0    0  0.10336798008E+02 -0.37053607497E+01 -0.14610915313E+02  0.18277251916E+02  0.00000000000E+00 0. -1.
</event>
<event>
 8    1  0.3776180E-010  0.9118800E+02  0.7816164E-02  0.1184000E+00
        -11   -1    0    0    0    0  0.00000000000E+00  0.00000000000E+00  0.45593999997E+02  0.45594000000E+02  0.51100000000E-03 0. -1.
         11   -1    0    0    0    0 -0.00000000000E+00 -0.00000000000E+00 -0.45593999997E+02  0.45594000000E+02  0.51100000000E-03 0.  1.
         23    2    1    2    0    0  0.00000000000E+00  0.00000000000E+00  0.00000000000E+00  0.91188000000E+02  0.91188000000E+02 0.  0.
    9900012    2    3    3    0    0 -0.35624594577E+02 -0.80869102879E+01  0.23433184783E+02  0.47787262612E+02  0.19999961553E+02 0.  0.
        -12    1    3    3    0    0  0.35624594577E+02  0.80869102879E+01 -0.23433184783E+02  0.43400737388E+02  0.00000000000E+00 0.  1.
         11    1    4    4    0    0 -0.92573152483E+01  0.24284686696E+01  0.77982975711E+00  0.96022643369E+01  0.51100000000E-03 0. -1.
        -11    1    4    4    0    0 -0.10601952328E+01  0.17047981430E+01  0.39386884113E+01  0.44208163615E+01  0.51100000000E-03 0.  1.
         12    1    4    4    0    0 -0.25307084096E+02 -0.12220177100E+02  0.18714666614E+02  0.33764181913E+02  0.00000000000E+00 0. -1.
</event>
<event>
 8    1  0.3776180E-010  0.9118800E+02  0.7816164E-02  0.1184000E+00
        -11   -1    0    0    0    0  0.00000000000E+00  0.00000000000E+00  0.45593999997E+02  0.45594000000E+02  0.51100000000E-03 0.  1.
         11   -1    0    0    0    0 -0.00000000000E+00 -0.00000000000E+00 -0.45593999997E+02  0.45594000000E+02  0.51100000000E-03 0. -1.
         23    2    1    2    0    0  0.35527136788E-14  0.35527136788E-14  0.00000000000E+00  0.91188000000E+02  0.91188000000E+02 0.  0.
    9900012    2    3    3    0    0 -0.26019582846E+02  0.11731379031E+02 -0.32695253289E+02  0.47787268058E+02  0.19999986385E+02 0.  0.
         12    1    3    3    0    0  0.26019582846E+02 -0.11731379031E+02  0.32695253289E+02  0.43400731942E+02  0.00000000000E+00 0. -1.
         11    1    4    4    0    0 -0.60371823214E+00  0.32713092528E+01 -0.37639694367E+01  0.50232863857E+01  0.51100000000E-03 0.  1.
        -11    1    4    4    0    0 -0.83094278865E+00  0.63145115841E+01 -0.32611963582E+01  0.71553423685E+01  0.51100000000E-03 0. -1.
         12    1    4    4    0    0 -0.24584921826E+02  0.21455581937E+01 -0.25670087494E+02  0.35608639304E+02  0.00000000000E+00 0. -1.
</event>
<event>
 8    1  0.3776180E-010  0.9118800E+02  0.7816164E-02  0.1184000E+00
        -11   -1    0    0    0    0  0.00000000000E+00  0.00000000000E+00  0.45593999997E+02  0.45594000000E+02  0.51100000000E-03 0. -1.
         11   -1    0    0    0    0 -0.00000000000E+00 -0.00000000000E+00 -0.45593999997E+02  0.45594000000E+02  0.51100000000E-03 0.  1.
         23    2    1    2    0    0  0.00000000000E+00 -0.17763568394E-14  0.00000000000E+00  0.91188000000E+02  0.91188000000E+02 0.  0.
    9900012    2    3    3    0    0  0.20363462994E+02  0.91325109466E+01 -0.37222975475E+02  0.47787270922E+02  0.19999999442E+02 0.  0.
         12    1    3    3    0    0 -0.20363462994E+02 -0.91325109466E+01  0.37222975475E+02  0.43400729078E+02  0.00000000000E+00 0. -1.
         11    1    4    4    0    0  0.14787861493E+02  0.81355795244E+01 -0.15377614599E+02  0.22832860810E+02  0.51100000000E-03 0. -1.
        -11    1    4    4    0    0  0.25506353639E+01  0.57093477631E+01 -0.13816051945E+02  0.15165278904E+02  0.51100000000E-03 0.  1.
        -12    1    4    4    0    0  0.30249661369E+01 -0.47124163409E+01 -0.80293089307E+01  0.97891312078E+01  0.00000000000E+00 0.  1.
</event>
<event>
 8    1  0.3776180E-010  0.9118800E+02  0.7816164E-02  0.1184000E+00
        -11   -1    0    0    0    0  0.00000000000E+00  0.00000000000E+00  0.45593999997E+02  0.45594000000E+02  0.51100000000E-03 0. -1.
         11   -1    0    0    0    0 -0.00000000000E+00 -0.00000000000E+00 -0.45593999997E+02  0.45594000000E+02  0.51100000000E-03 0.  1.
         23    2    1    2    0    0 -0.44408920985E-15  0.00000000000E+00  0.00000000000E+00  0.91188000000E+02  0.91188000000E+02 0.  0.
    9900012    2    3    3    0    0  0.94183710372E+00  0.28903516890E+02  0.32362366539E+02  0.47787272889E+02  0.20000008411E+02 0.  0.
        -12    1    3    3    0    0 -0.94183710372E+00 -0.28903516890E+02 -0.32362366539E+02  0.43400727111E+02  0.00000000000E+00 0.  1.
         11    1    4    4    0    0  0.99533277252E+00  0.14322404929E+02  0.13214089603E+02  0.19512409758E+02  0.51100000000E-03 0. -1.
        -11    1    4    4    0    0  0.71216505392E+01  0.69533568462E+01  0.66551736817E+01  0.11973237441E+02  0.51100000000E-03 0.  1.
        -12    1    4    4    0    0 -0.71751462080E+01  0.76277551150E+01  0.12493103254E+02  0.16301625689E+02  0.00000000000E+00 0.  1.
</event>
<event>
 8    1  0.3776180E-010  0.9118800E+02  0.7816164E-02  0.1184000E+00
        -11   -1    0    0    0    0  0.00000000000E+00  0.00000000000E+00  0.45593999997E+02  0.45594000000E+02  0.51100000000E-03 0. -1.
         11   -1    0    0    0    0 -0.00000000000E+00 -0.00000000000E+00 -0.45593999997E+02  0.45594000000E+02  0.51100000000E-03 0.  1.
         23    2    1    2    0    0  0.00000000000E+00  0.00000000000E+00  0.71054273576E-14  0.91188000000E+02  0.91188000000E+02 0.  0.
    9900012    2    3    3    0    0 -0.28606366633E+02  0.47917371151E+01 -0.32285264583E+02  0.47787271138E+02  0.20000000428E+02 0.  0.
         12    1    3    3    0    0  0.28606366633E+02 -0.47917371151E+01  0.32285264583E+02  0.43400728862E+02  0.00000000000E+00 0. -1.
         11    1    4    4    0    0 -0.41685042674E+01 -0.10790375032E+01 -0.75827833891E+01  0.87200546987E+01  0.51100000000E-03 0. -1.
        -11    1    4    4    0    0 -0.77209529277E+01  0.55961343997E+00  0.11498246617E+01  0.78261343157E+01  0.51100000000E-03 0.  1.
        -12    1    4    4    0    0 -0.16716909438E+02  0.53111611784E+01 -0.25852305856E+02  0.31241082124E+02  0.00000000000E+00 0.  1.
</event>
<event>
 8    1  0.3776180E-010  0.9118800E+02  0.7816164E-02  0.1184000E+00
        -11   -1    0    0    0    0  0.00000000000E+00  0.00000000000E+00  0.45593999997E+02  0.45594000000E+02  0.51100000000E-03 0. -1.
         11   -1    0    0    0    0 -0.00000000000E+00 -0.00000000000E+00 -0.45593999997E+02  0.45594000000E+02  0.51100000000E-03 0.  1.
         23    2    1    2    0    0  0.00000000000E+00 -0.35527136788E-14  0.00000000000E+00  0.91188000000E+02  0.91188000000E+02 0.  0.
    9900012    2    3    3    0    0 -0.37006821768E+02 -0.17689272229E+02  0.14184786783E+02  0.47787269760E+02  0.19999994142E+02 0.  0.
        -12    1    3    3    0    0  0.37006821768E+02  0.17689272229E+02 -0.14184786783E+02  0.43400730240E+02  0.00000000000E+00 0.  1.
         11    1    4    4    0    0 -0.18521997892E+02 -0.41517960789E+01  0.56112535190E+01  0.19793634909E+02  0.51100000000E-03 0. -1.
        -11    1    4    4    0    0 -0.18764422023E+02 -0.73066913058E+01  0.47899090888E+01  0.20698659402E+02  0.51100000000E-03 0.  1.
        -12    1    4    4    0    0  0.27959814756E+00 -0.62307848440E+01  0.37836241755E+01  0.72949754487E+01  0.00000000000E+00 0.  1.
</event>
<event>
 8    1  0.3776180E-010  0.9118800E+02  0.7816164E-02  0.1184000E+00
        -11   -1    0    0    0    0  0.00000000000E+00  0.00000000000E+00  0.45593999997E+02  0.45594000000E+02  0.51100000000E-03 0. -1.
         11   -1    0    0    0    0 -0.00000000000E+00 -0.00000000000E+00 -0.45593999997E+02  0.45594000000E+02  0.51100000000E-03 0.  1.
         23    2    1    2    0    0  0.88817841970E-15  0.35527136788E-14  0.14210854715E-13  0.91188000000E+02  0.91188000000E+02 0.  0.
    9900012    2    3    3    0    0 -0.11815396626E+01 -0.14434912498E+02 -0.40912898856E+02  0.47787216279E+02  0.19999750301E+02 0.  0.
         12    1    3    3    0    0  0.11815396626E+01  0.14434912498E+02  0.40912898856E+02  0.43400783721E+02  0.00000000000E+00 0. -1.
         11    1    4    4    0    0 -0.32957371779E+01 -0.13796790614E+02 -0.28979085768E+02  0.32264542876E+02  0.51100000000E-03 0. -1.
        -11    1    4    4    0    0  0.79353563907E-02 -0.43943704565E+01 -0.97491315761E+01  0.10693742162E+02  0.51100000000E-03 0.  1.
        -12    1    4    4    0    0  0.21062621589E+01  0.37562485725E+01 -0.21846815122E+01  0.48289312410E+01  0.00000000000E+00 0.  1.
</event>
<event>
 8    1  0.3776180E-010  0.9118800E+02  0.7816164E-02  0.1184000E+00
        -11   -1    0    0    0    0  0.00000000000E+00  0.00000000000E+00  0.45593999997E+02  0.45594000000E+02  0.51100000000E-03 0.  1.
         11   -1    0    0    0    0 -0.00000000000E+00 -0.00000000000E+00 -0.45593999997E+02  0.45594000000E+02  0.51100000000E-03 0. -1.
         23    2    1    2    0    0  0.00000000000E+00 -0.71054273576E-14  0.00000000000E+00  0.91188000000E+02  0.91188000000E+02 0.  0.
    9900012    2    3    3    0    0 -0.13985079916E+02  0.35439468099E+02  0.20786646834E+02  0.47787273670E+02  0.20000011972E+02 0.  0.
        -12    1    3    3    0    0  0.13985079916E+02 -0.35439468099E+02 -0.20786646834E+02  0.43400726330E+02  0.00000000000E+00 0.  1.
         11    1    4    4    0    0  0.14585549643E+01 -0.44125776956E+00  0.59730400626E+00  0.16367233548E+01  0.51100000000E-03 0.  1.
        -11    1    4    4    0    0 -0.36854165301E+01  0.25570458885E+02  0.11764166905E+02  0.28387079558E+02  0.51100000000E-03 0. -1.
         12    1    4    4    0    0 -0.11758218350E+02  0.10310266983E+02  0.84251759220E+01  0.17763470757E+02  0.00000000000E+00 0. -1.
</event>
<event>
 8    1  0.3776180E-010  0.9118800E+02  0.7816164E-02  0.1184000E+00
        -11   -1    0    0    0    0  0.00000000000E+00  0.00000000000E+00  0.45593999997E+02  0.45594000000E+02  0.51100000000E-03 0. -1.
         11   -1    0    0    0    0 -0.00000000000E+00 -0.00000000000E+00 -0.45593999997E+02  0.45594000000E+02  0.51100000000E-03 0.  1.
         23    2    1    2    0    0 -0.17763568394E-14  0.00000000000E+00  0.00000000000E+00  0.91188000000E+02  0.91188000000E+02 0.  0.
    9900012    2    3    3    0    0 -0.15760472783E+02  0.30372371531E+02  0.26697373345E+02  0.47787271915E+02  0.20000003971E+02 0.  0.
        -12    1    3    3    0    0  0.15760472783E+02 -0.30372371531E+02 -0.26697373345E+02  0.43400728085E+02  0.00000000000E+00 0.  1.
         11    1    4    4    0    0 -0.70871740711E+01  0.92400807212E+01  0.12686816980E+02  0.17220988746E+02  0.51100000000E-03 0. -1.
        -11    1    4    4    0    0  0.36663108626E+01  0.64153007641E+01  0.68302534140E+01  0.10062319871E+02  0.51100000000E-03 0.  1.
         12    1    4    4    0    0 -0.12339609574E+02  0.14716990046E+02  0.71803029510E+01  0.20503963298E+02  0.00000000000E+00 0. -1.
</event>
<event>
 8    1  0.3776180E-010  0.9118800E+02  0.7816164E-02  0.1184000E+00
        -11   -1    0    0    0    0  0.00000000000E+00  0.00000000000E+00  0.45593999997E+02  0.45594000000E+02  0.51100000000E-03 0. -1.
         11   -1    0    0    0    0 -0.00000000000E+00 -0.00000000000E+00 -0.45593999997E+02  0.45594000000E+02  0.51100000000E-03 0.  1.
         23    2    1    2    0    0  0.00000000000E+00  0.00000000000E+00  0.00000000000E+00  0.91188000000E+02  0.91188000000E+02 0.  0.
    9900012    2    3    3    0    0  0.32599229795E+02 -0.13734837475E+02  0.25144924957E+02  0.47787276563E+02  0.20000025164E+02 0.  0.
        -12    1    3    3    0    0 -0.32599229795E+02  0.13734837475E+02 -0.25144924957E+02  0.43400723437E+02  0.00000000000E+00 0.  1.
         11    1    4    4    0    0  0.10259677013E+02 -0.78239389347E+01  0.43914362850E+01  0.13629369236E+02  0.51100000000E-03 0. -1.
        -11    1    4    4    0    0  0.24244525586E+02 -0.49403628529E+01  0.17664819662E+02  0.30401481213E+02  0.51100000000E-03 0.  1.
        -12    1    4    4    0    0 -0.19049728031E+01 -0.97053568768E+00  0.30886690100E+01  0.37564261147E+01  0.00000000000E+00 0.  1.
</event>
<event>
 8    1  0.3776180E-010  0.9118800E+02  0.7816164E-02  0.1184000E+00
        -11   -1    0    0    0    0  0.00000000000E+00  0.00000000000E+00  0.45593999997E+02  0.45594000000E+02  0.51100000000E-03 0.  1.
         11   -1    0    0    0    0 -0.00000000000E+00 -0.00000000000E+00 -0.45593999997E+02  0.45594000000E+02  0.51100000000E-03 0. -1.
         23    2    1    2    0    0  0.00000000000E+00  0.71054273576E-14  0.00000000000E+00  0.91188000000E+02  0.91188000000E+02 0.  0.
    9900012    2    3    3    0    0  0.84071450376E+01  0.42291505579E+02 -0.49367495758E+01  0.47787273875E+02  0.20000012905E+02 0.  0.
         12    1    3    3    0    0 -0.84071450376E+01 -0.42291505579E+02  0.49367495758E+01  0.43400726125E+02  0.00000000000E+00 0. -1.
         11    1    4    4    0    0 -0.40223334533E+01  0.90625201664E+01  0.30503545898E+01  0.10373673484E+02  0.51100000000E-03 0. -1.
        -11    1    4    4    0    0  0.35668138850E+01  0.18082485460E+02 -0.73820301543E+01  0.19854289490E+02  0.51100000000E-03 0.  1.
        -12    1    4    4    0    0  0.88626646059E+01  0.15146499953E+02 -0.60507401136E+00  0.17559310900E+02  0.00000000000E+00 0.  1.
</event>
<event>
 8    1  0.3776180E-010  0.9118800E+02  0.7816164E-02  0.1184000E+00
        -11   -1    0    0    0    0  0.00000000000E+00  0.00000000000E+00  0.45593999997E+02  0.45594000000E+02  0.51100000000E-03 0. -1.
         11   -1    0    0    0    0 -0.00000000000E+00 -0.00000000000E+00 -0.45593999997E+02  0.45594000000E+02  0.51100000000E-03 0.  1.
         23    2    1    2    0    0 -0.22204460493E-15  0.00000000000E+00  0.00000000000E+00  0.91188000000E+02  0.91188000000E+02 0.  0.
    9900012    2    3    3    0    0  0.10182433505E+01 -0.26820501830E+02 -0.34106408346E+02  0.47787271571E+02  0.20000002400E+02 0.  0.
         12    1    3    3    0    0 -0.10182433505E+01  0.26820501830E+02  0.34106408346E+02  0.43400728429E+02  0.00000000000E+00 0. -1.
         11    1    4    4    0    0 -0.42376442512E+01 -0.45607894012E+01 -0.15264379973E+02  0.16485136487E+02  0.51100000000E-03 0.  1.
        -11    1    4    4    0    0  0.17288966513E+01 -0.10345912685E+00 -0.41163256498E+01  0.44658621271E+01  0.51100000000E-03 0. -1.
        -12    1    4    4    0    0  0.35269909505E+01 -0.22156253301E+02 -0.14725702724E+02  0.26836272957E+02  0.00000000000E+00 0.  1.
</event>
<event>
 8    1  0.3776180E-010  0.9118800E+02  0.7816164E-02  0.1184000E+00
        -11   -1    0    0    0    0  0.00000000000E+00  0.00000000000E+00  0.45593999997E+02  0.45594000000E+02  0.51100000000E-03 0. -1.
         11   -1    0    0    0    0 -0.00000000000E+00 -0.00000000000E+00 -0.45593999997E+02  0.45594000000E+02  0.51100000000E-03 0.  1.
         23    2    1    2    0    0  0.00000000000E+00  0.00000000000E+00  0.00000000000E+00  0.91188000000E+02  0.91188000000E+02 0.  0.
    9900012    2    3    3    0    0  0.33160568173E+02  0.19555051366E+02  0.20040077373E+02  0.47787216406E+02  0.19999750879E+02 0.  0.
        -12    1    3    3    0    0 -0.33160568173E+02 -0.19555051366E+02 -0.20040077373E+02  0.43400783594E+02  0.00000000000E+00 0.  1.
         11    1    4    4    0    0  0.58035660955E+01 -0.23278389153E+00 -0.18673259441E+00  0.58112336976E+01  0.51100000000E-03 0. -1.
        -11    1    4    4    0    0  0.36065373081E+01  0.35399916264E+01 -0.21811263761E+01  0.55041770138E+01  0.51100000000E-03 0.  1.
         12    1    4    4    0    0  0.23750464769E+02  0.16247843631E+02  0.22407936344E+02  0.36471805694E+02  0.00000000000E+00 0. -1.
</event>
<event>
 8    1  0.3776180E-010  0.9118800E+02  0.7816164E-02  0.1184000E+00
        -11   -1    0    0    0    0  0.00000000000E+00  0.00000000000E+00  0.45593999997E+02  0.45594000000E+02  0.51100000000E-03 0. -1.
         11   -1    0    0    0    0 -0.00000000000E+00 -0.00000000000E+00 -0.45593999997E+02  0.45594000000E+02  0.51100000000E-03 0.  1.
         23    2    1    2    0    0  0.00000000000E+00 -0.71054273576E-14 -0.35527136788E-14  0.91188000000E+02  0.91188000000E+02 0.  0.
    9900012    2    3    3    0    0  0.87949758436E+01  0.33758865964E+02  0.25818806140E+02  0.47787269802E+02  0.19999994334E+02 0.  0.
        -12    1    3    3    0    0 -0.87949758436E+01 -0.33758865964E+02 -0.25818806140E+02  0.43400730198E+02  0.00000000000E+00 0.  1.
         11    1    4    4    0    0 -0.12671078206E+01  0.40200698882E+00  0.77804509083E-01  0.13316251915E+01  0.51100000000E-03 0.  1.
        -11    1    4    4    0    0  0.46601344539E+01  0.28724309118E+02  0.26423710402E+02  0.39306682118E+02  0.51100000000E-03 0. -1.
         12    1    4    4    0    0  0.54019492103E+01  0.46325498569E+01 -0.68270877139E+00  0.71489624921E+01  0.00000000000E+00 0. -1.
</event>
<event>
 8    1  0.3776180E-010  0.9118800E+02  0.7816164E-02  0.1184000E+00
        -11   -1    0    0    0    0  0.00000000000E+00  0.00000000000E+00  0.45593999997E+02  0.45594000000E+02  0.51100000000E-03 0. -1.
         11   -1    0    0    0    0 -0.00000000000E+00 -0.00000000000E+00 -0.45593999997E+02  0.45594000000E+02  0.51100000000E-03 0.  1.
         23    2    1    2    0    0 -0.35527136788E-14 -0.35527136788E-14  0.35527136788E-14  0.91188000000E+02  0.91188000000E+02 0.  0.
    9900012    2    3    3    0    0  0.26026879462E+02  0.22831757016E+02 -0.26171259661E+02  0.47787280936E+02  0.20000045102E+02 0.  0.
         12    1    3    3    0    0 -0.26026879462E+02 -0.22831757016E+02  0.26171259661E+02  0.43400719064E+02  0.00000000000E+00 0. -1.
         11    1    4    4    0    0  0.15802669361E+02  0.67139991555E+01 -0.13502444971E+02  0.21843034681E+02  0.51100000000E-03 0. -1.
        -11    1    4    4    0    0  0.12316363599E+02  0.15839647799E+02 -0.12848824233E+02  0.23826026507E+02  0.51100000000E-03 0.  1.
         12    1    4    4    0    0 -0.20921534986E+01  0.27811006209E+00  0.18000954255E+00  0.21182197487E+01  0.00000000000E+00 0. -1.
</event>
<event>
 8    1  0.3776180E-010  0.9118800E+02  0.7816164E-02  0.1184000E+00
        -11   -1    0    0    0    0  0.00000000000E+00  0.00000000000E+00  0.45593999997E+02  0.45594000000E+02  0.51100000000E-03 0. -1.
         11   -1    0    0    0    0 -0.00000000000E+00 -0.00000000000E+00 -0.45593999997E+02  0.45594000000E+02  0.51100000000E-03 0.  1.
         23    2    1    2    0    0  0.00000000000E+00 -0.11102230246E-15  0.00000000000E+00  0.91188000000E+02  0.91188000000E+02 0.  0.
    9900012    2    3    3    0    0 -0.78163627397E+01  0.41750098521E+00  0.42689029245E+02  0.47787273607E+02  0.20000011683E+02 0.  0.
        -12    1    3    3    0    0  0.78163627397E+01 -0.41750098521E+00 -0.42689029245E+02  0.43400726393E+02  0.00000000000E+00 0.  1.
         11    1    4    4    0    0 -0.83549186996E+01  0.28966025135E+01  0.35624211569E+02  0.36705305104E+02  0.51100000000E-03 0. -1.
        -11    1    4    4    0    0  0.26338825556E+01 -0.38077486550E+01  0.72409806912E+01  0.85946546625E+01  0.51100000000E-03 0.  1.
         12    1    4    4    0    0 -0.20953265958E+01  0.13286471268E+01 -0.17616301536E+00  0.24873138399E+01  0.00000000000E+00 0. -1.
</event>
<event>
 8    1  0.3776180E-010  0.9118800E+02  0.7816164E-02  0.1184000E+00
        -11   -1    0    0    0    0  0.00000000000E+00  0.00000000000E+00  0.45593999997E+02  0.45594000000E+02  0.51100000000E-03 0. -1.
         11   -1    0    0    0    0 -0.00000000000E+00 -0.00000000000E+00 -0.45593999997E+02  0.45594000000E+02  0.51100000000E-03 0.  1.
         23    2    1    2    0    0  0.00000000000E+00 -0.83266726847E-15  0.71054273576E-14  0.91188000000E+02  0.91188000000E+02 0.  0.
    9900012    2    3    3    0    0  0.21777486722E+02  0.48591408453E+00 -0.37538363210E+02  0.47787265525E+02  0.19999974836E+02 0.  0.
         12    1    3    3    0    0 -0.21777486722E+02 -0.48591408453E+00  0.37538363210E+02  0.43400734475E+02  0.00000000000E+00 0. -1.
         11    1    4    4    0    0  0.11930515942E+02  0.70248030050E+01 -0.94949300374E+01  0.16788054222E+02  0.51100000000E-03 0.  1.
        -11    1    4    4    0    0  0.11303898497E+01 -0.19294388752E+01 -0.15243401251E+01  0.27063127432E+01  0.51100000000E-03 0. -1.
        -12    1    4    4    0    0  0.87165809309E+01 -0.46094500452E+01 -0.26519093048E+02  0.28292898560E+02  0.00000000000E+00 0.  1.
</event>
<event>
 8    1  0.3776180E-010  0.9118800E+02  0.7816164E-02  0.1184000E+00
        -11   -1    0    0    0    0  0.00000000000E+00  0.00000000000E+00  0.45593999997E+02  0.45594000000E+02  0.51100000000E-03 0. -1.
         11   -1    0    0    0    0 -0.00000000000E+00 -0.00000000000E+00 -0.45593999997E+02  0.45594000000E+02  0.51100000000E-03 0.  1.
         23    2    1    2    0    0  0.00000000000E+00 -0.17763568394E-14 -0.71054273576E-14  0.91188000000E+02  0.91188000000E+02 0.  0.
    9900012    2    3    3    0    0  0.10453502150E+02  0.15896213159E+02  0.39008430024E+02  0.47787275202E+02  0.20000018958E+02 0.  0.
        -12    1    3    3    0    0 -0.10453502150E+02 -0.15896213159E+02 -0.39008430024E+02  0.43400724798E+02  0.00000000000E+00 0.  1.
         11    1    4    4    0    0  0.22953460008E+01  0.10961609307E+02  0.17882210762E+02  0.21099738242E+02  0.51100000000E-03 0. -1.
        -11    1    4    4    0    0 -0.34452369497E+01  0.29452859468E+01  0.57171200974E+01  0.72958775632E+01  0.51100000000E-03 0.  1.
         12    1    4    4    0    0  0.11603393099E+02  0.19893179055E+01  0.15409099165E+02  0.19391659398E+02  0.00000000000E+00 0. -1.
</event>
<event>
 8    1  0.3776180E-010  0.9118800E+02  0.7816164E-02  0.1184000E+00
        -11   -1    0    0    0    0  0.00000000000E+00  0.00000000000E+00  0.45593999997E+02  0.45594000000E+02  0.51100000000E-03 0. -1.
         11   -1    0    0    0    0 -0.00000000000E+00 -0.00000000000E+00 -0.45593999997E+02  0.45594000000E+02  0.51100000000E-03 0.  1.
         23    2    1    2    0    0  0.35527136788E-14  0.00000000000E+00  0.00000000000E+00  0.91188000000E+02  0.91188000000E+02 0.  0.
    9900012    2    3    3    0    0 -0.11264372117E+02 -0.87877607513E+01  0.40981894969E+02  0.47787233492E+02  0.19999828782E+02 0.  0.
        -12    1    3    3    0    0  0.11264372117E+02  0.87877607513E+01 -0.40981894969E+02  0.43400766508E+02  0.00000000000E+00 0.  1.
         11    1    4    4    0    0 -0.13716024990E+01 -0.37818440699E+01  0.65626213791E+00  0.40760665155E+01  0.51100000000E-03 0.  1.
        -11    1    4    4    0    0 -0.12674577016E+01 -0.75891412161E+01  0.21692750088E+02  0.23016883370E+02  0.51100000000E-03 0. -1.
        -12    1    4    4    0    0 -0.86253119165E+01  0.25832245347E+01  0.18632882744E+02  0.20694283607E+02  0.00000000000E+00 0.  1.
</event>
<event>
 8    1  0.3776180E-010  0.9118800E+02  0.7816164E-02  0.1184000E+00
        -11   -1    0    0    0    0  0.00000000000E+00  0.00000000000E+00  0.45593999997E+02  0.45594000000E+02  0.51100000000E-03 0. -1.
         11   -1    0    0    0    0 -0.00000000000E+00 -0.00000000000E+00 -0.45593999997E+02  0.45594000000E+02  0.51100000000E-03 0.  1.
         23    2    1    2    0    0 -0.17763568394E-14  0.17763568394E-14  0.00000000000E+00  0.91188000000E+02  0.91188000000E+02 0.  0.
    9900012    2    3    3    0    0  0.12635156788E+02 -0.91080758736E+01 -0.40509498950E+02  0.47787265693E+02  0.19999975601E+02 0.  0.
         12    1    3    3    0    0 -0.12635156788E+02  0.91080758736E+01  0.40509498950E+02  0.43400734307E+02  0.00000000000E+00 0. -1.
         11    1    4    4    0    0  0.95571527062E+01  0.14202171665E+01 -0.19309275365E+02  0.21591764635E+02  0.51100000000E-03 0. -1.
        -11    1    4    4    0    0 -0.18530026560E+01 -0.10908957515E+01 -0.11792352446E+02  0.11986794770E+02  0.51100000000E-03 0.  1.
         12    1    4    4    0    0  0.49310067379E+01 -0.94373972885E+01 -0.94078711393E+01  0.14208706289E+02  0.00000000000E+00 0. -1.
</event>
<event>
 8    1  0.3776180E-010  0.9118800E+02  0.7816164E-02  0.1184000E+00
        -11   -1    0    0    0    0  0.00000000000E+00  0.00000000000E+00  0.45593999997E+02  0.45594000000E+02  0.51100000000E-03 0. -1.
         11   -1    0    0    0    0 -0.00000000000E+00 -0.00000000000E+00 -0.45593999997E+02  0.45594000000E+02  0.51100000000E-03 0.  1.
         23    2    1    2    0    0 -0.35527136788E-14  0.00000000000E+00 -0.35527136788E-14  0.91188000000E+02  0.91188000000E+02 0.  0.
    9900012    2    3    3    0    0 -0.23375252347E+02 -0.22384103257E+02 -0.28916653374E+02  0.47787270245E+02  0.19999996356E+02 0.  0.
         12    1    3    3    0    0  0.23375252347E+02  0.22384103257E+02  0.28916653374E+02  0.43400729755E+02  0.00000000000E+00 0. -1.
         11    1    4    4    0    0 -0.11618800602E+02 -0.10734350691E+02 -0.17539232131E+02  0.23618794978E+02  0.51100000000E-03 0. -1.
        -11    1    4    4    0    0 -0.10463824650E+02 -0.13282233831E+02 -0.13160714435E+02  0.21426940205E+02  0.51100000000E-03 0.  1.
         12    1    4    4    0    0 -0.12926270953E+01  0.16324812656E+01  0.17832931923E+01  0.27415350626E+01  0.00000000000E+00 0. -1.
</event>
<event>
 8    1  0.3776180E-010  0.9118800E+02  0.7816164E-02  0.1184000E+00
        -11   -1    0    0    0    0  0.00000000000E+00  0.00000000000E+00  0.45593999997E+02  0.45594000000E+02  0.51100000000E-03 0. -1.
         11   -1    0    0    0    0 -0.00000000000E+00 -0.00000000000E+00 -0.45593999997E+02  0.45594000000E+02  0.51100000000E-03 0.  1.
         23    2    1    2    0    0  0.00000000000E+00 -0.35527136788E-14  0.00000000000E+00  0.91188000000E+02  0.91188000000E+02 0.  0.
    9900012    2    3    3    0    0  0.28856145285E+02  0.24581258325E+02  0.21135464103E+02  0.47787271614E+02  0.20000002598E+02 0.  0.
        -12    1    3    3    0    0 -0.28856145285E+02 -0.24581258325E+02 -0.21135464103E+02  0.43400728386E+02  0.00000000000E+00 0.  1.
         11    1    4    4    0    0  0.13552857446E+01 -0.17685883938E+01  0.55750761132E+01  0.60038469572E+01  0.51100000000E-03 0. -1.
        -11    1    4    4    0    0  0.24175487070E+01  0.59369906386E+01  0.19925128267E+01  0.67128613288E+01  0.51100000000E-03 0.  1.
         12    1    4    4    0    0  0.25083310834E+02  0.20412856080E+02  0.13567875163E+02  0.35070563328E+02  0.00000000000E+00 0. -1.
</event>
<event>
 8    1  0.3776180E-010  0.9118800E+02  0.7816164E-02  0.1184000E+00
        -11   -1    0    0    0    0  0.00000000000E+00  0.00000000000E+00  0.45593999997E+02  0.45594000000E+02  0.51100000000E-03 0. -1.
         11   -1    0    0    0    0 -0.00000000000E+00 -0.00000000000E+00 -0.45593999997E+02  0.45594000000E+02  0.51100000000E-03 0.  1.
         23    2    1    2    0    0  0.88817841970E-15  0.00000000000E+00  0.00000000000E+00  0.91188000000E+02  0.91188000000E+02 0.  0.
    9900012    2    3    3    0    0  0.20350271679E+01 -0.16817450086E+02  0.39958170061E+02  0.47787270540E+02  0.19999997702E+02 0.  0.
        -12    1    3    3    0    0 -0.20350271679E+01  0.16817450086E+02 -0.39958170061E+02  0.43400729460E+02  0.00000000000E+00 0.  1.
         11    1    4    4    0    0  0.33128122716E+01 -0.60662404350E+01  0.12448706318E+02  0.14238830269E+02  0.51100000000E-03 0. -1.
        -11    1    4    4    0    0 -0.68968185386E+01 -0.67912273249E+01  0.23897009001E+02  0.25782822072E+02  0.51100000000E-03 0.  1.
        -12    1    4    4    0    0  0.56190334349E+01 -0.39599823260E+01  0.36124547427E+01  0.77656182003E+01  0.00000000000E+00 0.  1.
</event>
<event>
 8    1  0.3776180E-010  0.9118800E+02  0.7816164E-02  0.1184000E+00
        -11   -1    0    0    0    0  0.00000000000E+00  0.00000000000E+00  0.45593999997E+02  0.45594000000E+02  0.51100000000E-03 0. -1.
         11   -1    0    0    0    0 -0.00000000000E+00 -0.00000000000E+00 -0.45593999997E+02  0.45594000000E+02  0.51100000000E-03 0.  1.
         23    2    1    2    0    0 -0.71054273576E-14  0.00000000000E+00  0.33306690739E-15  0.91188000000E+02  0.91188000000E+02 0.  0.
    9900012    2    3    3    0    0  0.40882211252E+02 -0.14544719541E+02  0.84846697619E+00  0.47787263144E+02  0.19999963980E+02 0.  0.
        -12    1    3    3    0    0 -0.40882211252E+02  0.14544719541E+02 -0.84846697619E+00  0.43400736856E+02  0.00000000000E+00 0.  1.
         11    1    4    4    0    0  0.14316949983E+02 -0.10092131453E+02  0.12090202282E+01  0.17558129293E+02  0.51100000000E-03 0. -1.
        -11    1    4    4    0    0  0.83428963827E+01 -0.68168697926E+01 -0.40087434414E+01  0.11495375508E+02  0.51100000000E-03 0.  1.
        -12    1    4    4    0    0  0.18222364886E+02  0.23642817047E+01  0.36481901893E+01  0.18733758344E+02  0.00000000000E+00 0.  1.
</event>
<event>
 8    1  0.3776180E-010  0.9118800E+02  0.7816164E-02  0.1184000E+00
        -11   -1    0    0    0    0  0.00000000000E+00  0.00000000000E+00  0.45593999997E+02  0.45594000000E+02  0.51100000000E-03 0. -1.
         11   -1    0    0    0    0 -0.00000000000E+00 -0.00000000000E+00 -0.45593999997E+02  0.45594000000E+02  0.51100000000E-03 0.  1.
         23    2    1    2    0    0 -0.11102230246E-15 -0.88817841970E-15  0.71054273576E-14  0.91188000000E+02  0.91188000000E+02 0.  0.
    9900012    2    3    3    0    0 -0.79770131175E+00  0.73615455983E+01  0.42764407090E+02  0.47787271956E+02  0.20000004158E+02 0.  0.
        -12    1    3    3    0    0  0.79770131175E+00 -0.73615455983E+01 -0.42764407090E+02  0.43400728044E+02  0.00000000000E+00 0.  1.
         11    1    4    4    0    0  0.26432634884E+00  0.12277176815E+02  0.15355700208E+02  0.19662056558E+02  0.51100000000E-03 0. -1.
        -11    1    4    4    0    0  0.28726921922E+00 -0.13500102715E+01  0.19876453038E+01  0.24198730240E+01  0.51100000000E-03 0.  1.
         12    1    4    4    0    0 -0.13492968798E+01 -0.35656209455E+01  0.25421061578E+02  0.25705342374E+02  0.00000000000E+00 0. -1.
</event>
<event>
 8    1  0.3776180E-010  0.9118800E+02  0.7816164E-02  0.1184000E+00
        -11   -1    0    0    0    0  0.00000000000E+00  0.00000000000E+00  0.45593999997E+02  0.45594000000E+02  0.51100000000E-03 0. -1.
         11   -1    0    0    0    0 -0.00000000000E+00 -0.00000000000E+00 -0.45593999997E+02  0.45594000000E+02  0.51100000000E-03 0.  1.
         23    2    1    2    0    0  0.00000000000E+00  0.00000000000E+00 -0.35527136788E-14  0.91188000000E+02  0.91188000000E+02 0.  0.
    9900012    2    3    3    0    0  0.36654899498E+02  0.14105181374E+01  0.23195951878E+02  0.47787269567E+02  0.19999993262E+02 0.  0.
        -12    1    3    3    0    0 -0.36654899498E+02 -0.14105181374E+01 -0.23195951878E+02  0.43400730433E+02  0.00000000000E+00 0.  1.
         11    1    4    4    0    0  0.18251111437E+02 -0.27788601867E+01  0.15977741620E+02  0.24415432828E+02  0.51100000000E-03 0. -1.
        -11    1    4    4    0    0  0.58889986185E+01  0.24411824334E+01  0.85506055205E+01  0.10665483178E+02  0.51100000000E-03 0.  1.
         12    1    4    4    0    0  0.12514789442E+02  0.17481958908E+01 -0.13323952631E+01  0.12706353560E+02  0.00000000000E+00 0. -1.
</event>
<event>
 8    1  0.3776180E-010  0.9118800E+02  0.7816164E-02  0.1184000E+00
        -11   -1    0    0    0    0  0.00000000000E+00  0.00000000000E+00  0.45593999997E+02  0.45594000000E+02  0.51100000000E-03 0. -1.
         11   -1    0    0    0    0 -0.00000000000E+00 -0.00000000000E+00 -0.45593999997E+02  0.45594000000E+02  0.51100000000E-03 0.  1.
         23    2    1    2    0    0  0.17763568394E-14 -0.53290705182E-14  0.00000000000E+00  0.91188000000E+02  0.91188000000E+02 0.  0.
    9900012    2    3    3    0    0  0.11135849577E+02 -0.14791432029E+02  0.39253401551E+02  0.47787272580E+02  0.20000006999E+02 0.  0.
        -12    1    3    3    0    0 -0.11135849577E+02  0.14791432029E+02 -0.39253401551E+02  0.43400727420E+02  0.00000000000E+00 0.  1.
         11    1    4    4    0    0  0.61678697765E+01 -0.14907222746E+01  0.10333896017E+02  0.12126593818E+02  0.51100000000E-03 0. -1.
        -11    1    4    4    0    0  0.82676226441E+01 -0.14976726620E+02  0.22717227584E+02  0.28438149620E+02  0.51100000000E-03 0.  1.
         12    1    4    4    0    0 -0.32996428434E+01  0.16760168656E+01  0.62022779502E+01  0.72225291415E+01  0.00000000000E+00 0. -1.
</event>
<event>
 8    1  0.3776180E-010  0.9118800E+02  0.7816164E-02  0.1184000E+00
        -11   -1    0    0    0    0  0.00000000000E+00  0.00000000000E+00  0.45593999997E+02  0.45594000000E+02  0.51100000000E-03 0. -1.
         11   -1    0    0    0    0 -0.00000000000E+00 -0.00000000000E+00 -0.45593999997E+02  0.45594000000E+02  0.51100000000E-03 0.  1.
         23    2    1    2    0    0  0.00000000000E+00 -0.11102230246E-14  0.00000000000E+00  0.91188000000E+02  0.91188000000E+02 0.  0.
    9900012    2    3    3    0    0  0.11993972885E+02  0.16219816595E+01 -0.41678978910E+02  0.47787268519E+02  0.19999988487E+02 0.  0.
         12    1    3    3    0    0 -0.11993972885E+02 -0.16219816595E+01  0.41678978910E+02  0.43400731481E+02  0.00000000000E+00 0. -1.
         11    1    4    4    0    0  0.72238163828E+01  0.19605134234E+01 -0.85695718913E+01  0.11378255520E+02  0.51100000000E-03 0. -1.
        -11    1    4    4    0    0  0.61830583012E+01 -0.63864046877E+01 -0.18084606559E+02  0.20151162980E+02  0.51100000000E-03 0.  1.
        -12    1    4    4    0    0 -0.14129017990E+01  0.60478729238E+01 -0.15024800460E+02  0.16257850020E+02  0.00000000000E+00 0.  1.
</event>
<event>
 8    1  0.3776180E-010  0.9118800E+02  0.7816164E-02  0.1184000E+00
        -11   -1    0    0    0    0  0.00000000000E+00  0.00000000000E+00  0.45593999997E+02  0.45594000000E+02  0.51100000000E-03 0. -1.
         11   -1    0    0    0    0 -0.00000000000E+00 -0.00000000000E+00 -0.45593999997E+02  0.45594000000E+02  0.51100000000E-03 0.  1.
         23    2    1    2    0    0 -0.17763568394E-14  0.00000000000E+00  0.00000000000E+00  0.91188000000E+02  0.91188000000E+02 0.  0.
    9900012    2    3    3    0    0  0.86489925606E+01  0.26642004572E+02  0.33151489722E+02  0.47787277072E+02  0.20000027481E+02 0.  0.
        -12    1    3    3    0    0 -0.86489925606E+01 -0.26642004572E+02 -0.33151489722E+02  0.43400722928E+02  0.00000000000E+00 0.  1.
         11    1    4    4    0    0 -0.38072592972E+01  0.12575298225E+02  0.93672541359E+01  0.16136257283E+02  0.51100000000E-03 0. -1.
        -11    1    4    4    0    0  0.30515301915E+01  0.77161351802E+01  0.15566670619E+02  0.17640062728E+02  0.51100000000E-03 0.  1.
        -12    1    4    4    0    0  0.94047216664E+01  0.63505711668E+01  0.82175649669E+01  0.14010957061E+02  0.00000000000E+00 0.  1.
</event>
<event>
 8    1  0.3776180E-010  0.9118800E+02  0.7816164E-02  0.1184000E+00
        -11   -1    0    0    0    0  0.00000000000E+00  0.00000000000E+00  0.45593999997E+02  0.45594000000E+02  0.51100000000E-03 0.  1.
         11   -1    0    0    0    0 -0.00000000000E+00 -0.00000000000E+00 -0.45593999997E+02  0.45594000000E+02  0.51100000000E-03 0. -1.
         23    2    1    2    0    0  0.11102230246E-15  0.00000000000E+00  0.41633363423E-15  0.91188000000E+02  0.91188000000E+02 0.  0.
    9900012    2    3    3    0    0  0.13521032752E+00 -0.43400409168E+02 -0.10079927285E+00  0.47787263160E+02  0.19999964051E+02 0.  0.
         12    1    3    3    0    0 -0.13521032752E+00  0.43400409168E+02  0.10079927285E+00  0.43400736840E+02  0.00000000000E+00 0. -1.
         11    1    4    4    0    0 -0.29624273710E+01 -0.96976256812E+01 -0.26680756730E+01  0.10485158456E+02  0.51100000000E-03 0. -1.
        -11    1    4    4    0    0  0.62621257044E+01 -0.49081342437E+01 -0.13510945067E+01  0.80702823197E+01  0.51100000000E-03 0.  1.
        -12    1    4    4    0    0 -0.31644880058E+01 -0.28794649243E+02  0.39183709068E+01  0.29231822385E+02  0.00000000000E+00 0.  1.
</event>
<event>
 8    1  0.3776180E-010  0.9118800E+02  0.7816164E-02  0.1184000E+00
        -11   -1    0    0    0    0  0.00000000000E+00  0.00000000000E+00  0.45593999997E+02  0.45594000000E+02  0.51100000000E-03 0. -1.
         11   -1    0    0    0    0 -0.00000000000E+00 -0.00000000000E+00 -0.45593999997E+02  0.45594000000E+02  0.51100000000E-03 0.  1.
         23    2    1    2    0    0  0.00000000000E+00  0.00000000000E+00  0.00000000000E+00  0.91188000000E+02  0.91188000000E+02 0.  0.
    9900012    2    3    3    0    0  0.83298472207E+01 -0.26300135431E+02 -0.33504326051E+02  0.47787270254E+02  0.19999996395E+02 0.  0.
         12    1    3    3    0    0 -0.83298472207E+01  0.26300135431E+02  0.33504326051E+02  0.43400729746E+02  0.00000000000E+00 0. -1.
         11    1    4    4    0    0 -0.25237116397E+01 -0.25827500229E+01 -0.34882531300E+01  0.50207198967E+01  0.51100000000E-03 0. -1.
        -11    1    4    4    0    0 -0.28828977061E+01 -0.67306081227E+01 -0.27339448626E+01  0.78157942436E+01  0.51100000000E-03 0.  1.
         12    1    4    4    0    0  0.13736456566E+02 -0.16986777285E+02 -0.27282128058E+02  0.34950756114E+02  0.00000000000E+00 0. -1.
</event>
<event>
 8    1  0.3776180E-010  0.9118800E+02  0.7816164E-02  0.1184000E+00
        -11   -1    0    0    0    0  0.00000000000E+00  0.00000000000E+00  0.45593999997E+02  0.45594000000E+02  0.51100000000E-03 0. -1.
         11   -1    0    0    0    0 -0.00000000000E+00 -0.00000000000E+00 -0.45593999997E+02  0.45594000000E+02  0.51100000000E-03 0.  1.
         23    2    1    2    0    0  0.35527136788E-14  0.00000000000E+00  0.35527136788E-14  0.91188000000E+02  0.91188000000E+02 0.  0.
    9900012    2    3    3    0    0 -0.30193550481E+02 -0.20200067685E+02 -0.23747187472E+02  0.47787284130E+02  0.20000059663E+02 0.  0.
         12    1    3    3    0    0  0.30193550481E+02  0.20200067685E+02  0.23747187472E+02  0.43400715870E+02  0.00000000000E+00 0. -1.
         11    1    4    4    0    0 -0.18248394385E+01 -0.53604123212E+01 -0.73533565367E+01  0.92809434782E+01  0.51100000000E-03 0. -1.
        -11    1    4    4    0    0 -0.28210337870E+01  0.21960194190E+01  0.24139703375E+00  0.35831558304E+01  0.51100000000E-03 0.  1.
        -12    1    4    4    0    0 -0.25547677256E+02 -0.17035674783E+02 -0.16635227969E+02  0.34923184822E+02  0.00000000000E+00 0.  1.
</event>
<event>
 8    1  0.3776180E-010  0.9118800E+02  0.7816164E-02  0.1184000E+00
        -11   -1    0    0    0    0  0.00000000000E+00  0.00000000000E+00  0.45593999997E+02  0.45594000000E+02  0.51100000000E-03 0.  1.
         11   -1    0    0    0    0 -0.00000000000E+00 -0.00000000000E+00 -0.45593999997E+02  0.45594000000E+02  0.51100000000E-03 0. -1.
         23    2    1    2    0    0  0.35527136788E-14  0.35527136788E-14 -0.17763568394E-14  0.91188000000E+02  0.91188000000E+02 0.  0.
    9900012    2    3    3    0    0 -0.26535400090E+02  0.30481805957E+02  0.15822625846E+02  0.47787269119E+02  0.19999991219E+02 0.  0.
        -12    1    3    3    0    0  0.26535400090E+02 -0.30481805957E+02 -0.15822625846E+02  0.43400730881E+02  0.00000000000E+00 0.  1.
         11    1    4    4    0    0 -0.51943277206E+01  0.84112304219E+01  0.29975966400E+01  0.10330315753E+02  0.51100000000E-03 0. -1.
        -11    1    4    4    0    0  0.34107574873E+00  0.10100910569E+02  0.60548789708E+01  0.11781607981E+02  0.51100000000E-03 0.  1.
         12    1    4    4    0    0 -0.21682148118E+02  0.11969664966E+02  0.67701502354E+01  0.25675345385E+02  0.00000000000E+00 0. -1.
</event>
<event>
 8    1  0.3776180E-010  0.9118800E+02  0.7816164E-02  0.1184000E+00
        -11   -1    0    0    0    0  0.00000000000E+00  0.00000000000E+00  0.45593999997E+02  0.45594000000E+02  0.51100000000E-03 0. -1.
         11   -1    0    0    0    0 -0.00000000000E+00 -0.00000000000E+00 -0.45593999997E+02  0.45594000000E+02  0.51100000000E-03 0.  1.
         23    2    1    2    0    0  0.00000000000E+00  0.00000000000E+00  0.35527136788E-14  0.91188000000E+02  0.91188000000E+02 0.  0.
    9900012    2    3    3    0    0  0.33841782659E+02  0.14688659610E+01  0.27132997376E+02  0.47787269967E+02  0.19999995089E+02 0.  0.
        -12    1    3    3    0    0 -0.33841782659E+02 -0.14688659610E+01 -0.27132997376E+02  0.43400730033E+02  0.00000000000E+00 0.  1.
         11    1    4    4    0    0 -0.16685677606E+00  0.80961453103E+00  0.47031018764E+01  0.47751946969E+01  0.51100000000E-03 0. -1.
        -11    1    4    4    0    0  0.19563144228E+02 -0.14324768018E+01  0.20356591191E+02  0.28269407617E+02  0.51100000000E-03 0.  1.
        -12    1    4    4    0    0  0.14445495207E+02  0.20917282319E+01  0.20733043093E+01  0.14742667653E+02  0.00000000000E+00 0.  1.
</event>
<event>
 8    1  0.3776180E-010  0.9118800E+02  0.7816164E-02  0.1184000E+00
        -11   -1    0    0    0    0  0.00000000000E+00  0.00000000000E+00  0.45593999997E+02  0.45594000000E+02  0.51100000000E-03 0. -1.
         11   -1    0    0    0    0 -0.00000000000E+00 -0.00000000000E+00 -0.45593999997E+02  0.45594000000E+02  0.51100000000E-03 0.  1.
         23    2    1    2    0    0 -0.17763568394E-14  0.00000000000E+00  0.35527136788E-14  0.91188000000E+02  0.91188000000E+02 0.  0.
    9900012    2    3    3    0    0 -0.13479506859E+02  0.34626770993E+02 -0.22425725729E+02  0.47787267875E+02  0.19999985547E+02 0.  0.
         12    1    3    3    0    0  0.13479506859E+02 -0.34626770993E+02  0.22425725729E+02  0.43400732125E+02  0.00000000000E+00 0. -1.
         11    1    4    4    0    0  0.13612713538E+01  0.33596545004E+01 -0.30881945066E+01  0.47620671596E+01  0.51100000000E-03 0.  1.
        -11    1    4    4    0    0 -0.92490996561E+01  0.18560739858E+02 -0.20280087771E+01  0.20836499907E+02  0.51100000000E-03 0. -1.
         12    1    4    4    0    0 -0.55916785566E+01  0.12706376635E+02 -0.17309522445E+02  0.22188700808E+02  0.00000000000E+00 0. -1.
</event>
<event>
 8    1  0.3776180E-010  0.9118800E+02  0.7816164E-02  0.1184000E+00
        -11   -1    0    0    0    0  0.00000000000E+00  0.00000000000E+00  0.45593999997E+02  0.45594000000E+02  0.51100000000E-03 0. -1.
         11   -1    0    0    0    0 -0.00000000000E+00 -0.00000000000E+00 -0.45593999997E+02  0.45594000000E+02  0.51100000000E-03 0.  1.
         23    2    1    2    0    0  0.00000000000E+00 -0.88817841970E-15  0.00000000000E+00  0.91188000000E+02  0.91188000000E+02 0.  0.
    9900012    2    3    3    0    0  0.29353028611E+02 -0.12045254734E+01 -0.31946390806E+02  0.47787273557E+02  0.20000011455E+02 0.  0.
         12    1    3    3    0    0 -0.29353028611E+02  0.12045254734E+01  0.31946390806E+02  0.43400726443E+02  0.00000000000E+00 0. -1.
         11    1    4    4    0    0  0.89483531314E+01  0.39841914600E+01 -0.15612990191E+02  0.18431285043E+02  0.51100000000E-03 0. -1.
        -11    1    4    4    0    0  0.55053908218E+01  0.25439437969E+01 -0.94162075407E+01  0.11200265303E+02  0.51100000000E-03 0.  1.
        -12    1    4    4    0    0  0.14899284658E+02 -0.77326607303E+01 -0.69171930737E+01  0.18155723211E+02  0.00000000000E+00 0.  1.
</event>
<event>
 8    1  0.3899023E-010  0.9118800E+02  0.7816164E-02  0.1184000E+00
        -11   -1    0    0    0    0  0.00000000000E+00  0.00000000000E+00  0.45593999997E+02  0.45594000000E+02  0.51100000000E-03 0. -1.
         11   -1    0    0    0    0 -0.00000000000E+00 -0.00000000000E+00 -0.45593999997E+02  0.45594000000E+02  0.51100000000E-03 0.  1.
         23    2    1    2    0    0  0.88817841970E-15  0.17763568394E-14 -0.71054273576E-14  0.91188000000E+02  0.91188000000E+02 0.  0.
    9900012    2    3    3    0    0 -0.52688949374E+01 -0.68416748285E+01  0.42532968536E+02  0.47787272117E+02  0.20000004888E+02 0.  0.
        -12    1    3    3    0    0  0.52688949374E+01  0.68416748285E+01 -0.42532968536E+02  0.43400727883E+02  0.00000000000E+00 0.  1.
         11    1    4    4    0    0  0.52586952430E+00 -0.78640766186E+01  0.30097225509E+02  0.31112107345E+02  0.51100000000E-03 0. -1.
        -11    1    4    4    0    0 -0.48471494448E+01 -0.11046126782E+01  0.13294256857E+02  0.14193389044E+02  0.51100000000E-03 0.  1.
        -12    1    4    4    0    0 -0.94761501691E+00  0.21270144684E+01 -0.85851382980E+00  0.24817757282E+01  0.00000000000E+00 0.  1.
</event>
<event>
 8    1  0.3776180E-010  0.9118800E+02  0.7816164E-02  0.1184000E+00
        -11   -1    0    0    0    0  0.00000000000E+00  0.00000000000E+00  0.45593999997E+02  0.45594000000E+02  0.51100000000E-03 0. -1.
         11   -1    0    0    0    0 -0.00000000000E+00 -0.00000000000E+00 -0.45593999997E+02  0.45594000000E+02  0.51100000000E-03 0.  1.
         23    2    1    2    0    0  0.00000000000E+00  0.00000000000E+00  0.00000000000E+00  0.91188000000E+02  0.91188000000E+02 0.  0.
    9900012    2    3    3    0    0 -0.18105057061E+02  0.60362644526E+01 -0.38979402815E+02  0.47787269320E+02  0.19999992137E+02 0.  0.
         12    1    3    3    0    0  0.18105057061E+02 -0.60362644526E+01  0.38979402815E+02  0.43400730680E+02  0.00000000000E+00 0. -1.
         11    1    4    4    0    0 -0.31778976989E+01 -0.59032422848E+00 -0.52092579984E+01  0.61305697643E+01  0.51100000000E-03 0. -1.
        -11    1    4    4    0    0  0.15177566488E+01  0.47686431597E+01 -0.12352433238E+01  0.51545483953E+01  0.51100000000E-03 0.  1.
        -12    1    4    4    0    0 -0.16444916011E+02  0.18579455214E+01 -0.32534901493E+02  0.36502151160E+02  0.00000000000E+00 0.  1.
</event>
<event>
 8    1  0.3776180E-010  0.9118800E+02  0.7816164E-02  0.1184000E+00
        -11   -1    0    0    0    0  0.00000000000E+00  0.00000000000E+00  0.45593999997E+02  0.45594000000E+02  0.51100000000E-03 0. -1.
         11   -1    0    0    0    0 -0.00000000000E+00 -0.00000000000E+00 -0.45593999997E+02  0.45594000000E+02  0.51100000000E-03 0.  1.
         23    2    1    2    0    0 -0.17763568394E-14  0.00000000000E+00 -0.35527136788E-14  0.91188000000E+02  0.91188000000E+02 0.  0.
    9900012    2    3    3    0    0  0.83285654062E+01  0.32302860135E+02  0.27763008316E+02  0.47787258009E+02  0.19999940564E+02 0.  0.
        -12    1    3    3    0    0 -0.83285654062E+01 -0.32302860135E+02 -0.27763008316E+02  0.43400741991E+02  0.00000000000E+00 0.  1.
         11    1    4    4    0    0  0.42443360694E+01  0.22636922872E+02  0.25138777168E+02  0.34094028562E+02  0.51100000000E-03 0. -1.
        -11    1    4    4    0    0  0.19515756215E+01  0.99142901708E+01  0.42882416123E+01  0.10976830753E+02  0.51100000000E-03 0.  1.
        -12    1    4    4    0    0  0.21326537153E+01 -0.24835290793E+00 -0.16640104646E+01  0.27163986936E+01  0.00000000000E+00 0.  1.
</event>
<event>
 8    1  0.3776180E-010  0.9118800E+02  0.7816164E-02  0.1184000E+00
        -11   -1    0    0    0    0  0.00000000000E+00  0.00000000000E+00  0.45593999997E+02  0.45594000000E+02  0.51100000000E-03 0. -1.
         11   -1    0    0    0    0 -0.00000000000E+00 -0.00000000000E+00 -0.45593999997E+02  0.45594000000E+02  0.51100000000E-03 0.  1.
         23    2    1    2    0    0  0.00000000000E+00  0.00000000000E+00  0.00000000000E+00  0.91188000000E+02  0.91188000000E+02 0.  0.
    9900012    2    3    3    0    0 -0.21564645678E+02 -0.31519748347E+01 -0.37532051876E+02  0.47787264907E+02  0.19999972018E+02 0.  0.
         12    1    3    3    0    0  0.21564645678E+02  0.31519748347E+01  0.37532051876E+02  0.43400735093E+02  0.00000000000E+00 0. -1.
         11    1    4    4    0    0 -0.11854983286E+02  0.16492615666E+01 -0.23077046095E+02  0.25996360306E+02  0.51100000000E-03 0. -1.
        -11    1    4    4    0    0 -0.78720160010E+01  0.21870229459E+01 -0.11206153932E+02  0.13868294469E+02  0.51100000000E-03 0.  1.
         12    1    4    4    0    0 -0.18376463911E+01 -0.69882593472E+01 -0.32488518489E+01  0.79226101317E+01  0.00000000000E+00 0. -1.
</event>
<event>
 8    1  0.3776180E-010  0.9118800E+02  0.7816164E-02  0.1184000E+00
        -11   -1    0    0    0    0  0.00000000000E+00  0.00000000000E+00  0.45593999997E+02  0.45594000000E+02  0.51100000000E-03 0. -1.
         11   -1    0    0    0    0 -0.00000000000E+00 -0.00000000000E+00 -0.45593999997E+02  0.45594000000E+02  0.51100000000E-03 0.  1.
         23    2    1    2    0    0  0.00000000000E+00  0.00000000000E+00  0.00000000000E+00  0.91188000000E+02  0.91188000000E+02 0.  0.
    9900012    2    3    3    0    0 -0.76344698378E+01  0.32508280660E+02  0.27722731919E+02  0.47787270671E+02  0.19999998298E+02 0.  0.
        -12    1    3    3    0    0  0.76344698378E+01 -0.32508280660E+02 -0.27722731919E+02  0.43400729329E+02  0.00000000000E+00 0.  1.
         11    1    4    4    0    0  0.21158921295E+01  0.46636833452E+01  0.47457496147E+01  0.69820542474E+01  0.51100000000E-03 0. -1.
        -11    1    4    4    0    0  0.17090872664E+01 -0.12123931923E+01  0.32346516450E+01  0.38540690267E+01  0.51100000000E-03 0.  1.
         12    1    4    4    0    0 -0.11459449234E+02  0.29056990507E+02  0.19742330660E+02  0.36951147397E+02  0.00000000000E+00 0. -1.
</event>
<event>
 8    1  0.3776180E-010  0.9118800E+02  0.7816164E-02  0.1184000E+00
        -11   -1    0    0    0    0  0.00000000000E+00  0.00000000000E+00  0.45593999997E+02  0.45594000000E+02  0.51100000000E-03 0. -1.
         11   -1    0    0    0    0 -0.00000000000E+00 -0.00000000000E+00 -0.45593999997E+02  0.45594000000E+02  0.51100000000E-03 0.  1.
         23    2    1    2    0    0  0.44408920985E-15  0.71054273576E-14 -0.33306690739E-15  0.91188000000E+02  0.91188000000E+02 0.  0.
    9900012    2    3    3    0    0 -0.36121374324E+01 -0.43245588027E+02 -0.62866799723E+00  0.47787266779E+02  0.19999980554E+02 0.  0.
         12    1    3    3    0    0  0.36121374324E+01  0.43245588027E+02  0.62866799723E+00  0.43400733221E+02  0.00000000000E+00 0. -1.
         11    1    4    4    0    0  0.52211734803E+01 -0.65518921762E+01 -0.15626842122E+01  0.85223192740E+01  0.51100000000E-03 0. -1.
        -11    1    4    4    0    0 -0.47617689196E+01 -0.26758336616E+02 -0.39586392052E+01  0.27465502841E+02  0.51100000000E-03 0.  1.
        -12    1    4    4    0    0 -0.40715419932E+01 -0.99353592350E+01  0.48926554202E+01  0.11799444665E+02  0.00000000000E+00 0.  1.
</event>
<event>
 8    1  0.3776180E-010  0.9118800E+02  0.7816164E-02  0.1184000E+00
        -11   -1    0    0    0    0  0.00000000000E+00  0.00000000000E+00  0.45593999997E+02  0.45594000000E+02  0.51100000000E-03 0. -1.
         11   -1    0    0    0    0 -0.00000000000E+00 -0.00000000000E+00 -0.45593999997E+02  0.45594000000E+02  0.51100000000E-03 0.  1.
         23    2    1    2    0    0 -0.17763568394E-14  0.17763568394E-14  0.00000000000E+00  0.91188000000E+02  0.91188000000E+02 0.  0.
    9900012    2    3    3    0    0  0.15219529281E+02 -0.13424749512E+02 -0.38363595944E+02  0.47787268846E+02  0.19999989975E+02 0.  0.
         12    1    3    3    0    0 -0.15219529281E+02  0.13424749512E+02  0.38363595944E+02  0.43400731154E+02  0.00000000000E+00 0. -1.
         11    1    4    4    0    0  0.35690672849E+00 -0.73949787224E+01 -0.71990683828E+01  0.10326648951E+02  0.51100000000E-03 0. -1.
        -11    1    4    4    0    0  0.76771446935E-01  0.15422859666E+01 -0.11998151292E+02  0.12097114306E+02  0.51100000000E-03 0.  1.
         12    1    4    4    0    0  0.14785851106E+02 -0.75720567558E+01 -0.19166376269E+02  0.25363505588E+02  0.00000000000E+00 0. -1.
</event>
<event>
 8    1  0.3776180E-010  0.9118800E+02  0.7816164E-02  0.1184000E+00
        -11   -1    0    0    0    0  0.00000000000E+00  0.00000000000E+00  0.45593999997E+02  0.45594000000E+02  0.51100000000E-03 0. -1.
         11   -1    0    0    0    0 -0.00000000000E+00 -0.00000000000E+00 -0.45593999997E+02  0.45594000000E+02  0.51100000000E-03 0.  1.
         23    2    1    2    0    0  0.00000000000E+00  0.00000000000E+00  0.00000000000E+00  0.91188000000E+02  0.91188000000E+02 0.  0.
    9900012    2    3    3    0    0 -0.32066443814E+02  0.91841986571E+01 -0.27767192391E+02  0.47787270776E+02  0.19999998778E+02 0.  0.
         12    1    3    3    0    0  0.32066443814E+02 -0.91841986571E+01  0.27767192391E+02  0.43400729224E+02  0.00000000000E+00 0. -1.
         11    1    4    4    0    0 -0.15668318664E+00  0.77935125891E+00 -0.36148188288E+00  0.87327396533E+00  0.51100000000E-03 0.  1.
        -11    1    4    4    0    0 -0.53367648762E+00 -0.31975141777E+01 -0.70381115536E+01  0.77488013274E+01  0.51100000000E-03 0. -1.
        -12    1    4    4    0    0 -0.31376084140E+02  0.11602361576E+02 -0.20367598955E+02  0.39165195484E+02  0.00000000000E+00 0.  1.
</event>
<event>
 8    1  0.3776180E-010  0.9118800E+02  0.7816164E-02  0.1184000E+00
        -11   -1    0    0    0    0  0.00000000000E+00  0.00000000000E+00  0.45593999997E+02  0.45594000000E+02  0.51100000000E-03 0. -1.
         11   -1    0    0    0    0 -0.00000000000E+00 -0.00000000000E+00 -0.45593999997E+02  0.45594000000E+02  0.51100000000E-03 0.  1.
         23    2    1    2    0    0  0.17763568394E-14  0.00000000000E+00  0.00000000000E+00  0.91188000000E+02  0.91188000000E+02 0.  0.
    9900012    2    3    3    0    0  0.96702206740E+01  0.13239155489E+02  0.40185005370E+02  0.47787273479E+02  0.20000011101E+02 0.  0.
        -12    1    3    3    0    0 -0.96702206740E+01 -0.13239155489E+02 -0.40185005370E+02  0.43400726521E+02  0.00000000000E+00 0.  1.
         11    1    4    4    0    0  0.60968549613E+01  0.51340686580E+00  0.10844342268E+02  0.12451304611E+02  0.51100000000E-03 0. -1.
        -11    1    4    4    0    0  0.68685045885E+01  0.12539804550E+02  0.15416331259E+02  0.21025848929E+02  0.51100000000E-03 0.  1.
        -12    1    4    4    0    0 -0.32951388758E+01  0.18594407400E+00  0.13924331842E+02  0.14310119939E+02  0.00000000000E+00 0.  1.
</event>
<event>
 8    1  0.3776180E-010  0.9118800E+02  0.7816164E-02  0.1184000E+00
        -11   -1    0    0    0    0  0.00000000000E+00  0.00000000000E+00  0.45593999997E+02  0.45594000000E+02  0.51100000000E-03 0. -1.
         11   -1    0    0    0    0 -0.00000000000E+00 -0.00000000000E+00 -0.45593999997E+02  0.45594000000E+02  0.51100000000E-03 0.  1.
         23    2    1    2    0    0 -0.88817841970E-15 -0.44408920985E-15  0.00000000000E+00  0.91188000000E+02  0.91188000000E+02 0.  0.
    9900012    2    3    3    0    0 -0.75082527813E+01  0.38137169989E+01 -0.42575868992E+02  0.47787275148E+02  0.20000018712E+02 0.  0.
         12    1    3    3    0    0  0.75082527813E+01 -0.38137169989E+01  0.42575868992E+02  0.43400724852E+02  0.00000000000E+00 0. -1.
         11    1    4    4    0    0 -0.17822067189E+01  0.42151802053E+00 -0.12533687040E+02  0.12666777385E+02  0.51100000000E-03 0. -1.
        -11    1    4    4    0    0  0.14129359801E+01 -0.60368102345E+01 -0.81766065891E+01  0.10261401535E+02  0.51100000000E-03 0.  1.
         12    1    4    4    0    0 -0.71389820425E+01  0.94290092129E+01 -0.21865575363E+02  0.24859096229E+02  0.00000000000E+00 0. -1.
</event>
<event>
 8    1  0.3776180E-010  0.9118800E+02  0.7816164E-02  0.1184000E+00
        -11   -1    0    0    0    0  0.00000000000E+00  0.00000000000E+00  0.45593999997E+02  0.45594000000E+02  0.51100000000E-03 0. -1.
         11   -1    0    0    0    0 -0.00000000000E+00 -0.00000000000E+00 -0.45593999997E+02  0.45594000000E+02  0.51100000000E-03 0.  1.
         23    2    1    2    0    0  0.24980018054E-15 -0.17763568394E-14  0.00000000000E+00  0.91188000000E+02  0.91188000000E+02 0.  0.
    9900012    2    3    3    0    0 -0.94913965415E-01 -0.81947690551E+01  0.42619948635E+02  0.47787271087E+02  0.20000000196E+02 0.  0.
        -12    1    3    3    0    0  0.94913965415E-01  0.81947690551E+01 -0.42619948635E+02  0.43400728913E+02  0.00000000000E+00 0.  1.
         11    1    4    4    0    0  0.16832374587E+00  0.48972360848E+01  0.14400779894E+02  0.15211630944E+02  0.51100000000E-03 0. -1.
        -11    1    4    4    0    0  0.25718501920E+01 -0.10264348267E+02  0.25828600388E+02  0.27912145332E+02  0.51100000000E-03 0.  1.
        -12    1    4    4    0    0 -0.28350879032E+01 -0.28276568731E+01  0.23905683522E+01  0.46634948116E+01  0.00000000000E+00 0.  1.
</event>
<event>
 8    1  0.3776180E-010  0.9118800E+02  0.7816164E-02  0.1184000E+00
        -11   -1    0    0    0    0  0.00000000000E+00  0.00000000000E+00  0.45593999997E+02  0.45594000000E+02  0.51100000000E-03 0.  1.
         11   -1    0    0    0    0 -0.00000000000E+00 -0.00000000000E+00 -0.45593999997E+02  0.45594000000E+02  0.51100000000E-03 0. -1.
         23    2    1    2    0    0  0.00000000000E+00  0.00000000000E+00  0.44408920985E-15  0.91188000000E+02  0.91188000000E+02 0.  0.
    9900012    2    3    3    0    0 -0.10485805440E+02 -0.42020810653E+02 -0.28147054695E+01  0.47787271774E+02  0.20000003328E+02 0.  0.
        -12    1    3    3    0    0  0.10485805440E+02  0.42020810653E+02  0.28147054695E+01  0.43400728226E+02  0.00000000000E+00 0.  1.
         11    1    4    4    0    0 -0.36442307294E+01 -0.30574896278E+01 -0.29159901989E+01  0.55795752109E+01  0.51100000000E-03 0. -1.
        -11    1    4    4    0    0 -0.59852576863E+01 -0.86867882729E+01 -0.46860065753E+01  0.11543061031E+02  0.51100000000E-03 0.  1.
        -12    1    4    4    0    0 -0.85631702448E+00 -0.30276532752E+02  0.47872913047E+01  0.30664635533E+02  0.00000000000E+00 0.  1.
</event>
<event>
 8    1  0.3776180E-010  0.9118800E+02  0.7816164E-02  0.1184000E+00
        -11   -1    0    0    0    0  0.00000000000E+00  0.00000000000E+00  0.45593999997E+02  0.45594000000E+02  0.51100000000E-03 0. -1.
         11   -1    0    0    0    0 -0.00000000000E+00 -0.00000000000E+00 -0.45593999997E+02  0.45594000000E+02  0.51100000000E-03 0.  1.
         23    2    1    2    0    0  0.17763568394E-14  0.35527136788E-14  0.00000000000E+00  0.91188000000E+02  0.91188000000E+02 0.  0.
    9900012    2    3    3    0    0 -0.10534158669E+02 -0.26165945152E+02 -0.32984822179E+02  0.47787266380E+02  0.19999978734E+02 0.  0.
         12    1    3    3    0    0  0.10534158669E+02  0.26165945152E+02  0.32984822179E+02  0.43400733620E+02  0.00000000000E+00 0. -1.
         11    1    4    4    0    0  0.21879631523E+01 -0.10390198621E+02 -0.49130219437E+01  0.11699623713E+02  0.51100000000E-03 0.  1.
        -11    1    4    4    0    0 -0.43144353277E+00 -0.29151317063E+01 -0.11270931113E+00  0.29490405282E+01  0.51100000000E-03 0. -1.
        -12    1    4    4    0    0 -0.12290678288E+02 -0.12860614825E+02 -0.27959090924E+02  0.33138602140E+02  0.00000000000E+00 0.  1.
</event>
<event>
 8    1  0.3776180E-010  0.9118800E+02  0.7816164E-02  0.1184000E+00
        -11   -1    0    0    0    0  0.00000000000E+00  0.00000000000E+00  0.45593999997E+02  0.45594000000E+02  0.51100000000E-03 0. -1.
         11   -1    0    0    0    0 -0.00000000000E+00 -0.00000000000E+00 -0.45593999997E+02  0.45594000000E+02  0.51100000000E-03 0.  1.
         23    2    1    2    0    0  0.00000000000E+00  0.00000000000E+00  0.00000000000E+00  0.91188000000E+02  0.91188000000E+02 0.  0.
    9900012    2    3    3    0    0  0.15098873716E+02  0.16626085241E+02 -0.37137857953E+02  0.47787271997E+02  0.20000004341E+02 0.  0.
         12    1    3    3    0    0 -0.15098873716E+02 -0.16626085241E+02  0.37137857953E+02  0.43400728003E+02  0.00000000000E+00 0. -1.
         11    1    4    4    0    0  0.73226866558E+00 -0.21849681924E+01 -0.10742711823E+01  0.25425110097E+01  0.51100000000E-03 0. -1.
        -11    1    4    4    0    0  0.12847285020E+01 -0.35379929512E+00  0.89537080273E+00  0.16054253021E+01  0.51100000000E-03 0.  1.
        -12    1    4    4    0    0  0.13081876549E+02  0.19164852728E+02 -0.36958957573E+02  0.43639335685E+02  0.00000000000E+00 0.  1.
</event>
<event>
 8    1  0.3776180E-010  0.9118800E+02  0.7816164E-02  0.1184000E+00
        -11   -1    0    0    0    0  0.00000000000E+00  0.00000000000E+00  0.45593999997E+02  0.45594000000E+02  0.51100000000E-03 0. -1.
         11   -1    0    0    0    0 -0.00000000000E+00 -0.00000000000E+00 -0.45593999997E+02  0.45594000000E+02  0.51100000000E-03 0.  1.
         23    2    1    2    0    0 -0.35527136788E-14 -0.22204460493E-15 -0.71054273576E-14  0.91188000000E+02  0.91188000000E+02 0.  0.
    9900012    2    3    3    0    0 -0.23347593303E+02  0.82284057429E+00 -0.36576438641E+02  0.47787273701E+02  0.20000012110E+02 0.  0.
         12    1    3    3    0    0  0.23347593303E+02 -0.82284057429E+00  0.36576438641E+02  0.43400726299E+02  0.00000000000E+00 0. -1.
         11    1    4    4    0    0 -0.31953984876E+01  0.40917935086E+01 -0.97477999210E+00  0.52823803258E+01  0.51100000000E-03 0. -1.
        -11    1    4    4    0    0 -0.38422217903E+00  0.18999853927E+01 -0.75858074368E+01  0.78295623061E+01  0.51100000000E-03 0.  1.
         12    1    4    4    0    0 -0.19767972637E+02 -0.51689383271E+01 -0.28015851212E+02  0.34675331069E+02  0.00000000000E+00 0. -1.
</event>
<event>
 8    1  0.3776180E-010  0.9118800E+02  0.7816164E-02  0.1184000E+00
        -11   -1    0    0    0    0  0.00000000000E+00  0.00000000000E+00  0.45593999997E+02  0.45594000000E+02  0.51100000000E-03 0. -1.
         11   -1    0    0    0    0 -0.00000000000E+00 -0.00000000000E+00 -0.45593999997E+02  0.45594000000E+02  0.51100000000E-03 0.  1.
         23    2    1    2    0    0  0.00000000000E+00  0.35527136788E-14  0.00000000000E+00  0.91188000000E+02  0.91188000000E+02 0.  0.
    9900012    2    3    3    0    0 -0.12679909489E+02 -0.12959820793E+02  0.39432056276E+02  0.47787261276E+02  0.19999955462E+02 0.  0.
        -12    1    3    3    0    0  0.12679909489E+02  0.12959820793E+02 -0.39432056276E+02  0.43400738724E+02  0.00000000000E+00 0.  1.
         11    1    4    4    0    0 -0.14927044482E+01 -0.17533487301E+01 -0.10123123528E+01  0.25153876242E+01  0.51100000000E-03 0. -1.
        -11    1    4    4    0    0  0.28935907380E-02 -0.86992978161E+01  0.14557568824E+02  0.16958791266E+02  0.51100000000E-03 0.  1.
         12    1    4    4    0    0 -0.11190098632E+02 -0.25071742472E+01  0.25886799804E+02  0.28313082386E+02  0.00000000000E+00 0. -1.
</event>
<event>
 8    1  0.3776180E-010  0.9118800E+02  0.7816164E-02  0.1184000E+00
        -11   -1    0    0    0    0  0.00000000000E+00  0.00000000000E+00  0.45593999997E+02  0.45594000000E+02  0.51100000000E-03 0. -1.
         11   -1    0    0    0    0 -0.00000000000E+00 -0.00000000000E+00 -0.45593999997E+02  0.45594000000E+02  0.51100000000E-03 0.  1.
         23    2    1    2    0    0  0.00000000000E+00  0.00000000000E+00 -0.71054273576E-14  0.91188000000E+02  0.91188000000E+02 0.  0.
    9900012    2    3    3    0    0  0.18843073450E+02 -0.53678961859E+01  0.38726573687E+02  0.47787271481E+02  0.20000001989E+02 0.  0.
        -12    1    3    3    0    0 -0.18843073450E+02  0.53678961859E+01 -0.38726573687E+02  0.43400728519E+02  0.00000000000E+00 0.  1.
         11    1    4    4    0    0  0.13023858856E+02 -0.31476594678E+01  0.21748362410E+02  0.25544469605E+02  0.51100000000E-03 0. -1.
        -11    1    4    4    0    0  0.68545055802E+00 -0.29530454936E+01 -0.12590233732E+01  0.32825996207E+01  0.51100000000E-03 0.  1.
         12    1    4    4    0    0  0.51337640361E+01  0.73280877552E+00  0.18237234650E+02  0.18960202255E+02  0.00000000000E+00 0. -1.
</event>
<event>
 8    1  0.3776180E-010  0.9118800E+02  0.7816164E-02  0.1184000E+00
        -11   -1    0    0    0    0  0.00000000000E+00  0.00000000000E+00  0.45593999997E+02  0.45594000000E+02  0.51100000000E-03 0. -1.
         11   -1    0    0    0    0 -0.00000000000E+00 -0.00000000000E+00 -0.45593999997E+02  0.45594000000E+02  0.51100000000E-03 0.  1.
         23    2    1    2    0    0  0.35527136788E-14  0.35527136788E-14 -0.17763568394E-14  0.91188000000E+02  0.91188000000E+02 0.  0.
    9900012    2    3    3    0    0  0.31072264175E+02  0.29842332842E+02 -0.52510166251E+01  0.47787267218E+02  0.19999982555E+02 0.  0.
         12    1    3    3    0    0 -0.31072264175E+02 -0.29842332842E+02  0.52510166251E+01  0.43400732782E+02  0.00000000000E+00 0. -1.
         11    1    4    4    0    0  0.27167820381E+02  0.22116706181E+02 -0.74887630880E+01  0.35823466183E+02  0.51100000000E-03 0. -1.
        -11    1    4    4    0    0  0.48993976095E+01  0.88699853662E+01  0.13943518281E+01  0.10228634054E+02  0.51100000000E-03 0.  1.
         12    1    4    4    0    0 -0.99495381609E+00 -0.11443587046E+01  0.84339463482E+00  0.17351669807E+01  0.00000000000E+00 0. -1.
</event>
<event>
 8    1  0.3776180E-010  0.9118800E+02  0.7816164E-02  0.1184000E+00
        -11   -1    0    0    0    0  0.00000000000E+00  0.00000000000E+00  0.45593999997E+02  0.45594000000E+02  0.51100000000E-03 0. -1.
         11   -1    0    0    0    0 -0.00000000000E+00 -0.00000000000E+00 -0.45593999997E+02  0.45594000000E+02  0.51100000000E-03 0.  1.
         23    2    1    2    0    0  0.00000000000E+00 -0.88817841970E-15  0.00000000000E+00  0.91188000000E+02  0.91188000000E+02 0.  0.
    9900012    2    3    3    0    0 -0.40688795767E+02  0.74103379397E+01  0.13157974244E+02  0.47787268490E+02  0.19999988354E+02 0.  0.
        -12    1    3    3    0    0  0.40688795767E+02 -0.74103379397E+01 -0.13157974244E+02  0.43400731510E+02  0.00000000000E+00 0.  1.
         11    1    4    4    0    0 -0.45812232263E+01  0.33492736567E+01  0.26327502982E+01  0.62559263639E+01  0.51100000000E-03 0. -1.
        -11    1    4    4    0    0 -0.12325085551E+01 -0.40983207075E+01  0.19462424424E+01  0.47014008407E+01  0.51100000000E-03 0.  1.
        -12    1    4    4    0    0 -0.34875063986E+02  0.81593849905E+01  0.85789815035E+01  0.36829941285E+02  0.00000000000E+00 0.  1.
</event>
<event>
 8    1  0.3776180E-010  0.9118800E+02  0.7816164E-02  0.1184000E+00
        -11   -1    0    0    0    0  0.00000000000E+00  0.00000000000E+00  0.45593999997E+02  0.45594000000E+02  0.51100000000E-03 0. -1.
         11   -1    0    0    0    0 -0.00000000000E+00 -0.00000000000E+00 -0.45593999997E+02  0.45594000000E+02  0.51100000000E-03 0.  1.
         23    2    1    2    0    0  0.00000000000E+00  0.00000000000E+00 -0.35527136788E-14  0.91188000000E+02  0.91188000000E+02 0.  0.
    9900012    2    3    3    0    0 -0.33640158008E+02 -0.19800023161E+02 -0.18971596458E+02  0.47787278576E+02  0.20000034337E+02 0.  0.
         12    1    3    3    0    0  0.33640158008E+02  0.19800023161E+02  0.18971596458E+02  0.43400721424E+02  0.00000000000E+00 0. -1.
         11    1    4    4    0    0 -0.15048232414E+02 -0.15615043443E+02 -0.10498727049E+02  0.24093612233E+02  0.51100000000E-03 0. -1.
        -11    1    4    4    0    0 -0.33938497927E+01 -0.26326079068E+01 -0.71738354968E+01  0.83613848615E+01  0.51100000000E-03 0.  1.
         12    1    4    4    0    0 -0.15198075802E+02 -0.15523718111E+01 -0.12990339118E+01  0.15332281481E+02  0.00000000000E+00 0. -1.
</event>
<event>
 8    1  0.3776180E-010  0.9118800E+02  0.7816164E-02  0.1184000E+00
        -11   -1    0    0    0    0  0.00000000000E+00  0.00000000000E+00  0.45593999997E+02  0.45594000000E+02  0.51100000000E-03 0. -1.
         11   -1    0    0    0    0 -0.00000000000E+00 -0.00000000000E+00 -0.45593999997E+02  0.45594000000E+02  0.51100000000E-03 0.  1.
         23    2    1    2    0    0  0.00000000000E+00  0.00000000000E+00  0.00000000000E+00  0.91188000000E+02  0.91188000000E+02 0.  0.
    9900012    2    3    3    0    0  0.97717043455E+01 -0.13424695956E+01  0.42265082959E+02  0.47787243464E+02  0.19999874248E+02 0.  0.
        -12    1    3    3    0    0 -0.97717043455E+01  0.13424695956E+01 -0.42265082959E+02  0.43400756536E+02  0.00000000000E+00 0.  1.
         11    1    4    4    0    0 -0.18627045305E+01 -0.15986732982E+01  0.27775194558E+01  0.37067558688E+01  0.51100000000E-03 0. -1.
        -11    1    4    4    0    0  0.97876552720E+01  0.24969669182E+01  0.92273162120E+01  0.13681242789E+02  0.51100000000E-03 0.  1.
         12    1    4    4    0    0  0.18467536040E+01 -0.22407632156E+01  0.30260247291E+02  0.30399244806E+02  0.00000000000E+00 0. -1.
</event>
<event>
 8    1  0.3776180E-010  0.9118800E+02  0.7816164E-02  0.1184000E+00
        -11   -1    0    0    0    0  0.00000000000E+00  0.00000000000E+00  0.45593999997E+02  0.45594000000E+02  0.51100000000E-03 0. -1.
         11   -1    0    0    0    0 -0.00000000000E+00 -0.00000000000E+00 -0.45593999997E+02  0.45594000000E+02  0.51100000000E-03 0.  1.
         23    2    1    2    0    0 -0.71054273576E-14  0.00000000000E+00 -0.17763568394E-14  0.91188000000E+02  0.91188000000E+02 0.  0.
    9900012    2    3    3    0    0 -0.42117896950E+02 -0.80807355366E+01 -0.66639172994E+01  0.47787270466E+02  0.19999997362E+02 0.  0.
         12    1    3    3    0    0  0.42117896950E+02  0.80807355366E+01  0.66639172994E+01  0.43400729534E+02  0.00000000000E+00 0. -1.
         11    1    4    4    0    0 -0.21345866034E+02 -0.17517726880E+01 -0.33370123010E+01  0.21676031824E+02  0.51100000000E-03 0. -1.
        -11    1    4    4    0    0 -0.11299616988E+02 -0.89226604103E+00  0.49887800436E+01  0.12384078865E+02  0.51100000000E-03 0.  1.
        -12    1    4    4    0    0 -0.94724139287E+01 -0.54366968076E+01 -0.83156850419E+01  0.13727159777E+02  0.00000000000E+00 0.  1.
</event>
<event>
 8    1  0.3776180E-010  0.9118800E+02  0.7816164E-02  0.1184000E+00
        -11   -1    0    0    0    0  0.00000000000E+00  0.00000000000E+00  0.45593999997E+02  0.45594000000E+02  0.51100000000E-03 0. -1.
         11   -1    0    0    0    0 -0.00000000000E+00 -0.00000000000E+00 -0.45593999997E+02  0.45594000000E+02  0.51100000000E-03 0.  1.
         23    2    1    2    0    0  0.00000000000E+00  0.00000000000E+00  0.00000000000E+00  0.91188000000E+02  0.91188000000E+02 0.  0.
    9900012    2    3    3    0    0 -0.25570827043E+02  0.21422368757E+02 -0.27763972186E+02  0.47787271545E+02  0.20000002284E+02 0.  0.
         12    1    3    3    0    0  0.25570827043E+02 -0.21422368757E+02  0.27763972186E+02  0.43400728455E+02  0.00000000000E+00 0. -1.
         11    1    4    4    0    0 -0.55052220129E+01  0.11826608918E+01 -0.67865920686E+01  0.88183892159E+01  0.51100000000E-03 0. -1.
        -11    1    4    4    0    0 -0.16221982435E+02  0.12894190326E+02 -0.22446591886E+02  0.30549342805E+02  0.51100000000E-03 0.  1.
         12    1    4    4    0    0 -0.38436225948E+01  0.73455175400E+01  0.14692117683E+01  0.84195395243E+01  0.00000000000E+00 0. -1.
</event>
<event>
 8    1  0.3776180E-010  0.9118800E+02  0.7816164E-02  0.1184000E+00
        -11   -1    0    0    0    0  0.00000000000E+00  0.00000000000E+00  0.45593999997E+02  0.45594000000E+02  0.51100000000E-03 0. -1.
         11   -1    0    0    0    0 -0.00000000000E+00 -0.00000000000E+00 -0.45593999997E+02  0.45594000000E+02  0.51100000000E-03 0.  1.
         23    2    1    2    0    0 -0.17763568394E-14  0.00000000000E+00 -0.71054273576E-14  0.91188000000E+02  0.91188000000E+02 0.  0.
    9900012    2    3    3    0    0  0.15254463610E+02 -0.13977430000E+02  0.38151754405E+02  0.47787267591E+02  0.19999984256E+02 0.  0.
        -12    1    3    3    0    0 -0.15254463610E+02  0.13977430000E+02 -0.38151754405E+02  0.43400732409E+02  0.00000000000E+00 0.  1.
         11    1    4    4    0    0  0.66520433722E+01 -0.21667341158E+00  0.18203844939E+02  0.19382378575E+02  0.51100000000E-03 0. -1.
        -11    1    4    4    0    0  0.57702467934E+01  0.38435919502E+00  0.52562712974E+01  0.78148492155E+01  0.51100000000E-03 0.  1.
        -12    1    4    4    0    0  0.28321734449E+01 -0.14145115783E+02  0.14691638168E+02  0.20590039801E+02  0.00000000000E+00 0.  1.
</event>
<event>
 8    1  0.3776180E-010  0.9118800E+02  0.7816164E-02  0.1184000E+00
        -11   -1    0    0    0    0  0.00000000000E+00  0.00000000000E+00  0.45593999997E+02  0.45594000000E+02  0.51100000000E-03 0. -1.
         11   -1    0    0    0    0 -0.00000000000E+00 -0.00000000000E+00 -0.45593999997E+02  0.45594000000E+02  0.51100000000E-03 0.  1.
         23    2    1    2    0    0  0.00000000000E+00  0.17763568394E-14  0.00000000000E+00  0.91188000000E+02  0.91188000000E+02 0.  0.
    9900012    2    3    3    0    0 -0.19903979476E+02 -0.90733725493E+01  0.37485046979E+02  0.47787271487E+02  0.20000002019E+02 0.  0.
        -12    1    3    3    0    0  0.19903979476E+02  0.90733725493E+01 -0.37485046979E+02  0.43400728513E+02  0.00000000000E+00 0.  1.
         11    1    4    4    0    0 -0.10121112108E+02 -0.89980577539E+01  0.21005059179E+02  0.24992288111E+02  0.51100000000E-03 0. -1.
        -11    1    4    4    0    0 -0.62192716664E+01 -0.38365862227E+01  0.22421836826E+01  0.76436981778E+01  0.51100000000E-03 0.  1.
        -12    1    4    4    0    0 -0.35635957017E+01  0.37612714273E+01  0.14237804118E+02  0.15151285199E+02  0.00000000000E+00 0.  1.
</event>
<event>
 8    1  0.3776180E-010  0.9118800E+02  0.7816164E-02  0.1184000E+00
        -11   -1    0    0    0    0  0.00000000000E+00  0.00000000000E+00  0.45593999997E+02  0.45594000000E+02  0.51100000000E-03 0.  1.
         11   -1    0    0    0    0 -0.00000000000E+00 -0.00000000000E+00 -0.45593999997E+02  0.45594000000E+02  0.51100000000E-03 0. -1.
         23    2    1    2    0    0  0.00000000000E+00  0.35527136788E-14 -0.17763568394E-14  0.91188000000E+02  0.91188000000E+02 0.  0.
    9900012    2    3    3    0    0 -0.33676627162E+02 -0.23433682836E+02  0.14155165323E+02  0.47787292476E+02  0.20000097714E+02 0.  0.
         12    1    3    3    0    0  0.33676627162E+02  0.23433682836E+02 -0.14155165323E+02  0.43400707524E+02  0.00000000000E+00 0. -1.
         11    1    4    4    0    0 -0.75386476414E+00 -0.40501401866E+01 -0.25170421873E+01  0.48277789146E+01  0.51100000000E-03 0. -1.
        -11    1    4    4    0    0 -0.14413055273E+02 -0.91893719744E+01  0.19472759549E+01  0.17203854320E+02  0.51100000000E-03 0.  1.
         12    1    4    4    0    0 -0.18509707125E+02 -0.10194170675E+02  0.14724931555E+02  0.25755659241E+02  0.00000000000E+00 0. -1.
</event>
<event>
 8    1  0.3776180E-010  0.9118800E+02  0.7816164E-02  0.1184000E+00
        -11   -1    0    0    0    0  0.00000000000E+00  0.00000000000E+00  0.45593999997E+02  0.45594000000E+02  0.51100000000E-03 0. -1.
         11   -1    0    0    0    0 -0.00000000000E+00 -0.00000000000E+00 -0.45593999997E+02  0.45594000000E+02  0.51100000000E-03 0.  1.
         23    2    1    2    0    0  0.00000000000E+00  0.00000000000E+00  0.35527136788E-14  0.91188000000E+02  0.91188000000E+02 0.  0.
    9900012    2    3    3    0    0 -0.29260763969E+02 -0.50554183475E+01 -0.31652383191E+02  0.47787275071E+02  0.20000018359E+02 0.  0.
         12    1    3    3    0    0  0.29260763969E+02  0.50554183475E+01  0.31652383191E+02  0.43400724929E+02  0.00000000000E+00 0. -1.
         11    1    4    4    0    0 -0.35029945432E+01 -0.48296719025E+00 -0.18350192279E+01  0.39839081195E+01  0.51100000000E-03 0. -1.
        -11    1    4    4    0    0 -0.47291845147E+01  0.64418558279E+01 -0.48299044397E+01  0.93375944354E+01  0.51100000000E-03 0.  1.
        -12    1    4    4    0    0 -0.21028584911E+02 -0.11014306985E+02 -0.24987459523E+02  0.34465772516E+02  0.00000000000E+00 0.  1.
</event>
<event>
 8    1  0.4422294E-010  0.9118800E+02  0.7816164E-02  0.1184000E+00
        -11   -1    0    0    0    0  0.00000000000E+00  0.00000000000E+00  0.45593999997E+02  0.45594000000E+02  0.51100000000E-03 0.  1.
         11   -1    0    0    0    0 -0.00000000000E+00 -0.00000000000E+00 -0.45593999997E+02  0.45594000000E+02  0.51100000000E-03 0. -1.
         23    2    1    2    0    0 -0.14210854715E-13  0.13877787808E-16 -0.35527136788E-14  0.91188000000E+02  0.91188000000E+02 0.  0.
    9900012    2    3    3    0    0  0.38473380085E+02  0.12273442251E+00  0.20084998305E+02  0.47787271944E+02  0.20000004100E+02 0.  0.
        -12    1    3    3    0    0 -0.38473380085E+02 -0.12273442251E+00 -0.20084998305E+02  0.43400728056E+02  0.00000000000E+00 0.  1.
         11    1    4    4    0    0  0.22913236850E+02  0.20865119941E+01  0.64177802494E+01  0.23886352984E+02  0.51100000000E-03 0. -1.
        -11    1    4    4    0    0  0.10326628084E+02 -0.23911791824E+01  0.15729372492E+01  0.10715928206E+02  0.51100000000E-03 0.  1.
        -12    1    4    4    0    0  0.52335151512E+01  0.42740161085E+00  0.12094280806E+02  0.13184990755E+02  0.00000000000E+00 0.  1.
</event>
<event>
 8    1  0.3776180E-010  0.9118800E+02  0.7816164E-02  0.1184000E+00
        -11   -1    0    0    0    0  0.00000000000E+00  0.00000000000E+00  0.45593999997E+02  0.45594000000E+02  0.51100000000E-03 0. -1.
         11   -1    0    0    0    0 -0.00000000000E+00 -0.00000000000E+00 -0.45593999997E+02  0.45594000000E+02  0.51100000000E-03 0.  1.
         23    2    1    2    0    0  0.00000000000E+00  0.00000000000E+00 -0.35527136788E-14  0.91188000000E+02  0.91188000000E+02 0.  0.
    9900012    2    3    3    0    0  0.94313451353E+01 -0.36020239264E+02 -0.22298327887E+02  0.47787270349E+02  0.19999996827E+02 0.  0.
         12    1    3    3    0    0 -0.94313451353E+01  0.36020239264E+02  0.22298327887E+02  0.43400729651E+02  0.00000000000E+00 0. -1.
         11    1    4    4    0    0  0.29113886986E+01 -0.14521439484E+02 -0.12940662561E+02  0.19667463909E+02  0.51100000000E-03 0. -1.
        -11    1    4    4    0    0  0.46700115960E+00 -0.74938286933E+01  0.33899641007E+01  0.82381682086E+01  0.51100000000E-03 0.  1.
        -12    1    4    4    0    0  0.60529552771E+01 -0.14004971088E+02 -0.12747629427E+02  0.19881638231E+02  0.00000000000E+00 0.  1.
</event>
<event>
 8    1  0.3776180E-010  0.9118800E+02  0.7816164E-02  0.1184000E+00
        -11   -1    0    0    0    0  0.00000000000E+00  0.00000000000E+00  0.45593999997E+02  0.45594000000E+02  0.51100000000E-03 0. -1.
         11   -1    0    0    0    0 -0.00000000000E+00 -0.00000000000E+00 -0.45593999997E+02  0.45594000000E+02  0.51100000000E-03 0.  1.
         23    2    1    2    0    0  0.88817841970E-15  0.00000000000E+00  0.00000000000E+00  0.91188000000E+02  0.91188000000E+02 0.  0.
    9900012    2    3    3    0    0  0.44068322902E+01 -0.38522164138E+02 -0.19499882225E+02  0.47787277570E+02  0.20000029751E+02 0.  0.
         12    1    3    3    0    0 -0.44068322902E+01  0.38522164138E+02  0.19499882225E+02  0.43400722430E+02  0.00000000000E+00 0. -1.
         11    1    4    4    0    0 -0.21587397024E+01 -0.14971730762E+01 -0.22743492384E+01  0.34748164041E+01  0.51100000000E-03 0. -1.
        -11    1    4    4    0    0 -0.45765044482E+01 -0.17267611741E+02 -0.10180121514E+02  0.20560877474E+02  0.51100000000E-03 0.  1.
         12    1    4    4    0    0  0.11142076441E+02 -0.19757379320E+02 -0.70454114733E+01  0.23751583691E+02  0.00000000000E+00 0. -1.
</event>
<event>
 8    1  0.3776180E-010  0.9118800E+02  0.7816164E-02  0.1184000E+00
        -11   -1    0    0    0    0  0.00000000000E+00  0.00000000000E+00  0.45593999997E+02  0.45594000000E+02  0.51100000000E-03 0. -1.
         11   -1    0    0    0    0 -0.00000000000E+00 -0.00000000000E+00 -0.45593999997E+02  0.45594000000E+02  0.51100000000E-03 0.  1.
         23    2    1    2    0    0  0.00000000000E+00  0.44408920985E-15  0.00000000000E+00  0.91188000000E+02  0.91188000000E+02 0.  0.
    9900012    2    3    3    0    0  0.25256183375E+02  0.32306035430E+01  0.35147007042E+02  0.47787266113E+02  0.19999977518E+02 0.  0.
        -12    1    3    3    0    0 -0.25256183375E+02 -0.32306035430E+01 -0.35147007042E+02  0.43400733887E+02  0.00000000000E+00 0.  1.
         11    1    4    4    0    0  0.84656933636E+01  0.18058981611E+01  0.60741974969E+00  0.86774530428E+01  0.51100000000E-03 0. -1.
        -11    1    4    4    0    0  0.94355107217E+01 -0.26496164658E+01  0.16183981264E+02  0.18920110460E+02  0.51100000000E-03 0.  1.
        -12    1    4    4    0    0  0.73549792892E+01  0.40743218476E+01  0.18355606028E+02  0.20189702611E+02  0.00000000000E+00 0.  1.
</event>
<event>
 8    1  0.3776180E-010  0.9118800E+02  0.7816164E-02  0.1184000E+00
        -11   -1    0    0    0    0  0.00000000000E+00  0.00000000000E+00  0.45593999997E+02  0.45594000000E+02  0.51100000000E-03 0. -1.
         11   -1    0    0    0    0 -0.00000000000E+00 -0.00000000000E+00 -0.45593999997E+02  0.45594000000E+02  0.51100000000E-03 0.  1.
         23    2    1    2    0    0 -0.35527136788E-14  0.17763568394E-14  0.00000000000E+00  0.91188000000E+02  0.91188000000E+02 0.  0.
    9900012    2    3    3    0    0  0.31860043064E+02 -0.10813441121E+02  0.27415869515E+02  0.47787277032E+02  0.20000027300E+02 0.  0.
        -12    1    3    3    0    0 -0.31860043064E+02  0.10813441121E+02 -0.27415869515E+02  0.43400722968E+02  0.00000000000E+00 0.  1.
         11    1    4    4    0    0  0.14270625592E+02 -0.11462165413E+01  0.39164376470E+01  0.14842609314E+02  0.51100000000E-03 0. -1.
        -11    1    4    4    0    0  0.16311266738E+02 -0.85733820166E+01  0.13597705992E+02  0.22901046052E+02  0.51100000000E-03 0.  1.
        -12    1    4    4    0    0  0.12781507343E+01 -0.10938425628E+01  0.99017258758E+01  0.10043621666E+02  0.00000000000E+00 0.  1.
</event>
<event>
 8    1  0.3776180E-010  0.9118800E+02  0.7816164E-02  0.1184000E+00
        -11   -1    0    0    0    0  0.00000000000E+00  0.00000000000E+00  0.45593999997E+02  0.45594000000E+02  0.51100000000E-03 0. -1.
         11   -1    0    0    0    0 -0.00000000000E+00 -0.00000000000E+00 -0.45593999997E+02  0.45594000000E+02  0.51100000000E-03 0.  1.
         23    2    1    2    0    0  0.00000000000E+00  0.88817841970E-15  0.00000000000E+00  0.91188000000E+02  0.91188000000E+02 0.  0.
    9900012    2    3    3    0    0 -0.13808891035E+02 -0.62189524993E+01 -0.40672627761E+02  0.47787268545E+02  0.19999988606E+02 0.  0.
         12    1    3    3    0    0  0.13808891035E+02  0.62189524993E+01  0.40672627761E+02  0.43400731455E+02  0.00000000000E+00 0. -1.
         11    1    4    4    0    0  0.39107089880E+01 -0.40360932531E+01 -0.66633387980E+01  0.87168674267E+01  0.51100000000E-03 0. -1.
        -11    1    4    4    0    0 -0.51299615002E+01 -0.31618337196E+01 -0.68780457194E+01  0.91444633874E+01  0.51100000000E-03 0.  1.
        -12    1    4    4    0    0 -0.12589638523E+02  0.97897447341E+00 -0.27131243244E+02  0.29925937731E+02  0.00000000000E+00 0.  1.
</event>
<event>
 8    1  0.3776180E-010  0.9118800E+02  0.7816164E-02  0.1184000E+00
        -11   -1    0    0    0    0  0.00000000000E+00  0.00000000000E+00  0.45593999997E+02  0.45594000000E+02  0.51100000000E-03 0. -1.
         11   -1    0    0    0    0 -0.00000000000E+00 -0.00000000000E+00 -0.45593999997E+02  0.45594000000E+02  0.51100000000E-03 0.  1.
         23    2    1    2    0    0  0.35527136788E-14 -0.17763568394E-14  0.00000000000E+00  0.91188000000E+02  0.91188000000E+02 0.  0.
    9900012    2    3    3    0    0  0.17012380363E+02  0.90230803229E+01  0.38894555603E+02  0.47787268212E+02  0.19999987087E+02 0.  0.
        -12    1    3    3    0    0 -0.17012380363E+02 -0.90230803229E+01 -0.38894555603E+02  0.43400731788E+02  0.00000000000E+00 0.  1.
         11    1    4    4    0    0  0.94537068444E+01  0.53311149731E+01  0.21823577292E+02  0.24373384788E+02  0.51100000000E-03 0. -1.
        -11    1    4    4    0    0  0.97294528539E+01 -0.19429086096E+01  0.95764237312E+01  0.13789308846E+02  0.51100000000E-03 0.  1.
        -12    1    4    4    0    0 -0.21707793353E+01  0.56348739594E+01  0.74945545801E+01  0.96245745784E+01  0.00000000000E+00 0.  1.
</event>
<event>
 8    1  0.3776180E-010  0.9118800E+02  0.7816164E-02  0.1184000E+00
        -11   -1    0    0    0    0  0.00000000000E+00  0.00000000000E+00  0.45593999997E+02  0.45594000000E+02  0.51100000000E-03 0. -1.
         11   -1    0    0    0    0 -0.00000000000E+00 -0.00000000000E+00 -0.45593999997E+02  0.45594000000E+02  0.51100000000E-03 0.  1.
         23    2    1    2    0    0  0.88817841970E-15  0.00000000000E+00  0.00000000000E+00  0.91188000000E+02  0.91188000000E+02 0.  0.
    9900012    2    3    3    0    0 -0.60181166350E+01 -0.96160470399E+01 -0.41891969686E+02  0.47787271750E+02  0.20000003216E+02 0.  0.
         12    1    3    3    0    0  0.60181166350E+01  0.96160470399E+01  0.41891969686E+02  0.43400728250E+02  0.00000000000E+00 0. -1.
         11    1    4    4    0    0 -0.88616398203E+01 -0.35201089788E+01 -0.15830057758E+02  0.18480004232E+02  0.51100000000E-03 0. -1.
        -11    1    4    4    0    0 -0.16346519008E+01 -0.26047803561E+00 -0.19125040486E+02  0.19196538998E+02  0.51100000000E-03 0.  1.
         12    1    4    4    0    0  0.44781750860E+01 -0.58354600255E+01 -0.69368714415E+01  0.10110728520E+02  0.00000000000E+00 0. -1.
</event>
<event>
 8    1  0.3776180E-010  0.9118800E+02  0.7816164E-02  0.1184000E+00
        -11   -1    0    0    0    0  0.00000000000E+00  0.00000000000E+00  0.45593999997E+02  0.45594000000E+02  0.51100000000E-03 0. -1.
         11   -1    0    0    0    0 -0.00000000000E+00 -0.00000000000E+00 -0.45593999997E+02  0.45594000000E+02  0.51100000000E-03 0.  1.
         23    2    1    2    0    0 -0.35527136788E-14  0.00000000000E+00  0.17763568394E-14  0.91188000000E+02  0.91188000000E+02 0.  0.
    9900012    2    3    3    0    0  0.23989960872E+02 -0.33548066645E+02 -0.13514167120E+02  0.47787266006E+02  0.19999977026E+02 0.  0.
         12    1    3    3    0    0 -0.23989960872E+02  0.33548066645E+02  0.13514167120E+02  0.43400733994E+02  0.00000000000E+00 0. -1.
         11    1    4    4    0    0  0.67423845170E+01 -0.52144697612E+01 -0.94785502604E+01  0.12747288306E+02  0.51100000000E-03 0. -1.
        -11    1    4    4    0    0  0.15050846025E+02 -0.17077812063E+02 -0.56618264060E+01  0.23457107867E+02  0.51100000000E-03 0.  1.
        -12    1    4    4    0    0  0.21967303302E+01 -0.11255784821E+02  0.16262095460E+01  0.11582869833E+02  0.00000000000E+00 0.  1.
</event>
<event>
 8    1  0.3776180E-010  0.9118800E+02  0.7816164E-02  0.1184000E+00
        -11   -1    0    0    0    0  0.00000000000E+00  0.00000000000E+00  0.45593999997E+02  0.45594000000E+02  0.51100000000E-03 0. -1.
         11   -1    0    0    0    0 -0.00000000000E+00 -0.00000000000E+00 -0.45593999997E+02  0.45594000000E+02  0.51100000000E-03 0.  1.
         23    2    1    2    0    0  0.00000000000E+00  0.00000000000E+00  0.00000000000E+00  0.91188000000E+02  0.91188000000E+02 0.  0.
    9900012    2    3    3    0    0  0.21580811635E+02  0.17321821139E+02 -0.33434208079E+02  0.47787272031E+02  0.20000004499E+02 0.  0.
         12    1    3    3    0    0 -0.21580811635E+02 -0.17321821139E+02  0.33434208079E+02  0.43400727969E+02  0.00000000000E+00 0. -1.
         11    1    4    4    0    0  0.16055020929E+02  0.27441798527E+01 -0.13187058956E+02  0.20956925926E+02  0.51100000000E-03 0. -1.
        -11    1    4    4    0    0  0.75592521179E+01  0.12878281503E+02 -0.17653846989E+02  0.23122515885E+02  0.51100000000E-03 0.  1.
        -12    1    4    4    0    0 -0.20334614125E+01  0.16993597831E+01 -0.25933021331E+01  0.37078302202E+01  0.00000000000E+00 0.  1.
</event>
<event>
 8    1  0.3776180E-010  0.9118800E+02  0.7816164E-02  0.1184000E+00
        -11   -1    0    0    0    0  0.00000000000E+00  0.00000000000E+00  0.45593999997E+02  0.45594000000E+02  0.51100000000E-03 0. -1.
         11   -1    0    0    0    0 -0.00000000000E+00 -0.00000000000E+00 -0.45593999997E+02  0.45594000000E+02  0.51100000000E-03 0.  1.
         23    2    1    2    0    0 -0.17763568394E-14  0.00000000000E+00  0.00000000000E+00  0.91188000000E+02  0.91188000000E+02 0.  0.
    9900012    2    3    3    0    0 -0.13062303597E+02 -0.25660394205E+02  0.32473741835E+02  0.47787268268E+02  0.19999987343E+02 0.  0.
        -12    1    3    3    0    0  0.13062303597E+02  0.25660394205E+02 -0.32473741835E+02  0.43400731732E+02  0.00000000000E+00 0.  1.
         11    1    4    4    0    0  0.11969352741E+01 -0.47426180501E+01  0.11264244362E+02  0.12280402328E+02  0.51100000000E-03 0. -1.
        -11    1    4    4    0    0 -0.52338190786E+01  0.45778011135E+00  0.44356732258E+01  0.68758724541E+01  0.51100000000E-03 0.  1.
        -12    1    4    4    0    0 -0.90254197924E+01 -0.21375556267E+02  0.16773824248E+02  0.28630993487E+02  0.00000000000E+00 0.  1.
</event>
<event>
 8    1  0.3776180E-010  0.9118800E+02  0.7816164E-02  0.1184000E+00
        -11   -1    0    0    0    0  0.00000000000E+00  0.00000000000E+00  0.45593999997E+02  0.45594000000E+02  0.51100000000E-03 0. -1.
         11   -1    0    0    0    0 -0.00000000000E+00 -0.00000000000E+00 -0.45593999997E+02  0.45594000000E+02  0.51100000000E-03 0.  1.
         23    2    1    2    0    0 -0.88817841970E-15  0.17763568394E-14 -0.71054273576E-14  0.91188000000E+02  0.91188000000E+02 0.  0.
    9900012    2    3    3    0    0  0.78702281337E+01  0.69162792261E+01  0.42117073321E+02  0.47787271039E+02  0.19999999974E+02 0.  0.
        -12    1    3    3    0    0 -0.78702281337E+01 -0.69162792261E+01 -0.42117073321E+02  0.43400728961E+02  0.00000000000E+00 0.  1.
         11    1    4    4    0    0  0.97294950131E+01  0.73067372315E+01  0.38471845822E+02  0.40350147502E+02  0.51100000000E-03 0. -1.
        -11    1    4    4    0    0  0.21661749756E+01  0.31549520160E+00  0.41548026493E+00  0.22281102663E+01  0.51100000000E-03 0.  1.
        -12    1    4    4    0    0 -0.40254418550E+01 -0.70595320698E+00  0.32297472341E+01  0.52090132707E+01  0.00000000000E+00 0.  1.
</event>
<event>
 8    1  0.3840685E-010  0.9118800E+02  0.7816164E-02  0.1184000E+00
        -11   -1    0    0    0    0  0.00000000000E+00  0.00000000000E+00  0.45593999997E+02  0.45594000000E+02  0.51100000000E-03 0. -1.
         11   -1    0    0    0    0 -0.00000000000E+00 -0.00000000000E+00 -0.45593999997E+02  0.45594000000E+02  0.51100000000E-03 0.  1.
         23    2    1    2    0    0  0.00000000000E+00  0.71054273576E-14  0.00000000000E+00  0.91188000000E+02  0.91188000000E+02 0.  0.
    9900012    2    3    3    0    0 -0.14494831176E+02 -0.34663207013E+02  0.21725215948E+02  0.47787273518E+02  0.20000011277E+02 0.  0.
        -12    1    3    3    0    0  0.14494831176E+02  0.34663207013E+02 -0.21725215948E+02  0.43400726482E+02  0.00000000000E+00 0.  1.
         11    1    4    4    0    0 -0.52485535217E+01 -0.99572459747E+01  0.11272981785E+02  0.15930291274E+02  0.51100000000E-03 0. -1.
        -11    1    4    4    0    0 -0.79523891480E+01 -0.22529486261E+02  0.13852745622E+02  0.27617328000E+02  0.51100000000E-03 0.  1.
        -12    1    4    4    0    0 -0.12938885059E+01 -0.21764747772E+01 -0.34005114597E+01  0.42396542441E+01  0.00000000000E+00 0.  1.
</event>
<event>
 8    1  0.3776180E-010  0.9118800E+02  0.7816164E-02  0.1184000E+00
        -11   -1    0    0    0    0  0.00000000000E+00  0.00000000000E+00  0.45593999997E+02  0.45594000000E+02  0.51100000000E-03 0. -1.
         11   -1    0    0    0    0 -0.00000000000E+00 -0.00000000000E+00 -0.45593999997E+02  0.45594000000E+02  0.51100000000E-03 0.  1.
         23    2    1    2    0    0  0.35527136788E-14  0.88817841970E-15  0.00000000000E+00  0.91188000000E+02  0.91188000000E+02 0.  0.
    9900012    2    3    3    0    0  0.87455351036E+01  0.31405293713E+01 -0.42394287831E+02  0.47787274780E+02  0.20000017031E+02 0.  0.
         12    1    3    3    0    0 -0.87455351036E+01 -0.31405293713E+01  0.42394287831E+02  0.43400725220E+02  0.00000000000E+00 0. -1.
         11    1    4    4    0    0  0.33699592928E+01 -0.37809504155E+01 -0.75850611354E+01  0.91206010969E+01  0.51100000000E-03 0. -1.
        -11    1    4    4    0    0  0.99146020398E+01  0.56752208302E+01 -0.29132404763E+02  0.31292243011E+02  0.51100000000E-03 0.  1.
         12    1    4    4    0    0 -0.45390262290E+01  0.12462589566E+01 -0.56768219318E+01  0.73744306723E+01  0.00000000000E+00 0. -1.
</event>
<event>
 8    1  0.3973833E-010  0.9118800E+02  0.7816164E-02  0.1184000E+00
        -11   -1    0    0    0    0  0.00000000000E+00  0.00000000000E+00  0.45593999997E+02  0.45594000000E+02  0.51100000000E-03 0. -1.
         11   -1    0    0    0    0 -0.00000000000E+00 -0.00000000000E+00 -0.45593999997E+02  0.45594000000E+02  0.51100000000E-03 0.  1.
         23    2    1    2    0    0  0.44408920985E-15  0.00000000000E+00  0.00000000000E+00  0.91188000000E+02  0.91188000000E+02 0.  0.
    9900012    2    3    3    0    0  0.33503641446E+01  0.93311854759E+01  0.42253131181E+02  0.47787273544E+02  0.20000011398E+02 0.  0.
        -12    1    3    3    0    0 -0.33503641446E+01 -0.93311854759E+01 -0.42253131181E+02  0.43400726456E+02  0.00000000000E+00 0.  1.
         11    1    4    4    0    0  0.25635857002E+01  0.92660485421E+01  0.24852567144E+02  0.26647358615E+02  0.51100000000E-03 0. -1.
        -11    1    4    4    0    0 -0.19870862352E+00  0.59824586301E+01  0.93047598666E+01  0.11063808242E+02  0.51100000000E-03 0.  1.
        -12    1    4    4    0    0  0.98548706791E+00 -0.59173216963E+01  0.80958041701E+01  0.10076106688E+02  0.00000000000E+00 0.  1.
</event>
<event>
 8    1  0.3776180E-010  0.9118800E+02  0.7816164E-02  0.1184000E+00
        -11   -1    0    0    0    0  0.00000000000E+00  0.00000000000E+00  0.45593999997E+02  0.45594000000E+02  0.51100000000E-03 0. -1.
         11   -1    0    0    0    0 -0.00000000000E+00 -0.00000000000E+00 -0.45593999997E+02  0.45594000000E+02  0.51100000000E-03 0.  1.
         23    2    1    2    0    0 -0.71054273576E-14  0.00000000000E+00  0.17763568394E-14  0.91188000000E+02  0.91188000000E+02 0.  0.
    9900012    2    3    3    0    0 -0.42118276952E+02  0.40990678816E+01  0.96369846640E+01  0.47787273228E+02  0.20000009956E+02 0.  0.
        -12    1    3    3    0    0  0.42118276952E+02 -0.40990678816E+01 -0.96369846640E+01  0.43400726772E+02  0.00000000000E+00 0.  1.
         11    1    4    4    0    0 -0.49612857572E+01  0.21253377967E+01  0.32245615004E+01  0.62872262760E+01  0.51100000000E-03 0. -1.
        -11    1    4    4    0    0 -0.30900360038E+02 -0.36145185635E+01  0.28624256269E+00  0.31112359763E+02  0.51100000000E-03 0.  1.
        -12    1    4    4    0    0 -0.62566311568E+01  0.55882486483E+01  0.61261806008E+01  0.10387687189E+02  0.00000000000E+00 0.  1.
</event>
<event>
 8    1  0.3776180E-010  0.9118800E+02  0.7816164E-02  0.1184000E+00
        -11   -1    0    0    0    0  0.00000000000E+00  0.00000000000E+00  0.45593999997E+02  0.45594000000E+02  0.51100000000E-03 0. -1.
         11   -1    0    0    0    0 -0.00000000000E+00 -0.00000000000E+00 -0.45593999997E+02  0.45594000000E+02  0.51100000000E-03 0.  1.
         23    2    1    2    0    0  0.00000000000E+00  0.00000000000E+00  0.00000000000E+00  0.91188000000E+02  0.91188000000E+02 0.  0.
    9900012    2    3    3    0    0  0.33275010340E+02 -0.26379547773E+02  0.89731168824E+01  0.47787266361E+02  0.19999978647E+02 0.  0.
        -12    1    3    3    0    0 -0.33275010340E+02  0.26379547773E+02 -0.89731168824E+01  0.43400733639E+02  0.00000000000E+00 0.  1.
         11    1    4    4    0    0  0.66198268392E+01 -0.97610564784E+01 -0.16667288766E+01  0.11911268462E+02  0.51100000000E-03 0. -1.
        -11    1    4    4    0    0  0.58975044043E+01 -0.69775692907E+01 -0.25171761195E+01  0.94764554176E+01  0.51100000000E-03 0.  1.
         12    1    4    4    0    0  0.20757679096E+02 -0.96409220034E+01  0.13157021878E+02  0.26399542482E+02  0.00000000000E+00 0. -1.
</event>
<event>
 8    1  0.3776180E-010  0.9118800E+02  0.7816164E-02  0.1184000E+00
        -11   -1    0    0    0    0  0.00000000000E+00  0.00000000000E+00  0.45593999997E+02  0.45594000000E+02  0.51100000000E-03 0. -1.
         11   -1    0    0    0    0 -0.00000000000E+00 -0.00000000000E+00 -0.45593999997E+02  0.45594000000E+02  0.51100000000E-03 0.  1.
         23    2    1    2    0    0  0.00000000000E+00 -0.17763568394E-14  0.71054273576E-14  0.91188000000E+02  0.91188000000E+02 0.  0.
    9900012    2    3    3    0    0  0.16947291540E+02 -0.11803868993E+02  0.38171735341E+02  0.47787269676E+02  0.19999993759E+02 0.  0.
        -12    1    3    3    0    0 -0.16947291540E+02  0.11803868993E+02 -0.38171735341E+02  0.43400730324E+02  0.00000000000E+00 0.  1.
         11    1    4    4    0    0  0.18479286251E+02 -0.70240167801E+01  0.24169972321E+02  0.31225124408E+02  0.51100000000E-03 0.  1.
        -11    1    4    4    0    0  0.21158453377E+01 -0.41450834337E+01  0.10413200424E+02  0.11405843305E+02  0.51100000000E-03 0. -1.
        -12    1    4    4    0    0 -0.36478400483E+01 -0.63476877947E+00  0.35885625962E+01  0.51563019625E+01  0.00000000000E+00 0.  1.
</event>
<event>
 8    1  0.3776180E-010  0.9118800E+02  0.7816164E-02  0.1184000E+00
        -11   -1    0    0    0    0  0.00000000000E+00  0.00000000000E+00  0.45593999997E+02  0.45594000000E+02  0.51100000000E-03 0.  1.
         11   -1    0    0    0    0 -0.00000000000E+00 -0.00000000000E+00 -0.45593999997E+02  0.45594000000E+02  0.51100000000E-03 0. -1.
         23    2    1    2    0    0  0.66613381478E-15  0.00000000000E+00  0.00000000000E+00  0.91188000000E+02  0.91188000000E+02 0.  0.
    9900012    2    3    3    0    0  0.51232257244E+00 -0.43096888274E+02  0.51009019250E+01  0.47787268972E+02  0.19999990550E+02 0.  0.
        -12    1    3    3    0    0 -0.51232257244E+00  0.43096888274E+02 -0.51009019250E+01  0.43400731028E+02  0.00000000000E+00 0.  1.
         11    1    4    4    0    0 -0.66411786306E+01 -0.11535365703E+02  0.53044128622E+00  0.13321084180E+02  0.51100000000E-03 0. -1.
        -11    1    4    4    0    0  0.22209816391E+01 -0.67585246346E+01  0.57539960863E+01  0.91498025061E+01  0.51100000000E-03 0.  1.
         12    1    4    4    0    0  0.49325195639E+01 -0.24802997936E+02 -0.11835354476E+01  0.25316382286E+02  0.00000000000E+00 0. -1.
</event>
<event>
 8    1  0.3776180E-010  0.9118800E+02  0.7816164E-02  0.1184000E+00
        -11   -1    0    0    0    0  0.00000000000E+00  0.00000000000E+00  0.45593999997E+02  0.45594000000E+02  0.51100000000E-03 0.  1.
         11   -1    0    0    0    0 -0.00000000000E+00 -0.00000000000E+00 -0.45593999997E+02  0.45594000000E+02  0.51100000000E-03 0. -1.
         23    2    1    2    0    0  0.00000000000E+00  0.00000000000E+00 -0.35527136788E-14  0.91188000000E+02  0.91188000000E+02 0.  0.
    9900012    2    3    3    0    0 -0.27092617830E+02 -0.21887380068E+02  0.25895085224E+02  0.47787276666E+02  0.20000025631E+02 0.  0.
        -12    1    3    3    0    0  0.27092617830E+02  0.21887380068E+02 -0.25895085224E+02  0.43400723334E+02  0.00000000000E+00 0.  1.
         11    1    4    4    0    0 -0.45063927533E+01 -0.82209479785E+01  0.14506342263E+01  0.94866169540E+01  0.51100000000E-03 0. -1.
        -11    1    4    4    0    0 -0.94317053680E+01 -0.91297919498E+01  0.19554085435E+02  0.23551484553E+02  0.51100000000E-03 0.  1.
         12    1    4    4    0    0 -0.13154519709E+02 -0.45366401401E+01  0.48903655625E+01  0.14749175159E+02  0.00000000000E+00 0. -1.
</event>
<event>
 8    1  0.3776180E-010  0.9118800E+02  0.7816164E-02  0.1184000E+00
        -11   -1    0    0    0    0  0.00000000000E+00  0.00000000000E+00  0.45593999997E+02  0.45594000000E+02  0.51100000000E-03 0. -1.
         11   -1    0    0    0    0 -0.00000000000E+00 -0.00000000000E+00 -0.45593999997E+02  0.45594000000E+02  0.51100000000E-03 0.  1.
         23    2    1    2    0    0  0.00000000000E+00  0.00000000000E+00 -0.71054273576E-14  0.91188000000E+02  0.91188000000E+02 0.  0.
    9900012    2    3    3    0    0  0.17093433211E+02 -0.80649196226E+01  0.39069103050E+02  0.47787271888E+02  0.20000003847E+02 0.  0.
        -12    1    3    3    0    0 -0.17093433211E+02  0.80649196226E+01 -0.39069103050E+02  0.43400728112E+02  0.00000000000E+00 0.  1.
         11    1    4    4    0    0  0.71022980311E+01 -0.72641486556E+01  0.20609747361E+02  0.22977645213E+02  0.51100000000E-03 0. -1.
        -11    1    4    4    0    0 -0.89711353335E-01 -0.15164836804E+00  0.13597792986E+02  0.13598934506E+02  0.51100000000E-03 0.  1.
         12    1    4    4    0    0  0.10080846533E+02 -0.64912259903E+00  0.48615627037E+01  0.11210692169E+02  0.00000000000E+00 0. -1.
</event>
<event>
 8    1  0.3776180E-010  0.9118800E+02  0.7816164E-02  0.1184000E+00
        -11   -1    0    0    0    0  0.00000000000E+00  0.00000000000E+00  0.45593999997E+02  0.45594000000E+02  0.51100000000E-03 0. -1.
         11   -1    0    0    0    0 -0.00000000000E+00 -0.00000000000E+00 -0.45593999997E+02  0.45594000000E+02  0.51100000000E-03 0.  1.
         23    2    1    2    0    0 -0.22204460493E-15  0.44408920985E-15  0.71054273576E-14  0.91188000000E+02  0.91188000000E+02 0.  0.
    9900012    2    3    3    0    0 -0.83693386812E+00 -0.39451948772E+01  0.43212941420E+02  0.47787270432E+02  0.19999997206E+02 0.  0.
        -12    1    3    3    0    0  0.83693386812E+00  0.39451948772E+01 -0.43212941420E+02  0.43400729568E+02  0.00000000000E+00 0.  1.
         11    1    4    4    0    0  0.38537982456E+00 -0.67928551901E+01  0.83637146606E+01  0.10781610382E+02  0.51100000000E-03 0. -1.
        -11    1    4    4    0    0  0.22759457931E+01 -0.15911132552E+00  0.48406632428E+00  0.23322877470E+01  0.51100000000E-03 0.  1.
         12    1    4    4    0    0 -0.34982594858E+01  0.30067716384E+01  0.34365160435E+02  0.34673372303E+02  0.00000000000E+00 0. -1.
</event>
<event>
 8    1  0.3776180E-010  0.9118800E+02  0.7816164E-02  0.1184000E+00
        -11   -1    0    0    0    0  0.00000000000E+00  0.00000000000E+00  0.45593999997E+02  0.45594000000E+02  0.51100000000E-03 0. -1.
         11   -1    0    0    0    0 -0.00000000000E+00 -0.00000000000E+00 -0.45593999997E+02  0.45594000000E+02  0.51100000000E-03 0.  1.
         23    2    1    2    0    0  0.00000000000E+00  0.00000000000E+00  0.00000000000E+00  0.91188000000E+02  0.91188000000E+02 0.  0.
    9900012    2    3    3    0    0 -0.14149210057E+02  0.39351289394E+02 -0.11614592077E+02  0.47787275682E+02  0.20000021144E+02 0.  0.
         12    1    3    3    0    0  0.14149210057E+02 -0.39351289394E+02  0.11614592077E+02  0.43400724318E+02  0.00000000000E+00 0. -1.
         11    1    4    4    0    0 -0.36129669973E+01  0.57258048793E+01 -0.81078451008E+01  0.10562931623E+02  0.51100000000E-03 0. -1.
        -11    1    4    4    0    0 -0.57038950603E+01  0.42600885546E+01 -0.21348924917E+01  0.74323979687E+01  0.51100000000E-03 0.  1.
        -12    1    4    4    0    0 -0.48323479995E+01  0.29365395960E+02 -0.13718544844E+01  0.29791946090E+02  0.00000000000E+00 0.  1.
</event>
<event>
 8    1  0.3776180E-010  0.9118800E+02  0.7816164E-02  0.1184000E+00
        -11   -1    0    0    0    0  0.00000000000E+00  0.00000000000E+00  0.45593999997E+02  0.45594000000E+02  0.51100000000E-03 0. -1.
         11   -1    0    0    0    0 -0.00000000000E+00 -0.00000000000E+00 -0.45593999997E+02  0.45594000000E+02  0.51100000000E-03 0.  1.
         23    2    1    2    0    0  0.00000000000E+00  0.35527136788E-14  0.00000000000E+00  0.91188000000E+02  0.91188000000E+02 0.  0.
    9900012    2    3    3    0    0 -0.93426020502E+01 -0.31290642728E+02  0.28587326201E+02  0.47787265505E+02  0.19999974743E+02 0.  0.
        -12    1    3    3    0    0  0.93426020502E+01  0.31290642728E+02 -0.28587326201E+02  0.43400734495E+02  0.00000000000E+00 0.  1.
         11    1    4    4    0    0 -0.65120886620E+01 -0.73209494774E+01  0.75405973490E+01  0.12363826618E+02  0.51100000000E-03 0. -1.
        -11    1    4    4    0    0 -0.72368319975E+00 -0.10230270362E+01 -0.23005651400E+01  0.26197140903E+01  0.51100000000E-03 0.  1.
         12    1    4    4    0    0 -0.21068301884E+01 -0.22946666214E+02  0.23347293992E+02  0.32803724797E+02  0.00000000000E+00 0. -1.
</event>
<event>
 8    1  0.3776180E-010  0.9118800E+02  0.7816164E-02  0.1184000E+00
        -11   -1    0    0    0    0  0.00000000000E+00  0.00000000000E+00  0.45593999997E+02  0.45594000000E+02  0.51100000000E-03 0. -1.
         11   -1    0    0    0    0 -0.00000000000E+00 -0.00000000000E+00 -0.45593999997E+02  0.45594000000E+02  0.51100000000E-03 0.  1.
         23    2    1    2    0    0 -0.35527136788E-14 -0.44408920985E-15  0.00000000000E+00  0.91188000000E+02  0.91188000000E+02 0.  0.
    9900012    2    3    3    0    0 -0.17378268017E+02 -0.27213574898E+01 -0.39676358675E+02  0.47787269319E+02  0.19999992135E+02 0.  0.
         12    1    3    3    0    0  0.17378268017E+02  0.27213574898E+01  0.39676358675E+02  0.43400730681E+02  0.00000000000E+00 0. -1.
         11    1    4    4    0    0  0.76999803975E+00  0.27182862231E+01 -0.13148121965E+01  0.31162009475E+01  0.51100000000E-03 0. -1.
        -11    1    4    4    0    0 -0.34133932069E+01 -0.42654785778E+01 -0.27554902657E+01  0.61186834816E+01  0.51100000000E-03 0.  1.
        -12    1    4    4    0    0 -0.14734872850E+02 -0.11741651351E+01 -0.35606056213E+02  0.38552384890E+02  0.00000000000E+00 0.  1.
</event>
<event>
 8    1  0.3776180E-010  0.9118800E+02  0.7816164E-02  0.1184000E+00
        -11   -1    0    0    0    0  0.00000000000E+00  0.00000000000E+00  0.45593999997E+02  0.45594000000E+02  0.51100000000E-03 0. -1.
         11   -1    0    0    0    0 -0.00000000000E+00 -0.00000000000E+00 -0.45593999997E+02  0.45594000000E+02  0.51100000000E-03 0.  1.
         23    2    1    2    0    0  0.71054273576E-14  0.00000000000E+00  0.35527136788E-14  0.91188000000E+02  0.91188000000E+02 0.  0.
    9900012    2    3    3    0    0 -0.37073428396E+02 -0.30899489529E+01 -0.22352544875E+02  0.47787272588E+02  0.20000007037E+02 0.  0.
         12    1    3    3    0    0  0.37073428396E+02  0.30899489529E+01  0.22352544875E+02  0.43400727412E+02  0.00000000000E+00 0. -1.
         11    1    4    4    0    0 -0.27697295995E+02 -0.49481607053E+01 -0.25146189993E+02  0.37735333194E+02  0.51100000000E-03 0.  1.
        -11    1    4    4    0    0 -0.44029489819E+01  0.15431287924E+01  0.11563703689E+01  0.48067035376E+01  0.51100000000E-03 0. -1.
        -12    1    4    4    0    0 -0.49731834181E+01  0.31508296000E+00  0.16372747495E+01  0.52452358562E+01  0.00000000000E+00 0.  1.
</event>
<event>
 8    1  0.3776180E-010  0.9118800E+02  0.7816164E-02  0.1184000E+00
        -11   -1    0    0    0    0  0.00000000000E+00  0.00000000000E+00  0.45593999997E+02  0.45594000000E+02  0.51100000000E-03 0. -1.
         11   -1    0    0    0    0 -0.00000000000E+00 -0.00000000000E+00 -0.45593999997E+02  0.45594000000E+02  0.51100000000E-03 0.  1.
         23    2    1    2    0    0  0.00000000000E+00  0.00000000000E+00  0.00000000000E+00  0.91188000000E+02  0.91188000000E+02 0.  0.
    9900012    2    3    3    0    0  0.66573590900E+01  0.26476754051E+02 -0.33738453130E+02  0.47787283938E+02  0.20000058785E+02 0.  0.
         12    1    3    3    0    0 -0.66573590900E+01 -0.26476754051E+02  0.33738453130E+02  0.43400716062E+02  0.00000000000E+00 0. -1.
         11    1    4    4    0    0 -0.15670506463E+01  0.16519310894E+02 -0.11926571500E+02  0.20434930588E+02  0.51100000000E-03 0. -1.
        -11    1    4    4    0    0  0.58145650072E+01  0.96250132914E+01 -0.22203220504E+02  0.24888411924E+02  0.51100000000E-03 0.  1.
         12    1    4    4    0    0  0.24098447291E+01  0.33242986580E+00  0.39133887389E+00  0.24639414255E+01  0.00000000000E+00 0. -1.
</event>
<event>
 8    1  0.3776180E-010  0.9118800E+02  0.7816164E-02  0.1184000E+00
        -11   -1    0    0    0    0  0.00000000000E+00  0.00000000000E+00  0.45593999997E+02  0.45594000000E+02  0.51100000000E-03 0.  1.
         11   -1    0    0    0    0 -0.00000000000E+00 -0.00000000000E+00 -0.45593999997E+02  0.45594000000E+02  0.51100000000E-03 0. -1.
         23    2    1    2    0    0  0.71054273576E-14  0.71054273576E-14 -0.35527136788E-14  0.91188000000E+02  0.91188000000E+02 0.  0.
    9900012    2    3    3    0    0  0.22835235153E+02  0.29606726195E+02 -0.22036785149E+02  0.47787238484E+02  0.19999851543E+02 0.  0.
         12    1    3    3    0    0 -0.22835235153E+02 -0.29606726195E+02  0.22036785149E+02  0.43400761516E+02  0.00000000000E+00 0. -1.
         11    1    4    4    0    0  0.13076679889E+02  0.18343487818E+02 -0.13375846338E+02  0.26199167311E+02  0.51100000000E-03 0. -1.
        -11    1    4    4    0    0  0.11023749116E+02  0.12841328418E+02 -0.94887833024E+01  0.19402571194E+02  0.51100000000E-03 0.  1.
         12    1    4    4    0    0 -0.12651938516E+01 -0.15780900414E+01  0.82784449089E+00  0.21854999799E+01  0.00000000000E+00 0. -1.
</event>
<event>
 8    1  0.3776180E-010  0.9118800E+02  0.7816164E-02  0.1184000E+00
        -11   -1    0    0    0    0  0.00000000000E+00  0.00000000000E+00  0.45593999997E+02  0.45594000000E+02  0.51100000000E-03 0. -1.
         11   -1    0    0    0    0 -0.00000000000E+00 -0.00000000000E+00 -0.45593999997E+02  0.45594000000E+02  0.51100000000E-03 0.  1.
         23    2    1    2    0    0  0.88817841970E-15  0.00000000000E+00  0.00000000000E+00  0.91188000000E+02  0.91188000000E+02 0.  0.
    9900012    2    3    3    0    0  0.53507945406E+01 -0.87074864126E+01 -0.42180276180E+02  0.47787227881E+02  0.19999803202E+02 0.  0.
         12    1    3    3    0    0 -0.53507945406E+01  0.87074864126E+01  0.42180276180E+02  0.43400772119E+02  0.00000000000E+00 0. -1.
         11    1    4    4    0    0 -0.32557242278E+01  0.63113660895E+00 -0.12394743723E+01  0.35403913127E+01  0.51100000000E-03 0. -1.
        -11    1    4    4    0    0  0.27935355889E+01 -0.10061454158E+02 -0.20837096635E+02  0.23307108300E+02  0.51100000000E-03 0.  1.
        -12    1    4    4    0    0  0.58129831796E+01  0.72283113658E+00 -0.20103705172E+02  0.20939728269E+02  0.00000000000E+00 0.  1.
</event>
<event>
 8    1  0.3776180E-010  0.9118800E+02  0.7816164E-02  0.1184000E+00
        -11   -1    0    0    0    0  0.00000000000E+00  0.00000000000E+00  0.45593999997E+02  0.45594000000E+02  0.51100000000E-03 0. -1.
         11   -1    0    0    0    0 -0.00000000000E+00 -0.00000000000E+00 -0.45593999997E+02  0.45594000000E+02  0.51100000000E-03 0.  1.
         23    2    1    2    0    0  0.00000000000E+00  0.88817841970E-15 -0.71054273576E-14  0.91188000000E+02  0.91188000000E+02 0.  0.
    9900012    2    3    3    0    0 -0.28181866894E+02 -0.67646247017E+01  0.32305512300E+02  0.47787263901E+02  0.19999967428E+02 0.  0.
        -12    1    3    3    0    0  0.28181866894E+02  0.67646247017E+01 -0.32305512300E+02  0.43400736099E+02  0.00000000000E+00 0.  1.
         11    1    4    4    0    0 -0.19385527421E+02 -0.65810439739E+01  0.13995133474E+02  0.24798640576E+02  0.51100000000E-03 0. -1.
        -11    1    4    4    0    0 -0.34021026400E+01  0.18356767845E+01  0.76335788790E-01  0.38665021718E+01  0.51100000000E-03 0.  1.
         12    1    4    4    0    0 -0.53942368332E+01 -0.20192575123E+01  0.18234043037E+02  0.19122121153E+02  0.00000000000E+00 0. -1.
</event>
<event>
 8    1  0.3776180E-010  0.9118800E+02  0.7816164E-02  0.1184000E+00
        -11   -1    0    0    0    0  0.00000000000E+00  0.00000000000E+00  0.45593999997E+02  0.45594000000E+02  0.51100000000E-03 0. -1.
         11   -1    0    0    0    0 -0.00000000000E+00 -0.00000000000E+00 -0.45593999997E+02  0.45594000000E+02  0.51100000000E-03 0.  1.
         23    2    1    2    0    0  0.00000000000E+00  0.00000000000E+00  0.35527136788E-14  0.91188000000E+02  0.91188000000E+02 0.  0.
    9900012    2    3    3    0    0  0.23942837340E+02  0.18503292230E+02  0.31112581839E+02  0.47787262311E+02  0.19999960181E+02 0.  0.
        -12    1    3    3    0    0 -0.23942837340E+02 -0.18503292230E+02 -0.31112581839E+02  0.43400737689E+02  0.00000000000E+00 0.  1.
         11    1    4    4    0    0  0.63053168137E+01  0.66450262230E+01  0.34939309200E+01  0.98041290873E+01  0.51100000000E-03 0. -1.
        -11    1    4    4    0    0  0.14133039770E+02  0.12533600484E+02  0.12989968719E+02  0.22925384224E+02  0.51100000000E-03 0.  1.
         12    1    4    4    0    0  0.35044807565E+01 -0.67533447723E+00  0.14628682200E+02  0.15057749000E+02  0.00000000000E+00 0. -1.
</event>
<event>
 8    1  0.3776180E-010  0.9118800E+02  0.7816164E-02  0.1184000E+00
        -11   -1    0    0    0    0  0.00000000000E+00  0.00000000000E+00  0.45593999997E+02  0.45594000000E+02  0.51100000000E-03 0. -1.
         11   -1    0    0    0    0 -0.00000000000E+00 -0.00000000000E+00 -0.45593999997E+02  0.45594000000E+02  0.51100000000E-03 0.  1.
         23    2    1    2    0    0  0.00000000000E+00  0.00000000000E+00  0.00000000000E+00  0.91188000000E+02  0.91188000000E+02 0.  0.
    9900012    2    3    3    0    0 -0.26225209705E+02  0.32726979730E+02  0.11171717600E+02  0.47787261522E+02  0.19999956585E+02 0.  0.
        -12    1    3    3    0    0  0.26225209705E+02 -0.32726979730E+02 -0.11171717600E+02  0.43400738478E+02  0.00000000000E+00 0.  1.
         11    1    4    4    0    0 -0.14042353133E+02  0.15231150134E+02  0.10994466550E+02  0.23453228155E+02  0.51100000000E-03 0. -1.
        -11    1    4    4    0    0 -0.60432806657E+01  0.45688309581E+01  0.51759084283E+01  0.91752648925E+01  0.51100000000E-03 0.  1.
        -12    1    4    4    0    0 -0.61395759062E+01  0.12926998638E+02 -0.49986573784E+01  0.15158768475E+02  0.00000000000E+00 0.  1.
</event>
<event>
 8    1  0.3776180E-010  0.9118800E+02  0.7816164E-02  0.1184000E+00
        -11   -1    0    0    0    0  0.00000000000E+00  0.00000000000E+00  0.45593999997E+02  0.45594000000E+02  0.51100000000E-03 0. -1.
         11   -1    0    0    0    0 -0.00000000000E+00 -0.00000000000E+00 -0.45593999997E+02  0.45594000000E+02  0.51100000000E-03 0.  1.
         23    2    1    2    0    0 -0.22204460493E-15  0.13322676296E-14  0.00000000000E+00  0.91188000000E+02  0.91188000000E+02 0.  0.
    9900012    2    3    3    0    0 -0.15928596247E+01  0.25815343096E+01 -0.43294593574E+02  0.47787270122E+02  0.19999995794E+02 0.  0.
         12    1    3    3    0    0  0.15928596247E+01 -0.25815343096E+01  0.43294593574E+02  0.43400729878E+02  0.00000000000E+00 0. -1.
         11    1    4    4    0    0 -0.90889176504E+00 -0.26291622901E+01 -0.12145533798E+01  0.30354108061E+01  0.51100000000E-03 0. -1.
        -11    1    4    4    0    0 -0.47153902504E+01 -0.21184621318E+01 -0.27154692649E+02  0.27642360973E+02  0.51100000000E-03 0.  1.
        -12    1    4    4    0    0  0.40314223907E+01  0.73291587315E+01 -0.14925347545E+02  0.17109498343E+02  0.00000000000E+00 0.  1.
</event>
<event>
 8    1  0.3776180E-010  0.9118800E+02  0.7816164E-02  0.1184000E+00
        -11   -1    0    0    0    0  0.00000000000E+00  0.00000000000E+00  0.45593999997E+02  0.45594000000E+02  0.51100000000E-03 0. -1.
         11   -1    0    0    0    0 -0.00000000000E+00 -0.00000000000E+00 -0.45593999997E+02  0.45594000000E+02  0.51100000000E-03 0.  1.
         23    2    1    2    0    0  0.88817841970E-15 -0.35527136788E-14  0.00000000000E+00  0.91188000000E+02  0.91188000000E+02 0.  0.
    9900012    2    3    3    0    0  0.61127379140E+01 -0.22671955547E+02 -0.36499863492E+02  0.47787272263E+02  0.20000005557E+02 0.  0.
         12    1    3    3    0    0 -0.61127379140E+01  0.22671955547E+02  0.36499863492E+02  0.43400727737E+02  0.00000000000E+00 0. -1.
         11    1    4    4    0    0 -0.37527932316E+01 -0.92471864771E+01 -0.16473138088E+02  0.19260275011E+02  0.51100000000E-03 0. -1.
        -11    1    4    4    0    0  0.44595663402E+01 -0.14076224259E+02 -0.15868631071E+02  0.21675822329E+02  0.51100000000E-03 0.  1.
         12    1    4    4    0    0  0.54059648054E+01  0.65145518860E+00 -0.41580943334E+01  0.68511749229E+01  0.00000000000E+00 0. -1.
</event>
<event>
 8    1  0.3776180E-010  0.9118800E+02  0.7816164E-02  0.1184000E+00
        -11   -1    0    0    0    0  0.00000000000E+00  0.00000000000E+00  0.45593999997E+02  0.45594000000E+02  0.51100000000E-03 0. -1.
         11   -1    0    0    0    0 -0.00000000000E+00 -0.00000000000E+00 -0.45593999997E+02  0.45594000000E+02  0.51100000000E-03 0.  1.
         23    2    1    2    0    0 -0.88817841970E-15  0.00000000000E+00  0.00000000000E+00  0.91188000000E+02  0.91188000000E+02 0.  0.
    9900012    2    3    3    0    0  0.76753481566E+01 -0.32032198102E+02 -0.28260414242E+02  0.47787266161E+02  0.19999977736E+02 0.  0.
         12    1    3    3    0    0 -0.76753481566E+01  0.32032198102E+02  0.28260414242E+02  0.43400733839E+02  0.00000000000E+00 0. -1.
         11    1    4    4    0    0  0.23943818286E+01 -0.30940461876E+01 -0.90186343447E+01  0.98306638563E+01  0.51100000000E-03 0. -1.
        -11    1    4    4    0    0  0.27164979854E+00 -0.18883116611E+01  0.23201173346E+01  0.30037408760E+01  0.51100000000E-03 0.  1.
        -12    1    4    4    0    0  0.50093165295E+01 -0.27049840254E+02 -0.21561897232E+02  0.34952861429E+02  0.00000000000E+00 0.  1.
</event>
<event>
 8    1  0.3776180E-010  0.9118800E+02  0.7816164E-02  0.1184000E+00
        -11   -1    0    0    0    0  0.00000000000E+00  0.00000000000E+00  0.45593999997E+02  0.45594000000E+02  0.51100000000E-03 0. -1.
         11   -1    0    0    0    0 -0.00000000000E+00 -0.00000000000E+00 -0.45593999997E+02  0.45594000000E+02  0.51100000000E-03 0.  1.
         23    2    1    2    0    0  0.00000000000E+00  0.88817841970E-15  0.00000000000E+00  0.91188000000E+02  0.91188000000E+02 0.  0.
    9900012    2    3    3    0    0 -0.23114722011E+02 -0.56300885849E+01  0.36299242242E+02  0.47787271222E+02  0.20000000810E+02 0.  0.
        -12    1    3    3    0    0  0.23114722011E+02  0.56300885849E+01 -0.36299242242E+02  0.43400728778E+02  0.00000000000E+00 0.  1.
         11    1    4    4    0    0 -0.72962932412E+01 -0.26381287830E+00  0.95614670987E+01  0.12030259583E+02  0.51100000000E-03 0. -1.
        -11    1    4    4    0    0  0.36265375921E+01 -0.80964457164E+00  0.51133277631E+01  0.63208718001E+01  0.51100000000E-03 0.  1.
        -12    1    4    4    0    0 -0.19444966362E+02 -0.45566311349E+01  0.21624447380E+02  0.29436139839E+02  0.00000000000E+00 0.  1.
</event>
<event>
 8    1  0.3776180E-010  0.9118800E+02  0.7816164E-02  0.1184000E+00
        -11   -1    0    0    0    0  0.00000000000E+00  0.00000000000E+00  0.45593999997E+02  0.45594000000E+02  0.51100000000E-03 0. -1.
         11   -1    0    0    0    0 -0.00000000000E+00 -0.00000000000E+00 -0.45593999997E+02  0.45594000000E+02  0.51100000000E-03 0.  1.
         23    2    1    2    0    0 -0.71054273576E-14  0.66613381478E-15  0.26645352591E-14  0.91188000000E+02  0.91188000000E+02 0.  0.
    9900012    2    3    3    0    0  0.43166543406E+02  0.11870273371E+01 -0.43432283283E+01  0.47787272634E+02  0.20000007249E+02 0.  0.
         12    1    3    3    0    0 -0.43166543406E+02 -0.11870273371E+01  0.43432283283E+01  0.43400727366E+02  0.00000000000E+00 0. -1.
         11    1    4    4    0    0  0.17902266933E+02 -0.36635263941E+01 -0.24398550177E+01  0.18435440861E+02  0.51100000000E-03 0. -1.
        -11    1    4    4    0    0  0.47978386012E+01 -0.36834629052E+00 -0.61489668999E+01  0.78079913186E+01  0.51100000000E-03 0.  1.
        -12    1    4    4    0    0  0.20466437872E+02  0.52189000217E+01  0.42455935893E+01  0.21543840455E+02  0.00000000000E+00 0.  1.
</event>
<event>
 8    1  0.3776180E-010  0.9118800E+02  0.7816164E-02  0.1184000E+00
        -11   -1    0    0    0    0  0.00000000000E+00  0.00000000000E+00  0.45593999997E+02  0.45594000000E+02  0.51100000000E-03 0. -1.
         11   -1    0    0    0    0 -0.00000000000E+00 -0.00000000000E+00 -0.45593999997E+02  0.45594000000E+02  0.51100000000E-03 0.  1.
         23    2    1    2    0    0  0.00000000000E+00 -0.35527136788E-14  0.00000000000E+00  0.91188000000E+02  0.91188000000E+02 0.  0.
    9900012    2    3    3    0    0  0.10710521235E+02 -0.21423196344E+02 -0.36193297315E+02  0.47787269854E+02  0.19999994572E+02 0.  0.
         12    1    3    3    0    0 -0.10710521235E+02  0.21423196344E+02  0.36193297315E+02  0.43400730146E+02  0.00000000000E+00 0. -1.
         11    1    4    4    0    0  0.68790129869E+01 -0.90773354422E+01 -0.10389384944E+02  0.15416165483E+02  0.51100000000E-03 0. -1.
        -11    1    4    4    0    0 -0.32676408227E+01  0.15012836085E+01 -0.77024355164E+01  0.85005201114E+01  0.51100000000E-03 0.  1.
        -12    1    4    4    0    0  0.70991490705E+01 -0.13847144510E+02 -0.18101476854E+02  0.23870584260E+02  0.00000000000E+00 0.  1.
</event>
<event>
 8    1  0.3776180E-010  0.9118800E+02  0.7816164E-02  0.1184000E+00
        -11   -1    0    0    0    0  0.00000000000E+00  0.00000000000E+00  0.45593999997E+02  0.45594000000E+02  0.51100000000E-03 0. -1.
         11   -1    0    0    0    0 -0.00000000000E+00 -0.00000000000E+00 -0.45593999997E+02  0.45594000000E+02  0.51100000000E-03 0.  1.
         23    2    1    2    0    0  0.00000000000E+00  0.00000000000E+00  0.00000000000E+00  0.91188000000E+02  0.91188000000E+02 0.  0.
    9900012    2    3    3    0    0  0.29670398600E+02  0.24368870603E+02 -0.20234840615E+02  0.47787272100E+02  0.20000004812E+02 0.  0.
         12    1    3    3    0    0 -0.29670398600E+02 -0.24368870603E+02  0.20234840615E+02  0.43400727900E+02  0.00000000000E+00 0. -1.
         11    1    4    4    0    0  0.50652793863E+01  0.87689441009E+01 -0.85093860822E+01  0.13227285725E+02  0.51100000000E-03 0. -1.
        -11    1    4    4    0    0  0.17666458555E+02  0.16450045054E+02 -0.13056087005E+02  0.27443927349E+02  0.51100000000E-03 0.  1.
         12    1    4    4    0    0  0.69386606583E+01 -0.85011855204E+00  0.13306324718E+01  0.71160590258E+01  0.00000000000E+00 0. -1.
</event>
<event>
 8    1  0.3776180E-010  0.9118800E+02  0.7816164E-02  0.1184000E+00
        -11   -1    0    0    0    0  0.00000000000E+00  0.00000000000E+00  0.45593999997E+02  0.45594000000E+02  0.51100000000E-03 0. -1.
         11   -1    0    0    0    0 -0.00000000000E+00 -0.00000000000E+00 -0.45593999997E+02  0.45594000000E+02  0.51100000000E-03 0.  1.
         23    2    1    2    0    0  0.00000000000E+00  0.88817841970E-15  0.00000000000E+00  0.91188000000E+02  0.91188000000E+02 0.  0.
    9900012    2    3    3    0    0  0.24408945054E+02 -0.62694280728E+01 -0.35334385387E+02  0.47787295884E+02  0.20000113255E+02 0.  0.
         12    1    3    3    0    0 -0.24408945054E+02  0.62694280728E+01  0.35334385387E+02  0.43400704116E+02  0.00000000000E+00 0. -1.
         11    1    4    4    0    0  0.35337159066E+01  0.39135693442E+01 -0.33652759367E+01  0.62552582290E+01  0.51100000000E-03 0.  1.
        -11    1    4    4    0    0  0.80279030538E+01  0.25369044658E+01 -0.95395406465E+01  0.12723440876E+02  0.51100000000E-03 0. -1.
         12    1    4    4    0    0  0.12847326094E+02 -0.12719901883E+02 -0.22429568804E+02  0.28808596780E+02  0.00000000000E+00 0. -1.
</event>
<event>
 8    1  0.3776180E-010  0.9118800E+02  0.7816164E-02  0.1184000E+00
        -11   -1    0    0    0    0  0.00000000000E+00  0.00000000000E+00  0.45593999997E+02  0.45594000000E+02  0.51100000000E-03 0. -1.
         11   -1    0    0    0    0 -0.00000000000E+00 -0.00000000000E+00 -0.45593999997E+02  0.45594000000E+02  0.51100000000E-03 0.  1.
         23    2    1    2    0    0  0.00000000000E+00  0.00000000000E+00  0.00000000000E+00  0.91188000000E+02  0.91188000000E+02 0.  0.
    9900012    2    3    3    0    0  0.10573166968E+02 -0.20171248706E+02 -0.36945260759E+02  0.47787269284E+02  0.19999991973E+02 0.  0.
         12    1    3    3    0    0 -0.10573166968E+02  0.20171248706E+02  0.36945260759E+02  0.43400730716E+02  0.00000000000E+00 0. -1.
         11    1    4    4    0    0  0.32387417886E+01  0.13940440586E+01 -0.34327175519E+00  0.35426886639E+01  0.51100000000E-03 0. -1.
        -11    1    4    4    0    0  0.34435376230E+01 -0.19939412832E+01 -0.23991702456E+01  0.46464794555E+01  0.51100000000E-03 0.  1.
        -12    1    4    4    0    0  0.38908875569E+01 -0.19571351482E+02 -0.34202818759E+02  0.39598101164E+02  0.00000000000E+00 0.  1.
</event>
<event>
 8    1  0.3776180E-010  0.9118800E+02  0.7816164E-02  0.1184000E+00
        -11   -1    0    0    0    0  0.00000000000E+00  0.00000000000E+00  0.45593999997E+02  0.45594000000E+02  0.51100000000E-03 0. -1.
         11   -1    0    0    0    0 -0.00000000000E+00 -0.00000000000E+00 -0.45593999997E+02  0.45594000000E+02  0.51100000000E-03 0.  1.
         23    2    1    2    0    0  0.17763568394E-14  0.00000000000E+00  0.00000000000E+00  0.91188000000E+02  0.91188000000E+02 0.  0.
    9900012    2    3    3    0    0 -0.14209351390E+02 -0.38351382359E+02  0.14521950980E+02  0.47787294291E+02  0.20000105990E+02 0.  0.
        -12    1    3    3    0    0  0.14209351390E+02  0.38351382359E+02 -0.14521950980E+02  0.43400705709E+02  0.00000000000E+00 0.  1.
         11    1    4    4    0    0 -0.15303615804E+01 -0.36835240160E+01  0.95758796126E+00  0.41021129565E+01  0.51100000000E-03 0. -1.
        -11    1    4    4    0    0 -0.99726364688E+01 -0.36064143792E+02  0.94968257104E+01  0.38603958921E+02  0.51100000000E-03 0.  1.
        -12    1    4    4    0    0 -0.27063533407E+01  0.13962854485E+01  0.40675373080E+01  0.50812224130E+01  0.00000000000E+00 0.  1.
</event>
<event>
 8    1  0.3776180E-010  0.9118800E+02  0.7816164E-02  0.1184000E+00
        -11   -1    0    0    0    0  0.00000000000E+00  0.00000000000E+00  0.45593999997E+02  0.45594000000E+02  0.51100000000E-03 0. -1.
         11   -1    0    0    0    0 -0.00000000000E+00 -0.00000000000E+00 -0.45593999997E+02  0.45594000000E+02  0.51100000000E-03 0.  1.
         23    2    1    2    0    0  0.00000000000E+00  0.35527136788E-14  0.00000000000E+00  0.91188000000E+02  0.91188000000E+02 0.  0.
    9900012    2    3    3    0    0 -0.17628538907E+02 -0.29208998111E+02  0.26827084164E+02  0.47787269599E+02  0.19999993409E+02 0.  0.
        -12    1    3    3    0    0  0.17628538907E+02  0.29208998111E+02 -0.26827084164E+02  0.43400730401E+02  0.00000000000E+00 0.  1.
         11    1    4    4    0    0 -0.50587464729E+01 -0.13159177937E+02  0.12699965161E+02  0.18974825302E+02  0.51100000000E-03 0. -1.
        -11    1    4    4    0    0 -0.10971498287E+02 -0.15137054994E+02  0.47944694855E+01  0.19300029701E+02  0.51100000000E-03 0.  1.
         12    1    4    4    0    0 -0.15982941468E+01 -0.91276517959E+00  0.93326495167E+01  0.95124145964E+01  0.00000000000E+00 0. -1.
</event>
<event>
 8    1  0.6507870E-010  0.9118800E+02  0.7816164E-02  0.1184000E+00
        -11   -1    0    0    0    0  0.00000000000E+00  0.00000000000E+00  0.45593999997E+02  0.45594000000E+02  0.51100000000E-03 0. -1.
         11   -1    0    0    0    0 -0.00000000000E+00 -0.00000000000E+00 -0.45593999997E+02  0.45594000000E+02  0.51100000000E-03 0.  1.
         23    2    1    2    0    0 -0.44408920985E-15  0.88817841970E-15  0.71054273576E-14  0.91188000000E+02  0.91188000000E+02 0.  0.
    9900012    2    3    3    0    0 -0.25039840413E+01  0.75119670361E+01  0.42672285343E+02  0.47787268195E+02  0.19999987007E+02 0.  0.
        -12    1    3    3    0    0  0.25039840413E+01 -0.75119670361E+01 -0.42672285343E+02  0.43400731805E+02  0.00000000000E+00 0.  1.
         11    1    4    4    0    0 -0.30799617269E+01  0.11150930985E+02  0.29514004097E+02  0.31700250223E+02  0.51100000000E-03 0. -1.
        -11    1    4    4    0    0  0.27797313361E+01 -0.29308473087E+01  0.13166579921E+02  0.13772276476E+02  0.51100000000E-03 0.  1.
        -12    1    4    4    0    0 -0.22037536506E+01 -0.70811664040E+00 -0.82986746887E-02  0.23147414967E+01  0.00000000000E+00 0.  1.
</event>
<event>
 8    1  0.3776180E-010  0.9118800E+02  0.7816164E-02  0.1184000E+00
        -11   -1    0    0    0    0  0.00000000000E+00  0.00000000000E+00  0.45593999997E+02  0.45594000000E+02  0.51100000000E-03 0. -1.
         11   -1    0    0    0    0 -0.00000000000E+00 -0.00000000000E+00 -0.45593999997E+02  0.45594000000E+02  0.51100000000E-03 0.  1.
         23    2    1    2    0    0  0.00000000000E+00  0.00000000000E+00  0.00000000000E+00  0.91188000000E+02  0.91188000000E+02 0.  0.
    9900012    2    3    3    0    0 -0.25560811059E+00  0.50527276969E+01 -0.43104843328E+02  0.47787275225E+02  0.20000019060E+02 0.  0.
         12    1    3    3    0    0  0.25560811059E+00 -0.50527276969E+01  0.43104843328E+02  0.43400724775E+02  0.00000000000E+00 0. -1.
         11    1    4    4    0    0  0.83807452217E+00 -0.11720445627E+00  0.11481102748E+01  0.14262760089E+01  0.51100000000E-03 0. -1.
        -11    1    4    4    0    0  0.96012050312E+00  0.39962689610E+01 -0.31199844045E+01  0.51600678227E+01  0.51100000000E-03 0.  1.
        -12    1    4    4    0    0 -0.20538031359E+01  0.11736631922E+01 -0.41132969198E+02  0.41200931393E+02  0.00000000000E+00 0.  1.
</event>
<event>
 8    1  0.3776180E-010  0.9118800E+02  0.7816164E-02  0.1184000E+00
        -11   -1    0    0    0    0  0.00000000000E+00  0.00000000000E+00  0.45593999997E+02  0.45594000000E+02  0.51100000000E-03 0.  1.
         11   -1    0    0    0    0 -0.00000000000E+00 -0.00000000000E+00 -0.45593999997E+02  0.45594000000E+02  0.51100000000E-03 0. -1.
         23    2    1    2    0    0  0.00000000000E+00  0.00000000000E+00 -0.88817841970E-15  0.91188000000E+02  0.91188000000E+02 0.  0.
    9900012    2    3    3    0    0  0.13430032253E+01 -0.43124420013E+02 -0.47013340218E+01  0.47787288016E+02  0.20000077382E+02 0.  0.
         12    1    3    3    0    0 -0.13430032253E+01  0.43124420013E+02  0.47013340218E+01  0.43400711984E+02  0.00000000000E+00 0. -1.
         11    1    4    4    0    0  0.97448045451E+00  0.87194843656E+00 -0.13652554969E+01  0.18904573693E+01  0.51100000000E-03 0. -1.
        -11    1    4    4    0    0  0.36063693295E+00  0.69924880343E+00 -0.81102718456E+00  0.11299439109E+01  0.51100000000E-03 0.  1.
        -12    1    4    4    0    0  0.78858377971E-02 -0.44695617253E+02 -0.25250513404E+01  0.44766886736E+02  0.00000000000E+00 0.  1.
</event>
<event>
 8    1  0.3776180E-010  0.9118800E+02  0.7816164E-02  0.1184000E+00
        -11   -1    0    0    0    0  0.00000000000E+00  0.00000000000E+00  0.45593999997E+02  0.45594000000E+02  0.51100000000E-03 0. -1.
         11   -1    0    0    0    0 -0.00000000000E+00 -0.00000000000E+00 -0.45593999997E+02  0.45594000000E+02  0.51100000000E-03 0.  1.
         23    2    1    2    0    0  0.00000000000E+00  0.00000000000E+00  0.00000000000E+00  0.91188000000E+02  0.91188000000E+02 0.  0.
    9900012    2    3    3    0    0  0.17001317830E+02 -0.10614674709E+02  0.38495549042E+02  0.47787269324E+02  0.19999992158E+02 0.  0.
        -12    1    3    3    0    0 -0.17001317830E+02  0.10614674709E+02 -0.38495549042E+02  0.43400730676E+02  0.00000000000E+00 0.  1.
         11    1    4    4    0    0  0.13412352282E+02 -0.10165054611E+02  0.14841914751E+02  0.22438849407E+02  0.51100000000E-03 0. -1.
        -11    1    4    4    0    0 -0.10153196233E+01 -0.11738553948E+01  0.36024378751E+00  0.15932941577E+01  0.51100000000E-03 0.  1.
         12    1    4    4    0    0  0.46042851706E+01  0.72423529630E+00  0.23293390504E+02  0.23755125760E+02  0.00000000000E+00 0. -1.
</event>
<event>
 8    1  0.3776180E-010  0.9118800E+02  0.7816164E-02  0.1184000E+00
        -11   -1    0    0    0    0  0.00000000000E+00  0.00000000000E+00  0.45593999997E+02  0.45594000000E+02  0.51100000000E-03 0. -1.
         11   -1    0    0    0    0 -0.00000000000E+00 -0.00000000000E+00 -0.45593999997E+02  0.45594000000E+02  0.51100000000E-03 0.  1.
         23    2    1    2    0    0 -0.71054273576E-14 -0.44408920985E-15 -0.35527136788E-14  0.91188000000E+02  0.91188000000E+02 0.  0.
    9900012    2    3    3    0    0 -0.30574868271E+02 -0.10829593960E+01 -0.30783566973E+02  0.47787269978E+02  0.19999995136E+02 0.  0.
         12    1    3    3    0    0  0.30574868271E+02  0.10829593960E+01  0.30783566973E+02  0.43400730022E+02  0.00000000000E+00 0. -1.
         11    1    4    4    0    0 -0.15457586318E+02  0.49288899603E+01 -0.11266562004E+02  0.19752628955E+02  0.51100000000E-03 0. -1.
        -11    1    4    4    0    0 -0.15686787292E+02 -0.18457193531E+01 -0.16620765034E+02  0.22928842231E+02  0.51100000000E-03 0.  1.
         12    1    4    4    0    0  0.56950533798E+00 -0.41661300032E+01 -0.28962399358E+01  0.51057987915E+01  0.00000000000E+00 0. -1.
</event>
<event>
 8    1  0.3776180E-010  0.9118800E+02  0.7816164E-02  0.1184000E+00
        -11   -1    0    0    0    0  0.00000000000E+00  0.00000000000E+00  0.45593999997E+02  0.45594000000E+02  0.51100000000E-03 0. -1.
         11   -1    0    0    0    0 -0.00000000000E+00 -0.00000000000E+00 -0.45593999997E+02  0.45594000000E+02  0.51100000000E-03 0.  1.
         23    2    1    2    0    0  0.00000000000E+00 -0.71054273576E-14  0.35527136788E-14  0.91188000000E+02  0.91188000000E+02 0.  0.
    9900012    2    3    3    0    0  0.21232522605E+02  0.32933305053E+02 -0.18660143559E+02  0.47787267800E+02  0.19999985208E+02 0.  0.
         12    1    3    3    0    0 -0.21232522605E+02 -0.32933305053E+02  0.18660143559E+02  0.43400732200E+02  0.00000000000E+00 0. -1.
         11    1    4    4    0    0 -0.10076958294E+01  0.91937608473E+01 -0.69347960676E+01  0.11559934522E+02  0.51100000000E-03 0. -1.
        -11    1    4    4    0    0  0.56967541957E+01  0.12887961651E+02 -0.76262538107E+01  0.16022244267E+02  0.51100000000E-03 0.  1.
        -12    1    4    4    0    0  0.16543464239E+02  0.10851582554E+02 -0.40990936804E+01  0.20205089011E+02  0.00000000000E+00 0.  1.
</event>
<event>
 8    1  0.3776180E-010  0.9118800E+02  0.7816164E-02  0.1184000E+00
        -11   -1    0    0    0    0  0.00000000000E+00  0.00000000000E+00  0.45593999997E+02  0.45594000000E+02  0.51100000000E-03 0. -1.
         11   -1    0    0    0    0 -0.00000000000E+00 -0.00000000000E+00 -0.45593999997E+02  0.45594000000E+02  0.51100000000E-03 0.  1.
         23    2    1    2    0    0 -0.35527136788E-14  0.35527136788E-14  0.00000000000E+00  0.91188000000E+02  0.91188000000E+02 0.  0.
    9900012    2    3    3    0    0 -0.17523135463E+02  0.15607266082E+02 -0.36509914569E+02  0.47787298476E+02  0.20000125070E+02 0.  0.
         12    1    3    3    0    0  0.17523135463E+02 -0.15607266082E+02  0.36509914569E+02  0.43400701524E+02  0.00000000000E+00 0. -1.
         11    1    4    4    0    0 -0.93670309943E+01  0.82311271326E+01 -0.22307390065E+02  0.25556063376E+02  0.51100000000E-03 0. -1.
        -11    1    4    4    0    0 -0.77082283017E+01  0.10931431494E+02 -0.99533211267E+01  0.16672779605E+02  0.51100000000E-03 0.  1.
         12    1    4    4    0    0 -0.44787616691E+00 -0.35552925450E+01 -0.42492033772E+01  0.55584554943E+01  0.00000000000E+00 0. -1.
</event>
<event>
 8    1  0.3776180E-010  0.9118800E+02  0.7816164E-02  0.1184000E+00
        -11   -1    0    0    0    0  0.00000000000E+00  0.00000000000E+00  0.45593999997E+02  0.45594000000E+02  0.51100000000E-03 0. -1.
         11   -1    0    0    0    0 -0.00000000000E+00 -0.00000000000E+00 -0.45593999997E+02  0.45594000000E+02  0.51100000000E-03 0.  1.
         23    2    1    2    0    0 -0.71054273576E-14  0.33306690739E-15  0.35527136788E-14  0.91188000000E+02  0.91188000000E+02 0.  0.
    9900012    2    3    3    0    0  0.38621653068E+02  0.89715408897E+00 -0.19778426147E+02  0.47787272909E+02  0.20000008502E+02 0.  0.
         12    1    3    3    0    0 -0.38621653068E+02 -0.89715408897E+00  0.19778426147E+02  0.43400727091E+02  0.00000000000E+00 0. -1.
         11    1    4    4    0    0  0.44560697614E+00 -0.13130853679E+01  0.21571974237E+00  0.14033153704E+01  0.51100000000E-03 0. -1.
        -11    1    4    4    0    0  0.15956044733E+02  0.33390495794E+01 -0.17627377665E+02  0.24009770079E+02  0.51100000000E-03 0.  1.
         12    1    4    4    0    0  0.22220001359E+02 -0.11288101225E+01 -0.23667682241E+01  0.22374187460E+02  0.00000000000E+00 0. -1.
</event>
<event>
 8    1  0.3776180E-010  0.9118800E+02  0.7816164E-02  0.1184000E+00
        -11   -1    0    0    0    0  0.00000000000E+00  0.00000000000E+00  0.45593999997E+02  0.45594000000E+02  0.51100000000E-03 0. -1.
         11   -1    0    0    0    0 -0.00000000000E+00 -0.00000000000E+00 -0.45593999997E+02  0.45594000000E+02  0.51100000000E-03 0.  1.
         23    2    1    2    0    0  0.00000000000E+00  0.00000000000E+00  0.00000000000E+00  0.91188000000E+02  0.91188000000E+02 0.  0.
    9900012    2    3    3    0    0 -0.24408585350E+02  0.70476163670E+01 -0.35187713837E+02  0.47787272583E+02  0.20000007016E+02 0.  0.
         12    1    3    3    0    0  0.24408585350E+02 -0.70476163670E+01  0.35187713837E+02  0.43400727417E+02  0.00000000000E+00 0. -1.
         11    1    4    4    0    0  0.95547739619E+00 -0.73457241929E+00 -0.20911318624E+01  0.24135795866E+01  0.51100000000E-03 0. -1.
        -11    1    4    4    0    0 -0.13599191324E+02  0.10023667371E+02 -0.27211641955E+02  0.32029445365E+02  0.51100000000E-03 0.  1.
        -12    1    4    4    0    0 -0.11764871422E+02 -0.22414785851E+01 -0.58849400197E+01  0.13344247632E+02  0.00000000000E+00 0.  1.
</event>
<event>
 8    1  0.3776180E-010  0.9118800E+02  0.7816164E-02  0.1184000E+00
        -11   -1    0    0    0    0  0.00000000000E+00  0.00000000000E+00  0.45593999997E+02  0.45594000000E+02  0.51100000000E-03 0. -1.
         11   -1    0    0    0    0 -0.00000000000E+00 -0.00000000000E+00 -0.45593999997E+02  0.45594000000E+02  0.51100000000E-03 0.  1.
         23    2    1    2    0    0  0.00000000000E+00  0.00000000000E+00  0.00000000000E+00  0.91188000000E+02  0.91188000000E+02 0.  0.
    9900012    2    3    3    0    0  0.24976036902E+02  0.10241680223E+02 -0.33984240982E+02  0.47787273413E+02  0.20000010801E+02 0.  0.
         12    1    3    3    0    0 -0.24976036902E+02 -0.10241680223E+02  0.33984240982E+02  0.43400726587E+02  0.00000000000E+00 0. -1.
         11    1    4    4    0    0  0.21351673696E+02  0.46100977995E+01 -0.16146696712E+02  0.27163629844E+02  0.51100000000E-03 0. -1.
        -11    1    4    4    0    0  0.56860559244E+01  0.33543997521E+01 -0.83101810466E+01  0.10613309520E+02  0.51100000000E-03 0.  1.
         12    1    4    4    0    0 -0.20616927188E+01  0.22771826711E+01 -0.95273632236E+01  0.10010334049E+02  0.00000000000E+00 0. -1.
</event>
<event>
 8    1  0.3776180E-010  0.9118800E+02  0.7816164E-02  0.1184000E+00
        -11   -1    0    0    0    0  0.00000000000E+00  0.00000000000E+00  0.45593999997E+02  0.45594000000E+02  0.51100000000E-03 0. -1.
         11   -1    0    0    0    0 -0.00000000000E+00 -0.00000000000E+00 -0.45593999997E+02  0.45594000000E+02  0.51100000000E-03 0.  1.
         23    2    1    2    0    0 -0.88817841970E-15 -0.44408920985E-15  0.00000000000E+00  0.91188000000E+02  0.91188000000E+02 0.  0.
    9900012    2    3    3    0    0 -0.30466956015E+01 -0.39011818391E+01  0.43117536697E+02  0.47787267925E+02  0.19999985777E+02 0.  0.
        -12    1    3    3    0    0  0.30466956015E+01  0.39011818391E+01 -0.43117536697E+02  0.43400732075E+02  0.00000000000E+00 0.  1.
         11    1    4    4    0    0 -0.47070174259E+01  0.14050109299E+01  0.11854940524E+02  0.12832368598E+02  0.51100000000E-03 0. -1.
        -11    1    4    4    0    0 -0.29114760908E+01 -0.54459173845E+01  0.41059600154E+01  0.74157681392E+01  0.51100000000E-03 0.  1.
        -12    1    4    4    0    0  0.45717979152E+01  0.13972461542E+00  0.27156636158E+02  0.27539131187E+02  0.00000000000E+00 0.  1.
</event>
<event>
 8    1  0.3776180E-010  0.9118800E+02  0.7816164E-02  0.1184000E+00
        -11   -1    0    0    0    0  0.00000000000E+00  0.00000000000E+00  0.45593999997E+02  0.45594000000E+02  0.51100000000E-03 0. -1.
         11   -1    0    0    0    0 -0.00000000000E+00 -0.00000000000E+00 -0.45593999997E+02  0.45594000000E+02  0.51100000000E-03 0.  1.
         23    2    1    2    0    0  0.00000000000E+00  0.00000000000E+00  0.00000000000E+00  0.91188000000E+02  0.91188000000E+02 0.  0.
    9900012    2    3    3    0    0 -0.18416406804E+02 -0.21572303773E+02  0.32849578316E+02  0.47787272757E+02  0.20000007810E+02 0.  0.
        -12    1    3    3    0    0  0.18416406804E+02  0.21572303773E+02 -0.32849578316E+02  0.43400727243E+02  0.00000000000E+00 0.  1.
         11    1    4    4    0    0 -0.19397539476E+02 -0.92316108422E+01  0.20372352790E+02  0.29606079357E+02  0.51100000000E-03 0.  1.
        -11    1    4    4    0    0 -0.17687981115E+01 -0.62180202553E+01  0.68916013542E+01  0.94491582768E+01  0.51100000000E-03 0. -1.
        -12    1    4    4    0    0  0.27499307827E+01 -0.61226726759E+01  0.55856241715E+01  0.87320351232E+01  0.00000000000E+00 0.  1.
</event>
<event>
 8    1  0.3776180E-010  0.9118800E+02  0.7816164E-02  0.1184000E+00
        -11   -1    0    0    0    0  0.00000000000E+00  0.00000000000E+00  0.45593999997E+02  0.45594000000E+02  0.51100000000E-03 0. -1.
         11   -1    0    0    0    0 -0.00000000000E+00 -0.00000000000E+00 -0.45593999997E+02  0.45594000000E+02  0.51100000000E-03 0.  1.
         23    2    1    2    0    0  0.88817841970E-15  0.17763568394E-14  0.00000000000E+00  0.91188000000E+02  0.91188000000E+02 0.  0.
    9900012    2    3    3    0    0  0.55660849485E+01  0.73402223533E+01 -0.42411824604E+02  0.47787273830E+02  0.20000012701E+02 0.  0.
         12    1    3    3    0    0 -0.55660849485E+01 -0.73402223533E+01  0.42411824604E+02  0.43400726170E+02  0.00000000000E+00 0. -1.
         11    1    4    4    0    0 -0.29577294769E+01  0.36755356519E+01 -0.76550338048E+01  0.89920669927E+01  0.51100000000E-03 0. -1.
        -11    1    4    4    0    0 -0.12444511732E+01  0.67916552910E+01 -0.12259064240E+02  0.14069822195E+02  0.51100000000E-03 0.  1.
        -12    1    4    4    0    0  0.97682655987E+01 -0.31269685896E+01 -0.22497726559E+02  0.24725384642E+02  0.00000000000E+00 0.  1.
</event>
<event>
 8    1  0.3776180E-010  0.9118800E+02  0.7816164E-02  0.1184000E+00
        -11   -1    0    0    0    0  0.00000000000E+00  0.00000000000E+00  0.45593999997E+02  0.45594000000E+02  0.51100000000E-03 0. -1.
         11   -1    0    0    0    0 -0.00000000000E+00 -0.00000000000E+00 -0.45593999997E+02  0.45594000000E+02  0.51100000000E-03 0.  1.
         23    2    1    2    0    0  0.71054273576E-14  0.00000000000E+00 -0.44408920985E-15  0.91188000000E+02  0.91188000000E+02 0.  0.
    9900012    2    3    3    0    0 -0.36707556154E+02 -0.22874598106E+02  0.35960219021E+01  0.47787270849E+02  0.19999999109E+02 0.  0.
        -12    1    3    3    0    0  0.36707556154E+02  0.22874598106E+02 -0.35960219021E+01  0.43400729151E+02  0.00000000000E+00 0.  1.
         11    1    4    4    0    0 -0.59407601434E+01  0.81937200124E+00  0.33569530365E+01  0.68726367217E+01  0.51100000000E-03 0. -1.
        -11    1    4    4    0    0 -0.23321200492E+01 -0.63429393978E+01 -0.31039427186E+01  0.74368087773E+01  0.51100000000E-03 0.  1.
         12    1    4    4    0    0 -0.28434675962E+02 -0.17351030709E+02  0.33430115842E+01  0.33477825350E+02  0.00000000000E+00 0. -1.
</event>
<event>
 8    1  0.3776180E-010  0.9118800E+02  0.7816164E-02  0.1184000E+00
        -11   -1    0    0    0    0  0.00000000000E+00  0.00000000000E+00  0.45593999997E+02  0.45594000000E+02  0.51100000000E-03 0.  1.
         11   -1    0    0    0    0 -0.00000000000E+00 -0.00000000000E+00 -0.45593999997E+02  0.45594000000E+02  0.51100000000E-03 0. -1.
         23    2    1    2    0    0  0.35527136788E-14  0.00000000000E+00  0.00000000000E+00  0.91188000000E+02  0.91188000000E+02 0.  0.
    9900012    2    3    3    0    0  0.26858635991E+02 -0.25855729056E+02 -0.22219764667E+02  0.47787274267E+02  0.20000014691E+02 0.  0.
         12    1    3    3    0    0 -0.26858635991E+02  0.25855729056E+02  0.22219764667E+02  0.43400725733E+02  0.00000000000E+00 0. -1.
         11    1    4    4    0    0  0.83535067977E+00 -0.26145626701E+01  0.19086986156E+01  0.33431840184E+01  0.51100000000E-03 0. -1.
        -11    1    4    4    0    0  0.15040347424E+02 -0.52702811048E+01 -0.75199409400E+01  0.17622072113E+02  0.51100000000E-03 0.  1.
        -12    1    4    4    0    0  0.10982937887E+02 -0.17970885281E+02 -0.16608522343E+02  0.26822018135E+02  0.00000000000E+00 0.  1.
</event>
<event>
 8    1  0.3776180E-010  0.9118800E+02  0.7816164E-02  0.1184000E+00
        -11   -1    0    0    0    0  0.00000000000E+00  0.00000000000E+00  0.45593999997E+02  0.45594000000E+02  0.51100000000E-03 0.  1.
         11   -1    0    0    0    0 -0.00000000000E+00 -0.00000000000E+00 -0.45593999997E+02  0.45594000000E+02  0.51100000000E-03 0. -1.
         23    2    1    2    0    0  0.00000000000E+00  0.00000000000E+00  0.00000000000E+00  0.91188000000E+02  0.91188000000E+02 0.  0.
    9900012    2    3    3    0    0  0.18226863443E+02  0.36971014085E+02 -0.13584882368E+02  0.47787268873E+02  0.19999990098E+02 0.  0.
         12    1    3    3    0    0 -0.18226863443E+02 -0.36971014085E+02  0.13584882368E+02  0.43400731127E+02  0.00000000000E+00 0. -1.
         11    1    4    4    0    0  0.16606293749E+01  0.58447111108E+01  0.27071329283E+01  0.66518348478E+01  0.51100000000E-03 0. -1.
        -11    1    4    4    0    0  0.68697915172E+00  0.15371395478E+02 -0.60532446828E+01  0.16534615531E+02  0.51100000000E-03 0.  1.
        -12    1    4    4    0    0  0.15879254916E+02  0.15754907496E+02 -0.10238770613E+02  0.24600818494E+02  0.00000000000E+00 0.  1.
</event>
<event>
 8    1  0.3776180E-010  0.9118800E+02  0.7816164E-02  0.1184000E+00
        -11   -1    0    0    0    0  0.00000000000E+00  0.00000000000E+00  0.45593999997E+02  0.45594000000E+02  0.51100000000E-03 0. -1.
         11   -1    0    0    0    0 -0.00000000000E+00 -0.00000000000E+00 -0.45593999997E+02  0.45594000000E+02  0.51100000000E-03 0.  1.
         23    2    1    2    0    0  0.00000000000E+00  0.00000000000E+00  0.00000000000E+00  0.91188000000E+02  0.91188000000E+02 0.  0.
    9900012    2    3    3    0    0 -0.59632783571E+01 -0.36441303016E+02  0.22805576108E+02  0.47787267795E+02  0.19999985185E+02 0.  0.
        -12    1    3    3    0    0  0.59632783571E+01  0.36441303016E+02 -0.22805576108E+02  0.43400732205E+02  0.00000000000E+00 0.  1.
         11    1    4    4    0    0 -0.59494390859E+01 -0.23740525386E+02  0.15248650570E+02  0.28836256961E+02  0.51100000000E-03 0. -1.
        -11    1    4    4    0    0  0.40590583410E+01 -0.11539346468E+02  0.81145768127E+01  0.14679197139E+02  0.51100000000E-03 0.  1.
        -12    1    4    4    0    0 -0.40728976121E+01 -0.11614311617E+01 -0.55765127464E+00  0.42718136952E+01  0.00000000000E+00 0.  1.
</event>
<event>
 8    1  0.3776180E-010  0.9118800E+02  0.7816164E-02  0.1184000E+00
        -11   -1    0    0    0    0  0.00000000000E+00  0.00000000000E+00  0.45593999997E+02  0.45594000000E+02  0.51100000000E-03 0. -1.
         11   -1    0    0    0    0 -0.00000000000E+00 -0.00000000000E+00 -0.45593999997E+02  0.45594000000E+02  0.51100000000E-03 0.  1.
         23    2    1    2    0    0  0.00000000000E+00  0.44408920985E-15  0.00000000000E+00  0.91188000000E+02  0.91188000000E+02 0.  0.
    9900012    2    3    3    0    0  0.11503914995E+02 -0.33463678205E+01 -0.41714348755E+02  0.47787249663E+02  0.19999902512E+02 0.  0.
         12    1    3    3    0    0 -0.11503914995E+02  0.33463678205E+01  0.41714348755E+02  0.43400750337E+02  0.00000000000E+00 0. -1.
         11    1    4    4    0    0 -0.12424846441E+01 -0.25627168317E+01 -0.55354009514E+00  0.29013259983E+01  0.51100000000E-03 0. -1.
        -11    1    4    4    0    0 -0.31791741664E+00  0.16582128103E+01 -0.18784301425E+02  0.18860029732E+02  0.51100000000E-03 0.  1.
         12    1    4    4    0    0  0.13064317056E+02 -0.24418637991E+01 -0.22376507234E+02  0.26025893932E+02  0.00000000000E+00 0. -1.
</event>
<event>
 8    1  0.3776180E-010  0.9118800E+02  0.7816164E-02  0.1184000E+00
        -11   -1    0    0    0    0  0.00000000000E+00  0.00000000000E+00  0.45593999997E+02  0.45594000000E+02  0.51100000000E-03 0. -1.
         11   -1    0    0    0    0 -0.00000000000E+00 -0.00000000000E+00 -0.45593999997E+02  0.45594000000E+02  0.51100000000E-03 0.  1.
         23    2    1    2    0    0  0.00000000000E+00  0.00000000000E+00  0.88817841970E-15  0.91188000000E+02  0.91188000000E+02 0.  0.
    9900012    2    3    3    0    0  0.35053027048E+02 -0.25189783973E+02 -0.45148381712E+01  0.47787266302E+02  0.19999978375E+02 0.  0.
         12    1    3    3    0    0 -0.35053027048E+02  0.25189783973E+02  0.45148381712E+01  0.43400733698E+02  0.00000000000E+00 0. -1.
         11    1    4    4    0    0  0.48381277490E+01 -0.75846423594E+01  0.54209499097E+01  0.10503379362E+02  0.51100000000E-03 0. -1.
        -11    1    4    4    0    0  0.12789342358E+02 -0.55959325175E+01 -0.13257600392E+00  0.13960634489E+02  0.51100000000E-03 0.  1.
         12    1    4    4    0    0  0.17425556941E+02 -0.12009209096E+02 -0.98032120770E+01  0.23323252450E+02  0.00000000000E+00 0. -1.
</event>
<event>
 8    1  0.3776180E-010  0.9118800E+02  0.7816164E-02  0.1184000E+00
        -11   -1    0    0    0    0  0.00000000000E+00  0.00000000000E+00  0.45593999997E+02  0.45594000000E+02  0.51100000000E-03 0. -1.
         11   -1    0    0    0    0 -0.00000000000E+00 -0.00000000000E+00 -0.45593999997E+02  0.45594000000E+02  0.51100000000E-03 0.  1.
         23    2    1    2    0    0  0.00000000000E+00  0.00000000000E+00  0.17763568394E-14  0.91188000000E+02  0.91188000000E+02 0.  0.
    9900012    2    3    3    0    0  0.40588687767E+02 -0.14902273547E+01 -0.15295779159E+02  0.47787271754E+02  0.20000003234E+02 0.  0.
         12    1    3    3    0    0 -0.40588687767E+02  0.14902273547E+01  0.15295779159E+02  0.43400728246E+02  0.00000000000E+00 0. -1.
         11    1    4    4    0    0  0.22505841108E+02 -0.93415566657E+00 -0.81544249206E+01  0.23955796310E+02  0.51100000000E-03 0. -1.
        -11    1    4    4    0    0  0.18768009970E+02  0.10511525073E+01 -0.93669770778E+01  0.21001985137E+02  0.51100000000E-03 0.  1.
         12    1    4    4    0    0 -0.68516331107E+00 -0.16072241955E+01  0.22256228394E+01  0.28294903075E+01  0.00000000000E+00 0. -1.
</event>
<event>
 8    1  0.3776180E-010  0.9118800E+02  0.7816164E-02  0.1184000E+00
        -11   -1    0    0    0    0  0.00000000000E+00  0.00000000000E+00  0.45593999997E+02  0.45594000000E+02  0.51100000000E-03 0.  1.
         11   -1    0    0    0    0 -0.00000000000E+00 -0.00000000000E+00 -0.45593999997E+02  0.45594000000E+02  0.51100000000E-03 0. -1.
         23    2    1    2    0    0  0.00000000000E+00 -0.35527136788E-14  0.00000000000E+00  0.91188000000E+02  0.91188000000E+02 0.  0.
    9900012    2    3    3    0    0 -0.36854522782E+02 -0.22280014169E+02 -0.53822130136E+01  0.47787273073E+02  0.20000009250E+02 0.  0.
        -12    1    3    3    0    0  0.36854522782E+02  0.22280014169E+02  0.53822130136E+01  0.43400726927E+02  0.00000000000E+00 0.  1.
         11    1    4    4    0    0 -0.82530547372E+01  0.34330563648E+00  0.33816612645E+01  0.89256038689E+01  0.51100000000E-03 0.  1.
        -11    1    4    4    0    0  0.85202311162E+00 -0.71008312769E+00  0.39692358674E-01  0.11098365535E+01  0.51100000000E-03 0. -1.
         12    1    4    4    0    0 -0.29453491156E+02 -0.21913236677E+02 -0.88035666367E+01  0.37751832651E+02  0.00000000000E+00 0. -1.
</event>
<event>
 8    1  0.3776180E-010  0.9118800E+02  0.7816164E-02  0.1184000E+00
        -11   -1    0    0    0    0  0.00000000000E+00  0.00000000000E+00  0.45593999997E+02  0.45594000000E+02  0.51100000000E-03 0. -1.
         11   -1    0    0    0    0 -0.00000000000E+00 -0.00000000000E+00 -0.45593999997E+02  0.45594000000E+02  0.51100000000E-03 0.  1.
         23    2    1    2    0    0  0.35527136788E-14  0.00000000000E+00 -0.17763568394E-14  0.91188000000E+02  0.91188000000E+02 0.  0.
    9900012    2    3    3    0    0 -0.31831974252E+02  0.28027467848E+02 -0.92092239674E+01  0.47787270227E+02  0.19999996272E+02 0.  0.
         12    1    3    3    0    0  0.31831974252E+02 -0.28027467848E+02  0.92092239674E+01  0.43400729773E+02  0.00000000000E+00 0. -1.
         11    1    4    4    0    0 -0.24171670561E+02  0.19959605213E+02 -0.95323128215E+01  0.32764622475E+02  0.51100000000E-03 0. -1.
        -11    1    4    4    0    0 -0.62358333581E+01  0.13133319000E+00 -0.21357255862E+01  0.65927376800E+01  0.51100000000E-03 0.  1.
         12    1    4    4    0    0 -0.14244703334E+01  0.79365294448E+01  0.24588144403E+01  0.84299100714E+01  0.00000000000E+00 0. -1.
</event>
<event>
 8    1  0.3776180E-010  0.9118800E+02  0.7816164E-02  0.1184000E+00
        -11   -1    0    0    0    0  0.00000000000E+00  0.00000000000E+00  0.45593999997E+02  0.45594000000E+02  0.51100000000E-03 0.  1.
         11   -1    0    0    0    0 -0.00000000000E+00 -0.00000000000E+00 -0.45593999997E+02  0.45594000000E+02  0.51100000000E-03 0. -1.
         23    2    1    2    0    0  0.00000000000E+00  0.00000000000E+00  0.00000000000E+00  0.91188000000E+02  0.91188000000E+02 0.  0.
    9900012    2    3    3    0    0  0.40118770007E+02  0.13455981031E+02 -0.96459716831E+01  0.47787263807E+02  0.19999967001E+02 0.  0.
         12    1    3    3    0    0 -0.40118770007E+02 -0.13455981031E+02  0.96459716831E+01  0.43400736193E+02  0.00000000000E+00 0. -1.
         11    1    4    4    0    0  0.34233571017E+02  0.15898385387E+02 -0.39332530369E+01  0.37949525981E+02  0.51100000000E-03 0.  1.
        -11    1    4    4    0    0  0.20634326174E+01  0.14693503111E+01 -0.20042137588E+01  0.32301110748E+01  0.51100000000E-03 0. -1.
        -12    1    4    4    0    0  0.38217663726E+01 -0.39117546669E+01 -0.37085048873E+01  0.66076267509E+01  0.00000000000E+00 0.  1.
</event>
<event>
 8    1  0.3776180E-010  0.9118800E+02  0.7816164E-02  0.1184000E+00
        -11   -1    0    0    0    0  0.00000000000E+00  0.00000000000E+00  0.45593999997E+02  0.45594000000E+02  0.51100000000E-03 0.  1.
         11   -1    0    0    0    0 -0.00000000000E+00 -0.00000000000E+00 -0.45593999997E+02  0.45594000000E+02  0.51100000000E-03 0. -1.
         23    2    1    2    0    0 -0.71054273576E-14  0.00000000000E+00  0.00000000000E+00  0.91188000000E+02  0.91188000000E+02 0.  0.
    9900012    2    3    3    0    0 -0.42717325916E+02 -0.66103555933E+01 -0.38931110056E+01  0.47787273649E+02  0.20000011876E+02 0.  0.
         12    1    3    3    0    0  0.42717325916E+02  0.66103555933E+01  0.38931110056E+01  0.43400726351E+02  0.00000000000E+00 0. -1.
         11    1    4    4    0    0 -0.21716677602E+01  0.78423546370E+00 -0.44472026996E+01  0.50108660166E+01  0.51100000000E-03 0. -1.
        -11    1    4    4    0    0 -0.75303497156E+01 -0.39468041147E+01  0.40136983070E+01  0.94017660001E+01  0.51100000000E-03 0.  1.
         12    1    4    4    0    0 -0.33015308440E+02 -0.34477869422E+01 -0.34596066130E+01  0.33374641633E+02  0.00000000000E+00 0. -1.
</event>
<event>
 8    1  0.3776180E-010  0.9118800E+02  0.7816164E-02  0.1184000E+00
        -11   -1    0    0    0    0  0.00000000000E+00  0.00000000000E+00  0.45593999997E+02  0.45594000000E+02  0.51100000000E-03 0. -1.
         11   -1    0    0    0    0 -0.00000000000E+00 -0.00000000000E+00 -0.45593999997E+02  0.45594000000E+02  0.51100000000E-03 0.  1.
         23    2    1    2    0    0  0.00000000000E+00  0.00000000000E+00 -0.71054273576E-14  0.91188000000E+02  0.91188000000E+02 0.  0.
    9900012    2    3    3    0    0 -0.15110501596E+02 -0.55882817384E+01 -0.40299721403E+02  0.47787266176E+02  0.19999977803E+02 0.  0.
         12    1    3    3    0    0  0.15110501596E+02  0.55882817384E+01  0.40299721403E+02  0.43400733824E+02  0.00000000000E+00 0. -1.
         11    1    4    4    0    0 -0.31544237397E+01 -0.28515853963E+01  0.15690225803E+00  0.42551788425E+01  0.51100000000E-03 0. -1.
        -11    1    4    4    0    0 -0.11968982032E+01 -0.46986118321E+01 -0.16489748386E+02  0.17187824776E+02  0.51100000000E-03 0.  1.
        -12    1    4    4    0    0 -0.10759179653E+02  0.19619154900E+01 -0.23966875276E+02  0.26344262557E+02  0.00000000000E+00 0.  1.
</event>
<event>
 8    1  0.3776180E-010  0.9118800E+02  0.7816164E-02  0.1184000E+00
        -11   -1    0    0    0    0  0.00000000000E+00  0.00000000000E+00  0.45593999997E+02  0.45594000000E+02  0.51100000000E-03 0. -1.
         11   -1    0    0    0    0 -0.00000000000E+00 -0.00000000000E+00 -0.45593999997E+02  0.45594000000E+02  0.51100000000E-03 0.  1.
         23    2    1    2    0    0  0.71054273576E-14  0.00000000000E+00  0.00000000000E+00  0.91188000000E+02  0.91188000000E+02 0.  0.
    9900012    2    3    3    0    0 -0.34239467557E+02  0.18799059291E+02 -0.18917635729E+02  0.47787277536E+02  0.20000029599E+02 0.  0.
         12    1    3    3    0    0  0.34239467557E+02 -0.18799059291E+02  0.18917635729E+02  0.43400722464E+02  0.00000000000E+00 0. -1.
         11    1    4    4    0    0 -0.14864131468E+02  0.83694141236E+01 -0.14615398470E+02  0.22463289380E+02  0.51100000000E-03 0. -1.
        -11    1    4    4    0    0 -0.15906077160E+02  0.11519000463E+02 -0.69427990258E+01  0.20830101317E+02  0.51100000000E-03 0.  1.
         12    1    4    4    0    0 -0.34692589286E+01 -0.10893552959E+01  0.26405617676E+01  0.44938868391E+01  0.00000000000E+00 0. -1.
</event>
<event>
 8    1  0.3776180E-010  0.9118800E+02  0.7816164E-02  0.1184000E+00
        -11   -1    0    0    0    0  0.00000000000E+00  0.00000000000E+00  0.45593999997E+02  0.45594000000E+02  0.51100000000E-03 0. -1.
         11   -1    0    0    0    0 -0.00000000000E+00 -0.00000000000E+00 -0.45593999997E+02  0.45594000000E+02  0.51100000000E-03 0.  1.
         23    2    1    2    0    0  0.35527136788E-14 -0.35527136788E-14 -0.35527136788E-14  0.91188000000E+02  0.91188000000E+02 0.  0.
    9900012    2    3    3    0    0 -0.22835506578E+02  0.19516657104E+02 -0.31325114266E+02  0.47787273635E+02  0.20000011813E+02 0.  0.
         12    1    3    3    0    0  0.22835506578E+02 -0.19516657104E+02  0.31325114266E+02  0.43400726365E+02  0.00000000000E+00 0. -1.
         11    1    4    4    0    0 -0.42029753584E+01  0.22665498768E+01 -0.13526510555E+00  0.47770856301E+01  0.51100000000E-03 0. -1.
        -11    1    4    4    0    0 -0.21226641320E+02  0.14093556241E+02 -0.27707227366E+02  0.37641587079E+02  0.51100000000E-03 0.  1.
        -12    1    4    4    0    0  0.25941101002E+01  0.31565509869E+01 -0.34826217940E+01  0.53686009262E+01  0.00000000000E+00 0.  1.
</event>
<event>
 8    1  0.3776180E-010  0.9118800E+02  0.7816164E-02  0.1184000E+00
        -11   -1    0    0    0    0  0.00000000000E+00  0.00000000000E+00  0.45593999997E+02  0.45594000000E+02  0.51100000000E-03 0. -1.
         11   -1    0    0    0    0 -0.00000000000E+00 -0.00000000000E+00 -0.45593999997E+02  0.45594000000E+02  0.51100000000E-03 0.  1.
         23    2    1    2    0    0  0.00000000000E+00  0.22204460493E-15 -0.71054273576E-14  0.91188000000E+02  0.91188000000E+02 0.  0.
    9900012    2    3    3    0    0  0.19216906876E+02 -0.65376611388E+00  0.38908940430E+02  0.47787279207E+02  0.20000037215E+02 0.  0.
        -12    1    3    3    0    0 -0.19216906876E+02  0.65376611388E+00 -0.38908940430E+02  0.43400720793E+02  0.00000000000E+00 0.  1.
         11    1    4    4    0    0  0.35994608619E+01 -0.60770132915E+01  0.29716979941E+01  0.76627148107E+01  0.51100000000E-03 0. -1.
        -11    1    4    4    0    0  0.95213989939E-01 -0.69029243210E+00  0.43208533717E+01  0.43766817872E+01  0.51100000000E-03 0.  1.
         12    1    4    4    0    0  0.15522232024E+02  0.61135396097E+01  0.31616389064E+02  0.35747882609E+02  0.00000000000E+00 0. -1.
</event>
<event>
 8    1  0.3776180E-010  0.9118800E+02  0.7816164E-02  0.1184000E+00
        -11   -1    0    0    0    0  0.00000000000E+00  0.00000000000E+00  0.45593999997E+02  0.45594000000E+02  0.51100000000E-03 0. -1.
         11   -1    0    0    0    0 -0.00000000000E+00 -0.00000000000E+00 -0.45593999997E+02  0.45594000000E+02  0.51100000000E-03 0.  1.
         23    2    1    2    0    0  0.00000000000E+00  0.00000000000E+00  0.35527136788E-14  0.91188000000E+02  0.91188000000E+02 0.  0.
    9900012    2    3    3    0    0  0.34479391671E+02  0.35412943223E+01  0.26119993870E+02  0.47787270798E+02  0.19999998877E+02 0.  0.
        -12    1    3    3    0    0 -0.34479391671E+02 -0.35412943223E+01 -0.26119993870E+02  0.43400729202E+02  0.00000000000E+00 0.  1.
         11    1    4    4    0    0  0.25212534900E+02  0.45428624469E+01  0.25699540340E+02  0.36287406759E+02  0.51100000000E-03 0. -1.
        -11    1    4    4    0    0  0.74953105555E+01  0.12922440883E+01  0.24167411878E+01  0.79806148471E+01  0.51100000000E-03 0.  1.
        -12    1    4    4    0    0  0.17715462159E+01 -0.22938122130E+01 -0.19962876583E+01  0.35192491924E+01  0.00000000000E+00 0.  1.
</event>
<event>
 8    1  0.3776180E-010  0.9118800E+02  0.7816164E-02  0.1184000E+00
        -11   -1    0    0    0    0  0.00000000000E+00  0.00000000000E+00  0.45593999997E+02  0.45594000000E+02  0.51100000000E-03 0. -1.
         11   -1    0    0    0    0 -0.00000000000E+00 -0.00000000000E+00 -0.45593999997E+02  0.45594000000E+02  0.51100000000E-03 0.  1.
         23    2    1    2    0    0  0.00000000000E+00  0.00000000000E+00 -0.22204460493E-15  0.91188000000E+02  0.91188000000E+02 0.  0.
    9900012    2    3    3    0    0  0.37741188685E+02  0.21362586825E+02  0.16928725045E+01  0.47787271244E+02  0.20000000910E+02 0.  0.
         12    1    3    3    0    0 -0.37741188685E+02 -0.21362586825E+02 -0.16928725045E+01  0.43400728756E+02  0.00000000000E+00 0. -1.
         11    1    4    4    0    0  0.15368099760E+02  0.11781689275E+02  0.53000332886E+01  0.20076778764E+02  0.51100000000E-03 0. -1.
        -11    1    4    4    0    0  0.14126325577E+02  0.12063441656E+02 -0.43092693688E+01  0.19069596263E+02  0.51100000000E-03 0.  1.
         12    1    4    4    0    0  0.82467633487E+01 -0.24825441061E+01  0.70210858475E+00  0.86408962170E+01  0.00000000000E+00 0. -1.
</event>
<event>
 8    1  0.3776180E-010  0.9118800E+02  0.7816164E-02  0.1184000E+00
        -11   -1    0    0    0    0  0.00000000000E+00  0.00000000000E+00  0.45593999997E+02  0.45594000000E+02  0.51100000000E-03 0. -1.
         11   -1    0    0    0    0 -0.00000000000E+00 -0.00000000000E+00 -0.45593999997E+02  0.45594000000E+02  0.51100000000E-03 0.  1.
         23    2    1    2    0    0 -0.88817841970E-15  0.00000000000E+00  0.00000000000E+00  0.91188000000E+02  0.91188000000E+02 0.  0.
    9900012    2    3    3    0    0  0.43496684876E+01 -0.12079995839E+02  0.41458139684E+02  0.47787271187E+02  0.20000000651E+02 0.  0.
        -12    1    3    3    0    0 -0.43496684876E+01  0.12079995839E+02 -0.41458139684E+02  0.43400728813E+02  0.00000000000E+00 0.  1.
         11    1    4    4    0    0 -0.52909331556E+01 -0.73380061852E+01  0.23196472210E+02  0.24898125063E+02  0.51100000000E-03 0. -1.
        -11    1    4    4    0    0 -0.14866353073E+01 -0.83963202470E+00  0.98229220544E+00  0.19697626029E+01  0.51100000000E-03 0.  1.
        -12    1    4    4    0    0  0.11127236951E+02 -0.39023576286E+01  0.17279375269E+02  0.20919383521E+02  0.00000000000E+00 0.  1.
</event>
<event>
 8    1  0.3776180E-010  0.9118800E+02  0.7816164E-02  0.1184000E+00
        -11   -1    0    0    0    0  0.00000000000E+00  0.00000000000E+00  0.45593999997E+02  0.45594000000E+02  0.51100000000E-03 0.  1.
         11   -1    0    0    0    0 -0.00000000000E+00 -0.00000000000E+00 -0.45593999997E+02  0.45594000000E+02  0.51100000000E-03 0. -1.
         23    2    1    2    0    0  0.35527136788E-14  0.00000000000E+00  0.00000000000E+00  0.91188000000E+02  0.91188000000E+02 0.  0.
    9900012    2    3    3    0    0  0.26536919791E+02 -0.53691982490E+01  0.33920297330E+02  0.47787274513E+02  0.20000015815E+02 0.  0.
        -12    1    3    3    0    0 -0.26536919791E+02  0.53691982490E+01 -0.33920297330E+02  0.43400725487E+02  0.00000000000E+00 0.  1.
         11    1    4    4    0    0  0.84296345238E+01 -0.68808250082E+01  0.88727229904E+01  0.14040288620E+02  0.51100000000E-03 0. -1.
        -11    1    4    4    0    0  0.12796498381E+02 -0.54014140989E+01  0.15840533519E+02  0.21067703898E+02  0.51100000000E-03 0.  1.
        -12    1    4    4    0    0  0.53107868863E+01  0.69130408581E+01  0.92070408205E+01  0.12679281996E+02  0.00000000000E+00 0.  1.
</event>
<event>
 8    1  0.3776180E-010  0.9118800E+02  0.7816164E-02  0.1184000E+00
        -11   -1    0    0    0    0  0.00000000000E+00  0.00000000000E+00  0.45593999997E+02  0.45594000000E+02  0.51100000000E-03 0. -1.
         11   -1    0    0    0    0 -0.00000000000E+00 -0.00000000000E+00 -0.45593999997E+02  0.45594000000E+02  0.51100000000E-03 0.  1.
         23    2    1    2    0    0  0.00000000000E+00  0.00000000000E+00 -0.35527136788E-14  0.91188000000E+02  0.91188000000E+02 0.  0.
    9900012    2    3    3    0    0  0.35039023084E+02  0.17763071605E+02 -0.18448942204E+02  0.47787270513E+02  0.19999997577E+02 0.  0.
         12    1    3    3    0    0 -0.35039023084E+02 -0.17763071605E+02  0.18448942204E+02  0.43400729487E+02  0.00000000000E+00 0. -1.
         11    1    4    4    0    0  0.14249182282E+01  0.39574636952E-01  0.17885278436E+01  0.22870920877E+01  0.51100000000E-03 0. -1.
        -11    1    4    4    0    0  0.25405936461E+01 -0.13030839577E+01  0.13403871864E+01  0.31542482378E+01  0.51100000000E-03 0.  1.
        -12    1    4    4    0    0  0.31073511210E+02  0.19026580926E+02 -0.21577857234E+02  0.42345930188E+02  0.00000000000E+00 0.  1.
</event>
<event>
 8    1  0.3776180E-010  0.9118800E+02  0.7816164E-02  0.1184000E+00
        -11   -1    0    0    0    0  0.00000000000E+00  0.00000000000E+00  0.45593999997E+02  0.45594000000E+02  0.51100000000E-03 0. -1.
         11   -1    0    0    0    0 -0.00000000000E+00 -0.00000000000E+00 -0.45593999997E+02  0.45594000000E+02  0.51100000000E-03 0.  1.
         23    2    1    2    0    0  0.00000000000E+00 -0.44408920985E-15  0.00000000000E+00  0.91188000000E+02  0.91188000000E+02 0.  0.
    9900012    2    3    3    0    0  0.34991782674E+02  0.30923013971E+01  0.25487956666E+02  0.47787272844E+02  0.20000008206E+02 0.  0.
        -12    1    3    3    0    0 -0.34991782674E+02 -0.30923013971E+01 -0.25487956666E+02  0.43400727156E+02  0.00000000000E+00 0.  1.
         11    1    4    4    0    0  0.93067342737E+01  0.59614575484E+01  0.41005434291E+01  0.11788500143E+02  0.51100000000E-03 0. -1.
        -11    1    4    4    0    0  0.20663186763E+02  0.53287129472E+00  0.97039612648E+01  0.22834581308E+02  0.51100000000E-03 0.  1.
        -12    1    4    4    0    0  0.50218616368E+01 -0.34020274461E+01  0.11683451972E+02  0.13164191393E+02  0.00000000000E+00 0.  1.
</event>
<event>
 8    1  0.3776180E-010  0.9118800E+02  0.7816164E-02  0.1184000E+00
        -11   -1    0    0    0    0  0.00000000000E+00  0.00000000000E+00  0.45593999997E+02  0.45594000000E+02  0.51100000000E-03 0. -1.
         11   -1    0    0    0    0 -0.00000000000E+00 -0.00000000000E+00 -0.45593999997E+02  0.45594000000E+02  0.51100000000E-03 0.  1.
         23    2    1    2    0    0  0.00000000000E+00  0.17763568394E-14 -0.71054273576E-14  0.91188000000E+02  0.91188000000E+02 0.  0.
    9900012    2    3    3    0    0 -0.95841351456E+01 -0.88415218044E+01  0.41395594200E+02  0.47787269897E+02  0.19999994768E+02 0.  0.
        -12    1    3    3    0    0  0.95841351456E+01  0.88415218044E+01 -0.41395594200E+02  0.43400730103E+02  0.00000000000E+00 0.  1.
         11    1    4    4    0    0 -0.94008045577E+01 -0.83852160410E+01  0.22356554006E+02  0.25661303195E+02  0.51100000000E-03 0. -1.
        -11    1    4    4    0    0  0.22886029636E+01 -0.51524176051E+01  0.12438475125E+02  0.13656528637E+02  0.51100000000E-03 0.  1.
         12    1    4    4    0    0 -0.24719335515E+01  0.46961118417E+01  0.66005650692E+01  0.84694380655E+01  0.00000000000E+00 0. -1.
</event>
<event>
 8    1  0.3776180E-010  0.9118800E+02  0.7816164E-02  0.1184000E+00
        -11   -1    0    0    0    0  0.00000000000E+00  0.00000000000E+00  0.45593999997E+02  0.45594000000E+02  0.51100000000E-03 0. -1.
         11   -1    0    0    0    0 -0.00000000000E+00 -0.00000000000E+00 -0.45593999997E+02  0.45594000000E+02  0.51100000000E-03 0.  1.
         23    2    1    2    0    0  0.00000000000E+00 -0.35527136788E-14  0.00000000000E+00  0.91188000000E+02  0.91188000000E+02 0.  0.
    9900012    2    3    3    0    0 -0.14348451602E+02 -0.22051306192E+02 -0.34517895655E+02  0.47787270875E+02  0.19999999226E+02 0.  0.
         12    1    3    3    0    0  0.14348451602E+02  0.22051306192E+02  0.34517895655E+02  0.43400729125E+02  0.00000000000E+00 0. -1.
         11    1    4    4    0    0  0.20854124486E+01 -0.53664065498E+00 -0.23828615785E+01  0.32116908065E+01  0.51100000000E-03 0. -1.
        -11    1    4    4    0    0 -0.11975988011E+02 -0.69261241075E+01 -0.22867175086E+02  0.26726450955E+02  0.51100000000E-03 0.  1.
        -12    1    4    4    0    0 -0.44578760400E+01 -0.14588541429E+02 -0.92678589907E+01  0.17849129113E+02  0.00000000000E+00 0.  1.
</event>
<event>
 8    1  0.3776180E-010  0.9118800E+02  0.7816164E-02  0.1184000E+00
        -11   -1    0    0    0    0  0.00000000000E+00  0.00000000000E+00  0.45593999997E+02  0.45594000000E+02  0.51100000000E-03 0. -1.
         11   -1    0    0    0    0 -0.00000000000E+00 -0.00000000000E+00 -0.45593999997E+02  0.45594000000E+02  0.51100000000E-03 0.  1.
         23    2    1    2    0    0  0.00000000000E+00  0.35527136788E-14 -0.71054273576E-14  0.91188000000E+02  0.91188000000E+02 0.  0.
    9900012    2    3    3    0    0 -0.23626309421E+01  0.25350390711E+02  0.35148240578E+02  0.47787272473E+02  0.20000006512E+02 0.  0.
        -12    1    3    3    0    0  0.23626309421E+01 -0.25350390711E+02 -0.35148240578E+02  0.43400727527E+02  0.00000000000E+00 0.  1.
         11    1    4    4    0    0 -0.18229368187E+01  0.48092506497E+01  0.11705449705E+02  0.12785520854E+02  0.51100000000E-03 0. -1.
        -11    1    4    4    0    0 -0.60322337854E+01  0.78689165469E+01  0.17182141249E+02  0.19837683086E+02  0.51100000000E-03 0.  1.
        -12    1    4    4    0    0  0.54925396620E+01  0.12672223514E+02  0.62606496237E+01  0.15164068532E+02  0.00000000000E+00 0.  1.
</event>
<event>
 8    1  0.3776180E-010  0.9118800E+02  0.7816164E-02  0.1184000E+00
        -11   -1    0    0    0    0  0.00000000000E+00  0.00000000000E+00  0.45593999997E+02  0.45594000000E+02  0.51100000000E-03 0. -1.
         11   -1    0    0    0    0 -0.00000000000E+00 -0.00000000000E+00 -0.45593999997E+02  0.45594000000E+02  0.51100000000E-03 0.  1.
         23    2    1    2    0    0  0.35527136788E-14  0.00000000000E+00  0.00000000000E+00  0.91188000000E+02  0.91188000000E+02 0.  0.
    9900012    2    3    3    0    0  0.18194796225E+02  0.19578402824E+02 -0.34194423588E+02  0.47787273378E+02  0.20000010638E+02 0.  0.
         12    1    3    3    0    0 -0.18194796225E+02 -0.19578402824E+02  0.34194423588E+02  0.43400726622E+02  0.00000000000E+00 0. -1.
         11    1    4    4    0    0  0.74178474057E+01  0.30991468109E+00 -0.63502318998E+01  0.97696444503E+01  0.51100000000E-03 0. -1.
        -11    1    4    4    0    0  0.31856199818E+00 -0.15401254876E+01 -0.55841459200E+01  0.58013924347E+01  0.51100000000E-03 0.  1.
        -12    1    4    4    0    0  0.10458386822E+02  0.20808613631E+02 -0.22260045768E+02  0.32216236493E+02  0.00000000000E+00 0.  1.
</event>
<event>
 8    1  0.3776180E-010  0.9118800E+02  0.7816164E-02  0.1184000E+00
        -11   -1    0    0    0    0  0.00000000000E+00  0.00000000000E+00  0.45593999997E+02  0.45594000000E+02  0.51100000000E-03 0. -1.
         11   -1    0    0    0    0 -0.00000000000E+00 -0.00000000000E+00 -0.45593999997E+02  0.45594000000E+02  0.51100000000E-03 0.  1.
         23    2    1    2    0    0  0.00000000000E+00  0.00000000000E+00  0.00000000000E+00  0.91188000000E+02  0.91188000000E+02 0.  0.
    9900012    2    3    3    0    0 -0.24264506273E+02  0.14593623803E+02 -0.32892005432E+02  0.47787261046E+02  0.19999954415E+02 0.  0.
         12    1    3    3    0    0  0.24264506273E+02 -0.14593623803E+02  0.32892005432E+02  0.43400738954E+02  0.00000000000E+00 0. -1.
         11    1    4    4    0    0 -0.34800809971E+01  0.70862043357E+01 -0.74715246559E+01  0.10869633691E+02  0.51100000000E-03 0. -1.
        -11    1    4    4    0    0 -0.13084148223E+01  0.58231801641E+01 -0.11377098966E+02  0.12847558434E+02  0.51100000000E-03 0.  1.
         12    1    4    4    0    0 -0.19476010453E+02  0.16842393032E+01 -0.14043381810E+02  0.24070068921E+02  0.00000000000E+00 0. -1.
</event>
<event>
 8    1  0.3776180E-010  0.9118800E+02  0.7816164E-02  0.1184000E+00
        -11   -1    0    0    0    0  0.00000000000E+00  0.00000000000E+00  0.45593999997E+02  0.45594000000E+02  0.51100000000E-03 0. -1.
         11   -1    0    0    0    0 -0.00000000000E+00 -0.00000000000E+00 -0.45593999997E+02  0.45594000000E+02  0.51100000000E-03 0.  1.
         23    2    1    2    0    0  0.00000000000E+00 -0.17763568394E-14 -0.35527136788E-14  0.91188000000E+02  0.91188000000E+02 0.  0.
    9900012    2    3    3    0    0  0.31691915093E+02  0.83793878104E+01  0.28443484496E+02  0.47787269216E+02  0.19999991662E+02 0.  0.
        -12    1    3    3    0    0 -0.31691915093E+02 -0.83793878104E+01 -0.28443484496E+02  0.43400730784E+02  0.00000000000E+00 0.  1.
         11    1    4    4    0    0  0.16637373357E+02 -0.14296775180E+01  0.11941210620E+02  0.20528971756E+02  0.51100000000E-03 0. -1.
        -11    1    4    4    0    0  0.14831542045E+02  0.46632781915E+01  0.84380989285E+01  0.17689610417E+02  0.51100000000E-03 0.  1.
        -12    1    4    4    0    0  0.22299969020E+00  0.51457871368E+01  0.80641749477E+01  0.95686870419E+01  0.00000000000E+00 0.  1.
</event>
<event>
 8    1  0.3776180E-010  0.9118800E+02  0.7816164E-02  0.1184000E+00
        -11   -1    0    0    0    0  0.00000000000E+00  0.00000000000E+00  0.45593999997E+02  0.45594000000E+02  0.51100000000E-03 0.  1.
         11   -1    0    0    0    0 -0.00000000000E+00 -0.00000000000E+00 -0.45593999997E+02  0.45594000000E+02  0.51100000000E-03 0. -1.
         23    2    1    2    0    0  0.00000000000E+00  0.00000000000E+00  0.00000000000E+00  0.91188000000E+02  0.91188000000E+02 0.  0.
    9900012    2    3    3    0    0  0.33766397246E+02 -0.18945438237E+02  0.19609287276E+02  0.47787270047E+02  0.19999995452E+02 0.  0.
        -12    1    3    3    0    0 -0.33766397246E+02  0.18945438237E+02 -0.19609287276E+02  0.43400729953E+02  0.00000000000E+00 0.  1.
         11    1    4    4    0    0  0.37896490598E+01 -0.20247276940E+01 -0.16704014769E+01  0.46099027741E+01  0.51100000000E-03 0. -1.
        -11    1    4    4    0    0  0.67583771799E+01  0.15646095668E+01  0.51500132447E+00  0.69562124628E+01  0.51100000000E-03 0.  1.
         12    1    4    4    0    0  0.23218371006E+02 -0.18485320110E+02  0.20764687429E+02  0.36221154810E+02  0.00000000000E+00 0. -1.
</event>
<event>
 8    1  0.3776180E-010  0.9118800E+02  0.7816164E-02  0.1184000E+00
        -11   -1    0    0    0    0  0.00000000000E+00  0.00000000000E+00  0.45593999997E+02  0.45594000000E+02  0.51100000000E-03 0. -1.
         11   -1    0    0    0    0 -0.00000000000E+00 -0.00000000000E+00 -0.45593999997E+02  0.45594000000E+02  0.51100000000E-03 0.  1.
         23    2    1    2    0    0  0.00000000000E+00  0.35527136788E-14  0.00000000000E+00  0.91188000000E+02  0.91188000000E+02 0.  0.
    9900012    2    3    3    0    0  0.58237682222E+01  0.29305183521E+02 -0.31478782846E+02  0.47787264672E+02  0.19999970946E+02 0.  0.
         12    1    3    3    0    0 -0.58237682222E+01 -0.29305183521E+02  0.31478782846E+02  0.43400735328E+02  0.00000000000E+00 0. -1.
         11    1    4    4    0    0 -0.12205302873E+01 -0.83688108945E+00 -0.82285072165E+01  0.83605260249E+01  0.51100000000E-03 0.  1.
        -11    1    4    4    0    0 -0.15483049143E+01  0.65776741299E+01 -0.51206131443E+01  0.84784269945E+01  0.51100000000E-03 0. -1.
         12    1    4    4    0    0  0.85926034237E+01  0.23564390481E+02 -0.18129662485E+02  0.30948311653E+02  0.00000000000E+00 0. -1.
</event>
<event>
 8    1  0.3776180E-010  0.9118800E+02  0.7816164E-02  0.1184000E+00
        -11   -1    0    0    0    0  0.00000000000E+00  0.00000000000E+00  0.45593999997E+02  0.45594000000E+02  0.51100000000E-03 0. -1.
         11   -1    0    0    0    0 -0.00000000000E+00 -0.00000000000E+00 -0.45593999997E+02  0.45594000000E+02  0.51100000000E-03 0.  1.
         23    2    1    2    0    0  0.00000000000E+00  0.00000000000E+00 -0.35527136788E-14  0.91188000000E+02  0.91188000000E+02 0.  0.
    9900012    2    3    3    0    0  0.36412403831E+02 -0.16416322401E+02 -0.16978351635E+02  0.47787271686E+02  0.20000002925E+02 0.  0.
         12    1    3    3    0    0 -0.36412403831E+02  0.16416322401E+02  0.16978351635E+02  0.43400728314E+02  0.00000000000E+00 0. -1.
         11    1    4    4    0    0  0.60529345168E+00 -0.31609310254E+01  0.14015885358E+01  0.35103156261E+01  0.51100000000E-03 0. -1.
        -11    1    4    4    0    0  0.14311909782E+02 -0.11500736148E+02 -0.11387927616E+02  0.21605151913E+02  0.51100000000E-03 0.  1.
         12    1    4    4    0    0  0.21495200598E+02 -0.17546552284E+01 -0.69920125544E+01  0.22671804147E+02  0.00000000000E+00 0. -1.
</event>
<event>
 8    1  0.3776180E-010  0.9118800E+02  0.7816164E-02  0.1184000E+00
        -11   -1    0    0    0    0  0.00000000000E+00  0.00000000000E+00  0.45593999997E+02  0.45594000000E+02  0.51100000000E-03 0. -1.
         11   -1    0    0    0    0 -0.00000000000E+00 -0.00000000000E+00 -0.45593999997E+02  0.45594000000E+02  0.51100000000E-03 0.  1.
         23    2    1    2    0    0  0.00000000000E+00  0.00000000000E+00  0.00000000000E+00  0.91188000000E+02  0.91188000000E+02 0.  0.
    9900012    2    3    3    0    0  0.23714228335E+02 -0.36296964801E+02  0.19474462292E+01  0.47787230121E+02  0.19999813412E+02 0.  0.
        -12    1    3    3    0    0 -0.23714228335E+02  0.36296964801E+02 -0.19474462292E+01  0.43400769879E+02  0.00000000000E+00 0.  1.
         11    1    4    4    0    0  0.24438332009E+01 -0.15718837746E+01  0.40522922772E+01  0.49864027390E+01  0.51100000000E-03 0. -1.
        -11    1    4    4    0    0  0.33603206492E+01 -0.87534553867E+00 -0.28582758865E+01  0.44975244282E+01  0.51100000000E-03 0.  1.
        -12    1    4    4    0    0  0.17910074485E+02 -0.33849735488E+02  0.75342983848E+00  0.38303302954E+02  0.00000000000E+00 0.  1.
</event>
<event>
 8    1  0.3776180E-010  0.9118800E+02  0.7816164E-02  0.1184000E+00
        -11   -1    0    0    0    0  0.00000000000E+00  0.00000000000E+00  0.45593999997E+02  0.45594000000E+02  0.51100000000E-03 0. -1.
         11   -1    0    0    0    0 -0.00000000000E+00 -0.00000000000E+00 -0.45593999997E+02  0.45594000000E+02  0.51100000000E-03 0.  1.
         23    2    1    2    0    0  0.00000000000E+00  0.00000000000E+00  0.00000000000E+00  0.91188000000E+02  0.91188000000E+02 0.  0.
    9900012    2    3    3    0    0  0.26013980529E+02  0.25866348283E+02 -0.23191081524E+02  0.47787292417E+02  0.20000097446E+02 0.  0.
         12    1    3    3    0    0 -0.26013980529E+02 -0.25866348283E+02  0.23191081524E+02  0.43400707583E+02  0.00000000000E+00 0. -1.
         11    1    4    4    0    0  0.30812955674E+01  0.56031533810E+01 -0.31768125168E+01  0.71401574362E+01  0.51100000000E-03 0. -1.
        -11    1    4    4    0    0  0.12590367580E+02  0.28954823274E+00 -0.97323381220E+01  0.15916017076E+02  0.51100000000E-03 0.  1.
        -12    1    4    4    0    0  0.10342317381E+02  0.19973646670E+02 -0.10281930885E+02  0.24731117905E+02  0.00000000000E+00 0.  1.
</event>
<event>
 8    1  0.3776180E-010  0.9118800E+02  0.7816164E-02  0.1184000E+00
        -11   -1    0    0    0    0  0.00000000000E+00  0.00000000000E+00  0.45593999997E+02  0.45594000000E+02  0.51100000000E-03 0. -1.
         11   -1    0    0    0    0 -0.00000000000E+00 -0.00000000000E+00 -0.45593999997E+02  0.45594000000E+02  0.51100000000E-03 0.  1.
         23    2    1    2    0    0  0.00000000000E+00  0.00000000000E+00  0.88817841970E-15  0.91188000000E+02  0.91188000000E+02 0.  0.
    9900012    2    3    3    0    0  0.39876607990E+02  0.15962147362E+02 -0.62200761906E+01  0.47787270040E+02  0.19999995422E+02 0.  0.
         12    1    3    3    0    0 -0.39876607990E+02 -0.15962147362E+02  0.62200761906E+01  0.43400729960E+02  0.00000000000E+00 0. -1.
         11    1    4    4    0    0  0.31404531694E+01  0.42619578967E+01 -0.59387625727E+01  0.79558552261E+01  0.51100000000E-03 0. -1.
        -11    1    4    4    0    0  0.41401574606E+01  0.22773142498E+01 -0.33050109472E+01  0.57662953110E+01  0.51100000000E-03 0.  1.
        -12    1    4    4    0    0  0.32595997360E+02  0.94228752160E+01  0.30236973293E+01  0.34065119503E+02  0.00000000000E+00 0.  1.
</event>
<event>
 8    1  0.3776180E-010  0.9118800E+02  0.7816164E-02  0.1184000E+00
        -11   -1    0    0    0    0  0.00000000000E+00  0.00000000000E+00  0.45593999997E+02  0.45594000000E+02  0.51100000000E-03 0. -1.
         11   -1    0    0    0    0 -0.00000000000E+00 -0.00000000000E+00 -0.45593999997E+02  0.45594000000E+02  0.51100000000E-03 0.  1.
         23    2    1    2    0    0 -0.88817841970E-15  0.00000000000E+00  0.00000000000E+00  0.91188000000E+02  0.91188000000E+02 0.  0.
    9900012    2    3    3    0    0  0.50376327741E+01 -0.42153211439E+02 -0.90195429325E+01  0.47787272664E+02  0.20000007386E+02 0.  0.
        -12    1    3    3    0    0 -0.50376327741E+01  0.42153211439E+02  0.90195429325E+01  0.43400727336E+02  0.00000000000E+00 0.  1.
         11    1    4    4    0    0 -0.39367446508E+00 -0.41913612981E+01 -0.24030798268E+01  0.48473995122E+01  0.51100000000E-03 0. -1.
        -11    1    4    4    0    0  0.49310034262E+01 -0.36197457895E+02 -0.47969220196E+00  0.36534926546E+02  0.51100000000E-03 0.  1.
        -12    1    4    4    0    0  0.50030381302E+00 -0.17643922452E+01 -0.61367709038E+01  0.64049466060E+01  0.00000000000E+00 0.  1.
</event>
<event>
 8    1  0.3776180E-010  0.9118800E+02  0.7816164E-02  0.1184000E+00
        -11   -1    0    0    0    0  0.00000000000E+00  0.00000000000E+00  0.45593999997E+02  0.45594000000E+02  0.51100000000E-03 0. -1.
         11   -1    0    0    0    0 -0.00000000000E+00 -0.00000000000E+00 -0.45593999997E+02  0.45594000000E+02  0.51100000000E-03 0.  1.
         23    2    1    2    0    0  0.00000000000E+00  0.17763568394E-14  0.71054273576E-14  0.91188000000E+02  0.91188000000E+02 0.  0.
    9900012    2    3    3    0    0 -0.21602901347E+02  0.15734667686E+02  0.34195876898E+02  0.47787272925E+02  0.20000008575E+02 0.  0.
        -12    1    3    3    0    0  0.21602901347E+02 -0.15734667686E+02 -0.34195876898E+02  0.43400727075E+02  0.00000000000E+00 0.  1.
         11    1    4    4    0    0 -0.70308249779E+01  0.10514406852E+02  0.69869497654E+01  0.14450007564E+02  0.51100000000E-03 0. -1.
        -11    1    4    4    0    0 -0.81915648837E+01  0.87342868002E+01  0.16592069839E+02  0.20461825015E+02  0.51100000000E-03 0.  1.
        -12    1    4    4    0    0 -0.63805114858E+01 -0.35140259657E+01  0.10616857294E+02  0.12875440346E+02  0.00000000000E+00 0.  1.
</event>
<event>
 8    1  0.3776180E-010  0.9118800E+02  0.7816164E-02  0.1184000E+00
        -11   -1    0    0    0    0  0.00000000000E+00  0.00000000000E+00  0.45593999997E+02  0.45594000000E+02  0.51100000000E-03 0. -1.
         11   -1    0    0    0    0 -0.00000000000E+00 -0.00000000000E+00 -0.45593999997E+02  0.45594000000E+02  0.51100000000E-03 0.  1.
         23    2    1    2    0    0  0.88817841970E-15 -0.83266726847E-16  0.00000000000E+00  0.91188000000E+02  0.91188000000E+02 0.  0.
    9900012    2    3    3    0    0  0.67273063526E+01  0.18601707670E+00 -0.42875773853E+02  0.47787271474E+02  0.20000001957E+02 0.  0.
         12    1    3    3    0    0 -0.67273063526E+01 -0.18601707670E+00  0.42875773853E+02  0.43400728526E+02  0.00000000000E+00 0. -1.
         11    1    4    4    0    0  0.91839818293E+01  0.45863821161E+01 -0.31421464611E+02  0.33055844593E+02  0.51100000000E-03 0. -1.
        -11    1    4    4    0    0 -0.21139568717E+01  0.18186270066E+01 -0.52244605133E+01  0.59220947105E+01  0.51100000000E-03 0.  1.
         12    1    4    4    0    0 -0.34271860509E+00 -0.62189920461E+01 -0.62298487286E+01  0.88093321706E+01  0.00000000000E+00 0. -1.
</event>
<event>
 8    1  0.3776180E-010  0.9118800E+02  0.7816164E-02  0.1184000E+00
        -11   -1    0    0    0    0  0.00000000000E+00  0.00000000000E+00  0.45593999997E+02  0.45594000000E+02  0.51100000000E-03 0. -1.
         11   -1    0    0    0    0 -0.00000000000E+00 -0.00000000000E+00 -0.45593999997E+02  0.45594000000E+02  0.51100000000E-03 0.  1.
         23    2    1    2    0    0  0.00000000000E+00  0.00000000000E+00 -0.35527136788E-14  0.91188000000E+02  0.91188000000E+02 0.  0.
    9900012    2    3    3    0    0 -0.29055738642E+02 -0.21373443771E+02 -0.24136341237E+02  0.47787274027E+02  0.20000013598E+02 0.  0.
         12    1    3    3    0    0  0.29055738642E+02  0.21373443771E+02  0.24136341237E+02  0.43400725973E+02  0.00000000000E+00 0. -1.
         11    1    4    4    0    0 -0.37442145222E+01 -0.77586114875E+01 -0.25523776318E+01  0.89849778208E+01  0.51100000000E-03 0. -1.
        -11    1    4    4    0    0 -0.33817055081E+01 -0.71079371612E+01 -0.11179118644E+02  0.13672285718E+02  0.51100000000E-03 0.  1.
         12    1    4    4    0    0 -0.21929818612E+02 -0.65068951225E+01 -0.10404844961E+02  0.25130010488E+02  0.00000000000E+00 0. -1.
</event>
<event>
 8    1  0.3776180E-010  0.9118800E+02  0.7816164E-02  0.1184000E+00
        -11   -1    0    0    0    0  0.00000000000E+00  0.00000000000E+00  0.45593999997E+02  0.45594000000E+02  0.51100000000E-03 0. -1.
         11   -1    0    0    0    0 -0.00000000000E+00 -0.00000000000E+00 -0.45593999997E+02  0.45594000000E+02  0.51100000000E-03 0.  1.
         23    2    1    2    0    0 -0.35527136788E-14  0.00000000000E+00 -0.35527136788E-14  0.91188000000E+02  0.91188000000E+02 0.  0.
    9900012    2    3    3    0    0 -0.30606187556E+02  0.16629945857E+02 -0.25890729191E+02  0.47787266435E+02  0.19999978986E+02 0.  0.
         12    1    3    3    0    0  0.30606187556E+02 -0.16629945857E+02  0.25890729191E+02  0.43400733565E+02  0.00000000000E+00 0. -1.
         11    1    4    4    0    0 -0.88667511774E+01  0.23523206094E+01 -0.11738424543E+02  0.14897761567E+02  0.51100000000E-03 0. -1.
        -11    1    4    4    0    0 -0.18523487261E+02  0.11232673613E+02 -0.17074817341E+02  0.27583363179E+02  0.51100000000E-03 0.  1.
         12    1    4    4    0    0 -0.32159491175E+01  0.30449516340E+01  0.29225126931E+01  0.53061416888E+01  0.00000000000E+00 0. -1.
</event>
<event>
 8    1  0.3776180E-010  0.9118800E+02  0.7816164E-02  0.1184000E+00
        -11   -1    0    0    0    0  0.00000000000E+00  0.00000000000E+00  0.45593999997E+02  0.45594000000E+02  0.51100000000E-03 0. -1.
         11   -1    0    0    0    0 -0.00000000000E+00 -0.00000000000E+00 -0.45593999997E+02  0.45594000000E+02  0.51100000000E-03 0.  1.
         23    2    1    2    0    0  0.00000000000E+00 -0.88817841970E-15  0.00000000000E+00  0.91188000000E+02  0.91188000000E+02 0.  0.
    9900012    2    3    3    0    0 -0.20946829219E+02 -0.40971000860E+01 -0.37789790817E+02  0.47787260681E+02  0.19999952748E+02 0.  0.
         12    1    3    3    0    0  0.20946829219E+02  0.40971000860E+01  0.37789790817E+02  0.43400739319E+02  0.00000000000E+00 0. -1.
         11    1    4    4    0    0 -0.11169854269E+02 -0.91613650252E+00 -0.92428806740E+01  0.14527071071E+02  0.51100000000E-03 0. -1.
        -11    1    4    4    0    0 -0.13170184079E+02 -0.16791963360E+01 -0.20900061562E+02  0.24760573955E+02  0.51100000000E-03 0.  1.
        -12    1    4    4    0    0  0.33932091292E+01 -0.15017672475E+01 -0.76468485810E+01  0.84996156549E+01  0.00000000000E+00 0.  1.
</event>
<event>
 8    1  0.3776180E-010  0.9118800E+02  0.7816164E-02  0.1184000E+00
        -11   -1    0    0    0    0  0.00000000000E+00  0.00000000000E+00  0.45593999997E+02  0.45594000000E+02  0.51100000000E-03 0. -1.
         11   -1    0    0    0    0 -0.00000000000E+00 -0.00000000000E+00 -0.45593999997E+02  0.45594000000E+02  0.51100000000E-03 0.  1.
         23    2    1    2    0    0 -0.17763568394E-14 -0.11102230246E-15 -0.71054273576E-14  0.91188000000E+02  0.91188000000E+02 0.  0.
    9900012    2    3    3    0    0 -0.11767214664E+02 -0.42156315812E+00 -0.41772934706E+02  0.47787272697E+02  0.20000007537E+02 0.  0.
         12    1    3    3    0    0  0.11767214664E+02  0.42156315812E+00  0.41772934706E+02  0.43400727303E+02  0.00000000000E+00 0. -1.
         11    1    4    4    0    0 -0.49805316636E+01  0.50400476770E+01 -0.14490816880E+02  0.16130454127E+02  0.51100000000E-03 0. -1.
        -11    1    4    4    0    0 -0.84850801646E+01 -0.18965236960E+01 -0.26136999049E+02  0.27545164858E+02  0.51100000000E-03 0.  1.
         12    1    4    4    0    0  0.16983971638E+01 -0.35650871391E+01 -0.11451187771E+01  0.41116537122E+01  0.00000000000E+00 0. -1.
</event>
<event>
 8    1  0.3776180E-010  0.9118800E+02  0.7816164E-02  0.1184000E+00
        -11   -1    0    0    0    0  0.00000000000E+00  0.00000000000E+00  0.45593999997E+02  0.45594000000E+02  0.51100000000E-03 0. -1.
         11   -1    0    0    0    0 -0.00000000000E+00 -0.00000000000E+00 -0.45593999997E+02  0.45594000000E+02  0.51100000000E-03 0.  1.
         23    2    1    2    0    0  0.17763568394E-14  0.00000000000E+00  0.00000000000E+00  0.91188000000E+02  0.91188000000E+02 0.  0.
    9900012    2    3    3    0    0 -0.93305450165E+01  0.41268324507E+02  0.96690231185E+01  0.47787266297E+02  0.19999978355E+02 0.  0.
        -12    1    3    3    0    0  0.93305450165E+01 -0.41268324507E+02 -0.96690231185E+01  0.43400733703E+02  0.00000000000E+00 0.  1.
         11    1    4    4    0    0 -0.23306985492E+01  0.11109987046E+02 -0.92880840982E+00  0.11389760894E+02  0.51100000000E-03 0. -1.
        -11    1    4    4    0    0 -0.57486520785E+00 -0.13907480862E+01 -0.13831114479E+01  0.20439294961E+01  0.51100000000E-03 0.  1.
         12    1    4    4    0    0 -0.64249812595E+01  0.31549085547E+02  0.11980942976E+02  0.34353575907E+02  0.00000000000E+00 0. -1.
</event>
<event>
 8    1  0.3776180E-010  0.9118800E+02  0.7816164E-02  0.1184000E+00
        -11   -1    0    0    0    0  0.00000000000E+00  0.00000000000E+00  0.45593999997E+02  0.45594000000E+02  0.51100000000E-03 0. -1.
         11   -1    0    0    0    0 -0.00000000000E+00 -0.00000000000E+00 -0.45593999997E+02  0.45594000000E+02  0.51100000000E-03 0.  1.
         23    2    1    2    0    0  0.00000000000E+00  0.00000000000E+00  0.00000000000E+00  0.91188000000E+02  0.91188000000E+02 0.  0.
    9900012    2    3    3    0    0 -0.47456353588E+01 -0.33576187316E+02  0.27087678800E+02  0.47787265531E+02  0.19999974864E+02 0.  0.
        -12    1    3    3    0    0  0.47456353588E+01  0.33576187316E+02 -0.27087678800E+02  0.43400734469E+02  0.00000000000E+00 0.  1.
         11    1    4    4    0    0  0.29998414382E+01  0.20011389180E+00  0.51711896461E+01  0.59816633841E+01  0.51100000000E-03 0. -1.
        -11    1    4    4    0    0 -0.30973797908E+01 -0.39966043682E+01  0.10973896501E+01  0.51740576291E+01  0.51100000000E-03 0.  1.
         12    1    4    4    0    0 -0.46480970062E+01 -0.29779696840E+02  0.20819099503E+02  0.36631544518E+02  0.00000000000E+00 0. -1.
</event>
<event>
 8    1  0.3776180E-010  0.9118800E+02  0.7816164E-02  0.1184000E+00
        -11   -1    0    0    0    0  0.00000000000E+00  0.00000000000E+00  0.45593999997E+02  0.45594000000E+02  0.51100000000E-03 0. -1.
         11   -1    0    0    0    0 -0.00000000000E+00 -0.00000000000E+00 -0.45593999997E+02  0.45594000000E+02  0.51100000000E-03 0.  1.
         23    2    1    2    0    0  0.00000000000E+00  0.00000000000E+00  0.00000000000E+00  0.91188000000E+02  0.91188000000E+02 0.  0.
    9900012    2    3    3    0    0  0.21562306770E+02  0.95245655314E+01 -0.36441358485E+02  0.47787273853E+02  0.20000012806E+02 0.  0.
         12    1    3    3    0    0 -0.21562306770E+02 -0.95245655314E+01  0.36441358485E+02  0.43400726147E+02  0.00000000000E+00 0. -1.
         11    1    4    4    0    0  0.84898950792E+01  0.39323761989E+01 -0.39185558365E+01  0.10143814920E+02  0.51100000000E-03 0. -1.
        -11    1    4    4    0    0  0.78254467045E+01  0.10585226488E-01 -0.55236288267E+01  0.95785282715E+01  0.51100000000E-03 0.  1.
         12    1    4    4    0    0  0.52469649862E+01  0.55816041061E+01 -0.26999173822E+02  0.28064930662E+02  0.00000000000E+00 0. -1.
</event>
<event>
 8    1  0.3776180E-010  0.9118800E+02  0.7816164E-02  0.1184000E+00
        -11   -1    0    0    0    0  0.00000000000E+00  0.00000000000E+00  0.45593999997E+02  0.45594000000E+02  0.51100000000E-03 0.  1.
         11   -1    0    0    0    0 -0.00000000000E+00 -0.00000000000E+00 -0.45593999997E+02  0.45594000000E+02  0.51100000000E-03 0. -1.
         23    2    1    2    0    0  0.00000000000E+00  0.00000000000E+00  0.17763568394E-14  0.91188000000E+02  0.91188000000E+02 0.  0.
    9900012    2    3    3    0    0  0.41215317073E+02 -0.48207319375E+01 -0.12715367282E+02  0.47787281308E+02  0.20000046797E+02 0.  0.
         12    1    3    3    0    0 -0.41215317073E+02  0.48207319375E+01  0.12715367282E+02  0.43400718692E+02  0.00000000000E+00 0. -1.
         11    1    4    4    0    0  0.11354122366E+02 -0.46624817987E+01 -0.37322127546E+01  0.12829039073E+02  0.51100000000E-03 0. -1.
        -11    1    4    4    0    0  0.18224568253E+02 -0.63464337296E+01 -0.53902128695E+00  0.19305508367E+02  0.51100000000E-03 0.  1.
         12    1    4    4    0    0  0.11636626454E+02  0.61881835908E+01 -0.84441332407E+01  0.15652733869E+02  0.00000000000E+00 0. -1.
</event>
<event>
 8    1  0.3776180E-010  0.9118800E+02  0.7816164E-02  0.1184000E+00
        -11   -1    0    0    0    0  0.00000000000E+00  0.00000000000E+00  0.45593999997E+02  0.45594000000E+02  0.51100000000E-03 0.  1.
         11   -1    0    0    0    0 -0.00000000000E+00 -0.00000000000E+00 -0.45593999997E+02  0.45594000000E+02  0.51100000000E-03 0. -1.
         23    2    1    2    0    0  0.00000000000E+00  0.44408920985E-15 -0.17763568394E-14  0.91188000000E+02  0.91188000000E+02 0.  0.
    9900012    2    3    3    0    0 -0.41627597071E+02 -0.24454409662E+01 -0.12032722728E+02  0.47787269181E+02  0.19999991503E+02 0.  0.
         12    1    3    3    0    0  0.41627597071E+02  0.24454409662E+01  0.12032722728E+02  0.43400730819E+02  0.00000000000E+00 0. -1.
         11    1    4    4    0    0 -0.34274897039E+01  0.35263524999E+01  0.14520471444E+01  0.51275031735E+01  0.51100000000E-03 0. -1.
        -11    1    4    4    0    0 -0.37701580678E+01  0.10102598882E+01  0.18603468960E+01  0.43238417793E+01  0.51100000000E-03 0.  1.
        -12    1    4    4    0    0 -0.34429949299E+02 -0.69820533544E+01 -0.15345116768E+02  0.38335924228E+02  0.00000000000E+00 0.  1.
</event>
<event>
 8    1  0.3776180E-010  0.9118800E+02  0.7816164E-02  0.1184000E+00
        -11   -1    0    0    0    0  0.00000000000E+00  0.00000000000E+00  0.45593999997E+02  0.45594000000E+02  0.51100000000E-03 0. -1.
         11   -1    0    0    0    0 -0.00000000000E+00 -0.00000000000E+00 -0.45593999997E+02  0.45594000000E+02  0.51100000000E-03 0.  1.
         23    2    1    2    0    0  0.35527136788E-14  0.00000000000E+00  0.00000000000E+00  0.91188000000E+02  0.91188000000E+02 0.  0.
    9900012    2    3    3    0    0 -0.11874602513E+02 -0.16456056549E+02 -0.38364245946E+02  0.47787270179E+02  0.19999996055E+02 0.  0.
         12    1    3    3    0    0  0.11874602513E+02  0.16456056549E+02  0.38364245946E+02  0.43400729821E+02  0.00000000000E+00 0. -1.
         11    1    4    4    0    0  0.27138694085E+01 -0.45593741785E+01 -0.10678698437E+02  0.11924243399E+02  0.51100000000E-03 0. -1.
        -11    1    4    4    0    0  0.18419304163E+01  0.11057897583E+00 -0.51374294108E+00  0.19154287872E+01  0.51100000000E-03 0.  1.
         12    1    4    4    0    0 -0.16430402338E+02 -0.12007261347E+02 -0.27171804567E+02  0.33947597993E+02  0.00000000000E+00 0. -1.
</event>
<event>
 8    1  0.3776180E-010  0.9118800E+02  0.7816164E-02  0.1184000E+00
        -11   -1    0    0    0    0  0.00000000000E+00  0.00000000000E+00  0.45593999997E+02  0.45594000000E+02  0.51100000000E-03 0. -1.
         11   -1    0    0    0    0 -0.00000000000E+00 -0.00000000000E+00 -0.45593999997E+02  0.45594000000E+02  0.51100000000E-03 0.  1.
         23    2    1    2    0    0  0.17763568394E-14 -0.22204460493E-15  0.00000000000E+00  0.91188000000E+02  0.91188000000E+02 0.  0.
    9900012    2    3    3    0    0 -0.12313389441E+02 -0.90389948075E+00  0.41607532114E+02  0.47787270485E+02  0.19999997450E+02 0.  0.
        -12    1    3    3    0    0  0.12313389441E+02  0.90389948075E+00 -0.41607532114E+02  0.43400729515E+02  0.00000000000E+00 0.  1.
         11    1    4    4    0    0 -0.30393503886E+01  0.34087340441E+01  0.28105947011E+01  0.53625144665E+01  0.51100000000E-03 0. -1.
        -11    1    4    4    0    0  0.12439169307E+01 -0.29715059188E+01  0.13278411270E+01  0.34842989361E+01  0.51100000000E-03 0.  1.
         12    1    4    4    0    0 -0.10517955983E+02 -0.13411276061E+01  0.37469096286E+02  0.38940457083E+02  0.00000000000E+00 0. -1.
</event>
<event>
 8    1  0.3776180E-010  0.9118800E+02  0.7816164E-02  0.1184000E+00
        -11   -1    0    0    0    0  0.00000000000E+00  0.00000000000E+00  0.45593999997E+02  0.45594000000E+02  0.51100000000E-03 0.  1.
         11   -1    0    0    0    0 -0.00000000000E+00 -0.00000000000E+00 -0.45593999997E+02  0.45594000000E+02  0.51100000000E-03 0. -1.
         23    2    1    2    0    0  0.00000000000E+00  0.00000000000E+00 -0.17763568394E-14  0.91188000000E+02  0.91188000000E+02 0.  0.
    9900012    2    3    3    0    0 -0.21008121579E+02 -0.35507034066E+02  0.13473400679E+02  0.47787272284E+02  0.20000005651E+02 0.  0.
        -12    1    3    3    0    0  0.21008121579E+02  0.35507034066E+02 -0.13473400679E+02  0.43400727716E+02  0.00000000000E+00 0.  1.
         11    1    4    4    0    0 -0.42794092611E+01 -0.16741909500E+02  0.57150620655E+01  0.18200736579E+02  0.51100000000E-03 0. -1.
        -11    1    4    4    0    0 -0.16202010903E+01 -0.11701801846E+02  0.22773430548E+01  0.12030939683E+02  0.51100000000E-03 0.  1.
         12    1    4    4    0    0 -0.15108511228E+02 -0.70633227194E+01  0.54809955590E+01  0.17555596022E+02  0.00000000000E+00 0. -1.
</event>
<event>
 8    1  0.3776180E-010  0.9118800E+02  0.7816164E-02  0.1184000E+00
        -11   -1    0    0    0    0  0.00000000000E+00  0.00000000000E+00  0.45593999997E+02  0.45594000000E+02  0.51100000000E-03 0. -1.
         11   -1    0    0    0    0 -0.00000000000E+00 -0.00000000000E+00 -0.45593999997E+02  0.45594000000E+02  0.51100000000E-03 0.  1.
         23    2    1    2    0    0 -0.35527136788E-14  0.00000000000E+00  0.22204460493E-15  0.91188000000E+02  0.91188000000E+02 0.  0.
    9900012    2    3    3    0    0  0.25562690558E+02 -0.35055241878E+02 -0.11411221129E+01  0.47787270843E+02  0.19999999083E+02 0.  0.
         12    1    3    3    0    0 -0.25562690558E+02  0.35055241878E+02  0.11411221129E+01  0.43400729157E+02  0.00000000000E+00 0. -1.
         11    1    4    4    0    0  0.58942694172E+01 -0.36418206833E+01 -0.36818502164E+01  0.78461003772E+01  0.51100000000E-03 0. -1.
        -11    1    4    4    0    0  0.65755774205E+01 -0.15407156690E+01  0.28332687034E+01  0.73238947967E+01  0.51100000000E-03 0.  1.
        -12    1    4    4    0    0  0.13092843720E+02 -0.29872705526E+02 -0.29254059986E+00  0.32617275669E+02  0.00000000000E+00 0.  1.
</event>
<event>
 8    1  0.3776180E-010  0.9118800E+02  0.7816164E-02  0.1184000E+00
        -11   -1    0    0    0    0  0.00000000000E+00  0.00000000000E+00  0.45593999997E+02  0.45594000000E+02  0.51100000000E-03 0. -1.
         11   -1    0    0    0    0 -0.00000000000E+00 -0.00000000000E+00 -0.45593999997E+02  0.45594000000E+02  0.51100000000E-03 0.  1.
         23    2    1    2    0    0  0.35527136788E-14  0.17763568394E-14  0.00000000000E+00  0.91188000000E+02  0.91188000000E+02 0.  0.
    9900012    2    3    3    0    0  0.30189855276E+02  0.11090226327E+02 -0.29141084528E+02  0.47787270870E+02  0.19999999205E+02 0.  0.
         12    1    3    3    0    0 -0.30189855276E+02 -0.11090226327E+02  0.29141084528E+02  0.43400729130E+02  0.00000000000E+00 0. -1.
         11    1    4    4    0    0 -0.15549633476E+01  0.99902697861E+00 -0.79756880422E+00  0.20129784338E+01  0.51100000000E-03 0. -1.
        -11    1    4    4    0    0  0.33030746330E+01 -0.30261667311E+01 -0.22752560429E+01  0.50244181193E+01  0.51100000000E-03 0.  1.
        -12    1    4    4    0    0  0.28441743990E+02  0.13117366079E+02 -0.26068259681E+02  0.40749874317E+02  0.00000000000E+00 0.  1.
</event>
<event>
 8    1  0.3776180E-010  0.9118800E+02  0.7816164E-02  0.1184000E+00
        -11   -1    0    0    0    0  0.00000000000E+00  0.00000000000E+00  0.45593999997E+02  0.45594000000E+02  0.51100000000E-03 0. -1.
         11   -1    0    0    0    0 -0.00000000000E+00 -0.00000000000E+00 -0.45593999997E+02  0.45594000000E+02  0.51100000000E-03 0.  1.
         23    2    1    2    0    0  0.00000000000E+00  0.00000000000E+00  0.00000000000E+00  0.91188000000E+02  0.91188000000E+02 0.  0.
    9900012    2    3    3    0    0  0.64959840355E+01  0.86109806260E+01 -0.42038986389E+02  0.47787272212E+02  0.20000005322E+02 0.  0.
         12    1    3    3    0    0 -0.64959840355E+01 -0.86109806260E+01  0.42038986389E+02  0.43400727788E+02  0.00000000000E+00 0. -1.
         11    1    4    4    0    0 -0.37299228456E+00 -0.27541137083E+01 -0.64679715407E+00  0.28535263066E+01  0.51100000000E-03 0. -1.
        -11    1    4    4    0    0  0.61851399588E+01  0.55560132465E+01 -0.10016550024E+02  0.13017546395E+02  0.51100000000E-03 0.  1.
        -12    1    4    4    0    0  0.68383636125E+00  0.58090810878E+01 -0.31375639211E+02  0.31916199510E+02  0.00000000000E+00 0.  1.
</event>
<event>
 8    1  0.3776180E-010  0.9118800E+02  0.7816164E-02  0.1184000E+00
        -11   -1    0    0    0    0  0.00000000000E+00  0.00000000000E+00  0.45593999997E+02  0.45594000000E+02  0.51100000000E-03 0. -1.
         11   -1    0    0    0    0 -0.00000000000E+00 -0.00000000000E+00 -0.45593999997E+02  0.45594000000E+02  0.51100000000E-03 0.  1.
         23    2    1    2    0    0 -0.17763568394E-14  0.00000000000E+00  0.00000000000E+00  0.91188000000E+02  0.91188000000E+02 0.  0.
    9900012    2    3    3    0    0  0.11880465748E+02 -0.16154031027E+02 -0.38490586088E+02  0.47787269566E+02  0.19999993260E+02 0.  0.
         12    1    3    3    0    0 -0.11880465748E+02  0.16154031027E+02  0.38490586088E+02  0.43400730434E+02  0.00000000000E+00 0. -1.
         11    1    4    4    0    0  0.43676575139E+00 -0.10965606860E+02 -0.15224533635E+02  0.18767571041E+02  0.51100000000E-03 0. -1.
        -11    1    4    4    0    0 -0.16017863583E+01  0.54677690651E+00 -0.78322656718E+01  0.80130562420E+01  0.51100000000E-03 0.  1.
        -12    1    4    4    0    0  0.13045486355E+02 -0.57352010740E+01 -0.15433786781E+02  0.21006642283E+02  0.00000000000E+00 0.  1.
</event>
<event>
 8    1  0.3776180E-010  0.9118800E+02  0.7816164E-02  0.1184000E+00
        -11   -1    0    0    0    0  0.00000000000E+00  0.00000000000E+00  0.45593999997E+02  0.45594000000E+02  0.51100000000E-03 0. -1.
         11   -1    0    0    0    0 -0.00000000000E+00 -0.00000000000E+00 -0.45593999997E+02  0.45594000000E+02  0.51100000000E-03 0.  1.
         23    2    1    2    0    0  0.00000000000E+00  0.35527136788E-14  0.00000000000E+00  0.91188000000E+02  0.91188000000E+02 0.  0.
    9900012    2    3    3    0    0  0.22720837730E+02 -0.29260193650E+02 -0.22610360437E+02  0.47787264999E+02  0.19999972435E+02 0.  0.
         12    1    3    3    0    0 -0.22720837730E+02  0.29260193650E+02  0.22610360437E+02  0.43400735001E+02  0.00000000000E+00 0. -1.
         11    1    4    4    0    0  0.56391149260E+01 -0.92773710916E+01  0.22943496111E+00  0.10859183771E+02  0.51100000000E-03 0. -1.
        -11    1    4    4    0    0  0.72913810560E+00  0.16905696075E+01 -0.10846050653E+01  0.21368285808E+01  0.51100000000E-03 0.  1.
        -12    1    4    4    0    0  0.16352584698E+02 -0.21673392166E+02 -0.21755190333E+02  0.34791252646E+02  0.00000000000E+00 0.  1.
</event>
<event>
 8    1  0.3776180E-010  0.9118800E+02  0.7816164E-02  0.1184000E+00
        -11   -1    0    0    0    0  0.00000000000E+00  0.00000000000E+00  0.45593999997E+02  0.45594000000E+02  0.51100000000E-03 0. -1.
         11   -1    0    0    0    0 -0.00000000000E+00 -0.00000000000E+00 -0.45593999997E+02  0.45594000000E+02  0.51100000000E-03 0.  1.
         23    2    1    2    0    0  0.55511151231E-16  0.00000000000E+00  0.00000000000E+00  0.91188000000E+02  0.91188000000E+02 0.  0.
    9900012    2    3    3    0    0  0.40968094933E+00 -0.67247949611E+01 -0.42874618591E+02  0.47787266998E+02  0.19999981552E+02 0.  0.
         12    1    3    3    0    0 -0.40968094933E+00  0.67247949611E+01  0.42874618591E+02  0.43400733002E+02  0.00000000000E+00 0. -1.
         11    1    4    4    0    0 -0.11740636723E+01  0.45128128701E+01 -0.30381964797E+01  0.55654778427E+01  0.51100000000E-03 0. -1.
        -11    1    4    4    0    0 -0.71731385008E+00 -0.31643375091E+00 -0.14676927914E+02  0.14697852997E+02  0.51100000000E-03 0.  1.
         12    1    4    4    0    0  0.23010584717E+01 -0.10921174080E+02 -0.25159494197E+02  0.27523936158E+02  0.00000000000E+00 0. -1.
</event>
<event>
 8    1  0.3776180E-010  0.9118800E+02  0.7816164E-02  0.1184000E+00
        -11   -1    0    0    0    0  0.00000000000E+00  0.00000000000E+00  0.45593999997E+02  0.45594000000E+02  0.51100000000E-03 0. -1.
         11   -1    0    0    0    0 -0.00000000000E+00 -0.00000000000E+00 -0.45593999997E+02  0.45594000000E+02  0.51100000000E-03 0.  1.
         23    2    1    2    0    0  0.00000000000E+00  0.00000000000E+00 -0.71054273576E-14  0.91188000000E+02  0.91188000000E+02 0.  0.
    9900012    2    3    3    0    0 -0.15965548549E+02  0.91865064994E+01 -0.39297998896E+02  0.47787270059E+02  0.19999995509E+02 0.  0.
         12    1    3    3    0    0  0.15965548549E+02 -0.91865064994E+01  0.39297998896E+02  0.43400729941E+02  0.00000000000E+00 0. -1.
         11    1    4    4    0    0 -0.12828607478E+02  0.31223082953E-01 -0.21296696565E+02  0.24862088197E+02  0.51100000000E-03 0. -1.
        -11    1    4    4    0    0  0.13588261068E+01 -0.20267136983E+00 -0.92368582883E+01  0.93384707191E+01  0.51100000000E-03 0.  1.
        -12    1    4    4    0    0 -0.44957671776E+01  0.93579547863E+01 -0.87644440431E+01  0.13586711143E+02  0.00000000000E+00 0.  1.
</event>
<event>
 8    1  0.3776180E-010  0.9118800E+02  0.7816164E-02  0.1184000E+00
        -11   -1    0    0    0    0  0.00000000000E+00  0.00000000000E+00  0.45593999997E+02  0.45594000000E+02  0.51100000000E-03 0. -1.
         11   -1    0    0    0    0 -0.00000000000E+00 -0.00000000000E+00 -0.45593999997E+02  0.45594000000E+02  0.51100000000E-03 0.  1.
         23    2    1    2    0    0  0.35527136788E-14  0.35527136788E-14  0.00000000000E+00  0.91188000000E+02  0.91188000000E+02 0.  0.
    9900012    2    3    3    0    0  0.28964120052E+02  0.29222068992E+02 -0.13812086289E+02  0.47787270810E+02  0.19999998931E+02 0.  0.
         12    1    3    3    0    0 -0.28964120052E+02 -0.29222068992E+02  0.13812086289E+02  0.43400729190E+02  0.00000000000E+00 0. -1.
         11    1    4    4    0    0  0.63879484553E+01  0.23431318384E+01 -0.17938303122E+01  0.70366170657E+01  0.51100000000E-03 0. -1.
        -11    1    4    4    0    0  0.19482800280E+02  0.28125112690E+02 -0.13890336331E+02  0.36926181961E+02  0.51100000000E-03 0.  1.
        -12    1    4    4    0    0  0.30933713168E+01 -0.12461755364E+01  0.18720803539E+01  0.38244717834E+01  0.00000000000E+00 0.  1.
</event>
<event>
 8    1  0.3776180E-010  0.9118800E+02  0.7816164E-02  0.1184000E+00
        -11   -1    0    0    0    0  0.00000000000E+00  0.00000000000E+00  0.45593999997E+02  0.45594000000E+02  0.51100000000E-03 0.  1.
         11   -1    0    0    0    0 -0.00000000000E+00 -0.00000000000E+00 -0.45593999997E+02  0.45594000000E+02  0.51100000000E-03 0. -1.
         23    2    1    2    0    0  0.00000000000E+00 -0.88817841970E-15  0.00000000000E+00  0.91188000000E+02  0.91188000000E+02 0.  0.
    9900012    2    3    3    0    0 -0.41162463909E+02  0.57329250133E+01  0.12506331358E+02  0.47787272030E+02  0.20000004494E+02 0.  0.
        -12    1    3    3    0    0  0.41162463909E+02 -0.57329250133E+01 -0.12506331358E+02  0.43400727970E+02  0.00000000000E+00 0.  1.
         11    1    4    4    0    0 -0.34384356363E+02  0.70426912033E+00  0.55061874282E+01  0.34829557243E+02  0.51100000000E-03 0. -1.
        -11    1    4    4    0    0 -0.23281947195E+01 -0.16280502238E+01  0.24283599488E+01  0.37373748119E+01  0.51100000000E-03 0.  1.
         12    1    4    4    0    0 -0.44499128267E+01  0.66567061168E+01  0.45717839807E+01  0.92203399751E+01  0.00000000000E+00 0. -1.
</event>
<event>
 8    1  0.3776180E-010  0.9118800E+02  0.7816164E-02  0.1184000E+00
        -11   -1    0    0    0    0  0.00000000000E+00  0.00000000000E+00  0.45593999997E+02  0.45594000000E+02  0.51100000000E-03 0. -1.
         11   -1    0    0    0    0 -0.00000000000E+00 -0.00000000000E+00 -0.45593999997E+02  0.45594000000E+02  0.51100000000E-03 0.  1.
         23    2    1    2    0    0  0.00000000000E+00  0.77715611724E-15  0.00000000000E+00  0.91188000000E+02  0.91188000000E+02 0.  0.
    9900012    2    3    3    0    0 -0.39688309235E+02  0.89024469989E+00  0.17540491957E+02  0.47787270932E+02  0.19999999487E+02 0.  0.
        -12    1    3    3    0    0  0.39688309235E+02 -0.89024469989E+00 -0.17540491957E+02  0.43400729068E+02  0.00000000000E+00 0.  1.
         11    1    4    4    0    0 -0.40402051801E+01 -0.29912098230E+01  0.72855483105E+01  0.88515427214E+01  0.51100000000E-03 0. -1.
        -11    1    4    4    0    0 -0.15390100936E+02 -0.34235091507E+01  0.20865392951E+01  0.15903750131E+02  0.51100000000E-03 0.  1.
         12    1    4    4    0    0 -0.20258003119E+02  0.73049636737E+01  0.81684043511E+01  0.23031978080E+02  0.00000000000E+00 0. -1.
</event>
<event>
 8    1  0.3776180E-010  0.9118800E+02  0.7816164E-02  0.1184000E+00
        -11   -1    0    0    0    0  0.00000000000E+00  0.00000000000E+00  0.45593999997E+02  0.45594000000E+02  0.51100000000E-03 0. -1.
         11   -1    0    0    0    0 -0.00000000000E+00 -0.00000000000E+00 -0.45593999997E+02  0.45594000000E+02  0.51100000000E-03 0.  1.
         23    2    1    2    0    0  0.00000000000E+00  0.35527136788E-14  0.00000000000E+00  0.91188000000E+02  0.91188000000E+02 0.  0.
    9900012    2    3    3    0    0  0.87809858331E+01  0.30938249118E+02 -0.29143479222E+02  0.47787270146E+02  0.19999995905E+02 0.  0.
         12    1    3    3    0    0 -0.87809858331E+01 -0.30938249118E+02  0.29143479222E+02  0.43400729854E+02  0.00000000000E+00 0. -1.
         11    1    4    4    0    0  0.81451534053E+01  0.10256064619E+02 -0.11354118687E+02  0.17333389654E+02  0.51100000000E-03 0. -1.
        -11    1    4    4    0    0  0.35259134809E+01  0.10952563962E+02 -0.19925490203E+01  0.11677370212E+02  0.51100000000E-03 0.  1.
        -12    1    4    4    0    0 -0.28900810531E+01  0.97296205377E+01 -0.15796811514E+02  0.18776510281E+02  0.00000000000E+00 0.  1.
</event>
<event>
 8    1  0.3776180E-010  0.9118800E+02  0.7816164E-02  0.1184000E+00
        -11   -1    0    0    0    0  0.00000000000E+00  0.00000000000E+00  0.45593999997E+02  0.45594000000E+02  0.51100000000E-03 0. -1.
         11   -1    0    0    0    0 -0.00000000000E+00 -0.00000000000E+00 -0.45593999997E+02  0.45594000000E+02  0.51100000000E-03 0.  1.
         23    2    1    2    0    0  0.35527136788E-14  0.35527136788E-14 -0.17763568394E-14  0.91188000000E+02  0.91188000000E+02 0.  0.
    9900012    2    3    3    0    0  0.27050289405E+02  0.31711216977E+02 -0.12095614397E+02  0.47787270436E+02  0.19999997225E+02 0.  0.
         12    1    3    3    0    0 -0.27050289405E+02 -0.31711216977E+02  0.12095614397E+02  0.43400729564E+02  0.00000000000E+00 0. -1.
         11    1    4    4    0    0  0.13779774639E+01 -0.67334675780E+00  0.13349983227E+01  0.20333318790E+01  0.51100000000E-03 0. -1.
        -11    1    4    4    0    0  0.92581158014E+01  0.43975292777E+01  0.89150857732E+00  0.10288136845E+02  0.51100000000E-03 0.  1.
        -12    1    4    4    0    0  0.16414196140E+02  0.27987034457E+02 -0.14322121297E+02  0.35465801712E+02  0.00000000000E+00 0.  1.
</event>
<event>
 8    1  0.3776180E-010  0.9118800E+02  0.7816164E-02  0.1184000E+00
        -11   -1    0    0    0    0  0.00000000000E+00  0.00000000000E+00  0.45593999997E+02  0.45594000000E+02  0.51100000000E-03 0. -1.
         11   -1    0    0    0    0 -0.00000000000E+00 -0.00000000000E+00 -0.45593999997E+02  0.45594000000E+02  0.51100000000E-03 0.  1.
         23    2    1    2    0    0 -0.17763568394E-14  0.35527136788E-14  0.00000000000E+00  0.91188000000E+02  0.91188000000E+02 0.  0.
    9900012    2    3    3    0    0  0.15093345583E+02  0.29692862840E+02  0.27823532252E+02  0.47787261164E+02  0.19999954952E+02 0.  0.
        -12    1    3    3    0    0 -0.15093345583E+02 -0.29692862840E+02 -0.27823532252E+02  0.43400738836E+02  0.00000000000E+00 0.  1.
         11    1    4    4    0    0  0.17277776784E+02  0.22519862405E+02  0.15423037833E+02  0.32303805807E+02  0.51100000000E-03 0. -1.
        -11    1    4    4    0    0  0.95051160085E-01 -0.79791324137E+00  0.21794215799E+01  0.23228385540E+01  0.51100000000E-03 0.  1.
         12    1    4    4    0    0 -0.22794823607E+01  0.79709136765E+01  0.10221072839E+02  0.13160616803E+02  0.00000000000E+00 0. -1.
</event>
<event>
 8    1  0.3776180E-010  0.9118800E+02  0.7816164E-02  0.1184000E+00
        -11   -1    0    0    0    0  0.00000000000E+00  0.00000000000E+00  0.45593999997E+02  0.45594000000E+02  0.51100000000E-03 0. -1.
         11   -1    0    0    0    0 -0.00000000000E+00 -0.00000000000E+00 -0.45593999997E+02  0.45594000000E+02  0.51100000000E-03 0.  1.
         23    2    1    2    0    0 -0.35527136788E-14  0.00000000000E+00  0.00000000000E+00  0.91188000000E+02  0.91188000000E+02 0.  0.
    9900012    2    3    3    0    0 -0.26918794820E+02 -0.20118572826E+02 -0.27463518801E+02  0.47787270144E+02  0.19999995895E+02 0.  0.
         12    1    3    3    0    0  0.26918794820E+02  0.20118572826E+02  0.27463518801E+02  0.43400729856E+02  0.00000000000E+00 0. -1.
         11    1    4    4    0    0 -0.20851954611E+01 -0.73816841233E+00 -0.23393906160E+00  0.22243337118E+01  0.51100000000E-03 0. -1.
        -11    1    4    4    0    0 -0.24235904496E+02 -0.14387927593E+02 -0.14123878872E+02  0.31525790741E+02  0.51100000000E-03 0.  1.
         12    1    4    4    0    0 -0.59769486305E+00 -0.49924768200E+01 -0.13105700867E+02  0.14037145692E+02  0.00000000000E+00 0. -1.
</event>
<event>
 8    1  0.3776180E-010  0.9118800E+02  0.7816164E-02  0.1184000E+00
        -11   -1    0    0    0    0  0.00000000000E+00  0.00000000000E+00  0.45593999997E+02  0.45594000000E+02  0.51100000000E-03 0. -1.
         11   -1    0    0    0    0 -0.00000000000E+00 -0.00000000000E+00 -0.45593999997E+02  0.45594000000E+02  0.51100000000E-03 0.  1.
         23    2    1    2    0    0  0.00000000000E+00 -0.71054273576E-14  0.00000000000E+00  0.91188000000E+02  0.91188000000E+02 0.  0.
    9900012    2    3    3    0    0  0.81757264182E+01 -0.36754529182E+02 -0.21584270865E+02  0.47787324123E+02  0.20000242004E+02 0.  0.
        -12    1    3    3    0    0 -0.81757264182E+01  0.36754529182E+02  0.21584270865E+02  0.43400675877E+02  0.00000000000E+00 0.  1.
         11    1    4    4    0    0  0.51123904104E+01 -0.15811820234E+02 -0.15957444109E+02  0.23038884903E+02  0.51100000000E-03 0. -1.
        -11    1    4    4    0    0  0.14429705250E+01 -0.52028339312E+00 -0.38980832364E+01  0.41890227886E+01  0.51100000000E-03 0.  1.
         12    1    4    4    0    0  0.16203654828E+01 -0.20422425554E+02 -0.17287435194E+01  0.20559416431E+02  0.00000000000E+00 0. -1.
</event>
<event>
 8    1  0.3776180E-010  0.9118800E+02  0.7816164E-02  0.1184000E+00
        -11   -1    0    0    0    0  0.00000000000E+00  0.00000000000E+00  0.45593999997E+02  0.45594000000E+02  0.51100000000E-03 0. -1.
         11   -1    0    0    0    0 -0.00000000000E+00 -0.00000000000E+00 -0.45593999997E+02  0.45594000000E+02  0.51100000000E-03 0.  1.
         23    2    1    2    0    0  0.44408920985E-15 -0.71054273576E-14  0.00000000000E+00  0.91188000000E+02  0.91188000000E+02 0.  0.
    9900012    2    3    3    0    0 -0.26695477995E+01 -0.28999800863E+02 -0.32179313086E+02  0.47787272745E+02  0.20000007754E+02 0.  0.
         12    1    3    3    0    0  0.26695477995E+01  0.28999800863E+02  0.32179313086E+02  0.43400727255E+02  0.00000000000E+00 0. -1.
         11    1    4    4    0    0 -0.66952780332E+01 -0.14504077562E+02 -0.19796989200E+02  0.25438470778E+02  0.51100000000E-03 0. -1.
        -11    1    4    4    0    0 -0.27828060433E+00 -0.13489895899E+02 -0.11734416583E+02  0.17881590093E+02  0.51100000000E-03 0.  1.
        -12    1    4    4    0    0  0.43040108380E+01 -0.10058274024E+01 -0.64790730312E+00  0.44672118743E+01  0.00000000000E+00 0.  1.
</event>
<event>
 8    1  0.5790241E-010  0.9118800E+02  0.7816164E-02  0.1184000E+00
        -11   -1    0    0    0    0  0.00000000000E+00  0.00000000000E+00  0.45593999997E+02  0.45594000000E+02  0.51100000000E-03 0. -1.
         11   -1    0    0    0    0 -0.00000000000E+00 -0.00000000000E+00 -0.45593999997E+02  0.45594000000E+02  0.51100000000E-03 0.  1.
         23    2    1    2    0    0  0.35527136788E-14  0.00000000000E+00  0.00000000000E+00  0.91188000000E+02  0.91188000000E+02 0.  0.
    9900012    2    3    3    0    0 -0.16571042791E+02  0.24420216549E+02  0.31822590738E+02  0.47787265942E+02  0.19999976735E+02 0.  0.
        -12    1    3    3    0    0  0.16571042791E+02 -0.24420216549E+02 -0.31822590738E+02  0.43400734058E+02  0.00000000000E+00 0.  1.
         11    1    4    4    0    0 -0.12362885958E+02  0.15450524508E+02  0.14226148883E+02  0.24370945183E+02  0.51100000000E-03 0. -1.
        -11    1    4    4    0    0 -0.82930822484E+01  0.52767691793E+01  0.98830775859E+01  0.13938964416E+02  0.51100000000E-03 0.  1.
        -12    1    4    4    0    0  0.40849254156E+01  0.36929228618E+01  0.77133642692E+01  0.94773563436E+01  0.00000000000E+00 0.  1.
</event>
<event>
 8    1  0.4619993E-010  0.9118800E+02  0.7816164E-02  0.1184000E+00
        -11   -1    0    0    0    0  0.00000000000E+00  0.00000000000E+00  0.45593999997E+02  0.45594000000E+02  0.51100000000E-03 0. -1.
         11   -1    0    0    0    0 -0.00000000000E+00 -0.00000000000E+00 -0.45593999997E+02  0.45594000000E+02  0.51100000000E-03 0.  1.
         23    2    1    2    0    0  0.22204460493E-15 -0.17763568394E-14  0.71054273576E-14  0.91188000000E+02  0.91188000000E+02 0.  0.
    9900012    2    3    3    0    0  0.50752323441E+00 -0.15276541382E+02  0.40620131082E+02  0.47787247177E+02  0.19999891179E+02 0.  0.
        -12    1    3    3    0    0 -0.50752323441E+00  0.15276541382E+02 -0.40620131082E+02  0.43400752823E+02  0.00000000000E+00 0.  1.
         11    1    4    4    0    0 -0.76983135822E+00 -0.14831291094E+01  0.12313785643E+02  0.12426649967E+02  0.51100000000E-03 0. -1.
        -11    1    4    4    0    0  0.84384761135E+01 -0.99388890573E+01  0.18208018089E+02  0.22394671639E+02  0.51100000000E-03 0.  1.
        -12    1    4    4    0    0 -0.71611215209E+01 -0.38545232153E+01  0.10098327350E+02  0.12965925571E+02  0.00000000000E+00 0.  1.
</event>
<event>
 8    1  0.3776180E-010  0.9118800E+02  0.7816164E-02  0.1184000E+00
        -11   -1    0    0    0    0  0.00000000000E+00  0.00000000000E+00  0.45593999997E+02  0.45594000000E+02  0.51100000000E-03 0. -1.
         11   -1    0    0    0    0 -0.00000000000E+00 -0.00000000000E+00 -0.45593999997E+02  0.45594000000E+02  0.51100000000E-03 0.  1.
         23    2    1    2    0    0  0.17763568394E-14  0.00000000000E+00  0.71054273576E-14  0.91188000000E+02  0.91188000000E+02 0.  0.
    9900012    2    3    3    0    0 -0.14909174809E+02  0.20600061922E+02  0.35170686421E+02  0.47787271573E+02  0.20000002408E+02 0.  0.
        -12    1    3    3    0    0  0.14909174809E+02 -0.20600061922E+02 -0.35170686421E+02  0.43400728427E+02  0.00000000000E+00 0.  1.
         11    1    4    4    0    0 -0.45738657336E+01  0.50272758440E+01  0.37995354013E+01  0.77865409321E+01  0.51100000000E-03 0. -1.
        -11    1    4    4    0    0 -0.13605149602E+02  0.16299705978E+02  0.24970908126E+02  0.32776924254E+02  0.51100000000E-03 0.  1.
         12    1    4    4    0    0  0.32698405265E+01 -0.72691989945E+00  0.64002428936E+01  0.72238063862E+01  0.00000000000E+00 0. -1.
</event>
<event>
 8    1  0.3776180E-010  0.9118800E+02  0.7816164E-02  0.1184000E+00
        -11   -1    0    0    0    0  0.00000000000E+00  0.00000000000E+00  0.45593999997E+02  0.45594000000E+02  0.51100000000E-03 0. -1.
         11   -1    0    0    0    0 -0.00000000000E+00 -0.00000000000E+00 -0.45593999997E+02  0.45594000000E+02  0.51100000000E-03 0.  1.
         23    2    1    2    0    0  0.88817841970E-15 -0.17763568394E-14  0.00000000000E+00  0.91188000000E+02  0.91188000000E+02 0.  0.
    9900012    2    3    3    0    0 -0.54903683801E+01  0.13530343606E+02 -0.40870635315E+02  0.47787272194E+02  0.20000005242E+02 0.  0.
         12    1    3    3    0    0  0.54903683801E+01 -0.13530343606E+02  0.40870635315E+02  0.43400727806E+02  0.00000000000E+00 0. -1.
         11    1    4    4    0    0 -0.44580737481E+01 -0.49608171571E+00 -0.10147599078E+02  0.11094786430E+02  0.51100000000E-03 0. -1.
        -11    1    4    4    0    0 -0.44235525341E+01  0.32807896050E+01 -0.21309571558E+02  0.22009753240E+02  0.51100000000E-03 0.  1.
         12    1    4    4    0    0  0.33912579021E+01  0.10745635717E+02 -0.94134646784E+01  0.14682732524E+02  0.00000000000E+00 0. -1.
</event>
<event>
 8    1  0.3776180E-010  0.9118800E+02  0.7816164E-02  0.1184000E+00
        -11   -1    0    0    0    0  0.00000000000E+00  0.00000000000E+00  0.45593999997E+02  0.45594000000E+02  0.51100000000E-03 0. -1.
         11   -1    0    0    0    0 -0.00000000000E+00 -0.00000000000E+00 -0.45593999997E+02  0.45594000000E+02  0.51100000000E-03 0.  1.
         23    2    1    2    0    0  0.17763568394E-14  0.00000000000E+00  0.00000000000E+00  0.91188000000E+02  0.91188000000E+02 0.  0.
    9900012    2    3    3    0    0 -0.12226098938E+02 -0.34062099448E+02 -0.23956613204E+02  0.47787269243E+02  0.19999991785E+02 0.  0.
         12    1    3    3    0    0  0.12226098938E+02  0.34062099448E+02  0.23956613204E+02  0.43400730757E+02  0.00000000000E+00 0. -1.
         11    1    4    4    0    0 -0.34632574437E+01 -0.18517670676E-01 -0.37415784034E+00  0.34834593978E+01  0.51100000000E-03 0. -1.
        -11    1    4    4    0    0 -0.64568401436E+01 -0.12197839749E+02 -0.28387254306E+01  0.14090296005E+02  0.51100000000E-03 0.  1.
         12    1    4    4    0    0 -0.23060013507E+01 -0.21845742028E+02 -0.20743729933E+02  0.30213513840E+02  0.00000000000E+00 0. -1.
</event>
<event>
 8    1  0.3776180E-010  0.9118800E+02  0.7816164E-02  0.1184000E+00
        -11   -1    0    0    0    0  0.00000000000E+00  0.00000000000E+00  0.45593999997E+02  0.45594000000E+02  0.51100000000E-03 0. -1.
         11   -1    0    0    0    0 -0.00000000000E+00 -0.00000000000E+00 -0.45593999997E+02  0.45594000000E+02  0.51100000000E-03 0.  1.
         23    2    1    2    0    0  0.00000000000E+00  0.71054273576E-14  0.00000000000E+00  0.91188000000E+02  0.91188000000E+02 0.  0.
    9900012    2    3    3    0    0  0.25171746813E+02  0.31218247750E+02 -0.16596018076E+02  0.47787266755E+02  0.19999980444E+02 0.  0.
         12    1    3    3    0    0 -0.25171746813E+02 -0.31218247750E+02  0.16596018076E+02  0.43400733245E+02  0.00000000000E+00 0. -1.
         11    1    4    4    0    0  0.94842912170E+01  0.33070966216E+01 -0.37250953528E+01  0.10712842928E+02  0.51100000000E-03 0.  1.
        -11    1    4    4    0    0  0.16585287290E+02  0.19508724197E+02 -0.62986471197E+01  0.26369206095E+02  0.51100000000E-03 0. -1.
         12    1    4    4    0    0 -0.89783169363E+00  0.84024269309E+01 -0.65722756038E+01  0.10705217732E+02  0.00000000000E+00 0. -1.
</event>
<event>
 8    1  0.3776180E-010  0.9118800E+02  0.7816164E-02  0.1184000E+00
        -11   -1    0    0    0    0  0.00000000000E+00  0.00000000000E+00  0.45593999997E+02  0.45594000000E+02  0.51100000000E-03 0. -1.
         11   -1    0    0    0    0 -0.00000000000E+00 -0.00000000000E+00 -0.45593999997E+02  0.45594000000E+02  0.51100000000E-03 0.  1.
         23    2    1    2    0    0  0.00000000000E+00  0.00000000000E+00 -0.71054273576E-14  0.91188000000E+02  0.91188000000E+02 0.  0.
    9900012    2    3    3    0    0 -0.22815742444E+02 -0.89217875909E+01  0.35825501376E+02  0.47787274823E+02  0.20000017227E+02 0.  0.
        -12    1    3    3    0    0  0.22815742444E+02  0.89217875909E+01 -0.35825501376E+02  0.43400725177E+02  0.00000000000E+00 0.  1.
         11    1    4    4    0    0 -0.10496861532E+02 -0.79722122403E+00  0.17439660031E+02  0.20370601512E+02  0.51100000000E-03 0. -1.
        -11    1    4    4    0    0 -0.12201030566E+02 -0.17717090365E+01  0.64962502094E+01  0.13935758567E+02  0.51100000000E-03 0.  1.
        -12    1    4    4    0    0 -0.11785034556E+00 -0.63528573304E+01  0.11889591135E+02  0.13480914744E+02  0.00000000000E+00 0.  1.
</event>
<event>
 8    1  0.3776180E-010  0.9118800E+02  0.7816164E-02  0.1184000E+00
        -11   -1    0    0    0    0  0.00000000000E+00  0.00000000000E+00  0.45593999997E+02  0.45594000000E+02  0.51100000000E-03 0. -1.
         11   -1    0    0    0    0 -0.00000000000E+00 -0.00000000000E+00 -0.45593999997E+02  0.45594000000E+02  0.51100000000E-03 0.  1.
         23    2    1    2    0    0  0.00000000000E+00  0.17763568394E-14  0.00000000000E+00  0.91188000000E+02  0.91188000000E+02 0.  0.
    9900012    2    3    3    0    0  0.37509866064E+01  0.15664216596E+02  0.40301186409E+02  0.47787271803E+02  0.20000003458E+02 0.  0.
        -12    1    3    3    0    0 -0.37509866064E+01 -0.15664216596E+02 -0.40301186409E+02  0.43400728197E+02  0.00000000000E+00 0.  1.
         11    1    4    4    0    0 -0.42418479753E+01  0.11578531438E+01  0.14465001772E+02  0.15118537451E+02  0.51100000000E-03 0. -1.
        -11    1    4    4    0    0  0.75039686284E+00 -0.96660714822E+00 -0.46247215360E+00  0.13081687906E+01  0.51100000000E-03 0.  1.
         12    1    4    4    0    0  0.72424377188E+01  0.15472970601E+02  0.26298656790E+02  0.31360565561E+02  0.00000000000E+00 0. -1.
</event>
<event>
 8    1  0.3776180E-010  0.9118800E+02  0.7816164E-02  0.1184000E+00
        -11   -1    0    0    0    0  0.00000000000E+00  0.00000000000E+00  0.45593999997E+02  0.45594000000E+02  0.51100000000E-03 0. -1.
         11   -1    0    0    0    0 -0.00000000000E+00 -0.00000000000E+00 -0.45593999997E+02  0.45594000000E+02  0.51100000000E-03 0.  1.
         23    2    1    2    0    0  0.00000000000E+00  0.00000000000E+00 -0.71054273576E-14  0.91188000000E+02  0.91188000000E+02 0.  0.
    9900012    2    3    3    0    0 -0.11062846917E+02  0.13685814431E+02 -0.39672852251E+02  0.47787270695E+02  0.19999998405E+02 0.  0.
         12    1    3    3    0    0  0.11062846917E+02 -0.13685814431E+02  0.39672852251E+02  0.43400729305E+02  0.00000000000E+00 0. -1.
         11    1    4    4    0    0 -0.54313935243E+01  0.54407409400E+01 -0.10314280269E+02  0.12864139121E+02  0.51100000000E-03 0. -1.
        -11    1    4    4    0    0 -0.26933931083E+01 -0.39993072595E+01 -0.15338547400E+02  0.16078552845E+02  0.51100000000E-03 0.  1.
        -12    1    4    4    0    0 -0.29380602844E+01  0.12244380750E+02 -0.14020024581E+02  0.18844578728E+02  0.00000000000E+00 0.  1.
</event>
<event>
 8    1  0.3776180E-010  0.9118800E+02  0.7816164E-02  0.1184000E+00
        -11   -1    0    0    0    0  0.00000000000E+00  0.00000000000E+00  0.45593999997E+02  0.45594000000E+02  0.51100000000E-03 0. -1.
         11   -1    0    0    0    0 -0.00000000000E+00 -0.00000000000E+00 -0.45593999997E+02  0.45594000000E+02  0.51100000000E-03 0.  1.
         23    2    1    2    0    0  0.88817841970E-15 -0.17763568394E-14  0.00000000000E+00  0.91188000000E+02  0.91188000000E+02 0.  0.
    9900012    2    3    3    0    0 -0.39869888693E+01  0.94380883877E+01 -0.42174041208E+02  0.47787270232E+02  0.19999996294E+02 0.  0.
         12    1    3    3    0    0  0.39869888693E+01 -0.94380883877E+01  0.42174041208E+02  0.43400729768E+02  0.00000000000E+00 0. -1.
         11    1    4    4    0    0  0.12581758762E+00  0.42837672324E+01 -0.51087238739E+01  0.66682495190E+01  0.51100000000E-03 0. -1.
        -11    1    4    4    0    0 -0.72973486594E+01 -0.21807211089E+01 -0.83085867548E+01  0.11271178117E+02  0.51100000000E-03 0.  1.
         12    1    4    4    0    0  0.31845422025E+01  0.73350422642E+01 -0.28756730579E+02  0.29847842596E+02  0.00000000000E+00 0. -1.
</event>
<event>
 8    1  0.3776180E-010  0.9118800E+02  0.7816164E-02  0.1184000E+00
        -11   -1    0    0    0    0  0.00000000000E+00  0.00000000000E+00  0.45593999997E+02  0.45594000000E+02  0.51100000000E-03 0. -1.
         11   -1    0    0    0    0 -0.00000000000E+00 -0.00000000000E+00 -0.45593999997E+02  0.45594000000E+02  0.51100000000E-03 0.  1.
         23    2    1    2    0    0 -0.13322676296E-14 -0.71054273576E-14  0.00000000000E+00  0.91188000000E+02  0.91188000000E+02 0.  0.
    9900012    2    3    3    0    0 -0.36199989057E+01 -0.42378366242E+02 -0.86367281608E+01  0.47787269698E+02  0.19999993862E+02 0.  0.
         12    1    3    3    0    0  0.36199989057E+01  0.42378366242E+02  0.86367281608E+01  0.43400730302E+02  0.00000000000E+00 0. -1.
         11    1    4    4    0    0 -0.32729456338E+01 -0.14976200426E+02  0.15579766015E+01  0.15408635360E+02  0.51100000000E-03 0. -1.
        -11    1    4    4    0    0 -0.22185229683E+01  0.87863753991E+00 -0.91299187501E+00  0.25548781795E+01  0.51100000000E-03 0.  1.
         12    1    4    4    0    0  0.18714696963E+01 -0.28280803356E+02 -0.92817128872E+01  0.29823756158E+02  0.00000000000E+00 0. -1.
</event>
<event>
 8    1  0.3776180E-010  0.9118800E+02  0.7816164E-02  0.1184000E+00
        -11   -1    0    0    0    0  0.00000000000E+00  0.00000000000E+00  0.45593999997E+02  0.45594000000E+02  0.51100000000E-03 0. -1.
         11   -1    0    0    0    0 -0.00000000000E+00 -0.00000000000E+00 -0.45593999997E+02  0.45594000000E+02  0.51100000000E-03 0.  1.
         23    2    1    2    0    0 -0.71054273576E-14  0.00000000000E+00 -0.35527136788E-14  0.91188000000E+02  0.91188000000E+02 0.  0.
    9900012    2    3    3    0    0 -0.26742438601E+02 -0.16691288253E+02 -0.29830629863E+02  0.47787267242E+02  0.19999982665E+02 0.  0.
         12    1    3    3    0    0  0.26742438601E+02  0.16691288253E+02  0.29830629863E+02  0.43400732758E+02  0.00000000000E+00 0. -1.
         11    1    4    4    0    0 -0.16756661117E+02 -0.15371126180E+02 -0.23165658666E+02  0.32460821824E+02  0.51100000000E-03 0. -1.
        -11    1    4    4    0    0 -0.69683989229E+01  0.50778830346E-01 -0.89188590835E+01  0.11318445549E+02  0.51100000000E-03 0.  1.
         12    1    4    4    0    0 -0.30173785616E+01 -0.13709409040E+01  0.22538878864E+01  0.40079998691E+01  0.00000000000E+00 0. -1.
</event>
<event>
 8    1  0.3776180E-010  0.9118800E+02  0.7816164E-02  0.1184000E+00
        -11   -1    0    0    0    0  0.00000000000E+00  0.00000000000E+00  0.45593999997E+02  0.45594000000E+02  0.51100000000E-03 0. -1.
         11   -1    0    0    0    0 -0.00000000000E+00 -0.00000000000E+00 -0.45593999997E+02  0.45594000000E+02  0.51100000000E-03 0.  1.
         23    2    1    2    0    0  0.00000000000E+00  0.00000000000E+00 -0.35527136788E-14  0.91188000000E+02  0.91188000000E+02 0.  0.
    9900012    2    3    3    0    0  0.33896525771E+02 -0.54358315150E+01 -0.26553731863E+02  0.47787269597E+02  0.19999993401E+02 0.  0.
         12    1    3    3    0    0 -0.33896525771E+02  0.54358315150E+01  0.26553731863E+02  0.43400730403E+02  0.00000000000E+00 0. -1.
         11    1    4    4    0    0 -0.33826556142E+00  0.13004633061E+01  0.10139230235E+01  0.16833503970E+01  0.51100000000E-03 0. -1.
        -11    1    4    4    0    0  0.60607212093E+01 -0.63468453669E+01 -0.63767919798E+01  0.10847961279E+02  0.51100000000E-03 0.  1.
         12    1    4    4    0    0  0.28174070124E+02 -0.38944945417E+00 -0.21190862907E+02  0.35255957921E+02  0.00000000000E+00 0. -1.
</event>
<event>
 8    1  0.3776180E-010  0.9118800E+02  0.7816164E-02  0.1184000E+00
        -11   -1    0    0    0    0  0.00000000000E+00  0.00000000000E+00  0.45593999997E+02  0.45594000000E+02  0.51100000000E-03 0. -1.
         11   -1    0    0    0    0 -0.00000000000E+00 -0.00000000000E+00 -0.45593999997E+02  0.45594000000E+02  0.51100000000E-03 0.  1.
         23    2    1    2    0    0 -0.88817841970E-15 -0.88817841970E-15  0.00000000000E+00  0.91188000000E+02  0.91188000000E+02 0.  0.
    9900012    2    3    3    0    0 -0.48887012827E+01  0.74578876991E+01 -0.42474750991E+02  0.47787263130E+02  0.19999963913E+02 0.  0.
         12    1    3    3    0    0  0.48887012827E+01 -0.74578876991E+01  0.42474750991E+02  0.43400736870E+02  0.00000000000E+00 0. -1.
         11    1    4    4    0    0  0.67672961126E+00  0.33771295228E+01 -0.36247455935E+01  0.50001747629E+01  0.51100000000E-03 0. -1.
        -11    1    4    4    0    0 -0.10274963432E+02  0.56960507084E+01 -0.33396719808E+02  0.35402835499E+02  0.51100000000E-03 0.  1.
        -12    1    4    4    0    0  0.47095325381E+01 -0.16152925321E+01 -0.54532855894E+01  0.73842528675E+01  0.00000000000E+00 0.  1.
</event>
<event>
 8    1  0.3776180E-010  0.9118800E+02  0.7816164E-02  0.1184000E+00
        -11   -1    0    0    0    0  0.00000000000E+00  0.00000000000E+00  0.45593999997E+02  0.45594000000E+02  0.51100000000E-03 0. -1.
         11   -1    0    0    0    0 -0.00000000000E+00 -0.00000000000E+00 -0.45593999997E+02  0.45594000000E+02  0.51100000000E-03 0.  1.
         23    2    1    2    0    0 -0.11102230246E-15  0.71054273576E-14  0.00000000000E+00  0.91188000000E+02  0.91188000000E+02 0.  0.
    9900012    2    3    3    0    0 -0.68891830513E+00  0.42500534755E+02  0.87665969059E+01  0.47787270925E+02  0.19999999457E+02 0.  0.
        -12    1    3    3    0    0  0.68891830513E+00 -0.42500534755E+02 -0.87665969059E+01  0.43400729075E+02  0.00000000000E+00 0.  1.
         11    1    4    4    0    0 -0.15624899583E+01  0.12555603426E+02 -0.26313419595E+01  0.12923177358E+02  0.51100000000E-03 0.  1.
        -11    1    4    4    0    0 -0.64344424090E+01  0.14085668568E+02  0.54559963511E+01  0.16418769886E+02  0.51100000000E-03 0. -1.
        -12    1    4    4    0    0  0.73080140622E+01  0.15859262762E+02  0.59419425143E+01  0.18445323682E+02  0.00000000000E+00 0.  1.
</event>
<event>
 8    1  0.3776180E-010  0.9118800E+02  0.7816164E-02  0.1184000E+00
        -11   -1    0    0    0    0  0.00000000000E+00  0.00000000000E+00  0.45593999997E+02  0.45594000000E+02  0.51100000000E-03 0. -1.
         11   -1    0    0    0    0 -0.00000000000E+00 -0.00000000000E+00 -0.45593999997E+02  0.45594000000E+02  0.51100000000E-03 0.  1.
         23    2    1    2    0    0  0.00000000000E+00  0.00000000000E+00  0.00000000000E+00  0.91188000000E+02  0.91188000000E+02 0.  0.
    9900012    2    3    3    0    0 -0.17982444231E+02 -0.93890712132E+01  0.38367938590E+02  0.47787289517E+02  0.20000084224E+02 0.  0.
        -12    1    3    3    0    0  0.17982444231E+02  0.93890712132E+01 -0.38367938590E+02  0.43400710483E+02  0.00000000000E+00 0.  1.
         11    1    4    4    0    0 -0.20472755981E+01  0.49418922155E+00  0.57400615647E+00  0.21828980027E+01  0.51100000000E-03 0. -1.
        -11    1    4    4    0    0 -0.77138503999E+01  0.22421559258E+00  0.28690525889E+02  0.29710268203E+02  0.51100000000E-03 0.  1.
        -12    1    4    4    0    0 -0.82213182333E+01 -0.10107476027E+02  0.91034065446E+01  0.15894123312E+02  0.00000000000E+00 0.  1.
</event>
<event>
 8    1  0.3776180E-010  0.9118800E+02  0.7816164E-02  0.1184000E+00
        -11   -1    0    0    0    0  0.00000000000E+00  0.00000000000E+00  0.45593999997E+02  0.45594000000E+02  0.51100000000E-03 0. -1.
         11   -1    0    0    0    0 -0.00000000000E+00 -0.00000000000E+00 -0.45593999997E+02  0.45594000000E+02  0.51100000000E-03 0.  1.
         23    2    1    2    0    0  0.00000000000E+00 -0.17763568394E-14  0.00000000000E+00  0.91188000000E+02  0.91188000000E+02 0.  0.
    9900012    2    3    3    0    0  0.24840826108E+02  0.13096514394E+02  0.33091352890E+02  0.47787274579E+02  0.20000016114E+02 0.  0.
        -12    1    3    3    0    0 -0.24840826108E+02 -0.13096514394E+02 -0.33091352890E+02  0.43400725421E+02  0.00000000000E+00 0.  1.
         11    1    4    4    0    0  0.68850117368E+01  0.12487384888E+02  0.21732989429E+02  0.25993479908E+02  0.51100000000E-03 0. -1.
        -11    1    4    4    0    0  0.54948382455E+01  0.18567140376E+01  0.19112325029E+01  0.61068358667E+01  0.51100000000E-03 0.  1.
        -12    1    4    4    0    0  0.12460976126E+02 -0.12475845318E+01  0.94471309581E+01  0.15686958804E+02  0.00000000000E+00 0.  1.
</event>
<event>
 8    1  0.3776180E-010  0.9118800E+02  0.7816164E-02  0.1184000E+00
        -11   -1    0    0    0    0  0.00000000000E+00  0.00000000000E+00  0.45593999997E+02  0.45594000000E+02  0.51100000000E-03 0. -1.
         11   -1    0    0    0    0 -0.00000000000E+00 -0.00000000000E+00 -0.45593999997E+02  0.45594000000E+02  0.51100000000E-03 0.  1.
         23    2    1    2    0    0  0.00000000000E+00  0.35527136788E-14 -0.35527136788E-14  0.91188000000E+02  0.91188000000E+02 0.  0.
    9900012    2    3    3    0    0  0.27734492525E+02 -0.14996984048E+02  0.29824677982E+02  0.47787273936E+02  0.20000013182E+02 0.  0.
        -12    1    3    3    0    0 -0.27734492525E+02  0.14996984048E+02 -0.29824677982E+02  0.43400726064E+02  0.00000000000E+00 0.  1.
         11    1    4    4    0    0  0.60974927340E+01 -0.83748875157E+01  0.24539346909E+01  0.10646123908E+02  0.51100000000E-03 0. -1.
        -11    1    4    4    0    0  0.60591441616E+01 -0.57324105108E+01  0.45651995958E+01  0.95086700356E+01  0.51100000000E-03 0.  1.
         12    1    4    4    0    0  0.15577855629E+02 -0.88968602175E+00  0.22805543696E+02  0.27632479992E+02  0.00000000000E+00 0. -1.
</event>
<event>
 8    1  0.3776180E-010  0.9118800E+02  0.7816164E-02  0.1184000E+00
        -11   -1    0    0    0    0  0.00000000000E+00  0.00000000000E+00  0.45593999997E+02  0.45594000000E+02  0.51100000000E-03 0. -1.
         11   -1    0    0    0    0 -0.00000000000E+00 -0.00000000000E+00 -0.45593999997E+02  0.45594000000E+02  0.51100000000E-03 0.  1.
         23    2    1    2    0    0 -0.71054273576E-14 -0.17763568394E-14  0.35527136788E-14  0.91188000000E+02  0.91188000000E+02 0.  0.
    9900012    2    3    3    0    0  0.37741947907E+02  0.90898155567E+01 -0.19404743370E+02  0.47787269085E+02  0.19999991068E+02 0.  0.
         12    1    3    3    0    0 -0.37741947907E+02 -0.90898155567E+01  0.19404743370E+02  0.43400730915E+02  0.00000000000E+00 0. -1.
         11    1    4    4    0    0  0.16826213055E+01 -0.30436159684E+01 -0.29415850208E+00  0.34901779477E+01  0.51100000000E-03 0. -1.
        -11    1    4    4    0    0  0.18608335906E+01  0.45061012624E+00 -0.52552273912E+01  0.55931356440E+01  0.51100000000E-03 0.  1.
         12    1    4    4    0    0  0.34198493011E+02  0.11682821399E+02 -0.13855357476E+02  0.38703955494E+02  0.00000000000E+00 0. -1.
</event>
<event>
 8    1  0.3776180E-010  0.9118800E+02  0.7816164E-02  0.1184000E+00
        -11   -1    0    0    0    0  0.00000000000E+00  0.00000000000E+00  0.45593999997E+02  0.45594000000E+02  0.51100000000E-03 0. -1.
         11   -1    0    0    0    0 -0.00000000000E+00 -0.00000000000E+00 -0.45593999997E+02  0.45594000000E+02  0.51100000000E-03 0.  1.
         23    2    1    2    0    0  0.00000000000E+00 -0.17763568394E-14 -0.71054273576E-14  0.91188000000E+02  0.91188000000E+02 0.  0.
    9900012    2    3    3    0    0 -0.85906116434E+01 -0.11170739296E+02 -0.41049232247E+02  0.47787268522E+02  0.19999988497E+02 0.  0.
         12    1    3    3    0    0  0.85906116434E+01  0.11170739296E+02  0.41049232247E+02  0.43400731478E+02  0.00000000000E+00 0. -1.
         11    1    4    4    0    0 -0.24430845483E+01 -0.12277427126E+02 -0.22147852509E+02  0.25440739965E+02  0.51100000000E-03 0. -1.
        -11    1    4    4    0    0 -0.52593330060E+01 -0.35200750276E+01 -0.14814562609E+02  0.16109710656E+02  0.51100000000E-03 0.  1.
         12    1    4    4    0    0 -0.88819408910E+00  0.46267628575E+01 -0.40868171282E+01  0.62368179001E+01  0.00000000000E+00 0. -1.
</event>
<event>
 8    1  0.3776180E-010  0.9118800E+02  0.7816164E-02  0.1184000E+00
        -11   -1    0    0    0    0  0.00000000000E+00  0.00000000000E+00  0.45593999997E+02  0.45594000000E+02  0.51100000000E-03 0. -1.
         11   -1    0    0    0    0 -0.00000000000E+00 -0.00000000000E+00 -0.45593999997E+02  0.45594000000E+02  0.51100000000E-03 0.  1.
         23    2    1    2    0    0  0.35527136788E-14  0.00000000000E+00  0.00000000000E+00  0.91188000000E+02  0.91188000000E+02 0.  0.
    9900012    2    3    3    0    0  0.31333849655E+02 -0.26171086547E+02 -0.14727112200E+02  0.47787265685E+02  0.19999975566E+02 0.  0.
         12    1    3    3    0    0 -0.31333849655E+02  0.26171086547E+02  0.14727112200E+02  0.43400734315E+02  0.00000000000E+00 0. -1.
         11    1    4    4    0    0  0.53248619916E+01 -0.85633532462E+01 -0.94355335346E+01  0.13809940890E+02  0.51100000000E-03 0. -1.
        -11    1    4    4    0    0  0.53136196339E+01 -0.93007101548E+01  0.11295182411E+01  0.10770959786E+02  0.51100000000E-03 0.  1.
        -12    1    4    4    0    0  0.20695368030E+02 -0.83070231460E+01 -0.64210969068E+01  0.23206365009E+02  0.00000000000E+00 0.  1.
</event>
<event>
 8    1  0.3776180E-010  0.9118800E+02  0.7816164E-02  0.1184000E+00
        -11   -1    0    0    0    0  0.00000000000E+00  0.00000000000E+00  0.45593999997E+02  0.45594000000E+02  0.51100000000E-03 0. -1.
         11   -1    0    0    0    0 -0.00000000000E+00 -0.00000000000E+00 -0.45593999997E+02  0.45594000000E+02  0.51100000000E-03 0.  1.
         23    2    1    2    0    0 -0.71054273576E-14 -0.33306690739E-15  0.00000000000E+00  0.91188000000E+02  0.91188000000E+02 0.  0.
    9900012    2    3    3    0    0 -0.38367120240E+02 -0.53050491350E+00 -0.20280681087E+02  0.47787269864E+02  0.19999994620E+02 0.  0.
         12    1    3    3    0    0  0.38367120240E+02  0.53050491350E+00  0.20280681087E+02  0.43400730136E+02  0.00000000000E+00 0. -1.
         11    1    4    4    0    0 -0.84258937093E+01 -0.13477533698E+01 -0.12593409121E+02  0.15212037257E+02  0.51100000000E-03 0. -1.
        -11    1    4    4    0    0 -0.17552389088E+02 -0.60383865033E+00 -0.95106296664E+01  0.19972557691E+02  0.51100000000E-03 0.  1.
         12    1    4    4    0    0 -0.12388837442E+02  0.14210871066E+01  0.18233577012E+01  0.12602674916E+02  0.00000000000E+00 0. -1.
</event>
<event>
 8    1  0.3776180E-010  0.9118800E+02  0.7816164E-02  0.1184000E+00
        -11   -1    0    0    0    0  0.00000000000E+00  0.00000000000E+00  0.45593999997E+02  0.45594000000E+02  0.51100000000E-03 0. -1.
         11   -1    0    0    0    0 -0.00000000000E+00 -0.00000000000E+00 -0.45593999997E+02  0.45594000000E+02  0.51100000000E-03 0.  1.
         23    2    1    2    0    0 -0.35527136788E-14  0.00000000000E+00  0.00000000000E+00  0.91188000000E+02  0.91188000000E+02 0.  0.
    9900012    2    3    3    0    0  0.31851436364E+02  0.50626177779E+01  0.29042714444E+02  0.47787270058E+02  0.19999995503E+02 0.  0.
        -12    1    3    3    0    0 -0.31851436364E+02 -0.50626177779E+01 -0.29042714444E+02  0.43400729942E+02  0.00000000000E+00 0.  1.
         11    1    4    4    0    0  0.49155513143E+01  0.68878793027E+01  0.14013227372E+02  0.16369974577E+02  0.51100000000E-03 0.  1.
        -11    1    4    4    0    0  0.37545012624E+01  0.15469505181E+01  0.32261110450E+01  0.51862441488E+01  0.51100000000E-03 0. -1.
         12    1    4    4    0    0  0.23181383787E+02 -0.33722120429E+01  0.11803376027E+02  0.26231051332E+02  0.00000000000E+00 0. -1.
</event>
<event>
 8    1  0.3776180E-010  0.9118800E+02  0.7816164E-02  0.1184000E+00
        -11   -1    0    0    0    0  0.00000000000E+00  0.00000000000E+00  0.45593999997E+02  0.45594000000E+02  0.51100000000E-03 0. -1.
         11   -1    0    0    0    0 -0.00000000000E+00 -0.00000000000E+00 -0.45593999997E+02  0.45594000000E+02  0.51100000000E-03 0.  1.
         23    2    1    2    0    0  0.35527136788E-14  0.00000000000E+00 -0.35527136788E-14  0.91188000000E+02  0.91188000000E+02 0.  0.
    9900012    2    3    3    0    0 -0.23802785127E+02  0.27165254679E+02  0.24064480932E+02  0.47787275534E+02  0.20000020471E+02 0.  0.
        -12    1    3    3    0    0  0.23802785127E+02 -0.27165254679E+02 -0.24064480932E+02  0.43400724466E+02  0.00000000000E+00 0.  1.
         11    1    4    4    0    0 -0.41109990890E+00  0.10423172086E+02  0.11750773632E+01  0.10497253286E+02  0.51100000000E-03 0. -1.
        -11    1    4    4    0    0 -0.35570807827E+01  0.14346882266E+01  0.58320994471E+01  0.69802964282E+01  0.51100000000E-03 0.  1.
         12    1    4    4    0    0 -0.19834604436E+02  0.15307394366E+02  0.17057304122E+02  0.30309725821E+02  0.00000000000E+00 0. -1.
</event>
<event>
 8    1  0.3776180E-010  0.9118800E+02  0.7816164E-02  0.1184000E+00
        -11   -1    0    0    0    0  0.00000000000E+00  0.00000000000E+00  0.45593999997E+02  0.45594000000E+02  0.51100000000E-03 0.  1.
         11   -1    0    0    0    0 -0.00000000000E+00 -0.00000000000E+00 -0.45593999997E+02  0.45594000000E+02  0.51100000000E-03 0. -1.
         23    2    1    2    0    0  0.00000000000E+00  0.00000000000E+00  0.00000000000E+00  0.91188000000E+02  0.91188000000E+02 0.  0.
    9900012    2    3    3    0    0  0.64864453450E+01 -0.42235210720E+02  0.75981923652E+01  0.47787314233E+02  0.20000196914E+02 0.  0.
        -12    1    3    3    0    0 -0.64864453450E+01  0.42235210720E+02 -0.75981923652E+01  0.43400685767E+02  0.00000000000E+00 0.  1.
         11    1    4    4    0    0  0.64473090399E+01 -0.92626647539E+01  0.28493508073E+01  0.11639740224E+02  0.51100000000E-03 0. -1.
        -11    1    4    4    0    0 -0.97954591072E+00 -0.12864877300E+02  0.87909773339E+01  0.15612362437E+02  0.51100000000E-03 0.  1.
         12    1    4    4    0    0  0.10186822158E+01 -0.20107668667E+02 -0.40421357761E+01  0.20535211572E+02  0.00000000000E+00 0. -1.
</event>
<event>
 8    1  0.3776180E-010  0.9118800E+02  0.7816164E-02  0.1184000E+00
        -11   -1    0    0    0    0  0.00000000000E+00  0.00000000000E+00  0.45593999997E+02  0.45594000000E+02  0.51100000000E-03 0.  1.
         11   -1    0    0    0    0 -0.00000000000E+00 -0.00000000000E+00 -0.45593999997E+02  0.45594000000E+02  0.51100000000E-03 0. -1.
         23    2    1    2    0    0  0.17763568394E-14 -0.71054273576E-14 -0.35527136788E-14  0.91188000000E+02  0.91188000000E+02 0.  0.
    9900012    2    3    3    0    0 -0.10383944691E+02  0.37491330716E+02  0.19240562654E+02  0.47787246120E+02  0.19999886357E+02 0.  0.
        -12    1    3    3    0    0  0.10383944691E+02 -0.37491330716E+02 -0.19240562654E+02  0.43400753880E+02  0.00000000000E+00 0.  1.
         11    1    4    4    0    0  0.39463793505E+01  0.14294731717E+02  0.33613428817E+01  0.15205653260E+02  0.51100000000E-03 0. -1.
        -11    1    4    4    0    0 -0.17345423687E+01  0.97258652144E+01  0.70363605272E+01  0.12128951361E+02  0.51100000000E-03 0.  1.
        -12    1    4    4    0    0 -0.12595781672E+02  0.13470733784E+02  0.88428592448E+01  0.20452641498E+02  0.00000000000E+00 0.  1.
</event>
<event>
 8    1  0.3776180E-010  0.9118800E+02  0.7816164E-02  0.1184000E+00
        -11   -1    0    0    0    0  0.00000000000E+00  0.00000000000E+00  0.45593999997E+02  0.45594000000E+02  0.51100000000E-03 0. -1.
         11   -1    0    0    0    0 -0.00000000000E+00 -0.00000000000E+00 -0.45593999997E+02  0.45594000000E+02  0.51100000000E-03 0.  1.
         23    2    1    2    0    0  0.00000000000E+00  0.00000000000E+00  0.00000000000E+00  0.91188000000E+02  0.91188000000E+02 0.  0.
    9900012    2    3    3    0    0 -0.32023750680E+02  0.81949157726E+01  0.28123763901E+02  0.47787270189E+02  0.19999996100E+02 0.  0.
        -12    1    3    3    0    0  0.32023750680E+02 -0.81949157726E+01 -0.28123763901E+02  0.43400729811E+02  0.00000000000E+00 0.  1.
         11    1    4    4    0    0 -0.27716799595E+01 -0.23324386658E+01  0.22006337886E+01  0.42385456539E+01  0.51100000000E-03 0. -1.
        -11    1    4    4    0    0 -0.96082797956E+01 -0.27694089803E+01  0.13415849089E+02  0.16732413866E+02  0.51100000000E-03 0.  1.
         12    1    4    4    0    0 -0.19643790925E+02  0.13296763419E+02  0.12507281023E+02  0.26816310669E+02  0.00000000000E+00 0. -1.
</event>
<event>
 8    1  0.3776180E-010  0.9118800E+02  0.7816164E-02  0.1184000E+00
        -11   -1    0    0    0    0  0.00000000000E+00  0.00000000000E+00  0.45593999997E+02  0.45594000000E+02  0.51100000000E-03 0. -1.
         11   -1    0    0    0    0 -0.00000000000E+00 -0.00000000000E+00 -0.45593999997E+02  0.45594000000E+02  0.51100000000E-03 0.  1.
         23    2    1    2    0    0 -0.17763568394E-14  0.71054273576E-14 -0.35527136788E-14  0.91188000000E+02  0.91188000000E+02 0.  0.
    9900012    2    3    3    0    0  0.13872662312E+02 -0.35510789738E+02  0.20740270576E+02  0.47787242276E+02  0.19999868832E+02 0.  0.
        -12    1    3    3    0    0 -0.13872662312E+02  0.35510789738E+02 -0.20740270576E+02  0.43400757724E+02  0.00000000000E+00 0.  1.
         11    1    4    4    0    0  0.50305865901E+00 -0.23173324051E+01 -0.21712368821E+01  0.32151776545E+01  0.51100000000E-03 0. -1.
        -11    1    4    4    0    0 -0.20355681248E+01 -0.51367589603E+00  0.14157444879E+01  0.25321400501E+01  0.51100000000E-03 0.  1.
         12    1    4    4    0    0  0.15405171778E+02 -0.32679781437E+02  0.21495762970E+02  0.42039924571E+02  0.00000000000E+00 0. -1.
</event>
<event>
 8    1  0.3776180E-010  0.9118800E+02  0.7816164E-02  0.1184000E+00
        -11   -1    0    0    0    0  0.00000000000E+00  0.00000000000E+00  0.45593999997E+02  0.45594000000E+02  0.51100000000E-03 0. -1.
         11   -1    0    0    0    0 -0.00000000000E+00 -0.00000000000E+00 -0.45593999997E+02  0.45594000000E+02  0.51100000000E-03 0.  1.
         23    2    1    2    0    0  0.00000000000E+00 -0.71054273576E-14  0.35527136788E-14  0.91188000000E+02  0.91188000000E+02 0.  0.
    9900012    2    3    3    0    0  0.14368297502E+02 -0.37037296492E+02  0.17476084358E+02  0.47787276169E+02  0.20000023366E+02 0.  0.
        -12    1    3    3    0    0 -0.14368297502E+02  0.37037296492E+02 -0.17476084358E+02  0.43400723831E+02  0.00000000000E+00 0.  1.
         11    1    4    4    0    0  0.62449531198E+01 -0.12080266639E+02  0.34539106808E+01  0.14030744128E+02  0.51100000000E-03 0. -1.
        -11    1    4    4    0    0  0.11039723594E+02 -0.20390294200E+02  0.15794635628E+02  0.28055482699E+02  0.51100000000E-03 0.  1.
        -12    1    4    4    0    0 -0.29163792116E+01 -0.45667356535E+01 -0.17724619512E+01  0.57010493423E+01  0.00000000000E+00 0.  1.
</event>
<event>
 8    1  0.3776180E-010  0.9118800E+02  0.7816164E-02  0.1184000E+00
        -11   -1    0    0    0    0  0.00000000000E+00  0.00000000000E+00  0.45593999997E+02  0.45594000000E+02  0.51100000000E-03 0.  1.
         11   -1    0    0    0    0 -0.00000000000E+00 -0.00000000000E+00 -0.45593999997E+02  0.45594000000E+02  0.51100000000E-03 0. -1.
         23    2    1    2    0    0 -0.71054273576E-14  0.00000000000E+00  0.00000000000E+00  0.91188000000E+02  0.91188000000E+02 0.  0.
    9900012    2    3    3    0    0 -0.34121043984E+02  0.23752650959E+02 -0.12457502453E+02  0.47787269160E+02  0.19999991407E+02 0.  0.
         12    1    3    3    0    0  0.34121043984E+02 -0.23752650959E+02  0.12457502453E+02  0.43400730840E+02  0.00000000000E+00 0. -1.
         11    1    4    4    0    0 -0.35000987005E+01  0.11497655073E+01  0.20569530724E+01  0.42194440201E+01  0.51100000000E-03 0. -1.
        -11    1    4    4    0    0 -0.17253879436E+01 -0.23396551756E+01 -0.10625322619E+01  0.30951453868E+01  0.51100000000E-03 0.  1.
         12    1    4    4    0    0 -0.28895557339E+02  0.24942540627E+02 -0.13451923263E+02  0.40472679753E+02  0.00000000000E+00 0. -1.
</event>
<event>
 8    1  0.3776180E-010  0.9118800E+02  0.7816164E-02  0.1184000E+00
        -11   -1    0    0    0    0  0.00000000000E+00  0.00000000000E+00  0.45593999997E+02  0.45594000000E+02  0.51100000000E-03 0. -1.
         11   -1    0    0    0    0 -0.00000000000E+00 -0.00000000000E+00 -0.45593999997E+02  0.45594000000E+02  0.51100000000E-03 0.  1.
         23    2    1    2    0    0  0.88817841970E-15  0.00000000000E+00 -0.71054273576E-14  0.91188000000E+02  0.91188000000E+02 0.  0.
    9900012    2    3    3    0    0  0.65904420960E+01 -0.18537276632E+02 -0.38685380318E+02  0.47787271870E+02  0.20000003762E+02 0.  0.
         12    1    3    3    0    0 -0.65904420960E+01  0.18537276632E+02  0.38685380318E+02  0.43400728130E+02  0.00000000000E+00 0. -1.
         11    1    4    4    0    0 -0.22568972437E+01  0.13024029044E+01 -0.32108250595E+01  0.41351222857E+01  0.51100000000E-03 0. -1.
        -11    1    4    4    0    0 -0.12025216299E+01 -0.13142183327E+02 -0.20980109482E+02  0.24785641710E+02  0.51100000000E-03 0.  1.
         12    1    4    4    0    0  0.10049860969E+02 -0.66974962095E+01 -0.14494445776E+02  0.18866507874E+02  0.00000000000E+00 0. -1.
</event>
<event>
 8    1  0.3776180E-010  0.9118800E+02  0.7816164E-02  0.1184000E+00
        -11   -1    0    0    0    0  0.00000000000E+00  0.00000000000E+00  0.45593999997E+02  0.45594000000E+02  0.51100000000E-03 0. -1.
         11   -1    0    0    0    0 -0.00000000000E+00 -0.00000000000E+00 -0.45593999997E+02  0.45594000000E+02  0.51100000000E-03 0.  1.
         23    2    1    2    0    0  0.00000000000E+00  0.00000000000E+00  0.71054273576E-14  0.91188000000E+02  0.91188000000E+02 0.  0.
    9900012    2    3    3    0    0  0.19346673631E+02 -0.19094000273E+02 -0.33834165552E+02  0.47787246716E+02  0.19999889075E+02 0.  0.
         12    1    3    3    0    0 -0.19346673631E+02  0.19094000273E+02  0.33834165552E+02  0.43400753284E+02  0.00000000000E+00 0. -1.
         11    1    4    4    0    0  0.10131542164E+02 -0.14392943385E+02 -0.26901759879E+02  0.32148244910E+02  0.51100000000E-03 0. -1.
        -11    1    4    4    0    0  0.83503055398E+01 -0.19440690834E+01 -0.87300131904E+01  0.12236018052E+02  0.51100000000E-03 0.  1.
         12    1    4    4    0    0  0.86482592725E+00 -0.27569878052E+01  0.17976075173E+01  0.34029837539E+01  0.00000000000E+00 0. -1.
</event>
<event>
 8    1  0.3776180E-010  0.9118800E+02  0.7816164E-02  0.1184000E+00
        -11   -1    0    0    0    0  0.00000000000E+00  0.00000000000E+00  0.45593999997E+02  0.45594000000E+02  0.51100000000E-03 0. -1.
         11   -1    0    0    0    0 -0.00000000000E+00 -0.00000000000E+00 -0.45593999997E+02  0.45594000000E+02  0.51100000000E-03 0.  1.
         23    2    1    2    0    0 -0.88817841970E-15  0.00000000000E+00 -0.35527136788E-14  0.91188000000E+02  0.91188000000E+02 0.  0.
    9900012    2    3    3    0    0  0.61870780911E+01 -0.30511549195E+02  0.30238855313E+02  0.47787274888E+02  0.20000017526E+02 0.  0.
        -12    1    3    3    0    0 -0.61870780911E+01  0.30511549195E+02 -0.30238855313E+02  0.43400725112E+02  0.00000000000E+00 0.  1.
         11    1    4    4    0    0 -0.12470943984E+01 -0.14025771141E+02  0.16490600388E+02  0.21684496811E+02  0.51100000000E-03 0. -1.
        -11    1    4    4    0    0  0.61067153743E+01 -0.18250710282E+02  0.14111728075E+02  0.23864644728E+02  0.51100000000E-03 0.  1.
         12    1    4    4    0    0  0.13274571152E+01  0.17649322280E+01 -0.36347314926E+00  0.22381333500E+01  0.00000000000E+00 0. -1.
</event>
<event>
 8    1  0.3776180E-010  0.9118800E+02  0.7816164E-02  0.1184000E+00
        -11   -1    0    0    0    0  0.00000000000E+00  0.00000000000E+00  0.45593999997E+02  0.45594000000E+02  0.51100000000E-03 0. -1.
         11   -1    0    0    0    0 -0.00000000000E+00 -0.00000000000E+00 -0.45593999997E+02  0.45594000000E+02  0.51100000000E-03 0.  1.
         23    2    1    2    0    0 -0.88817841970E-15  0.00000000000E+00  0.35527136788E-14  0.91188000000E+02  0.91188000000E+02 0.  0.
    9900012    2    3    3    0    0  0.28065596070E+01 -0.32902751162E+02 -0.28163007416E+02  0.47787276532E+02  0.20000025020E+02 0.  0.
         12    1    3    3    0    0 -0.28065596070E+01  0.32902751162E+02  0.28163007416E+02  0.43400723468E+02  0.00000000000E+00 0. -1.
         11    1    4    4    0    0  0.66106131359E+01 -0.84864352081E+01 -0.10825389438E+01  0.10811645545E+02  0.51100000000E-03 0. -1.
        -11    1    4    4    0    0 -0.75484696216E+00 -0.10035575883E+02 -0.14361060040E+02  0.17536322961E+02  0.51100000000E-03 0.  1.
        -12    1    4    4    0    0 -0.30492065667E+01 -0.14380740071E+02 -0.12719408432E+02  0.19439308026E+02  0.00000000000E+00 0.  1.
</event>
<event>
 8    1  0.3776180E-010  0.9118800E+02  0.7816164E-02  0.1184000E+00
        -11   -1    0    0    0    0  0.00000000000E+00  0.00000000000E+00  0.45593999997E+02  0.45594000000E+02  0.51100000000E-03 0. -1.
         11   -1    0    0    0    0 -0.00000000000E+00 -0.00000000000E+00 -0.45593999997E+02  0.45594000000E+02  0.51100000000E-03 0.  1.
         23    2    1    2    0    0  0.00000000000E+00  0.00000000000E+00 -0.71054273576E-14  0.91188000000E+02  0.91188000000E+02 0.  0.
    9900012    2    3    3    0    0 -0.11125859101E+02  0.16404682051E+02 -0.38609921519E+02  0.47787258374E+02  0.19999942232E+02 0.  0.
         12    1    3    3    0    0  0.11125859101E+02 -0.16404682051E+02  0.38609921519E+02  0.43400741626E+02  0.00000000000E+00 0. -1.
         11    1    4    4    0    0 -0.17408313389E+01  0.11360299985E+00  0.13768778713E+01  0.22224293748E+01  0.51100000000E-03 0. -1.
        -11    1    4    4    0    0  0.19745339019E+01  0.64162632519E+01 -0.10586197615E+02  0.12535341976E+02  0.51100000000E-03 0.  1.
        -12    1    4    4    0    0 -0.11359561664E+02  0.98748157994E+01 -0.29400601775E+02  0.33029487023E+02  0.00000000000E+00 0.  1.
</event>
<event>
 8    1  0.3776180E-010  0.9118800E+02  0.7816164E-02  0.1184000E+00
        -11   -1    0    0    0    0  0.00000000000E+00  0.00000000000E+00  0.45593999997E+02  0.45594000000E+02  0.51100000000E-03 0. -1.
         11   -1    0    0    0    0 -0.00000000000E+00 -0.00000000000E+00 -0.45593999997E+02  0.45594000000E+02  0.51100000000E-03 0.  1.
         23    2    1    2    0    0  0.00000000000E+00 -0.71054273576E-14  0.00000000000E+00  0.91188000000E+02  0.91188000000E+02 0.  0.
    9900012    2    3    3    0    0  0.57315230708E+01  0.32079889145E+02  0.28664492815E+02  0.47787276589E+02  0.20000025278E+02 0.  0.
        -12    1    3    3    0    0 -0.57315230708E+01 -0.32079889145E+02 -0.28664492815E+02  0.43400723411E+02  0.00000000000E+00 0.  1.
         11    1    4    4    0    0 -0.12603735366E+01  0.19707953111E+02  0.18875218290E+02  0.27317866371E+02  0.51100000000E-03 0. -1.
        -11    1    4    4    0    0  0.29913463808E+01  0.13482638073E+02  0.71759717397E+01  0.15563555289E+02  0.51100000000E-03 0.  1.
        -12    1    4    4    0    0  0.40005502266E+01 -0.11107020387E+01  0.26133027851E+01  0.49058549287E+01  0.00000000000E+00 0.  1.
</event>
<event>
 8    1  0.3776180E-010  0.9118800E+02  0.7816164E-02  0.1184000E+00
        -11   -1    0    0    0    0  0.00000000000E+00  0.00000000000E+00  0.45593999997E+02  0.45594000000E+02  0.51100000000E-03 0. -1.
         11   -1    0    0    0    0 -0.00000000000E+00 -0.00000000000E+00 -0.45593999997E+02  0.45594000000E+02  0.51100000000E-03 0.  1.
         23    2    1    2    0    0  0.00000000000E+00  0.00000000000E+00  0.00000000000E+00  0.91188000000E+02  0.91188000000E+02 0.  0.
    9900012    2    3    3    0    0 -0.30730216639E+01  0.38707634590E+02  0.19388133474E+02  0.47787260867E+02  0.19999953596E+02 0.  0.
        -12    1    3    3    0    0  0.30730216639E+01 -0.38707634590E+02 -0.19388133474E+02  0.43400739133E+02  0.00000000000E+00 0.  1.
         11    1    4    4    0    0  0.25269175110E+01  0.18849564001E+02  0.27563320283E+01  0.19216886888E+02  0.51100000000E-03 0. -1.
        -11    1    4    4    0    0 -0.61104995739E+00  0.79495387979E+01  0.61371473161E+00  0.79965739653E+01  0.51100000000E-03 0.  1.
        -12    1    4    4    0    0 -0.49888892175E+01  0.11908531791E+02  0.16018086714E+02  0.20573800014E+02  0.00000000000E+00 0.  1.
</event>
<event>
 8    1  0.3776180E-010  0.9118800E+02  0.7816164E-02  0.1184000E+00
        -11   -1    0    0    0    0  0.00000000000E+00  0.00000000000E+00  0.45593999997E+02  0.45594000000E+02  0.51100000000E-03 0. -1.
         11   -1    0    0    0    0 -0.00000000000E+00 -0.00000000000E+00 -0.45593999997E+02  0.45594000000E+02  0.51100000000E-03 0.  1.
         23    2    1    2    0    0  0.00000000000E+00  0.00000000000E+00  0.00000000000E+00  0.91188000000E+02  0.91188000000E+02 0.  0.
    9900012    2    3    3    0    0 -0.28510013950E+02  0.28080952605E+02  0.16800663391E+02  0.47787273220E+02  0.20000009922E+02 0.  0.
        -12    1    3    3    0    0  0.28510013950E+02 -0.28080952605E+02 -0.16800663391E+02  0.43400726780E+02  0.00000000000E+00 0.  1.
         11    1    4    4    0    0 -0.98896302781E+01  0.67973481854E+01  0.93056697391E+01  0.15185658331E+02  0.51100000000E-03 0. -1.
        -11    1    4    4    0    0 -0.10577175121E+02  0.45568960383E+01  0.80196663526E+01  0.14034136372E+02  0.51100000000E-03 0.  1.
        -12    1    4    4    0    0 -0.80432085508E+01  0.16726708381E+02 -0.52467270031E+00  0.18567478518E+02  0.00000000000E+00 0.  1.
</event>
<event>
 8    1  0.3776180E-010  0.9118800E+02  0.7816164E-02  0.1184000E+00
        -11   -1    0    0    0    0  0.00000000000E+00  0.00000000000E+00  0.45593999997E+02  0.45594000000E+02  0.51100000000E-03 0. -1.
         11   -1    0    0    0    0 -0.00000000000E+00 -0.00000000000E+00 -0.45593999997E+02  0.45594000000E+02  0.51100000000E-03 0.  1.
         23    2    1    2    0    0  0.00000000000E+00 -0.17763568394E-14  0.00000000000E+00  0.91188000000E+02  0.91188000000E+02 0.  0.
    9900012    2    3    3    0    0  0.13252667637E+02 -0.11695553062E+02  0.39638415949E+02  0.47787272127E+02  0.20000004935E+02 0.  0.
        -12    1    3    3    0    0 -0.13252667637E+02  0.11695553062E+02 -0.39638415949E+02  0.43400727873E+02  0.00000000000E+00 0.  1.
         11    1    4    4    0    0  0.34011039816E+01  0.35936271057E+01  0.18722709268E+02  0.19365472023E+02  0.51100000000E-03 0. -1.
        -11    1    4    4    0    0  0.31341408198E+01 -0.17849896282E+01  0.16823931298E+01  0.39798836108E+01  0.51100000000E-03 0.  1.
        -12    1    4    4    0    0  0.67174228360E+01 -0.13504190540E+02  0.19233313552E+02  0.24441916493E+02  0.00000000000E+00 0.  1.
</event>
<event>
 8    1  0.3776180E-010  0.9118800E+02  0.7816164E-02  0.1184000E+00
        -11   -1    0    0    0    0  0.00000000000E+00  0.00000000000E+00  0.45593999997E+02  0.45594000000E+02  0.51100000000E-03 0. -1.
         11   -1    0    0    0    0 -0.00000000000E+00 -0.00000000000E+00 -0.45593999997E+02  0.45594000000E+02  0.51100000000E-03 0.  1.
         23    2    1    2    0    0  0.00000000000E+00  0.44408920985E-15  0.71054273576E-14  0.91188000000E+02  0.91188000000E+02 0.  0.
    9900012    2    3    3    0    0  0.12734501452E+02  0.27564729343E+01  0.41398803843E+02  0.47787232382E+02  0.19999823720E+02 0.  0.
        -12    1    3    3    0    0 -0.12734501452E+02 -0.27564729343E+01 -0.41398803843E+02  0.43400767618E+02  0.00000000000E+00 0.  1.
         11    1    4    4    0    0  0.12795238328E+02  0.73013794524E+01  0.22594620036E+02  0.26973044334E+02  0.51100000000E-03 0. -1.
        -11    1    4    4    0    0  0.37757290686E+01 -0.28051053038E+01  0.10345560514E+02  0.11364654345E+02  0.51100000000E-03 0.  1.
         12    1    4    4    0    0 -0.38364659444E+01 -0.17398012143E+01  0.84586232918E+01  0.94495337028E+01  0.00000000000E+00 0. -1.
</event>
<event>
 8    1  0.3776180E-010  0.9118800E+02  0.7816164E-02  0.1184000E+00
        -11   -1    0    0    0    0  0.00000000000E+00  0.00000000000E+00  0.45593999997E+02  0.45594000000E+02  0.51100000000E-03 0.  1.
         11   -1    0    0    0    0 -0.00000000000E+00 -0.00000000000E+00 -0.45593999997E+02  0.45594000000E+02  0.51100000000E-03 0. -1.
         23    2    1    2    0    0  0.00000000000E+00  0.00000000000E+00 -0.44408920985E-15  0.91188000000E+02  0.91188000000E+02 0.  0.
    9900012    2    3    3    0    0  0.80081767948E+01  0.42609315528E+02 -0.19848939897E+01  0.47787257270E+02  0.19999937196E+02 0.  0.
         12    1    3    3    0    0 -0.80081767948E+01 -0.42609315528E+02  0.19848939897E+01  0.43400742730E+02  0.00000000000E+00 0. -1.
         11    1    4    4    0    0 -0.25930956789E+01  0.50666985216E+01 -0.27190772530E+01  0.63078491166E+01  0.51100000000E-03 0. -1.
        -11    1    4    4    0    0  0.30369264955E+01  0.31404438417E+02 -0.10846612664E+01  0.31569576576E+02  0.51100000000E-03 0.  1.
         12    1    4    4    0    0  0.75643459782E+01  0.61381785893E+01  0.18188445297E+01  0.99098315776E+01  0.00000000000E+00 0. -1.
</event>
<event>
 8    1  0.3776180E-010  0.9118800E+02  0.7816164E-02  0.1184000E+00
        -11   -1    0    0    0    0  0.00000000000E+00  0.00000000000E+00  0.45593999997E+02  0.45594000000E+02  0.51100000000E-03 0. -1.
         11   -1    0    0    0    0 -0.00000000000E+00 -0.00000000000E+00 -0.45593999997E+02  0.45594000000E+02  0.51100000000E-03 0.  1.
         23    2    1    2    0    0  0.00000000000E+00  0.00000000000E+00  0.71054273576E-14  0.91188000000E+02  0.91188000000E+02 0.  0.
    9900012    2    3    3    0    0 -0.16976516272E+02 -0.99905589419E+01 -0.38673115187E+02  0.47787271769E+02  0.20000003302E+02 0.  0.
         12    1    3    3    0    0  0.16976516272E+02  0.99905589419E+01  0.38673115187E+02  0.43400728231E+02  0.00000000000E+00 0. -1.
         11    1    4    4    0    0 -0.88126950205E+01 -0.22561704767E+01 -0.44717480632E+01  0.10136588664E+02  0.51100000000E-03 0. -1.
        -11    1    4    4    0    0  0.14949797723E+00  0.74922363976E+00  0.53959050482E+00  0.93533089416E+00  0.51100000000E-03 0.  1.
        -12    1    4    4    0    0 -0.83133192290E+01 -0.84836121049E+01 -0.34740957629E+02  0.36715352210E+02  0.00000000000E+00 0.  1.
</event>
<event>
 8    1  0.3776180E-010  0.9118800E+02  0.7816164E-02  0.1184000E+00
        -11   -1    0    0    0    0  0.00000000000E+00  0.00000000000E+00  0.45593999997E+02  0.45594000000E+02  0.51100000000E-03 0. -1.
         11   -1    0    0    0    0 -0.00000000000E+00 -0.00000000000E+00 -0.45593999997E+02  0.45594000000E+02  0.51100000000E-03 0.  1.
         23    2    1    2    0    0  0.00000000000E+00  0.00000000000E+00  0.00000000000E+00  0.91188000000E+02  0.91188000000E+02 0.  0.
    9900012    2    3    3    0    0 -0.16050174353E+02 -0.25311193470E+02  0.31390424282E+02  0.47787270188E+02  0.19999996095E+02 0.  0.
        -12    1    3    3    0    0  0.16050174353E+02  0.25311193470E+02 -0.31390424282E+02  0.43400729812E+02  0.00000000000E+00 0.  1.
         11    1    4    4    0    0 -0.18999034958E+01  0.15448007594E+01  0.68991441176E+01  0.73208081860E+01  0.51100000000E-03 0. -1.
        -11    1    4    4    0    0 -0.10482417623E+01 -0.26431204978E+01  0.77267327182E+01  0.82333040462E+01  0.51100000000E-03 0.  1.
        -12    1    4    4    0    0 -0.13102029095E+02 -0.24212873732E+02  0.16764547446E+02  0.32233157956E+02  0.00000000000E+00 0.  1.
</event>
<event>
 8    1  0.3776180E-010  0.9118800E+02  0.7816164E-02  0.1184000E+00
        -11   -1    0    0    0    0  0.00000000000E+00  0.00000000000E+00  0.45593999997E+02  0.45594000000E+02  0.51100000000E-03 0. -1.
         11   -1    0    0    0    0 -0.00000000000E+00 -0.00000000000E+00 -0.45593999997E+02  0.45594000000E+02  0.51100000000E-03 0.  1.
         23    2    1    2    0    0  0.00000000000E+00  0.35527136788E-14  0.71054273576E-14  0.91188000000E+02  0.91188000000E+02 0.  0.
    9900012    2    3    3    0    0  0.13307566003E+02  0.30411598129E+02  0.27958288888E+02  0.47787279600E+02  0.20000039009E+02 0.  0.
        -12    1    3    3    0    0 -0.13307566003E+02 -0.30411598129E+02 -0.27958288888E+02  0.43400720400E+02  0.00000000000E+00 0.  1.
         11    1    4    4    0    0  0.12954721275E+02  0.17498166835E+02  0.23424105898E+02  0.31979671407E+02  0.51100000000E-03 0. -1.
        -11    1    4    4    0    0 -0.18547842886E+00 -0.10535567319E+01  0.81228299177E+00  0.13432006383E+01  0.51100000000E-03 0.  1.
         12    1    4    4    0    0  0.53832315724E+00  0.13966988025E+02  0.37218999987E+01  0.14464407555E+02  0.00000000000E+00 0. -1.
</event>
<event>
 8    1  0.3776180E-010  0.9118800E+02  0.7816164E-02  0.1184000E+00
        -11   -1    0    0    0    0  0.00000000000E+00  0.00000000000E+00  0.45593999997E+02  0.45594000000E+02  0.51100000000E-03 0. -1.
         11   -1    0    0    0    0 -0.00000000000E+00 -0.00000000000E+00 -0.45593999997E+02  0.45594000000E+02  0.51100000000E-03 0.  1.
         23    2    1    2    0    0  0.71054273576E-14  0.66613381478E-15  0.00000000000E+00  0.91188000000E+02  0.91188000000E+02 0.  0.
    9900012    2    3    3    0    0 -0.43186193355E+02  0.14539993498E+01 -0.40572891477E+01  0.47787274133E+02  0.20000014080E+02 0.  0.
         12    1    3    3    0    0  0.43186193355E+02 -0.14539993498E+01  0.40572891477E+01  0.43400725867E+02  0.00000000000E+00 0. -1.
         11    1    4    4    0    0 -0.62826324118E+01  0.32280013609E+01  0.57702336518E+01  0.91206940233E+01  0.51100000000E-03 0. -1.
        -11    1    4    4    0    0  0.14620077511E+00  0.20297588355E+00 -0.23710187620E+00  0.34466133634E+00  0.51100000000E-03 0.  1.
        -12    1    4    4    0    0 -0.37049761718E+02 -0.19769778947E+01 -0.95904209233E+01  0.38321918773E+02  0.00000000000E+00 0.  1.
</event>
<event>
 8    1  0.3776180E-010  0.9118800E+02  0.7816164E-02  0.1184000E+00
        -11   -1    0    0    0    0  0.00000000000E+00  0.00000000000E+00  0.45593999997E+02  0.45594000000E+02  0.51100000000E-03 0. -1.
         11   -1    0    0    0    0 -0.00000000000E+00 -0.00000000000E+00 -0.45593999997E+02  0.45594000000E+02  0.51100000000E-03 0.  1.
         23    2    1    2    0    0  0.00000000000E+00  0.79884016069E-15 -0.71054273576E-14  0.91188000000E+02  0.91188000000E+02 0.  0.
    9900012    2    3    3    0    0  0.24835091413E+02 -0.48755917167E-02 -0.35592715817E+02  0.47787271797E+02  0.20000003433E+02 0.  0.
         12    1    3    3    0    0 -0.24835091413E+02  0.48755917167E-02  0.35592715817E+02  0.43400728203E+02  0.00000000000E+00 0. -1.
         11    1    4    4    0    0  0.10481578242E+02 -0.69578025751E+01 -0.14795619869E+02  0.19421247815E+02  0.51100000000E-03 0. -1.
        -11    1    4    4    0    0  0.66364575055E+01  0.30708896016E+00 -0.15549458331E+02  0.16909243818E+02  0.51100000000E-03 0.  1.
        -12    1    4    4    0    0  0.77170556654E+01  0.66458380232E+01 -0.52476376181E+01  0.11456780165E+02  0.00000000000E+00 0.  1.
</event>
<event>
 8    1  0.3776180E-010  0.9118800E+02  0.7816164E-02  0.1184000E+00
        -11   -1    0    0    0    0  0.00000000000E+00  0.00000000000E+00  0.45593999997E+02  0.45594000000E+02  0.51100000000E-03 0. -1.
         11   -1    0    0    0    0 -0.00000000000E+00 -0.00000000000E+00 -0.45593999997E+02  0.45594000000E+02  0.51100000000E-03 0.  1.
         23    2    1    2    0    0 -0.35527136788E-14  0.00000000000E+00 -0.71054273576E-14  0.91188000000E+02  0.91188000000E+02 0.  0.
    9900012    2    3    3    0    0 -0.22063172061E+02 -0.20347450879E+02 -0.31349976520E+02  0.47787270208E+02  0.19999996185E+02 0.  0.
         12    1    3    3    0    0  0.22063172061E+02  0.20347450879E+02  0.31349976520E+02  0.43400729792E+02  0.00000000000E+00 0. -1.
         11    1    4    4    0    0 -0.13478227666E+02 -0.13447917296E+02 -0.11854360663E+02  0.22428441042E+02  0.51100000000E-03 0. -1.
        -11    1    4    4    0    0  0.44250210906E-01 -0.22977127104E+01  0.11085715092E+01  0.25515432257E+01  0.51100000000E-03 0.  1.
        -12    1    4    4    0    0 -0.86291946067E+01 -0.46018208730E+01 -0.20604187366E+02  0.22807285940E+02  0.00000000000E+00 0.  1.
</event>
<event>
 8    1  0.3776180E-010  0.9118800E+02  0.7816164E-02  0.1184000E+00
        -11   -1    0    0    0    0  0.00000000000E+00  0.00000000000E+00  0.45593999997E+02  0.45594000000E+02  0.51100000000E-03 0. -1.
         11   -1    0    0    0    0 -0.00000000000E+00 -0.00000000000E+00 -0.45593999997E+02  0.45594000000E+02  0.51100000000E-03 0.  1.
         23    2    1    2    0    0  0.17763568394E-14  0.00000000000E+00  0.00000000000E+00  0.91188000000E+02  0.91188000000E+02 0.  0.
    9900012    2    3    3    0    0  0.11367498216E+02  0.84998087429E+01  0.41014099831E+02  0.47787272480E+02  0.20000006546E+02 0.  0.
        -12    1    3    3    0    0 -0.11367498216E+02 -0.84998087429E+01 -0.41014099831E+02  0.43400727520E+02  0.00000000000E+00 0.  1.
         11    1    4    4    0    0  0.20226054160E+01 -0.87985983648E+00  0.11565795528E+02  0.11774239358E+02  0.51100000000E-03 0. -1.
        -11    1    4    4    0    0  0.18584165517E+01  0.83168830867E+01  0.26601753124E+02  0.27933448156E+02  0.51100000000E-03 0.  1.
        -12    1    4    4    0    0  0.74864762479E+01  0.10627854927E+01  0.28465511788E+01  0.80795849663E+01  0.00000000000E+00 0.  1.
</event>
<event>
 8    1  0.3776180E-010  0.9118800E+02  0.7816164E-02  0.1184000E+00
        -11   -1    0    0    0    0  0.00000000000E+00  0.00000000000E+00  0.45593999997E+02  0.45594000000E+02  0.51100000000E-03 0. -1.
         11   -1    0    0    0    0 -0.00000000000E+00 -0.00000000000E+00 -0.45593999997E+02  0.45594000000E+02  0.51100000000E-03 0.  1.
         23    2    1    2    0    0  0.35527136788E-14 -0.17763568394E-14  0.00000000000E+00  0.91188000000E+02  0.91188000000E+02 0.  0.
    9900012    2    3    3    0    0  0.25444395298E+02  0.10721101222E+02 -0.33485277836E+02  0.47787273103E+02  0.20000009385E+02 0.  0.
         12    1    3    3    0    0 -0.25444395298E+02 -0.10721101222E+02  0.33485277836E+02  0.43400726897E+02  0.00000000000E+00 0. -1.
         11    1    4    4    0    0  0.43617365087E+01  0.16525374139E+01 -0.24421734029E+01  0.52649631021E+01  0.51100000000E-03 0. -1.
        -11    1    4    4    0    0  0.22409667184E+02  0.61083870047E+01 -0.31612966927E+02  0.39228627981E+02  0.51100000000E-03 0.  1.
         12    1    4    4    0    0 -0.13270083946E+01  0.29601768030E+01  0.56986249436E+00  0.32936820197E+01  0.00000000000E+00 0. -1.
</event>
<event>
 8    1  0.3776180E-010  0.9118800E+02  0.7816164E-02  0.1184000E+00
        -11   -1    0    0    0    0  0.00000000000E+00  0.00000000000E+00  0.45593999997E+02  0.45594000000E+02  0.51100000000E-03 0. -1.
         11   -1    0    0    0    0 -0.00000000000E+00 -0.00000000000E+00 -0.45593999997E+02  0.45594000000E+02  0.51100000000E-03 0.  1.
         23    2    1    2    0    0 -0.17763568394E-14  0.35527136788E-14  0.00000000000E+00  0.91188000000E+02  0.91188000000E+02 0.  0.
    9900012    2    3    3    0    0  0.14856602777E+02 -0.11420077148E+02  0.39146983835E+02  0.47787272454E+02  0.20000006426E+02 0.  0.
        -12    1    3    3    0    0 -0.14856602777E+02  0.11420077148E+02 -0.39146983835E+02  0.43400727546E+02  0.00000000000E+00 0.  1.
         11    1    4    4    0    0  0.23576631612E+01 -0.21714727874E+01  0.57343622106E+01  0.65693820008E+01  0.51100000000E-03 0. -1.
        -11    1    4    4    0    0  0.72243065629E+01 -0.14597176713E+02  0.19502063700E+02  0.25408633614E+02  0.51100000000E-03 0.  1.
         12    1    4    4    0    0  0.52746330527E+01  0.53485723519E+01  0.13910557924E+02  0.15809256839E+02  0.00000000000E+00 0. -1.
</event>
<event>
 8    1  0.3776180E-010  0.9118800E+02  0.7816164E-02  0.1184000E+00
        -11   -1    0    0    0    0  0.00000000000E+00  0.00000000000E+00  0.45593999997E+02  0.45594000000E+02  0.51100000000E-03 0. -1.
         11   -1    0    0    0    0 -0.00000000000E+00 -0.00000000000E+00 -0.45593999997E+02  0.45594000000E+02  0.51100000000E-03 0.  1.
         23    2    1    2    0    0  0.35527136788E-14  0.44408920985E-15  0.00000000000E+00  0.91188000000E+02  0.91188000000E+02 0.  0.
    9900012    2    3    3    0    0  0.20844554439E+02 -0.22676080923E+01 -0.37999812759E+02  0.47787271135E+02  0.20000000415E+02 0.  0.
         12    1    3    3    0    0 -0.20844554439E+02  0.22676080923E+01  0.37999812759E+02  0.43400728865E+02  0.00000000000E+00 0. -1.
         11    1    4    4    0    0  0.29646418152E+01 -0.68493997292E+00 -0.31328544869E+01  0.43672670351E+01  0.51100000000E-03 0. -1.
        -11    1    4    4    0    0  0.21766604038E+02 -0.83428761820E+00 -0.27768899156E+02  0.35292957481E+02  0.51100000000E-03 0.  1.
         12    1    4    4    0    0 -0.38866914142E+01 -0.74838050118E+00 -0.70980591166E+01  0.81270466190E+01  0.00000000000E+00 0. -1.
</event>
<event>
 8    1  0.3776180E-010  0.9118800E+02  0.7816164E-02  0.1184000E+00
        -11   -1    0    0    0    0  0.00000000000E+00  0.00000000000E+00  0.45593999997E+02  0.45594000000E+02  0.51100000000E-03 0. -1.
         11   -1    0    0    0    0 -0.00000000000E+00 -0.00000000000E+00 -0.45593999997E+02  0.45594000000E+02  0.51100000000E-03 0.  1.
         23    2    1    2    0    0 -0.35527136788E-14  0.44408920985E-15  0.00000000000E+00  0.91188000000E+02  0.91188000000E+02 0.  0.
    9900012    2    3    3    0    0 -0.20136165874E+02 -0.30011141818E+01  0.38329522847E+02  0.47787260558E+02  0.19999952189E+02 0.  0.
        -12    1    3    3    0    0  0.20136165874E+02  0.30011141818E+01 -0.38329522847E+02  0.43400739442E+02  0.00000000000E+00 0.  1.
         11    1    4    4    0    0 -0.23062291873E+02 -0.31097086714E+01  0.29364779461E+02  0.37467717672E+02  0.51100000000E-03 0.  1.
        -11    1    4    4    0    0  0.32783062075E+00  0.15087308873E+01  0.57573386102E+01  0.59607625300E+01  0.51100000000E-03 0. -1.
        -12    1    4    4    0    0  0.25982953779E+01 -0.14001363977E+01  0.32074047752E+01  0.43587803564E+01  0.00000000000E+00 0.  1.
</event>
<event>
 8    1  0.3776180E-010  0.9118800E+02  0.7816164E-02  0.1184000E+00
        -11   -1    0    0    0    0  0.00000000000E+00  0.00000000000E+00  0.45593999997E+02  0.45594000000E+02  0.51100000000E-03 0. -1.
         11   -1    0    0    0    0 -0.00000000000E+00 -0.00000000000E+00 -0.45593999997E+02  0.45594000000E+02  0.51100000000E-03 0.  1.
         23    2    1    2    0    0  0.00000000000E+00  0.00000000000E+00  0.00000000000E+00  0.91188000000E+02  0.91188000000E+02 0.  0.
    9900012    2    3    3    0    0 -0.34635364033E+02  0.16418943851E+02  0.20357632107E+02  0.47787270238E+02  0.19999996323E+02 0.  0.
        -12    1    3    3    0    0  0.34635364033E+02 -0.16418943851E+02 -0.20357632107E+02  0.43400729762E+02  0.00000000000E+00 0.  1.
         11    1    4    4    0    0 -0.18733676921E+02 -0.10863167149E+01  0.13052967953E+02  0.22858493118E+02  0.51100000000E-03 0. -1.
        -11    1    4    4    0    0 -0.14494788167E+01  0.22928160295E+01  0.17322442107E+01  0.32184879139E+01  0.51100000000E-03 0.  1.
         12    1    4    4    0    0 -0.14452208295E+02  0.15212444537E+02  0.55724199436E+01  0.21710289206E+02  0.00000000000E+00 0. -1.
</event>
<event>
 8    1  0.3776180E-010  0.9118800E+02  0.7816164E-02  0.1184000E+00
        -11   -1    0    0    0    0  0.00000000000E+00  0.00000000000E+00  0.45593999997E+02  0.45594000000E+02  0.51100000000E-03 0.  1.
         11   -1    0    0    0    0 -0.00000000000E+00 -0.00000000000E+00 -0.45593999997E+02  0.45594000000E+02  0.51100000000E-03 0. -1.
         23    2    1    2    0    0  0.00000000000E+00  0.00000000000E+00 -0.35527136788E-14  0.91188000000E+02  0.91188000000E+02 0.  0.
    9900012    2    3    3    0    0 -0.17654984564E+02  0.25566179128E+02 -0.30303384945E+02  0.47787272653E+02  0.20000007333E+02 0.  0.
         12    1    3    3    0    0  0.17654984564E+02 -0.25566179128E+02  0.30303384945E+02  0.43400727347E+02  0.00000000000E+00 0. -1.
         11    1    4    4    0    0 -0.46561364612E+01  0.53690259596E+01 -0.96547809543E-01  0.71074164252E+01  0.51100000000E-03 0. -1.
        -11    1    4    4    0    0  0.22341205837E+01  0.51297680139E+01 -0.42735913669E+01  0.70405538200E+01  0.51100000000E-03 0.  1.
         12    1    4    4    0    0 -0.15232968687E+02  0.15067385154E+02 -0.25933245768E+02  0.33639302408E+02  0.00000000000E+00 0. -1.
</event>
<event>
 8    1  0.3776180E-010  0.9118800E+02  0.7816164E-02  0.1184000E+00
        -11   -1    0    0    0    0  0.00000000000E+00  0.00000000000E+00  0.45593999997E+02  0.45594000000E+02  0.51100000000E-03 0. -1.
         11   -1    0    0    0    0 -0.00000000000E+00 -0.00000000000E+00 -0.45593999997E+02  0.45594000000E+02  0.51100000000E-03 0.  1.
         23    2    1    2    0    0 -0.35527136788E-14  0.00000000000E+00  0.88817841970E-15  0.91188000000E+02  0.91188000000E+02 0.  0.
    9900012    2    3    3    0    0 -0.27171311937E+02  0.33049515923E+02 -0.72851061234E+01  0.47787268827E+02  0.19999989889E+02 0.  0.
         12    1    3    3    0    0  0.27171311937E+02 -0.33049515923E+02  0.72851061234E+01  0.43400731173E+02  0.00000000000E+00 0. -1.
         11    1    4    4    0    0 -0.23264078697E+01 -0.83303384427E+00  0.17259814531E+01  0.30141551385E+01  0.51100000000E-03 0. -1.
        -11    1    4    4    0    0 -0.11500487416E+02  0.72795551889E+01  0.21871234454E+00  0.13612529886E+02  0.51100000000E-03 0.  1.
        -12    1    4    4    0    0 -0.13344416651E+02  0.26602994578E+02 -0.92297999209E+01  0.31160583802E+02  0.00000000000E+00 0.  1.
</event>
<event>
 8    1  0.3776180E-010  0.9118800E+02  0.7816164E-02  0.1184000E+00
        -11   -1    0    0    0    0  0.00000000000E+00  0.00000000000E+00  0.45593999997E+02  0.45594000000E+02  0.51100000000E-03 0. -1.
         11   -1    0    0    0    0 -0.00000000000E+00 -0.00000000000E+00 -0.45593999997E+02  0.45594000000E+02  0.51100000000E-03 0.  1.
         23    2    1    2    0    0 -0.35527136788E-14 -0.17763568394E-14  0.71054273576E-14  0.91188000000E+02  0.91188000000E+02 0.  0.
    9900012    2    3    3    0    0 -0.99401428508E+01 -0.56651263278E+01  0.41865535133E+02  0.47787272723E+02  0.20000007654E+02 0.  0.
        -12    1    3    3    0    0  0.99401428508E+01  0.56651263278E+01 -0.41865535133E+02  0.43400727277E+02  0.00000000000E+00 0.  1.
         11    1    4    4    0    0 -0.95755744908E+01  0.52362036670E+01  0.20547045309E+02  0.23265651224E+02  0.51100000000E-03 0. -1.
        -11    1    4    4    0    0  0.17711474320E+01 -0.11879808399E+01  0.45640439697E+01  0.50377335499E+01  0.51100000000E-03 0.  1.
         12    1    4    4    0    0 -0.21357157920E+01 -0.97133491549E+01  0.16754445854E+02  0.19483887949E+02  0.00000000000E+00 0. -1.
</event>
<event>
 8    1  0.3776180E-010  0.9118800E+02  0.7816164E-02  0.1184000E+00
        -11   -1    0    0    0    0  0.00000000000E+00  0.00000000000E+00  0.45593999997E+02  0.45594000000E+02  0.51100000000E-03 0.  1.
         11   -1    0    0    0    0 -0.00000000000E+00 -0.00000000000E+00 -0.45593999997E+02  0.45594000000E+02  0.51100000000E-03 0. -1.
         23    2    1    2    0    0 -0.35527136788E-14 -0.71054273576E-14  0.88817841970E-15  0.91188000000E+02  0.91188000000E+02 0.  0.
    9900012    2    3    3    0    0 -0.25723898386E+02 -0.34879589405E+02  0.23062082952E+01  0.47787270721E+02  0.19999998527E+02 0.  0.
         12    1    3    3    0    0  0.25723898386E+02  0.34879589405E+02 -0.23062082952E+01  0.43400729279E+02  0.00000000000E+00 0. -1.
         11    1    4    4    0    0 -0.10217392849E+02 -0.15892777912E+02  0.42749665893E+01  0.19371392464E+02  0.51100000000E-03 0. -1.
        -11    1    4    4    0    0 -0.89516700626E+01 -0.11109783030E+02  0.59568166538E+01  0.15461026512E+02  0.51100000000E-03 0.  1.
         12    1    4    4    0    0 -0.65548354743E+01 -0.78770284625E+01 -0.79255749479E+01  0.12954851746E+02  0.00000000000E+00 0. -1.
</event>
<event>
 8    1  0.3776180E-010  0.9118800E+02  0.7816164E-02  0.1184000E+00
        -11   -1    0    0    0    0  0.00000000000E+00  0.00000000000E+00  0.45593999997E+02  0.45594000000E+02  0.51100000000E-03 0. -1.
         11   -1    0    0    0    0 -0.00000000000E+00 -0.00000000000E+00 -0.45593999997E+02  0.45594000000E+02  0.51100000000E-03 0.  1.
         23    2    1    2    0    0 -0.44408920985E-15  0.00000000000E+00  0.00000000000E+00  0.91188000000E+02  0.91188000000E+02 0.  0.
    9900012    2    3    3    0    0 -0.27161427704E+01 -0.66236379111E+01  0.42806227508E+02  0.47787272768E+02  0.20000007861E+02 0.  0.
        -12    1    3    3    0    0  0.27161427704E+01  0.66236379111E+01 -0.42806227508E+02  0.43400727232E+02  0.00000000000E+00 0.  1.
         11    1    4    4    0    0  0.22349185086E+00  0.56663475175E+00 -0.11429953654E+01  0.12951687982E+01  0.51100000000E-03 0. -1.
        -11    1    4    4    0    0 -0.73237406724E+01 -0.13356043185E+01  0.16813012877E+02  0.18387452749E+02  0.51100000000E-03 0.  1.
         12    1    4    4    0    0  0.43841060511E+01 -0.58546683443E+01  0.27136209996E+02  0.28104651221E+02  0.00000000000E+00 0. -1.
</event>
<event>
 8    1  0.3776180E-010  0.9118800E+02  0.7816164E-02  0.1184000E+00
        -11   -1    0    0    0    0  0.00000000000E+00  0.00000000000E+00  0.45593999997E+02  0.45594000000E+02  0.51100000000E-03 0. -1.
         11   -1    0    0    0    0 -0.00000000000E+00 -0.00000000000E+00 -0.45593999997E+02  0.45594000000E+02  0.51100000000E-03 0.  1.
         23    2    1    2    0    0  0.00000000000E+00 -0.35527136788E-14  0.00000000000E+00  0.91188000000E+02  0.91188000000E+02 0.  0.
    9900012    2    3    3    0    0 -0.32827782735E+01 -0.31778521459E+02 -0.29376403248E+02  0.47787261215E+02  0.19999955183E+02 0.  0.
         12    1    3    3    0    0  0.32827782735E+01  0.31778521459E+02  0.29376403248E+02  0.43400738785E+02  0.00000000000E+00 0. -1.
         11    1    4    4    0    0 -0.19981299352E+00  0.10247209214E+01 -0.71954932010E+00  0.12679628087E+01  0.51100000000E-03 0. -1.
        -11    1    4    4    0    0  0.28469673932E+01 -0.25415388283E+02 -0.26450632814E+02  0.36792433481E+02  0.51100000000E-03 0.  1.
         12    1    4    4    0    0 -0.59299326732E+01 -0.73878540970E+01 -0.22062211138E+01  0.97268649251E+01  0.00000000000E+00 0. -1.
</event>
<event>
 8    1  0.3776180E-010  0.9118800E+02  0.7816164E-02  0.1184000E+00
        -11   -1    0    0    0    0  0.00000000000E+00  0.00000000000E+00  0.45593999997E+02  0.45594000000E+02  0.51100000000E-03 0.  1.
         11   -1    0    0    0    0 -0.00000000000E+00 -0.00000000000E+00 -0.45593999997E+02  0.45594000000E+02  0.51100000000E-03 0. -1.
         23    2    1    2    0    0  0.17763568394E-14  0.35527136788E-14  0.35527136788E-14  0.91188000000E+02  0.91188000000E+02 0.  0.
    9900012    2    3    3    0    0  0.79999721884E+01  0.31277832372E+02  0.29005534657E+02  0.47787269664E+02  0.19999993707E+02 0.  0.
        -12    1    3    3    0    0 -0.79999721884E+01 -0.31277832372E+02 -0.29005534657E+02  0.43400730336E+02  0.00000000000E+00 0.  1.
         11    1    4    4    0    0  0.12241318829E+02  0.21648400144E+02  0.17249613115E+02  0.30266355386E+02  0.51100000000E-03 0. -1.
        -11    1    4    4    0    0  0.80529341350E+00  0.51622123399E+00 -0.77093435341E+00  0.12285446197E+01  0.51100000000E-03 0.  1.
        -12    1    4    4    0    0 -0.50466400540E+01  0.91132109944E+01  0.12526855896E+02  0.16292369659E+02  0.00000000000E+00 0.  1.
</event>
<event>
 8    1  0.3776180E-010  0.9118800E+02  0.7816164E-02  0.1184000E+00
        -11   -1    0    0    0    0  0.00000000000E+00  0.00000000000E+00  0.45593999997E+02  0.45594000000E+02  0.51100000000E-03 0. -1.
         11   -1    0    0    0    0 -0.00000000000E+00 -0.00000000000E+00 -0.45593999997E+02  0.45594000000E+02  0.51100000000E-03 0.  1.
         23    2    1    2    0    0  0.00000000000E+00 -0.71054273576E-14  0.00000000000E+00  0.91188000000E+02  0.91188000000E+02 0.  0.
    9900012    2    3    3    0    0 -0.10956445224E+02 -0.37409204520E+02  0.19082231738E+02  0.47787264489E+02  0.19999970111E+02 0.  0.
        -12    1    3    3    0    0  0.10956445224E+02  0.37409204520E+02 -0.19082231738E+02  0.43400735511E+02  0.00000000000E+00 0.  1.
         11    1    4    4    0    0 -0.21439945022E+01 -0.31150190883E+01  0.61666639423E+01  0.72337957383E+01  0.51100000000E-03 0. -1.
        -11    1    4    4    0    0 -0.16734340321E+01 -0.17916428705E+01 -0.28255947808E+01  0.37409025330E+01  0.51100000000E-03 0.  1.
         12    1    4    4    0    0 -0.71390166896E+01 -0.32502542561E+02  0.15741162577E+02  0.36812566218E+02  0.00000000000E+00 0. -1.
</event>
<event>
 8    1  0.3776180E-010  0.9118800E+02  0.7816164E-02  0.1184000E+00
        -11   -1    0    0    0    0  0.00000000000E+00  0.00000000000E+00  0.45593999997E+02  0.45594000000E+02  0.51100000000E-03 0. -1.
         11   -1    0    0    0    0 -0.00000000000E+00 -0.00000000000E+00 -0.45593999997E+02  0.45594000000E+02  0.51100000000E-03 0.  1.
         23    2    1    2    0    0  0.00000000000E+00  0.00000000000E+00  0.00000000000E+00  0.91188000000E+02  0.91188000000E+02 0.  0.
    9900012    2    3    3    0    0  0.84977811424E+01 -0.21638283706E+02  0.36649556386E+02  0.47787336533E+02  0.20000298586E+02 0.  0.
        -12    1    3    3    0    0 -0.84977811424E+01  0.21638283706E+02 -0.36649556386E+02  0.43400663467E+02  0.00000000000E+00 0.  1.
         11    1    4    4    0    0  0.74857234642E+01 -0.10656020696E+01  0.39609894288E+01  0.85358655723E+01  0.51100000000E-03 0.  1.
        -11    1    4    4    0    0 -0.12129274207E+01 -0.53029445524E+01  0.13974201656E+02  0.14995690249E+02  0.51100000000E-03 0. -1.
        -12    1    4    4    0    0  0.22249850990E+01 -0.15269737084E+02  0.18714365301E+02  0.24255780712E+02  0.00000000000E+00 0.  1.
</event>
<event>
 8    1  0.3776180E-010  0.9118800E+02  0.7816164E-02  0.1184000E+00
        -11   -1    0    0    0    0  0.00000000000E+00  0.00000000000E+00  0.45593999997E+02  0.45594000000E+02  0.51100000000E-03 0. -1.
         11   -1    0    0    0    0 -0.00000000000E+00 -0.00000000000E+00 -0.45593999997E+02  0.45594000000E+02  0.51100000000E-03 0.  1.
         23    2    1    2    0    0  0.00000000000E+00  0.00000000000E+00  0.00000000000E+00  0.91188000000E+02  0.91188000000E+02 0.  0.
    9900012    2    3    3    0    0 -0.33781251658E+02 -0.16965181486E+02 -0.21322130706E+02  0.47787267239E+02  0.19999982647E+02 0.  0.
         12    1    3    3    0    0  0.33781251658E+02  0.16965181486E+02  0.21322130706E+02  0.43400732761E+02  0.00000000000E+00 0. -1.
         11    1    4    4    0    0 -0.18900926786E+02 -0.33127884632E+01 -0.13878005433E+02  0.23681609655E+02  0.51100000000E-03 0. -1.
        -11    1    4    4    0    0 -0.14792719338E+02 -0.71945925281E+01 -0.57903183679E+01  0.17438878809E+02  0.51100000000E-03 0.  1.
         12    1    4    4    0    0 -0.87605533715E-01 -0.64578004945E+01 -0.16538069052E+01  0.66667787751E+01  0.00000000000E+00 0. -1.
</event>
<event>
 8    1  0.3776180E-010  0.9118800E+02  0.7816164E-02  0.1184000E+00
        -11   -1    0    0    0    0  0.00000000000E+00  0.00000000000E+00  0.45593999997E+02  0.45594000000E+02  0.51100000000E-03 0. -1.
         11   -1    0    0    0    0 -0.00000000000E+00 -0.00000000000E+00 -0.45593999997E+02  0.45594000000E+02  0.51100000000E-03 0.  1.
         23    2    1    2    0    0 -0.88817841970E-15  0.00000000000E+00  0.35527136788E-14  0.91188000000E+02  0.91188000000E+02 0.  0.
    9900012    2    3    3    0    0  0.51057132029E+01  0.29093227300E+02 -0.31798417448E+02  0.47787268045E+02  0.19999986324E+02 0.  0.
         12    1    3    3    0    0 -0.51057132029E+01 -0.29093227300E+02  0.31798417448E+02  0.43400731955E+02  0.00000000000E+00 0. -1.
         11    1    4    4    0    0 -0.64376512774E+00  0.16215727703E+00 -0.44054961890E+01  0.44552357350E+01  0.51100000000E-03 0. -1.
        -11    1    4    4    0    0  0.73977572952E+00  0.25769589902E+02 -0.27096060228E+02  0.37400742132E+02  0.51100000000E-03 0.  1.
        -12    1    4    4    0    0  0.50097026011E+01  0.31614801212E+01 -0.29686103057E+00  0.59312901784E+01  0.00000000000E+00 0.  1.
</event>
<event>
 8    1  0.3776180E-010  0.9118800E+02  0.7816164E-02  0.1184000E+00
        -11   -1    0    0    0    0  0.00000000000E+00  0.00000000000E+00  0.45593999997E+02  0.45594000000E+02  0.51100000000E-03 0. -1.
         11   -1    0    0    0    0 -0.00000000000E+00 -0.00000000000E+00 -0.45593999997E+02  0.45594000000E+02  0.51100000000E-03 0.  1.
         23    2    1    2    0    0  0.17763568394E-14  0.00000000000E+00  0.00000000000E+00  0.91188000000E+02  0.91188000000E+02 0.  0.
    9900012    2    3    3    0    0 -0.91949579792E+01 -0.22856896417E+02 -0.35730075132E+02  0.47787271492E+02  0.20000002042E+02 0.  0.
         12    1    3    3    0    0  0.91949579792E+01  0.22856896417E+02  0.35730075132E+02  0.43400728508E+02  0.00000000000E+00 0. -1.
         11    1    4    4    0    0 -0.51560367599E+01 -0.74505757610E+00 -0.68330802296E+01  0.85924857606E+01  0.51100000000E-03 0. -1.
        -11    1    4    4    0    0 -0.92014908861E+01 -0.15374322102E+02 -0.20952425936E+02  0.27568847772E+02  0.51100000000E-03 0.  1.
        -12    1    4    4    0    0  0.51625696668E+01 -0.67375167387E+01 -0.79445689665E+01  0.11625937959E+02  0.00000000000E+00 0.  1.
</event>
<event>
 8    1  0.3776180E-010  0.9118800E+02  0.7816164E-02  0.1184000E+00
        -11   -1    0    0    0    0  0.00000000000E+00  0.00000000000E+00  0.45593999997E+02  0.45594000000E+02  0.51100000000E-03 0.  1.
         11   -1    0    0    0    0 -0.00000000000E+00 -0.00000000000E+00 -0.45593999997E+02  0.45594000000E+02  0.51100000000E-03 0. -1.
         23    2    1    2    0    0  0.00000000000E+00 -0.71054273576E-14  0.00000000000E+00  0.91188000000E+02  0.91188000000E+02 0.  0.
    9900012    2    3    3    0    0  0.11863252077E+02  0.37540552357E+02 -0.18264540880E+02  0.47787271035E+02  0.19999999957E+02 0.  0.
         12    1    3    3    0    0 -0.11863252077E+02 -0.37540552357E+02  0.18264540880E+02  0.43400728965E+02  0.00000000000E+00 0. -1.
         11    1    4    4    0    0  0.42235672588E+00  0.92820964048E+01 -0.29784579543E+00  0.92964730544E+01  0.51100000000E-03 0. -1.
        -11    1    4    4    0    0  0.72091534265E+01  0.18928475182E+02 -0.31816799403E+01  0.20503222999E+02  0.51100000000E-03 0.  1.
         12    1    4    4    0    0  0.42317419246E+01  0.93299807703E+01 -0.14785015144E+02  0.17987574981E+02  0.00000000000E+00 0. -1.
</event>
<event>
 8    1  0.3776180E-010  0.9118800E+02  0.7816164E-02  0.1184000E+00
        -11   -1    0    0    0    0  0.00000000000E+00  0.00000000000E+00  0.45593999997E+02  0.45594000000E+02  0.51100000000E-03 0. -1.
         11   -1    0    0    0    0 -0.00000000000E+00 -0.00000000000E+00 -0.45593999997E+02  0.45594000000E+02  0.51100000000E-03 0.  1.
         23    2    1    2    0    0 -0.88817841970E-15  0.00000000000E+00  0.00000000000E+00  0.91188000000E+02  0.91188000000E+02 0.  0.
    9900012    2    3    3    0    0 -0.57915131550E+01  0.35638983868E+02 -0.24082035611E+02  0.47787271493E+02  0.20000002045E+02 0.  0.
         12    1    3    3    0    0  0.57915131550E+01 -0.35638983868E+02  0.24082035611E+02  0.43400728507E+02  0.00000000000E+00 0. -1.
         11    1    4    4    0    0 -0.87703091746E+01  0.98662503422E+01 -0.10960346642E+02  0.17157809231E+02  0.51100000000E-03 0. -1.
        -11    1    4    4    0    0  0.10711658931E+01 -0.17167330452E-01  0.72674735960E+00  0.12945474397E+01  0.51100000000E-03 0.  1.
        -12    1    4    4    0    0  0.19076301265E+01  0.25789900856E+02 -0.13848436329E+02  0.29334914822E+02  0.00000000000E+00 0.  1.
</event>
<event>
 8    1  0.3776180E-010  0.9118800E+02  0.7816164E-02  0.1184000E+00
        -11   -1    0    0    0    0  0.00000000000E+00  0.00000000000E+00  0.45593999997E+02  0.45594000000E+02  0.51100000000E-03 0. -1.
         11   -1    0    0    0    0 -0.00000000000E+00 -0.00000000000E+00 -0.45593999997E+02  0.45594000000E+02  0.51100000000E-03 0.  1.
         23    2    1    2    0    0  0.35527136788E-14  0.71054273576E-14  0.35527136788E-14  0.91188000000E+02  0.91188000000E+02 0.  0.
    9900012    2    3    3    0    0 -0.16510678699E+02 -0.37060143476E+02 -0.15413226475E+02  0.47787259269E+02  0.19999946312E+02 0.  0.
         12    1    3    3    0    0  0.16510678699E+02  0.37060143476E+02  0.15413226475E+02  0.43400740731E+02  0.00000000000E+00 0. -1.
         11    1    4    4    0    0 -0.37650315234E+01 -0.26980332866E+01 -0.23566049149E+01  0.51969638226E+01  0.51100000000E-03 0. -1.
        -11    1    4    4    0    0 -0.71912650037E+01 -0.12829273634E+02 -0.14037282654E+02  0.20331007326E+02  0.51100000000E-03 0.  1.
         12    1    4    4    0    0 -0.55543821722E+01 -0.21532836556E+02  0.98066109365E+00  0.22259288121E+02  0.00000000000E+00 0. -1.
</event>
<event>
 8    1  0.3776180E-010  0.9118800E+02  0.7816164E-02  0.1184000E+00
        -11   -1    0    0    0    0  0.00000000000E+00  0.00000000000E+00  0.45593999997E+02  0.45594000000E+02  0.51100000000E-03 0. -1.
         11   -1    0    0    0    0 -0.00000000000E+00 -0.00000000000E+00 -0.45593999997E+02  0.45594000000E+02  0.51100000000E-03 0.  1.
         23    2    1    2    0    0  0.00000000000E+00 -0.17763568394E-14 -0.71054273576E-14  0.91188000000E+02  0.91188000000E+02 0.  0.
    9900012    2    3    3    0    0 -0.21790090652E+02 -0.76670909216E+01  0.36742765436E+02  0.47787272521E+02  0.20000006734E+02 0.  0.
        -12    1    3    3    0    0  0.21790090652E+02  0.76670909216E+01 -0.36742765436E+02  0.43400727479E+02  0.00000000000E+00 0.  1.
         11    1    4    4    0    0 -0.13119953881E+02 -0.70006964690E+01  0.20350860458E+02  0.25205167378E+02  0.51100000000E-03 0. -1.
        -11    1    4    4    0    0 -0.68543483878E+01 -0.64704645971E+01  0.10583222826E+02  0.14172283146E+02  0.51100000000E-03 0.  1.
        -12    1    4    4    0    0 -0.18157883829E+01  0.58040701445E+01  0.58086821519E+01  0.84098219978E+01  0.00000000000E+00 0.  1.
</event>
<event>
 8    1  0.3776180E-010  0.9118800E+02  0.7816164E-02  0.1184000E+00
        -11   -1    0    0    0    0  0.00000000000E+00  0.00000000000E+00  0.45593999997E+02  0.45594000000E+02  0.51100000000E-03 0. -1.
         11   -1    0    0    0    0 -0.00000000000E+00 -0.00000000000E+00 -0.45593999997E+02  0.45594000000E+02  0.51100000000E-03 0.  1.
         23    2    1    2    0    0  0.00000000000E+00  0.88817841970E-15  0.17763568394E-14  0.91188000000E+02  0.91188000000E+02 0.  0.
    9900012    2    3    3    0    0  0.40959984046E+02  0.41662590981E+01 -0.13731173433E+02  0.47787272681E+02  0.20000007463E+02 0.  0.
         12    1    3    3    0    0 -0.40959984046E+02 -0.41662590981E+01  0.13731173433E+02  0.43400727319E+02  0.00000000000E+00 0. -1.
         11    1    4    4    0    0  0.17265291323E+02  0.26836658970E+01 -0.10021249316E+02  0.20142437420E+02  0.51100000000E-03 0. -1.
        -11    1    4    4    0    0  0.20228658558E+02  0.61799171572E+01 -0.48412482799E+01  0.21698564199E+02  0.51100000000E-03 0.  1.
         12    1    4    4    0    0  0.34660341655E+01 -0.46973239561E+01  0.11313241630E+01  0.59462710623E+01  0.00000000000E+00 0. -1.
</event>
<event>
 8    1  0.3776180E-010  0.9118800E+02  0.7816164E-02  0.1184000E+00
        -11   -1    0    0    0    0  0.00000000000E+00  0.00000000000E+00  0.45593999997E+02  0.45594000000E+02  0.51100000000E-03 0. -1.
         11   -1    0    0    0    0 -0.00000000000E+00 -0.00000000000E+00 -0.45593999997E+02  0.45594000000E+02  0.51100000000E-03 0.  1.
         23    2    1    2    0    0  0.88817841970E-15  0.00000000000E+00  0.00000000000E+00  0.91188000000E+02  0.91188000000E+02 0.  0.
    9900012    2    3    3    0    0  0.31281228755E+01 -0.48188128464E+01 -0.43018795454E+02  0.47787275671E+02  0.20000021092E+02 0.  0.
         12    1    3    3    0    0 -0.31281228755E+01  0.48188128464E+01  0.43018795454E+02  0.43400724329E+02  0.00000000000E+00 0. -1.
         11    1    4    4    0    0  0.36882878322E+01 -0.57213470841E+01 -0.48159549591E+01  0.83385071817E+01  0.51100000000E-03 0. -1.
        -11    1    4    4    0    0 -0.73021224307E+00  0.12883076622E+01 -0.25991003942E+00  0.15034959401E+01  0.51100000000E-03 0.  1.
        -12    1    4    4    0    0  0.17004728637E+00 -0.38577342441E+00 -0.37942930456E+02  0.37945272549E+02  0.00000000000E+00 0.  1.
</event>
<event>
 8    1  0.3776180E-010  0.9118800E+02  0.7816164E-02  0.1184000E+00
        -11   -1    0    0    0    0  0.00000000000E+00  0.00000000000E+00  0.45593999997E+02  0.45594000000E+02  0.51100000000E-03 0. -1.
         11   -1    0    0    0    0 -0.00000000000E+00 -0.00000000000E+00 -0.45593999997E+02  0.45594000000E+02  0.51100000000E-03 0.  1.
         23    2    1    2    0    0  0.17763568394E-14  0.00000000000E+00  0.00000000000E+00  0.91188000000E+02  0.91188000000E+02 0.  0.
    9900012    2    3    3    0    0  0.11522210278E+02  0.34215524017E+02 -0.24086512143E+02  0.47787268662E+02  0.19999989138E+02 0.  0.
         12    1    3    3    0    0 -0.11522210278E+02 -0.34215524017E+02  0.24086512143E+02  0.43400731338E+02  0.00000000000E+00 0. -1.
         11    1    4    4    0    0 -0.78644760949E+00 -0.19240749277E+00 -0.14287947688E+01  0.16422470089E+01  0.51100000000E-03 0. -1.
        -11    1    4    4    0    0  0.60337662533E+01  0.30326985638E+02 -0.12103259528E+02  0.33205741741E+02  0.51100000000E-03 0.  1.
        -12    1    4    4    0    0  0.62748916340E+01  0.40809458719E+01 -0.10554457846E+02  0.12939279912E+02  0.00000000000E+00 0.  1.
</event>
<event>
 8    1  0.3776180E-010  0.9118800E+02  0.7816164E-02  0.1184000E+00
        -11   -1    0    0    0    0  0.00000000000E+00  0.00000000000E+00  0.45593999997E+02  0.45594000000E+02  0.51100000000E-03 0.  1.
         11   -1    0    0    0    0 -0.00000000000E+00 -0.00000000000E+00 -0.45593999997E+02  0.45594000000E+02  0.51100000000E-03 0. -1.
         23    2    1    2    0    0  0.00000000000E+00  0.00000000000E+00  0.00000000000E+00  0.91188000000E+02  0.91188000000E+02 0.  0.
    9900012    2    3    3    0    0  0.22277767281E+02 -0.16735862360E+02  0.33275146680E+02  0.47787269700E+02  0.19999993871E+02 0.  0.
        -12    1    3    3    0    0 -0.22277767281E+02  0.16735862360E+02 -0.33275146680E+02  0.43400730300E+02  0.00000000000E+00 0.  1.
         11    1    4    4    0    0  0.56260355282E+01  0.13064144609E+01  0.56133507697E+01  0.80541108531E+01  0.51100000000E-03 0. -1.
        -11    1    4    4    0    0  0.14130583120E+02 -0.52386446888E+01  0.11478011822E+02  0.18943640968E+02  0.51100000000E-03 0.  1.
        -12    1    4    4    0    0  0.25211486330E+01 -0.12803632132E+02  0.16183784088E+02  0.20789517879E+02  0.00000000000E+00 0.  1.
</event>
<event>
 8    1  0.3776180E-010  0.9118800E+02  0.7816164E-02  0.1184000E+00
        -11   -1    0    0    0    0  0.00000000000E+00  0.00000000000E+00  0.45593999997E+02  0.45594000000E+02  0.51100000000E-03 0. -1.
         11   -1    0    0    0    0 -0.00000000000E+00 -0.00000000000E+00 -0.45593999997E+02  0.45594000000E+02  0.51100000000E-03 0.  1.
         23    2    1    2    0    0  0.00000000000E+00  0.00000000000E+00  0.35527136788E-14  0.91188000000E+02  0.91188000000E+02 0.  0.
    9900012    2    3    3    0    0 -0.29779959669E+02  0.19866050679E+02  0.24538080040E+02  0.47787270288E+02  0.19999996552E+02 0.  0.
        -12    1    3    3    0    0  0.29779959669E+02 -0.19866050679E+02 -0.24538080040E+02  0.43400729712E+02  0.00000000000E+00 0.  1.
         11    1    4    4    0    0 -0.14617553208E+02  0.81809601245E+01  0.15954103298E+02  0.23132971765E+02  0.51100000000E-03 0. -1.
        -11    1    4    4    0    0 -0.40921585744E+00  0.21285770758E+01  0.66213928489E+01  0.69671473004E+01  0.51100000000E-03 0.  1.
         12    1    4    4    0    0 -0.14753190604E+02  0.95565134789E+01  0.19625838926E+01  0.17687151223E+02  0.00000000000E+00 0. -1.
</event>
<event>
 8    1  0.3776180E-010  0.9118800E+02  0.7816164E-02  0.1184000E+00
        -11   -1    0    0    0    0  0.00000000000E+00  0.00000000000E+00  0.45593999997E+02  0.45594000000E+02  0.51100000000E-03 0. -1.
         11   -1    0    0    0    0 -0.00000000000E+00 -0.00000000000E+00 -0.45593999997E+02  0.45594000000E+02  0.51100000000E-03 0.  1.
         23    2    1    2    0    0  0.00000000000E+00  0.00000000000E+00  0.00000000000E+00  0.91188000000E+02  0.91188000000E+02 0.  0.
    9900012    2    3    3    0    0  0.53190821293E+01  0.20899307969E+02 -0.37663627345E+02  0.47787279579E+02  0.20000038912E+02 0.  0.
         12    1    3    3    0    0 -0.53190821293E+01 -0.20899307969E+02  0.37663627345E+02  0.43400720421E+02  0.00000000000E+00 0. -1.
         11    1    4    4    0    0  0.51394408204E+01  0.13505596849E+02 -0.31145489796E+02  0.34334480236E+02  0.51100000000E-03 0. -1.
        -11    1    4    4    0    0 -0.23402593047E+01 -0.26849237828E+00 -0.45906755868E+01  0.51597678606E+01  0.51100000000E-03 0.  1.
        -12    1    4    4    0    0  0.25199006137E+01  0.76622034982E+01 -0.19274619625E+01  0.82930314823E+01  0.00000000000E+00 0.  1.
</event>
<event>
 8    1  0.3776180E-010  0.9118800E+02  0.7816164E-02  0.1184000E+00
        -11   -1    0    0    0    0  0.00000000000E+00  0.00000000000E+00  0.45593999997E+02  0.45594000000E+02  0.51100000000E-03 0. -1.
         11   -1    0    0    0    0 -0.00000000000E+00 -0.00000000000E+00 -0.45593999997E+02  0.45594000000E+02  0.51100000000E-03 0.  1.
         23    2    1    2    0    0  0.17763568394E-14  0.00000000000E+00  0.71054273576E-14  0.91188000000E+02  0.91188000000E+02 0.  0.
    9900012    2    3    3    0    0 -0.12107782903E+02 -0.96864759477E+01 -0.40536372710E+02  0.47787265725E+02  0.19999975746E+02 0.  0.
         12    1    3    3    0    0  0.12107782903E+02  0.96864759477E+01  0.40536372710E+02  0.43400734275E+02  0.00000000000E+00 0. -1.
         11    1    4    4    0    0 -0.46694678097E+01  0.15153056198E+01 -0.45383069157E+01  0.66855299468E+01  0.51100000000E-03 0. -1.
        -11    1    4    4    0    0  0.17920646749E+01 -0.51194734051E+01 -0.27846997566E+01  0.60971351257E+01  0.51100000000E-03 0.  1.
        -12    1    4    4    0    0 -0.92303797681E+01 -0.60823081624E+01 -0.33213366038E+02  0.35004600652E+02  0.00000000000E+00 0.  1.
</event>
<event>
 8    1  0.3776180E-010  0.9118800E+02  0.7816164E-02  0.1184000E+00
        -11   -1    0    0    0    0  0.00000000000E+00  0.00000000000E+00  0.45593999997E+02  0.45594000000E+02  0.51100000000E-03 0. -1.
         11   -1    0    0    0    0 -0.00000000000E+00 -0.00000000000E+00 -0.45593999997E+02  0.45594000000E+02  0.51100000000E-03 0.  1.
         23    2    1    2    0    0  0.00000000000E+00  0.00000000000E+00  0.00000000000E+00  0.91188000000E+02  0.91188000000E+02 0.  0.
    9900012    2    3    3    0    0 -0.19756404368E+02  0.14935038518E+02  0.35640601768E+02  0.47787269782E+02  0.19999994246E+02 0.  0.
        -12    1    3    3    0    0  0.19756404368E+02 -0.14935038518E+02 -0.35640601768E+02  0.43400730218E+02  0.00000000000E+00 0.  1.
         11    1    4    4    0    0 -0.30282181770E+01  0.41400501922E+01  0.19653551314E+02  0.20311873385E+02  0.51100000000E-03 0. -1.
        -11    1    4    4    0    0 -0.50057541124E+01  0.75923893641E+01  0.11168997647E+02  0.14403071172E+02  0.51100000000E-03 0.  1.
        -12    1    4    4    0    0 -0.11722432078E+02  0.32025989615E+01  0.48180528069E+01  0.13072325225E+02  0.00000000000E+00 0.  1.
</event>
<event>
 8    1  0.3776180E-010  0.9118800E+02  0.7816164E-02  0.1184000E+00
        -11   -1    0    0    0    0  0.00000000000E+00  0.00000000000E+00  0.45593999997E+02  0.45594000000E+02  0.51100000000E-03 0. -1.
         11   -1    0    0    0    0 -0.00000000000E+00 -0.00000000000E+00 -0.45593999997E+02  0.45594000000E+02  0.51100000000E-03 0.  1.
         23    2    1    2    0    0  0.00000000000E+00  0.00000000000E+00  0.00000000000E+00  0.91188000000E+02  0.91188000000E+02 0.  0.
    9900012    2    3    3    0    0 -0.34677383152E+02  0.24308221357E+01 -0.25984465304E+02  0.47787283006E+02  0.20000054535E+02 0.  0.
         12    1    3    3    0    0  0.34677383152E+02 -0.24308221357E+01  0.25984465304E+02  0.43400716994E+02  0.00000000000E+00 0. -1.
         11    1    4    4    0    0  0.58098961067E+00 -0.18218784205E+01 -0.80790331728E+00  0.20759330283E+01  0.51100000000E-03 0. -1.
        -11    1    4    4    0    0 -0.18349882732E+02  0.73969869317E+00 -0.47622577974E+01  0.18972202034E+02  0.51100000000E-03 0.  1.
        -12    1    4    4    0    0 -0.16908490030E+02  0.35130018630E+01 -0.20414304189E+02  0.26739147943E+02  0.00000000000E+00 0.  1.
</event>
<event>
 8    1  0.3776180E-010  0.9118800E+02  0.7816164E-02  0.1184000E+00
        -11   -1    0    0    0    0  0.00000000000E+00  0.00000000000E+00  0.45593999997E+02  0.45594000000E+02  0.51100000000E-03 0. -1.
         11   -1    0    0    0    0 -0.00000000000E+00 -0.00000000000E+00 -0.45593999997E+02  0.45594000000E+02  0.51100000000E-03 0.  1.
         23    2    1    2    0    0 -0.88817841970E-15  0.35527136788E-14  0.00000000000E+00  0.91188000000E+02  0.91188000000E+02 0.  0.
    9900012    2    3    3    0    0 -0.63681583574E+01 -0.20574760880E+02 -0.37679556247E+02  0.47787272067E+02  0.20000004661E+02 0.  0.
         12    1    3    3    0    0  0.63681583574E+01  0.20574760880E+02  0.37679556247E+02  0.43400727933E+02  0.00000000000E+00 0. -1.
         11    1    4    4    0    0 -0.44008668880E+01 -0.49681077403E+01 -0.48570833321E+01  0.82244138174E+01  0.51100000000E-03 0. -1.
        -11    1    4    4    0    0 -0.47731063007E+01 -0.11074122171E+02 -0.31964500461E+02  0.34163548054E+02  0.51100000000E-03 0.  1.
         12    1    4    4    0    0  0.28058148313E+01 -0.45325309694E+01 -0.85797245386E+00  0.53993101955E+01  0.00000000000E+00 0. -1.
</event>
<event>
 8    1  0.3776180E-010  0.9118800E+02  0.7816164E-02  0.1184000E+00
        -11   -1    0    0    0    0  0.00000000000E+00  0.00000000000E+00  0.45593999997E+02  0.45594000000E+02  0.51100000000E-03 0. -1.
         11   -1    0    0    0    0 -0.00000000000E+00 -0.00000000000E+00 -0.45593999997E+02  0.45594000000E+02  0.51100000000E-03 0.  1.
         23    2    1    2    0    0 -0.17763568394E-14  0.00000000000E+00  0.00000000000E+00  0.91188000000E+02  0.91188000000E+02 0.  0.
    9900012    2    3    3    0    0  0.65291766949E+01 -0.29138707010E+02 -0.31494910664E+02  0.47787265072E+02  0.19999972771E+02 0.  0.
         12    1    3    3    0    0 -0.65291766949E+01  0.29138707010E+02  0.31494910664E+02  0.43400734928E+02  0.00000000000E+00 0. -1.
         11    1    4    4    0    0 -0.73876763252E+00 -0.19882262969E+01 -0.40033689939E-01  0.21214203685E+01  0.51100000000E-03 0. -1.
        -11    1    4    4    0    0 -0.29922907511E+01 -0.12623448514E+02 -0.52492236844E+01  0.13994985026E+02  0.51100000000E-03 0.  1.
         12    1    4    4    0    0  0.10260235079E+02 -0.14527032198E+02 -0.26205653290E+02  0.31670859678E+02  0.00000000000E+00 0. -1.
</event>
<event>
 8    1  0.3776180E-010  0.9118800E+02  0.7816164E-02  0.1184000E+00
        -11   -1    0    0    0    0  0.00000000000E+00  0.00000000000E+00  0.45593999997E+02  0.45594000000E+02  0.51100000000E-03 0.  1.
         11   -1    0    0    0    0 -0.00000000000E+00 -0.00000000000E+00 -0.45593999997E+02  0.45594000000E+02  0.51100000000E-03 0. -1.
         23    2    1    2    0    0  0.00000000000E+00  0.00000000000E+00  0.11102230246E-15  0.91188000000E+02  0.91188000000E+02 0.  0.
    9900012    2    3    3    0    0  0.18681162596E+02  0.39170120090E+02  0.58230598099E+00  0.47787271619E+02  0.20000002618E+02 0.  0.
        -12    1    3    3    0    0 -0.18681162596E+02 -0.39170120090E+02 -0.58230598099E+00  0.43400728381E+02  0.00000000000E+00 0.  1.
         11    1    4    4    0    0  0.54238667409E+00 -0.22140030972E+01  0.44942859815E+00  0.23233551913E+01  0.51100000000E-03 0.  1.
        -11    1    4    4    0    0  0.61488730554E+01  0.19737693682E+02  0.10699359453E+01  0.20700965072E+02  0.51100000000E-03 0. -1.
        -12    1    4    4    0    0  0.11989902866E+02  0.21646429505E+02 -0.93705856246E+00  0.24762951355E+02  0.00000000000E+00 0.  1.
</event>
<event>
 8    1  0.3776180E-010  0.9118800E+02  0.7816164E-02  0.1184000E+00
        -11   -1    0    0    0    0  0.00000000000E+00  0.00000000000E+00  0.45593999997E+02  0.45594000000E+02  0.51100000000E-03 0. -1.
         11   -1    0    0    0    0 -0.00000000000E+00 -0.00000000000E+00 -0.45593999997E+02  0.45594000000E+02  0.51100000000E-03 0.  1.
         23    2    1    2    0    0  0.00000000000E+00  0.71054273576E-14  0.00000000000E+00  0.91188000000E+02  0.91188000000E+02 0.  0.
    9900012    2    3    3    0    0 -0.14025685874E+02 -0.37458464800E+02  0.16845376860E+02  0.47787272230E+02  0.20000005407E+02 0.  0.
        -12    1    3    3    0    0  0.14025685874E+02  0.37458464800E+02 -0.16845376860E+02  0.43400727770E+02  0.00000000000E+00 0.  1.
         11    1    4    4    0    0 -0.43212682848E+01 -0.14247139104E+02  0.65590056989E+01  0.16268831804E+02  0.51100000000E-03 0. -1.
        -11    1    4    4    0    0 -0.76027501952E+00 -0.11748205067E+02  0.12080876889E+02  0.16868489175E+02  0.51100000000E-03 0.  1.
         12    1    4    4    0    0 -0.89441425692E+01 -0.11463120629E+02 -0.17945057278E+01  0.14649951251E+02  0.00000000000E+00 0. -1.
</event>
<event>
 8    1  0.3776180E-010  0.9118800E+02  0.7816164E-02  0.1184000E+00
        -11   -1    0    0    0    0  0.00000000000E+00  0.00000000000E+00  0.45593999997E+02  0.45594000000E+02  0.51100000000E-03 0.  1.
         11   -1    0    0    0    0 -0.00000000000E+00 -0.00000000000E+00 -0.45593999997E+02  0.45594000000E+02  0.51100000000E-03 0. -1.
         23    2    1    2    0    0 -0.17763568394E-14 -0.35527136788E-14 -0.35527136788E-14  0.91188000000E+02  0.91188000000E+02 0.  0.
    9900012    2    3    3    0    0 -0.80707407279E+01 -0.28973534909E+02  0.31289306648E+02  0.47787270841E+02  0.19999999074E+02 0.  0.
        -12    1    3    3    0    0  0.80707407279E+01  0.28973534909E+02 -0.31289306648E+02  0.43400729159E+02  0.00000000000E+00 0.  1.
         11    1    4    4    0    0 -0.30932713124E+01 -0.10544946673E+02  0.22761618480E+02  0.25275591069E+02  0.51100000000E-03 0.  1.
        -11    1    4    4    0    0 -0.34752551903E+01 -0.95584137485E+01  0.88895121431E+01  0.13507927244E+02  0.51100000000E-03 0. -1.
        -12    1    4    4    0    0 -0.15022142252E+01 -0.88701744871E+01 -0.36182397580E+00  0.90037525287E+01  0.00000000000E+00 0.  1.
</event>
<event>
 8    1  0.3776180E-010  0.9118800E+02  0.7816164E-02  0.1184000E+00
        -11   -1    0    0    0    0  0.00000000000E+00  0.00000000000E+00  0.45593999997E+02  0.45594000000E+02  0.51100000000E-03 0. -1.
         11   -1    0    0    0    0 -0.00000000000E+00 -0.00000000000E+00 -0.45593999997E+02  0.45594000000E+02  0.51100000000E-03 0.  1.
         23    2    1    2    0    0  0.17763568394E-14  0.88817841970E-15  0.71054273576E-14  0.91188000000E+02  0.91188000000E+02 0.  0.
    9900012    2    3    3    0    0  0.12489076462E+02 -0.65721362566E+01  0.41042091547E+02  0.47787270923E+02  0.19999999447E+02 0.  0.
        -12    1    3    3    0    0 -0.12489076462E+02  0.65721362566E+01 -0.41042091547E+02  0.43400729077E+02  0.00000000000E+00 0.  1.
         11    1    4    4    0    0  0.50354240889E+01  0.31556779740E+01  0.87278660503E+01  0.10558856249E+02  0.51100000000E-03 0. -1.
        -11    1    4    4    0    0  0.11320497023E+02 -0.53746439339E+01  0.19908247580E+02  0.23524004171E+02  0.51100000000E-03 0.  1.
        -12    1    4    4    0    0 -0.38668446496E+01 -0.43531702966E+01  0.12405977917E+02  0.13704410503E+02  0.00000000000E+00 0.  1.
</event>
<event>
 8    1  0.3776180E-010  0.9118800E+02  0.7816164E-02  0.1184000E+00
        -11   -1    0    0    0    0  0.00000000000E+00  0.00000000000E+00  0.45593999997E+02  0.45594000000E+02  0.51100000000E-03 0. -1.
         11   -1    0    0    0    0 -0.00000000000E+00 -0.00000000000E+00 -0.45593999997E+02  0.45594000000E+02  0.51100000000E-03 0.  1.
         23    2    1    2    0    0  0.00000000000E+00  0.00000000000E+00  0.00000000000E+00  0.91188000000E+02  0.91188000000E+02 0.  0.
    9900012    2    3    3    0    0 -0.28587901237E+02  0.25139196014E+02 -0.20841687563E+02  0.47787271736E+02  0.20000003151E+02 0.  0.
         12    1    3    3    0    0  0.28587901237E+02 -0.25139196014E+02  0.20841687563E+02  0.43400728264E+02  0.00000000000E+00 0. -1.
         11    1    4    4    0    0 -0.66170766510E+01  0.71972848027E+01 -0.13390708685E+02  0.16580038941E+02  0.51100000000E-03 0. -1.
        -11    1    4    4    0    0 -0.10057470256E+02  0.33799427248E+01 -0.63400481030E+01  0.12360134748E+02  0.51100000000E-03 0.  1.
         12    1    4    4    0    0 -0.11913354330E+02  0.14561968487E+02 -0.11109307754E+01  0.18847098047E+02  0.00000000000E+00 0. -1.
</event>
<event>
 8    1  0.3776180E-010  0.9118800E+02  0.7816164E-02  0.1184000E+00
        -11   -1    0    0    0    0  0.00000000000E+00  0.00000000000E+00  0.45593999997E+02  0.45594000000E+02  0.51100000000E-03 0. -1.
         11   -1    0    0    0    0 -0.00000000000E+00 -0.00000000000E+00 -0.45593999997E+02  0.45594000000E+02  0.51100000000E-03 0.  1.
         23    2    1    2    0    0  0.00000000000E+00  0.88817841970E-15  0.00000000000E+00  0.91188000000E+02  0.91188000000E+02 0.  0.
    9900012    2    3    3    0    0 -0.85437239776E+01  0.74178876853E+01 -0.41899917742E+02  0.47787269777E+02  0.19999994221E+02 0.  0.
         12    1    3    3    0    0  0.85437239776E+01 -0.74178876853E+01  0.41899917742E+02  0.43400730223E+02  0.00000000000E+00 0. -1.
         11    1    4    4    0    0 -0.46899824332E+01  0.24532987140E+01 -0.75959605934E+01  0.92581438421E+01  0.51100000000E-03 0. -1.
        -11    1    4    4    0    0 -0.80319805584E+01  0.65477280888E+01 -0.31715205210E+02  0.33365246839E+02  0.51100000000E-03 0.  1.
         12    1    4    4    0    0  0.41782390141E+01 -0.15831391175E+01 -0.25887519384E+01  0.51638790964E+01  0.00000000000E+00 0. -1.
</event>
<event>
 8    1  0.3776180E-010  0.9118800E+02  0.7816164E-02  0.1184000E+00
        -11   -1    0    0    0    0  0.00000000000E+00  0.00000000000E+00  0.45593999997E+02  0.45594000000E+02  0.51100000000E-03 0. -1.
         11   -1    0    0    0    0 -0.00000000000E+00 -0.00000000000E+00 -0.45593999997E+02  0.45594000000E+02  0.51100000000E-03 0.  1.
         23    2    1    2    0    0  0.00000000000E+00 -0.22204460493E-15  0.00000000000E+00  0.91188000000E+02  0.91188000000E+02 0.  0.
    9900012    2    3    3    0    0  0.39761524960E+01 -0.76137181589E+00  0.43211503299E+02  0.47787268519E+02  0.19999988484E+02 0.  0.
        -12    1    3    3    0    0 -0.39761524960E+01  0.76137181589E+00 -0.43211503299E+02  0.43400731481E+02  0.00000000000E+00 0.  1.
         11    1    4    4    0    0  0.85064725962E+01  0.48294322730E+01  0.15039139940E+02  0.17940435405E+02  0.51100000000E-03 0. -1.
        -11    1    4    4    0    0  0.16605293174E+01 -0.10494278888E+01  0.86199624846E+01  0.88409507410E+01  0.51100000000E-03 0.  1.
        -12    1    4    4    0    0 -0.61908494176E+01 -0.45413762001E+01  0.19552400875E+02  0.21005882373E+02  0.00000000000E+00 0.  1.
</event>
<event>
 8    1  0.3776180E-010  0.9118800E+02  0.7816164E-02  0.1184000E+00
        -11   -1    0    0    0    0  0.00000000000E+00  0.00000000000E+00  0.45593999997E+02  0.45594000000E+02  0.51100000000E-03 0.  1.
         11   -1    0    0    0    0 -0.00000000000E+00 -0.00000000000E+00 -0.45593999997E+02  0.45594000000E+02  0.51100000000E-03 0. -1.
         23    2    1    2    0    0 -0.71054273576E-14  0.00000000000E+00  0.44408920985E-15  0.91188000000E+02  0.91188000000E+02 0.  0.
    9900012    2    3    3    0    0 -0.37316828441E+02 -0.21904392152E+02  0.33578811780E+01  0.47787269056E+02  0.19999990936E+02 0.  0.
        -12    1    3    3    0    0  0.37316828441E+02  0.21904392152E+02 -0.33578811780E+01  0.43400730944E+02  0.00000000000E+00 0.  1.
         11    1    4    4    0    0 -0.17994369949E+02 -0.16201947105E+02  0.26951894461E+00  0.24215141556E+02  0.51100000000E-03 0. -1.
        -11    1    4    4    0    0 -0.65048358380E+01 -0.78594054327E+01  0.27654160749E+01  0.10570272909E+02  0.51100000000E-03 0.  1.
        -12    1    4    4    0    0 -0.12817622653E+02  0.21569603859E+01  0.32294615849E+00  0.13001854591E+02  0.00000000000E+00 0.  1.
</event>
<event>
 8    1  0.3776180E-010  0.9118800E+02  0.7816164E-02  0.1184000E+00
        -11   -1    0    0    0    0  0.00000000000E+00  0.00000000000E+00  0.45593999997E+02  0.45594000000E+02  0.51100000000E-03 0. -1.
         11   -1    0    0    0    0 -0.00000000000E+00 -0.00000000000E+00 -0.45593999997E+02  0.45594000000E+02  0.51100000000E-03 0.  1.
         23    2    1    2    0    0  0.00000000000E+00  0.00000000000E+00  0.00000000000E+00  0.91188000000E+02  0.91188000000E+02 0.  0.
    9900012    2    3    3    0    0 -0.76384632458E+01  0.37846249340E+01 -0.42555294836E+02  0.47787278517E+02  0.20000034072E+02 0.  0.
         12    1    3    3    0    0  0.76384632458E+01 -0.37846249340E+01  0.42555294836E+02  0.43400721483E+02  0.00000000000E+00 0. -1.
         11    1    4    4    0    0 -0.12053042018E+02  0.75196824655E+01 -0.31254027170E+02  0.34331263607E+02  0.51100000000E-03 0. -1.
        -11    1    4    4    0    0 -0.44346637169E+00 -0.20021524611E+01 -0.22978540526E+01  0.30798393478E+01  0.51100000000E-03 0.  1.
         12    1    4    4    0    0  0.48580451442E+01 -0.17329050704E+01 -0.90034136134E+01  0.10376175562E+02  0.00000000000E+00 0. -1.
</event>
<event>
 8    1  0.3776180E-010  0.9118800E+02  0.7816164E-02  0.1184000E+00
        -11   -1    0    0    0    0  0.00000000000E+00  0.00000000000E+00  0.45593999997E+02  0.45594000000E+02  0.51100000000E-03 0. -1.
         11   -1    0    0    0    0 -0.00000000000E+00 -0.00000000000E+00 -0.45593999997E+02  0.45594000000E+02  0.51100000000E-03 0.  1.
         23    2    1    2    0    0 -0.71054273576E-14  0.00000000000E+00 -0.35527136788E-14  0.91188000000E+02  0.91188000000E+02 0.  0.
    9900012    2    3    3    0    0  0.23650320739E+02 -0.20385035939E+02  0.30145252104E+02  0.47787267452E+02  0.19999983619E+02 0.  0.
        -12    1    3    3    0    0 -0.23650320739E+02  0.20385035939E+02 -0.30145252104E+02  0.43400732548E+02  0.00000000000E+00 0.  1.
         11    1    4    4    0    0  0.16372279620E+02 -0.15754265755E+02  0.17208211963E+02  0.28502122529E+02  0.51100000000E-03 0. -1.
        -11    1    4    4    0    0  0.79785236735E+01  0.14869374293E+01  0.67495859759E+01  0.10555791493E+02  0.51100000000E-03 0.  1.
        -12    1    4    4    0    0 -0.70048255446E+00 -0.61177076140E+01  0.61874541654E+01  0.87293534301E+01  0.00000000000E+00 0.  1.
</event>
<event>
 8    1  0.3776180E-010  0.9118800E+02  0.7816164E-02  0.1184000E+00
        -11   -1    0    0    0    0  0.00000000000E+00  0.00000000000E+00  0.45593999997E+02  0.45594000000E+02  0.51100000000E-03 0. -1.
         11   -1    0    0    0    0 -0.00000000000E+00 -0.00000000000E+00 -0.45593999997E+02  0.45594000000E+02  0.51100000000E-03 0.  1.
         23    2    1    2    0    0  0.00000000000E+00  0.00000000000E+00  0.00000000000E+00  0.91188000000E+02  0.91188000000E+02 0.  0.
    9900012    2    3    3    0    0  0.24181638933E+02  0.14719496702E+01 -0.36009789699E+02  0.47787271302E+02  0.20000001177E+02 0.  0.
         12    1    3    3    0    0 -0.24181638933E+02 -0.14719496702E+01  0.36009789699E+02  0.43400728698E+02  0.00000000000E+00 0. -1.
         11    1    4    4    0    0  0.25034842496E+01  0.22057148314E-01  0.23105075315E+01  0.34068115915E+01  0.51100000000E-03 0. -1.
        -11    1    4    4    0    0  0.16837974119E+02 -0.94019392718E+00 -0.26909900428E+02  0.31757583005E+02  0.51100000000E-03 0.  1.
         12    1    4    4    0    0  0.48401805643E+01  0.23900864491E+01 -0.11410396803E+02  0.12622876706E+02  0.00000000000E+00 0. -1.
</event>
<event>
 8    1  0.3776180E-010  0.9118800E+02  0.7816164E-02  0.1184000E+00
        -11   -1    0    0    0    0  0.00000000000E+00  0.00000000000E+00  0.45593999997E+02  0.45594000000E+02  0.51100000000E-03 0. -1.
         11   -1    0    0    0    0 -0.00000000000E+00 -0.00000000000E+00 -0.45593999997E+02  0.45594000000E+02  0.51100000000E-03 0.  1.
         23    2    1    2    0    0  0.00000000000E+00  0.00000000000E+00  0.00000000000E+00  0.91188000000E+02  0.91188000000E+02 0.  0.
    9900012    2    3    3    0    0  0.25931598132E+02 -0.46570095904E+01 -0.34488952031E+02  0.47787270373E+02  0.19999996937E+02 0.  0.
         12    1    3    3    0    0 -0.25931598132E+02  0.46570095904E+01  0.34488952031E+02  0.43400729627E+02  0.00000000000E+00 0. -1.
         11    1    4    4    0    0  0.59050750844E+01 -0.19444432235E+01 -0.16526780677E+02  0.17657441803E+02  0.51100000000E-03 0. -1.
        -11    1    4    4    0    0  0.55120530340E+01  0.12679277513E+01 -0.13172873857E+02  0.14335793502E+02  0.51100000000E-03 0.  1.
         12    1    4    4    0    0  0.14514470014E+02 -0.39804941182E+01 -0.47892974966E+01  0.15794035068E+02  0.00000000000E+00 0. -1.
</event>
<event>
 8    1  0.3776180E-010  0.9118800E+02  0.7816164E-02  0.1184000E+00
        -11   -1    0    0    0    0  0.00000000000E+00  0.00000000000E+00  0.45593999997E+02  0.45594000000E+02  0.51100000000E-03 0. -1.
         11   -1    0    0    0    0 -0.00000000000E+00 -0.00000000000E+00 -0.45593999997E+02  0.45594000000E+02  0.51100000000E-03 0.  1.
         23    2    1    2    0    0  0.35527136788E-14  0.00000000000E+00 -0.71054273576E-14  0.91188000000E+02  0.91188000000E+02 0.  0.
    9900012    2    3    3    0    0 -0.22705326515E+02 -0.27299102918E+01  0.36886848428E+02  0.47787264416E+02  0.19999969777E+02 0.  0.
        -12    1    3    3    0    0  0.22705326515E+02  0.27299102918E+01 -0.36886848428E+02  0.43400735584E+02  0.00000000000E+00 0.  1.
         11    1    4    4    0    0  0.88382069817E+00 -0.28869175887E+01  0.52086823426E+01  0.60204488369E+01  0.51100000000E-03 0. -1.
        -11    1    4    4    0    0 -0.56961105372E+00 -0.19141383650E+01 -0.58341598508E+00  0.20805664867E+01  0.51100000000E-03 0.  1.
         12    1    4    4    0    0 -0.23019536159E+02  0.20711456619E+01  0.32261582070E+02  0.39686249092E+02  0.00000000000E+00 0. -1.
</event>
<event>
 8    1  0.3776180E-010  0.9118800E+02  0.7816164E-02  0.1184000E+00
        -11   -1    0    0    0    0  0.00000000000E+00  0.00000000000E+00  0.45593999997E+02  0.45594000000E+02  0.51100000000E-03 0. -1.
         11   -1    0    0    0    0 -0.00000000000E+00 -0.00000000000E+00 -0.45593999997E+02  0.45594000000E+02  0.51100000000E-03 0.  1.
         23    2    1    2    0    0  0.00000000000E+00  0.00000000000E+00 -0.35527136788E-14  0.91188000000E+02  0.91188000000E+02 0.  0.
    9900012    2    3    3    0    0 -0.12461582134E+02 -0.37431284326E+02 -0.18089525438E+02  0.47787274129E+02  0.20000014063E+02 0.  0.
         12    1    3    3    0    0  0.12461582134E+02  0.37431284326E+02  0.18089525438E+02  0.43400725871E+02  0.00000000000E+00 0. -1.
         11    1    4    4    0    0 -0.37269339613E+01 -0.75254672922E+01 -0.10498664083E+02  0.13444130411E+02  0.51100000000E-03 0. -1.
        -11    1    4    4    0    0 -0.69002466578E+01 -0.23712520058E+02 -0.11004950296E+02  0.27037121569E+02  0.51100000000E-03 0.  1.
         12    1    4    4    0    0 -0.18344015150E+01 -0.61932969753E+01  0.34140889407E+01  0.73060221487E+01  0.00000000000E+00 0. -1.
</event>
<event>
 8    1  0.3776180E-010  0.9118800E+02  0.7816164E-02  0.1184000E+00
        -11   -1    0    0    0    0  0.00000000000E+00  0.00000000000E+00  0.45593999997E+02  0.45594000000E+02  0.51100000000E-03 0. -1.
         11   -1    0    0    0    0 -0.00000000000E+00 -0.00000000000E+00 -0.45593999997E+02  0.45594000000E+02  0.51100000000E-03 0.  1.
         23    2    1    2    0    0  0.00000000000E+00  0.00000000000E+00 -0.71054273576E-14  0.91188000000E+02  0.91188000000E+02 0.  0.
    9900012    2    3    3    0    0  0.54633402004E+01 -0.55918567483E+01  0.42690826238E+02  0.47787267369E+02  0.19999983242E+02 0.  0.
        -12    1    3    3    0    0 -0.54633402004E+01  0.55918567483E+01 -0.42690826238E+02  0.43400732631E+02  0.00000000000E+00 0.  1.
         11    1    4    4    0    0  0.17341172406E+01  0.40857751866E+01  0.97535295647E+01  0.10715972224E+02  0.51100000000E-03 0.  1.
        -11    1    4    4    0    0  0.57510194959E+01  0.10041018536E+01  0.83570622950E+01  0.10194259965E+02  0.51100000000E-03 0. -1.
         12    1    4    4    0    0 -0.20217965361E+01 -0.10681733789E+02  0.24580234378E+02  0.26877035180E+02  0.00000000000E+00 0. -1.
</event>
<event>
 8    1  0.3776180E-010  0.9118800E+02  0.7816164E-02  0.1184000E+00
        -11   -1    0    0    0    0  0.00000000000E+00  0.00000000000E+00  0.45593999997E+02  0.45594000000E+02  0.51100000000E-03 0. -1.
         11   -1    0    0    0    0 -0.00000000000E+00 -0.00000000000E+00 -0.45593999997E+02  0.45594000000E+02  0.51100000000E-03 0.  1.
         23    2    1    2    0    0 -0.35527136788E-14  0.00000000000E+00  0.00000000000E+00  0.91188000000E+02  0.91188000000E+02 0.  0.
    9900012    2    3    3    0    0  0.21890504245E+02 -0.11414600759E+02 -0.35695042459E+02  0.47787270251E+02  0.19999996383E+02 0.  0.
         12    1    3    3    0    0 -0.21890504245E+02  0.11414600759E+02  0.35695042459E+02  0.43400729749E+02  0.00000000000E+00 0. -1.
         11    1    4    4    0    0  0.81916823582E-01 -0.27897814301E+01  0.30894986812E+00  0.28080315304E+01  0.51100000000E-03 0. -1.
        -11    1    4    4    0    0  0.29631830726E+01 -0.23415815557E+00 -0.15896046853E+02  0.16171567326E+02  0.51100000000E-03 0.  1.
        -12    1    4    4    0    0  0.18845404349E+02 -0.83906611729E+01 -0.20107945474E+02  0.28807671395E+02  0.00000000000E+00 0.  1.
</event>
<event>
 8    1  0.3776180E-010  0.9118800E+02  0.7816164E-02  0.1184000E+00
        -11   -1    0    0    0    0  0.00000000000E+00  0.00000000000E+00  0.45593999997E+02  0.45594000000E+02  0.51100000000E-03 0.  1.
         11   -1    0    0    0    0 -0.00000000000E+00 -0.00000000000E+00 -0.45593999997E+02  0.45594000000E+02  0.51100000000E-03 0. -1.
         23    2    1    2    0    0  0.44408920985E-15  0.71054273576E-14 -0.35527136788E-14  0.91188000000E+02  0.91188000000E+02 0.  0.
    9900012    2    3    3    0    0  0.27686964659E+01  0.33770190408E+02 -0.27120690328E+02  0.47787270926E+02  0.19999999459E+02 0.  0.
         12    1    3    3    0    0 -0.27686964659E+01 -0.33770190408E+02  0.27120690328E+02  0.43400729074E+02  0.00000000000E+00 0. -1.
         11    1    4    4    0    0  0.50841837979E+01  0.10870782016E+02 -0.88521889287E+01  0.14912547590E+02  0.51100000000E-03 0. -1.
        -11    1    4    4    0    0 -0.19686877452E+01  0.18526749774E+02 -0.55789155162E+01  0.19448405775E+02  0.51100000000E-03 0.  1.
         12    1    4    4    0    0 -0.34679958681E+00  0.43726586181E+01 -0.12689585883E+02  0.13426317560E+02  0.00000000000E+00 0. -1.
</event>
<event>
 8    1  0.3776180E-010  0.9118800E+02  0.7816164E-02  0.1184000E+00
        -11   -1    0    0    0    0  0.00000000000E+00  0.00000000000E+00  0.45593999997E+02  0.45594000000E+02  0.51100000000E-03 0. -1.
         11   -1    0    0    0    0 -0.00000000000E+00 -0.00000000000E+00 -0.45593999997E+02  0.45594000000E+02  0.51100000000E-03 0.  1.
         23    2    1    2    0    0  0.35527136788E-14  0.00000000000E+00  0.00000000000E+00  0.91188000000E+02  0.91188000000E+02 0.  0.
    9900012    2    3    3    0    0 -0.31875260593E+02  0.28674286453E+02  0.67361963633E+01  0.47787270940E+02  0.19999999526E+02 0.  0.
        -12    1    3    3    0    0  0.31875260593E+02 -0.28674286453E+02 -0.67361963633E+01  0.43400729060E+02  0.00000000000E+00 0.  1.
         11    1    4    4    0    0 -0.15204809560E+02  0.50754436804E+01  0.91933276214E+00  0.16055887870E+02  0.51100000000E-03 0. -1.
        -11    1    4    4    0    0  0.29662263557E-01  0.53976599342E+00 -0.21092305836E+01  0.21774023729E+01  0.51100000000E-03 0.  1.
         12    1    4    4    0    0 -0.16700113296E+02  0.23059076780E+02  0.79260941847E+01  0.29553980697E+02  0.00000000000E+00 0. -1.
</event>
<event>
 8    1  0.3776180E-010  0.9118800E+02  0.7816164E-02  0.1184000E+00
        -11   -1    0    0    0    0  0.00000000000E+00  0.00000000000E+00  0.45593999997E+02  0.45594000000E+02  0.51100000000E-03 0. -1.
         11   -1    0    0    0    0 -0.00000000000E+00 -0.00000000000E+00 -0.45593999997E+02  0.45594000000E+02  0.51100000000E-03 0.  1.
         23    2    1    2    0    0  0.00000000000E+00  0.00000000000E+00  0.00000000000E+00  0.91188000000E+02  0.91188000000E+02 0.  0.
    9900012    2    3    3    0    0  0.71085216091E+01 -0.10362088389E+02 -0.41541784110E+02  0.47787265188E+02  0.19999973296E+02 0.  0.
         12    1    3    3    0    0 -0.71085216091E+01  0.10362088389E+02  0.41541784110E+02  0.43400734812E+02  0.00000000000E+00 0. -1.
         11    1    4    4    0    0  0.99333521258E+00 -0.20292986332E+01  0.14178180581E+01  0.26673912525E+01  0.51100000000E-03 0. -1.
        -11    1    4    4    0    0  0.44284030266E+01 -0.13273152799E+01 -0.66305725229E+01  0.80831312906E+01  0.51100000000E-03 0.  1.
        -12    1    4    4    0    0  0.16867833699E+01 -0.70054744760E+01 -0.36329029645E+02  0.37036742644E+02  0.00000000000E+00 0.  1.
</event>
<event>
 8    1  0.3776180E-010  0.9118800E+02  0.7816164E-02  0.1184000E+00
        -11   -1    0    0    0    0  0.00000000000E+00  0.00000000000E+00  0.45593999997E+02  0.45594000000E+02  0.51100000000E-03 0. -1.
         11   -1    0    0    0    0 -0.00000000000E+00 -0.00000000000E+00 -0.45593999997E+02  0.45594000000E+02  0.51100000000E-03 0.  1.
         23    2    1    2    0    0  0.00000000000E+00  0.00000000000E+00  0.00000000000E+00  0.91188000000E+02  0.91188000000E+02 0.  0.
    9900012    2    3    3    0    0 -0.23203202598E+02  0.16073765794E+02 -0.32967691885E+02  0.47787271137E+02  0.20000000420E+02 0.  0.
         12    1    3    3    0    0  0.23203202598E+02 -0.16073765794E+02  0.32967691885E+02  0.43400728863E+02  0.00000000000E+00 0. -1.
         11    1    4    4    0    0 -0.39218171402E+01  0.62399620740E+01 -0.35340981304E+01  0.81735932259E+01  0.51100000000E-03 0. -1.
        -11    1    4    4    0    0 -0.10768144903E+02  0.13422827614E+02 -0.17805101309E+02  0.24761802816E+02  0.51100000000E-03 0.  1.
         12    1    4    4    0    0 -0.85132405558E+01 -0.35890238938E+01 -0.11628492446E+02  0.14851875095E+02  0.00000000000E+00 0. -1.
</event>
<event>
 8    1  0.3776180E-010  0.9118800E+02  0.7816164E-02  0.1184000E+00
        -11   -1    0    0    0    0  0.00000000000E+00  0.00000000000E+00  0.45593999997E+02  0.45594000000E+02  0.51100000000E-03 0. -1.
         11   -1    0    0    0    0 -0.00000000000E+00 -0.00000000000E+00 -0.45593999997E+02  0.45594000000E+02  0.51100000000E-03 0.  1.
         23    2    1    2    0    0  0.35527136788E-14  0.00000000000E+00 -0.71054273576E-14  0.91188000000E+02  0.91188000000E+02 0.  0.
    9900012    2    3    3    0    0 -0.26281864419E+02  0.11051655621E+02 -0.32722294623E+02  0.47787262049E+02  0.19999958985E+02 0.  0.
         12    1    3    3    0    0  0.26281864419E+02 -0.11051655621E+02  0.32722294623E+02  0.43400737951E+02  0.00000000000E+00 0. -1.
         11    1    4    4    0    0 -0.66693257161E+01  0.27548110631E+01 -0.87304627757E+00  0.72685005031E+01  0.51100000000E-03 0. -1.
        -11    1    4    4    0    0 -0.14555306150E+02  0.72552401228E+01 -0.12555220082E+02  0.20545778104E+02  0.51100000000E-03 0.  1.
        -12    1    4    4    0    0 -0.50572325536E+01  0.10416044348E+01 -0.19294028264E+02  0.19972983441E+02  0.00000000000E+00 0.  1.
</event>
<event>
 8    1  0.3776180E-010  0.9118800E+02  0.7816164E-02  0.1184000E+00
        -11   -1    0    0    0    0  0.00000000000E+00  0.00000000000E+00  0.45593999997E+02  0.45594000000E+02  0.51100000000E-03 0. -1.
         11   -1    0    0    0    0 -0.00000000000E+00 -0.00000000000E+00 -0.45593999997E+02  0.45594000000E+02  0.51100000000E-03 0.  1.
         23    2    1    2    0    0  0.00000000000E+00  0.00000000000E+00  0.00000000000E+00  0.91188000000E+02  0.91188000000E+02 0.  0.
    9900012    2    3    3    0    0 -0.16647253715E+02  0.33283860948E+02 -0.22331071515E+02  0.47787271770E+02  0.20000003309E+02 0.  0.
         12    1    3    3    0    0  0.16647253715E+02 -0.33283860948E+02  0.22331071515E+02  0.43400728230E+02  0.00000000000E+00 0. -1.
         11    1    4    4    0    0 -0.79020961222E+01  0.12995454109E+02 -0.11515399184E+02  0.19076932910E+02  0.51100000000E-03 0. -1.
        -11    1    4    4    0    0 -0.85101461590E+01  0.50163940853E+01 -0.89372256791E+01  0.13321441377E+02  0.51100000000E-03 0.  1.
         12    1    4    4    0    0 -0.23501143332E+00  0.15272012754E+02 -0.18784466528E+01  0.15388897483E+02  0.00000000000E+00 0. -1.
</event>
<event>
 8    1  0.3776180E-010  0.9118800E+02  0.7816164E-02  0.1184000E+00
        -11   -1    0    0    0    0  0.00000000000E+00  0.00000000000E+00  0.45593999997E+02  0.45594000000E+02  0.51100000000E-03 0.  1.
         11   -1    0    0    0    0 -0.00000000000E+00 -0.00000000000E+00 -0.45593999997E+02  0.45594000000E+02  0.51100000000E-03 0. -1.
         23    2    1    2    0    0  0.00000000000E+00  0.00000000000E+00  0.00000000000E+00  0.91188000000E+02  0.91188000000E+02 0.  0.
    9900012    2    3    3    0    0  0.31417149516E+02 -0.28205046972E+02  0.10052945265E+02  0.47787266516E+02  0.19999979354E+02 0.  0.
        -12    1    3    3    0    0 -0.31417149516E+02  0.28205046972E+02 -0.10052945265E+02  0.43400733484E+02  0.00000000000E+00 0.  1.
         11    1    4    4    0    0  0.99876187627E+01 -0.81040083454E+01  0.65432845345E+01  0.14430594325E+02  0.51100000000E-03 0. -1.
        -11    1    4    4    0    0  0.10628223094E+02 -0.14221252861E+01  0.47845820353E+01  0.11741967126E+02  0.51100000000E-03 0.  1.
         12    1    4    4    0    0  0.10801307659E+02 -0.18678913341E+02 -0.12749213048E+01  0.21614705066E+02  0.00000000000E+00 0. -1.
</event>
<event>
 8    1  0.3776180E-010  0.9118800E+02  0.7816164E-02  0.1184000E+00
        -11   -1    0    0    0    0  0.00000000000E+00  0.00000000000E+00  0.45593999997E+02  0.45594000000E+02  0.51100000000E-03 0.  1.
         11   -1    0    0    0    0 -0.00000000000E+00 -0.00000000000E+00 -0.45593999997E+02  0.45594000000E+02  0.51100000000E-03 0. -1.
         23    2    1    2    0    0  0.00000000000E+00  0.00000000000E+00  0.71054273576E-14  0.91188000000E+02  0.91188000000E+02 0.  0.
    9900012    2    3    3    0    0  0.26843812649E+02  0.20625747923E+01  0.34040835172E+02  0.47787274758E+02  0.20000016932E+02 0.  0.
        -12    1    3    3    0    0 -0.26843812649E+02 -0.20625747923E+01 -0.34040835172E+02  0.43400725242E+02  0.00000000000E+00 0.  1.
         11    1    4    4    0    0  0.73314674222E+01  0.44672178631E+01  0.94755268712E+01  0.12786401360E+02  0.51100000000E-03 0. -1.
        -11    1    4    4    0    0  0.14522906474E+02 -0.35035366961E+01  0.25737438999E+02  0.29759122103E+02  0.51100000000E-03 0.  1.
        -12    1    4    4    0    0  0.49894387526E+01  0.10988936253E+01 -0.11721306981E+01  0.52417512951E+01  0.00000000000E+00 0.  1.
</event>
<event>
 8    1  0.3776180E-010  0.9118800E+02  0.7816164E-02  0.1184000E+00
        -11   -1    0    0    0    0  0.00000000000E+00  0.00000000000E+00  0.45593999997E+02  0.45594000000E+02  0.51100000000E-03 0.  1.
         11   -1    0    0    0    0 -0.00000000000E+00 -0.00000000000E+00 -0.45593999997E+02  0.45594000000E+02  0.51100000000E-03 0. -1.
         23    2    1    2    0    0  0.00000000000E+00  0.71054273576E-14  0.17763568394E-14  0.91188000000E+02  0.91188000000E+02 0.  0.
    9900012    2    3    3    0    0 -0.18668554036E+02 -0.38099334905E+02 -0.91404792224E+01  0.47787278918E+02  0.20000035899E+02 0.  0.
        -12    1    3    3    0    0  0.18668554036E+02  0.38099334905E+02  0.91404792224E+01  0.43400721082E+02  0.00000000000E+00 0.  1.
         11    1    4    4    0    0 -0.96742373271E+01 -0.87176064527E+01 -0.14066818901E+01  0.13098331357E+02  0.51100000000E-03 0. -1.
        -11    1    4    4    0    0 -0.70919198089E+01 -0.12472800898E+02 -0.10048241168E+02  0.17516656064E+02  0.51100000000E-03 0.  1.
        -12    1    4    4    0    0 -0.19023969001E+01 -0.16908927554E+02  0.23144438361E+01  0.17172291497E+02  0.00000000000E+00 0.  1.
</event>
<event>
 8    1  0.3776180E-010  0.9118800E+02  0.7816164E-02  0.1184000E+00
        -11   -1    0    0    0    0  0.00000000000E+00  0.00000000000E+00  0.45593999997E+02  0.45594000000E+02  0.51100000000E-03 0. -1.
         11   -1    0    0    0    0 -0.00000000000E+00 -0.00000000000E+00 -0.45593999997E+02  0.45594000000E+02  0.51100000000E-03 0.  1.
         23    2    1    2    0    0  0.00000000000E+00  0.00000000000E+00  0.35527136788E-14  0.91188000000E+02  0.91188000000E+02 0.  0.
    9900012    2    3    3    0    0 -0.23824432767E+02  0.22416452782E+02  0.28522319342E+02  0.47787266681E+02  0.19999980104E+02 0.  0.
        -12    1    3    3    0    0  0.23824432767E+02 -0.22416452782E+02 -0.28522319342E+02  0.43400733319E+02  0.00000000000E+00 0.  1.
         11    1    4    4    0    0 -0.62535574881E+00  0.26780904432E+01  0.42431598461E+00  0.27826754303E+01  0.51100000000E-03 0. -1.
        -11    1    4    4    0    0 -0.19940965873E+02  0.16639216417E+02  0.12597929100E+02  0.28865437132E+02  0.51100000000E-03 0.  1.
         12    1    4    4    0    0 -0.32581111449E+01  0.30991459215E+01  0.15500074258E+02  0.16139154119E+02  0.00000000000E+00 0. -1.
</event>
<event>
 8    1  0.3776180E-010  0.9118800E+02  0.7816164E-02  0.1184000E+00
        -11   -1    0    0    0    0  0.00000000000E+00  0.00000000000E+00  0.45593999997E+02  0.45594000000E+02  0.51100000000E-03 0. -1.
         11   -1    0    0    0    0 -0.00000000000E+00 -0.00000000000E+00 -0.45593999997E+02  0.45594000000E+02  0.51100000000E-03 0.  1.
         23    2    1    2    0    0  0.88817841970E-15 -0.35527136788E-14  0.00000000000E+00  0.91188000000E+02  0.91188000000E+02 0.  0.
    9900012    2    3    3    0    0 -0.42608652853E+01  0.30036341880E+02 -0.31036850364E+02  0.47787275501E+02  0.20000020321E+02 0.  0.
         12    1    3    3    0    0  0.42608652853E+01 -0.30036341880E+02  0.31036850364E+02  0.43400724499E+02  0.00000000000E+00 0. -1.
         11    1    4    4    0    0  0.46832681717E+01  0.74357112743E+01 -0.35348757392E+01  0.94719665157E+01  0.51100000000E-03 0. -1.
        -11    1    4    4    0    0  0.88865401439E+00  0.12672572863E+02 -0.12939139601E+02  0.18132984939E+02  0.51100000000E-03 0.  1.
        -12    1    4    4    0    0 -0.98327874713E+01  0.99280577429E+01 -0.14562835023E+02  0.20182324046E+02  0.00000000000E+00 0.  1.
</event>
<event>
 8    1  0.3776180E-010  0.9118800E+02  0.7816164E-02  0.1184000E+00
        -11   -1    0    0    0    0  0.00000000000E+00  0.00000000000E+00  0.45593999997E+02  0.45594000000E+02  0.51100000000E-03 0. -1.
         11   -1    0    0    0    0 -0.00000000000E+00 -0.00000000000E+00 -0.45593999997E+02  0.45594000000E+02  0.51100000000E-03 0.  1.
         23    2    1    2    0    0 -0.71054273576E-14 -0.71054273576E-14  0.26645352591E-14  0.91188000000E+02  0.91188000000E+02 0.  0.
    9900012    2    3    3    0    0 -0.27419994706E+02 -0.33477577469E+02  0.33193353113E+01  0.47787282382E+02  0.20000051691E+02 0.  0.
         12    1    3    3    0    0  0.27419994706E+02  0.33477577469E+02 -0.33193353113E+01  0.43400717618E+02  0.00000000000E+00 0. -1.
         11    1    4    4    0    0 -0.10272723148E+02 -0.17988420026E+02  0.62987414207E+01  0.21651471998E+02  0.51100000000E-03 0.  1.
        -11    1    4    4    0    0 -0.74168457835E+01 -0.11723145627E+02  0.28817183433E+01  0.14168487768E+02  0.51100000000E-03 0. -1.
        -12    1    4    4    0    0 -0.97304257742E+01 -0.37660118160E+01 -0.58611244527E+01  0.11967322616E+02  0.00000000000E+00 0.  1.
</event>
<event>
 8    1  0.3776180E-010  0.9118800E+02  0.7816164E-02  0.1184000E+00
        -11   -1    0    0    0    0  0.00000000000E+00  0.00000000000E+00  0.45593999997E+02  0.45594000000E+02  0.51100000000E-03 0. -1.
         11   -1    0    0    0    0 -0.00000000000E+00 -0.00000000000E+00 -0.45593999997E+02  0.45594000000E+02  0.51100000000E-03 0.  1.
         23    2    1    2    0    0  0.17763568394E-14  0.00000000000E+00  0.00000000000E+00  0.91188000000E+02  0.91188000000E+02 0.  0.
    9900012    2    3    3    0    0  0.55155727154E+01 -0.25391816362E+02 -0.34762873259E+02  0.47787271460E+02  0.20000001897E+02 0.  0.
         12    1    3    3    0    0 -0.55155727154E+01  0.25391816362E+02  0.34762873259E+02  0.43400728540E+02  0.00000000000E+00 0. -1.
         11    1    4    4    0    0  0.70418352734E+01 -0.24004526657E+01 -0.28879711257E+01  0.79806011366E+01  0.51100000000E-03 0. -1.
        -11    1    4    4    0    0 -0.10580257526E+01 -0.38143738998E+00 -0.82829008218E+00  0.13967740322E+01  0.51100000000E-03 0.  1.
        -12    1    4    4    0    0 -0.46823680543E+00 -0.22609926306E+02 -0.31046612051E+02  0.38409896292E+02  0.00000000000E+00 0.  1.
</event>
<event>
 8    1  0.3776180E-010  0.9118800E+02  0.7816164E-02  0.1184000E+00
        -11   -1    0    0    0    0  0.00000000000E+00  0.00000000000E+00  0.45593999997E+02  0.45594000000E+02  0.51100000000E-03 0. -1.
         11   -1    0    0    0    0 -0.00000000000E+00 -0.00000000000E+00 -0.45593999997E+02  0.45594000000E+02  0.51100000000E-03 0.  1.
         23    2    1    2    0    0 -0.35527136788E-14  0.00000000000E+00 -0.35527136788E-14  0.91188000000E+02  0.91188000000E+02 0.  0.
    9900012    2    3    3    0    0  0.29210960657E+02  0.16831286365E+02 -0.27332231556E+02  0.47787270685E+02  0.19999998361E+02 0.  0.
         12    1    3    3    0    0 -0.29210960657E+02 -0.16831286365E+02  0.27332231556E+02  0.43400729315E+02  0.00000000000E+00 0. -1.
         11    1    4    4    0    0  0.73881892213E+01  0.52068391527E+01 -0.16910250229E+02  0.19174281655E+02  0.51100000000E-03 0. -1.
        -11    1    4    4    0    0  0.97812760807E+01  0.96922892063E+01 -0.87210892081E+01  0.16299424194E+02  0.51100000000E-03 0.  1.
         12    1    4    4    0    0  0.12041495355E+02  0.19321580062E+01 -0.17008921194E+01  0.12313564835E+02  0.00000000000E+00 0. -1.
</event>
<event>
 8    1  0.3776180E-010  0.9118800E+02  0.7816164E-02  0.1184000E+00
        -11   -1    0    0    0    0  0.00000000000E+00  0.00000000000E+00  0.45593999997E+02  0.45594000000E+02  0.51100000000E-03 0. -1.
         11   -1    0    0    0    0 -0.00000000000E+00 -0.00000000000E+00 -0.45593999997E+02  0.45594000000E+02  0.51100000000E-03 0.  1.
         23    2    1    2    0    0  0.00000000000E+00  0.00000000000E+00  0.00000000000E+00  0.91188000000E+02  0.91188000000E+02 0.  0.
    9900012    2    3    3    0    0 -0.49610436208E+01  0.24344005241E+02  0.35586231260E+02  0.47787281108E+02  0.20000045885E+02 0.  0.
        -12    1    3    3    0    0  0.49610436208E+01 -0.24344005241E+02 -0.35586231260E+02  0.43400718892E+02  0.00000000000E+00 0.  1.
         11    1    4    4    0    0  0.56425364460E+00  0.60540873687E+00 -0.25006082359E+00  0.86454183863E+00  0.51100000000E-03 0. -1.
        -11    1    4    4    0    0  0.59065983391E+01  0.14056041181E+02  0.16570247831E+02  0.22517400185E+02  0.51100000000E-03 0.  1.
         12    1    4    4    0    0 -0.11431895605E+02  0.96825553232E+01  0.19266044253E+02  0.24405339085E+02  0.00000000000E+00 0. -1.
</event>
<event>
 8    1  0.3776180E-010  0.9118800E+02  0.7816164E-02  0.1184000E+00
        -11   -1    0    0    0    0  0.00000000000E+00  0.00000000000E+00  0.45593999997E+02  0.45594000000E+02  0.51100000000E-03 0. -1.
         11   -1    0    0    0    0 -0.00000000000E+00 -0.00000000000E+00 -0.45593999997E+02  0.45594000000E+02  0.51100000000E-03 0.  1.
         23    2    1    2    0    0  0.00000000000E+00 -0.35527136788E-14  0.35527136788E-14  0.91188000000E+02  0.91188000000E+02 0.  0.
    9900012    2    3    3    0    0  0.24251855695E+02  0.25449215256E+02 -0.25452076451E+02  0.47787271233E+02  0.20000000862E+02 0.  0.
         12    1    3    3    0    0 -0.24251855695E+02 -0.25449215256E+02  0.25452076451E+02  0.43400728767E+02  0.00000000000E+00 0. -1.
         11    1    4    4    0    0  0.92051661164E+01  0.20924025641E+01 -0.10596363709E+02  0.14191411341E+02  0.51100000000E-03 0. -1.
        -11    1    4    4    0    0  0.17210267307E+01 -0.12642891858E+01 -0.11377217426E+01  0.24196634431E+01  0.51100000000E-03 0.  1.
        -12    1    4    4    0    0  0.13325662847E+02  0.24621101878E+02 -0.13717991000E+02  0.31176196450E+02  0.00000000000E+00 0.  1.
</event>
<event>
 8    1  0.3776180E-010  0.9118800E+02  0.7816164E-02  0.1184000E+00
        -11   -1    0    0    0    0  0.00000000000E+00  0.00000000000E+00  0.45593999997E+02  0.45594000000E+02  0.51100000000E-03 0. -1.
         11   -1    0    0    0    0 -0.00000000000E+00 -0.00000000000E+00 -0.45593999997E+02  0.45594000000E+02  0.51100000000E-03 0.  1.
         23    2    1    2    0    0  0.17763568394E-14  0.00000000000E+00  0.00000000000E+00  0.91188000000E+02  0.91188000000E+02 0.  0.
    9900012    2    3    3    0    0  0.94931530923E+01 -0.10896863221E+02  0.40923880581E+02  0.47787244414E+02  0.19999878579E+02 0.  0.
        -12    1    3    3    0    0 -0.94931530923E+01  0.10896863221E+02 -0.40923880581E+02  0.43400755586E+02  0.00000000000E+00 0.  1.
         11    1    4    4    0    0  0.31684070743E+01 -0.22963961806E+01  0.26418674142E+01  0.47214089530E+01  0.51100000000E-03 0. -1.
        -11    1    4    4    0    0  0.10796321565E+02 -0.12346273074E+01  0.17946828114E+02  0.20980312285E+02  0.51100000000E-03 0.  1.
         12    1    4    4    0    0 -0.44715755473E+01 -0.73658397334E+01  0.20335185052E+02  0.22085523176E+02  0.00000000000E+00 0. -1.
</event>
<event>
 8    1  0.3776180E-010  0.9118800E+02  0.7816164E-02  0.1184000E+00
        -11   -1    0    0    0    0  0.00000000000E+00  0.00000000000E+00  0.45593999997E+02  0.45594000000E+02  0.51100000000E-03 0.  1.
         11   -1    0    0    0    0 -0.00000000000E+00 -0.00000000000E+00 -0.45593999997E+02  0.45594000000E+02  0.51100000000E-03 0. -1.
         23    2    1    2    0    0  0.00000000000E+00  0.00000000000E+00  0.88817841970E-15  0.91188000000E+02  0.91188000000E+02 0.  0.
    9900012    2    3    3    0    0  0.29818525044E+02  0.31400096070E+02  0.29176507512E+01  0.47787272415E+02  0.20000006251E+02 0.  0.
         12    1    3    3    0    0 -0.29818525044E+02 -0.31400096070E+02 -0.29176507512E+01  0.43400727585E+02  0.00000000000E+00 0. -1.
         11    1    4    4    0    0  0.39779840641E+01  0.46054886318E+01 -0.49548268020E+01  0.78476233123E+01  0.51100000000E-03 0.  1.
        -11    1    4    4    0    0 -0.37836257527E+00 -0.73484859302E+00 -0.56023075793E+00  0.99850861602E+00  0.51100000000E-03 0. -1.
        -12    1    4    4    0    0  0.26218903555E+02  0.27529456031E+02  0.84327083112E+01  0.38941140487E+02  0.00000000000E+00 0.  1.
</event>
<event>
 8    1  0.3776180E-010  0.9118800E+02  0.7816164E-02  0.1184000E+00
        -11   -1    0    0    0    0  0.00000000000E+00  0.00000000000E+00  0.45593999997E+02  0.45594000000E+02  0.51100000000E-03 0.  1.
         11   -1    0    0    0    0 -0.00000000000E+00 -0.00000000000E+00 -0.45593999997E+02  0.45594000000E+02  0.51100000000E-03 0. -1.
         23    2    1    2    0    0  0.00000000000E+00  0.17763568394E-14  0.00000000000E+00  0.91188000000E+02  0.91188000000E+02 0.  0.
    9900012    2    3    3    0    0 -0.42177184950E+02  0.81275728028E+01  0.62169603771E+01  0.47787274587E+02  0.20000016154E+02 0.  0.
        -12    1    3    3    0    0  0.42177184950E+02 -0.81275728028E+01 -0.62169603771E+01  0.43400725413E+02  0.00000000000E+00 0.  1.
         11    1    4    4    0    0 -0.29884998189E+02  0.10696230446E+02  0.72371484259E+01  0.32556086683E+02  0.51100000000E-03 0. -1.
        -11    1    4    4    0    0 -0.73929818764E+01  0.14896662759E+01  0.25190876757E+01  0.79511690724E+01  0.51100000000E-03 0.  1.
        -12    1    4    4    0    0 -0.48992048850E+01 -0.40583239195E+01 -0.35392757244E+01  0.72800188320E+01  0.00000000000E+00 0.  1.
</event>
<event>
 8    1  0.3776180E-010  0.9118800E+02  0.7816164E-02  0.1184000E+00
        -11   -1    0    0    0    0  0.00000000000E+00  0.00000000000E+00  0.45593999997E+02  0.45594000000E+02  0.51100000000E-03 0. -1.
         11   -1    0    0    0    0 -0.00000000000E+00 -0.00000000000E+00 -0.45593999997E+02  0.45594000000E+02  0.51100000000E-03 0.  1.
         23    2    1    2    0    0 -0.35527136788E-14  0.00000000000E+00 -0.35527136788E-14  0.91188000000E+02  0.91188000000E+02 0.  0.
    9900012    2    3    3    0    0  0.24387676351E+02 -0.20406411666E+02  0.29537154948E+02  0.47787263632E+02  0.19999966204E+02 0.  0.
        -12    1    3    3    0    0 -0.24387676351E+02  0.20406411666E+02 -0.29537154948E+02  0.43400736368E+02  0.00000000000E+00 0.  1.
         11    1    4    4    0    0  0.71420767380E+01  0.96290824987E+00  0.11137630460E+02  0.13265868421E+02  0.51100000000E-03 0. -1.
        -11    1    4    4    0    0  0.56611827431E+01 -0.25139029112E+01  0.78673588210E+01  0.10013192946E+02  0.51100000000E-03 0.  1.
        -12    1    4    4    0    0  0.11584416870E+02 -0.18855417005E+02  0.10532165666E+02  0.24508202265E+02  0.00000000000E+00 0.  1.
</event>
<event>
 8    1  0.3776180E-010  0.9118800E+02  0.7816164E-02  0.1184000E+00
        -11   -1    0    0    0    0  0.00000000000E+00  0.00000000000E+00  0.45593999997E+02  0.45594000000E+02  0.51100000000E-03 0. -1.
         11   -1    0    0    0    0 -0.00000000000E+00 -0.00000000000E+00 -0.45593999997E+02  0.45594000000E+02  0.51100000000E-03 0.  1.
         23    2    1    2    0    0  0.35527136788E-14 -0.35527136788E-14  0.71054273576E-14  0.91188000000E+02  0.91188000000E+02 0.  0.
    9900012    2    3    3    0    0  0.25207072266E+02 -0.28668137743E+02  0.20648622811E+02  0.47787259939E+02  0.19999949365E+02 0.  0.
        -12    1    3    3    0    0 -0.25207072266E+02  0.28668137743E+02 -0.20648622811E+02  0.43400740061E+02  0.00000000000E+00 0.  1.
         11    1    4    4    0    0  0.26869817481E+01 -0.80010485555E+01 -0.12556809482E+01  0.85330758702E+01  0.51100000000E-03 0. -1.
        -11    1    4    4    0    0  0.77134879636E+01 -0.19187387107E+01  0.93307051212E+01  0.12257304480E+02  0.51100000000E-03 0.  1.
         12    1    4    4    0    0  0.14806602554E+02 -0.18748350477E+02  0.12573598638E+02  0.26996879588E+02  0.00000000000E+00 0. -1.
</event>
<event>
 8    1  0.3776180E-010  0.9118800E+02  0.7816164E-02  0.1184000E+00
        -11   -1    0    0    0    0  0.00000000000E+00  0.00000000000E+00  0.45593999997E+02  0.45594000000E+02  0.51100000000E-03 0. -1.
         11   -1    0    0    0    0 -0.00000000000E+00 -0.00000000000E+00 -0.45593999997E+02  0.45594000000E+02  0.51100000000E-03 0.  1.
         23    2    1    2    0    0  0.35527136788E-14 -0.35527136788E-14  0.35527136788E-14  0.91188000000E+02  0.91188000000E+02 0.  0.
    9900012    2    3    3    0    0 -0.29898123043E+02  0.18824855047E+02  0.25206155150E+02  0.47787272051E+02  0.20000004591E+02 0.  0.
        -12    1    3    3    0    0  0.29898123043E+02 -0.18824855047E+02 -0.25206155150E+02  0.43400727949E+02  0.00000000000E+00 0.  1.
         11    1    4    4    0    0 -0.15571759922E+02  0.78808046501E+01  0.13348854603E+02  0.21972225843E+02  0.51100000000E-03 0. -1.
        -11    1    4    4    0    0 -0.33955774753E+01  0.91807309784E+01  0.10977774567E+02  0.14708069295E+02  0.51100000000E-03 0.  1.
        -12    1    4    4    0    0 -0.10930785645E+02  0.17633194181E+01  0.87952597937E+00  0.11106976913E+02  0.00000000000E+00 0.  1.
</event>
<event>
 8    1  0.3776180E-010  0.9118800E+02  0.7816164E-02  0.1184000E+00
        -11   -1    0    0    0    0  0.00000000000E+00  0.00000000000E+00  0.45593999997E+02  0.45594000000E+02  0.51100000000E-03 0. -1.
         11   -1    0    0    0    0 -0.00000000000E+00 -0.00000000000E+00 -0.45593999997E+02  0.45594000000E+02  0.51100000000E-03 0.  1.
         23    2    1    2    0    0  0.17763568394E-14  0.44408920985E-15  0.00000000000E+00  0.91188000000E+02  0.91188000000E+02 0.  0.
    9900012    2    3    3    0    0 -0.10702494985E+02  0.18420077815E+01  0.42020089340E+02  0.47787259226E+02  0.19999946115E+02 0.  0.
        -12    1    3    3    0    0  0.10702494985E+02 -0.18420077815E+01 -0.42020089340E+02  0.43400740774E+02  0.00000000000E+00 0.  1.
         11    1    4    4    0    0 -0.11504990452E+02 -0.42289195647E+01  0.16676332003E+02  0.20696584629E+02  0.51100000000E-03 0. -1.
        -11    1    4    4    0    0 -0.54838681113E+00 -0.74749787340E+00  0.12083634513E+02  0.12119146194E+02  0.51100000000E-03 0.  1.
         12    1    4    4    0    0  0.13508822776E+01  0.68184252196E+01  0.13260122824E+02  0.14971528403E+02  0.00000000000E+00 0. -1.
</event>
<event>
 8    1  0.3776180E-010  0.9118800E+02  0.7816164E-02  0.1184000E+00
        -11   -1    0    0    0    0  0.00000000000E+00  0.00000000000E+00  0.45593999997E+02  0.45594000000E+02  0.51100000000E-03 0. -1.
         11   -1    0    0    0    0 -0.00000000000E+00 -0.00000000000E+00 -0.45593999997E+02  0.45594000000E+02  0.51100000000E-03 0.  1.
         23    2    1    2    0    0  0.00000000000E+00  0.00000000000E+00  0.71054273576E-14  0.91188000000E+02  0.91188000000E+02 0.  0.
    9900012    2    3    3    0    0 -0.16077915632E+02  0.11749927357E+02  0.38562459548E+02  0.47787269012E+02  0.19999990732E+02 0.  0.
        -12    1    3    3    0    0  0.16077915632E+02 -0.11749927357E+02 -0.38562459548E+02  0.43400730988E+02  0.00000000000E+00 0.  1.
         11    1    4    4    0    0 -0.38214264206E+01  0.42290736722E+01  0.73941605145E+01  0.93360577326E+01  0.51100000000E-03 0. -1.
        -11    1    4    4    0    0 -0.11607738413E+02  0.12739301856E+02  0.23108640923E+02  0.28827741647E+02  0.51100000000E-03 0.  1.
        -12    1    4    4    0    0 -0.64875079824E+00 -0.52184481718E+01  0.80596581099E+01  0.96234696325E+01  0.00000000000E+00 0.  1.
</event>
<event>
 8    1  0.3776180E-010  0.9118800E+02  0.7816164E-02  0.1184000E+00
        -11   -1    0    0    0    0  0.00000000000E+00  0.00000000000E+00  0.45593999997E+02  0.45594000000E+02  0.51100000000E-03 0. -1.
         11   -1    0    0    0    0 -0.00000000000E+00 -0.00000000000E+00 -0.45593999997E+02  0.45594000000E+02  0.51100000000E-03 0.  1.
         23    2    1    2    0    0  0.88817841970E-15  0.00000000000E+00 -0.71054273576E-14  0.91188000000E+02  0.91188000000E+02 0.  0.
    9900012    2    3    3    0    0  0.38607953566E+01 -0.12693187330E+02 -0.41323122349E+02  0.47787272056E+02  0.20000004612E+02 0.  0.
         12    1    3    3    0    0 -0.38607953566E+01  0.12693187330E+02  0.41323122349E+02  0.43400727944E+02  0.00000000000E+00 0. -1.
         11    1    4    4    0    0 -0.23933180694E+01  0.83856631452E+00 -0.81740945090E+00  0.26644555385E+01  0.51100000000E-03 0. -1.
        -11    1    4    4    0    0 -0.29007760620E+01 -0.70782447674E+01 -0.23885875518E+02  0.25080891138E+02  0.51100000000E-03 0.  1.
        -12    1    4    4    0    0  0.91548894881E+01 -0.64535088775E+01 -0.16619837381E+02  0.20041925380E+02  0.00000000000E+00 0.  1.
</event>
<event>
 8    1  0.3776180E-010  0.9118800E+02  0.7816164E-02  0.1184000E+00
        -11   -1    0    0    0    0  0.00000000000E+00  0.00000000000E+00  0.45593999997E+02  0.45594000000E+02  0.51100000000E-03 0. -1.
         11   -1    0    0    0    0 -0.00000000000E+00 -0.00000000000E+00 -0.45593999997E+02  0.45594000000E+02  0.51100000000E-03 0.  1.
         23    2    1    2    0    0 -0.71054273576E-14 -0.99920072216E-15  0.35527136788E-14  0.91188000000E+02  0.91188000000E+02 0.  0.
    9900012    2    3    3    0    0 -0.36775492433E+02  0.79547419826E+00  0.23033760996E+02  0.47787265346E+02  0.19999974017E+02 0.  0.
        -12    1    3    3    0    0  0.36775492433E+02 -0.79547419826E+00 -0.23033760996E+02  0.43400734654E+02  0.00000000000E+00 0.  1.
         11    1    4    4    0    0 -0.12367631680E+02 -0.68507156560E+01  0.11073585462E+02  0.17958700220E+02  0.51100000000E-03 0. -1.
        -11    1    4    4    0    0 -0.74765649936E+01  0.23448792232E+01  0.88428151132E+01  0.11814942322E+02  0.51100000000E-03 0.  1.
        -12    1    4    4    0    0 -0.16931295760E+02  0.53013106311E+01  0.31173604212E+01  0.18013622804E+02  0.00000000000E+00 0.  1.
</event>
<event>
 8    1  0.4039190E-010  0.9118800E+02  0.7816164E-02  0.1184000E+00
        -11   -1    0    0    0    0  0.00000000000E+00  0.00000000000E+00  0.45593999997E+02  0.45594000000E+02  0.51100000000E-03 0. -1.
         11   -1    0    0    0    0 -0.00000000000E+00 -0.00000000000E+00 -0.45593999997E+02  0.45594000000E+02  0.51100000000E-03 0.  1.
         23    2    1    2    0    0  0.35527136788E-14  0.88817841970E-15  0.00000000000E+00  0.91188000000E+02  0.91188000000E+02 0.  0.
    9900012    2    3    3    0    0 -0.26255718638E+02 -0.44301184223E+01  0.34272943085E+02  0.47787270304E+02  0.19999996624E+02 0.  0.
        -12    1    3    3    0    0  0.26255718638E+02  0.44301184223E+01 -0.34272943085E+02  0.43400729696E+02  0.00000000000E+00 0.  1.
         11    1    4    4    0    0 -0.18408277731E+02  0.20235856888E+00  0.19016652913E+02  0.26467692122E+02  0.51100000000E-03 0. -1.
        -11    1    4    4    0    0 -0.87682347527E+01 -0.50321721840E+01  0.16723556301E+02  0.19541802199E+02  0.51100000000E-03 0.  1.
        -12    1    4    4    0    0  0.92079384590E+00  0.39969519287E+00 -0.14672661284E+01  0.17777759829E+01  0.00000000000E+00 0.  1.
</event>
<event>
 8    1  0.3776180E-010  0.9118800E+02  0.7816164E-02  0.1184000E+00
        -11   -1    0    0    0    0  0.00000000000E+00  0.00000000000E+00  0.45593999997E+02  0.45594000000E+02  0.51100000000E-03 0. -1.
         11   -1    0    0    0    0 -0.00000000000E+00 -0.00000000000E+00 -0.45593999997E+02  0.45594000000E+02  0.51100000000E-03 0.  1.
         23    2    1    2    0    0  0.71054273576E-14  0.00000000000E+00 -0.88817841970E-15  0.91188000000E+02  0.91188000000E+02 0.  0.
    9900012    2    3    3    0    0  0.41898166712E+02 -0.84542349077E+01  0.75294810111E+01  0.47787267909E+02  0.19999985705E+02 0.  0.
        -12    1    3    3    0    0 -0.41898166712E+02  0.84542349077E+01 -0.75294810111E+01  0.43400732091E+02  0.00000000000E+00 0.  1.
         11    1    4    4    0    0  0.29391190729E+01 -0.35099618122E+01  0.36691514785E+01  0.58669349478E+01  0.51100000000E-03 0. -1.
        -11    1    4    4    0    0  0.52036091562E+01  0.37512700847E+01  0.29253629385E+01  0.70503421252E+01  0.51100000000E-03 0.  1.
         12    1    4    4    0    0  0.33755438483E+02 -0.86955431802E+01  0.93496659409E+00  0.34869990836E+02  0.00000000000E+00 0. -1.
</event>
<event>
 8    1  0.3776180E-010  0.9118800E+02  0.7816164E-02  0.1184000E+00
        -11   -1    0    0    0    0  0.00000000000E+00  0.00000000000E+00  0.45593999997E+02  0.45594000000E+02  0.51100000000E-03 0. -1.
         11   -1    0    0    0    0 -0.00000000000E+00 -0.00000000000E+00 -0.45593999997E+02  0.45594000000E+02  0.51100000000E-03 0.  1.
         23    2    1    2    0    0  0.00000000000E+00  0.00000000000E+00  0.00000000000E+00  0.91188000000E+02  0.91188000000E+02 0.  0.
    9900012    2    3    3    0    0 -0.23873777318E+02  0.26168749037E+02  0.25077095304E+02  0.47787292880E+02  0.20000099557E+02 0.  0.
        -12    1    3    3    0    0  0.23873777318E+02 -0.26168749037E+02 -0.25077095304E+02  0.43400707120E+02  0.00000000000E+00 0.  1.
         11    1    4    4    0    0 -0.11778411891E+02  0.15899886486E+02  0.13132269033E+02  0.23748555054E+02  0.51100000000E-03 0. -1.
        -11    1    4    4    0    0 -0.10588410932E+02  0.57751728505E+01  0.14332219151E+02  0.18731779776E+02  0.51100000000E-03 0.  1.
         12    1    4    4    0    0 -0.15069544953E+01  0.44936897009E+01 -0.23873928804E+01  0.53069580500E+01  0.00000000000E+00 0. -1.
</event>
<event>
 8    1  0.3776180E-010  0.9118800E+02  0.7816164E-02  0.1184000E+00
        -11   -1    0    0    0    0  0.00000000000E+00  0.00000000000E+00  0.45593999997E+02  0.45594000000E+02  0.51100000000E-03 0.  1.
         11   -1    0    0    0    0 -0.00000000000E+00 -0.00000000000E+00 -0.45593999997E+02  0.45594000000E+02  0.51100000000E-03 0. -1.
         23    2    1    2    0    0  0.00000000000E+00  0.00000000000E+00  0.00000000000E+00  0.91188000000E+02  0.91188000000E+02 0.  0.
    9900012    2    3    3    0    0 -0.26318842836E+02  0.26205674415E+02  0.22454520516E+02  0.47787258631E+02  0.19999943403E+02 0.  0.
        -12    1    3    3    0    0  0.26318842836E+02 -0.26205674415E+02 -0.22454520516E+02  0.43400741369E+02  0.00000000000E+00 0.  1.
         11    1    4    4    0    0 -0.10861755446E+02  0.21151031489E+02  0.17352803898E+02  0.29435754921E+02  0.51100000000E-03 0. -1.
        -11    1    4    4    0    0 -0.17653285642E+01 -0.45057895508E+00  0.29089301587E+01  0.34323871087E+01  0.51100000000E-03 0.  1.
         12    1    4    4    0    0 -0.13691758826E+02  0.55052218812E+01  0.21927864589E+01  0.14919116601E+02  0.00000000000E+00 0. -1.
</event>
<event>
 8    1  0.3776180E-010  0.9118800E+02  0.7816164E-02  0.1184000E+00
        -11   -1    0    0    0    0  0.00000000000E+00  0.00000000000E+00  0.45593999997E+02  0.45594000000E+02  0.51100000000E-03 0.  1.
         11   -1    0    0    0    0 -0.00000000000E+00 -0.00000000000E+00 -0.45593999997E+02  0.45594000000E+02  0.51100000000E-03 0. -1.
         23    2    1    2    0    0  0.71054273576E-14  0.00000000000E+00  0.00000000000E+00  0.91188000000E+02  0.91188000000E+02 0.  0.
    9900012    2    3    3    0    0 -0.39747926516E+02 -0.15492081946E+02  0.79825486569E+01  0.47787270186E+02  0.19999996085E+02 0.  0.
        -12    1    3    3    0    0  0.39747926516E+02  0.15492081946E+02 -0.79825486569E+01  0.43400729814E+02  0.00000000000E+00 0.  1.
         11    1    4    4    0    0 -0.74625431649E+01  0.79730585353E+00 -0.42961336012E+01  0.86476592956E+01  0.51100000000E-03 0. -1.
        -11    1    4    4    0    0 -0.23108988590E+01 -0.66637560118E+00  0.34473121060E+01  0.42033642473E+01  0.51100000000E-03 0.  1.
        -12    1    4    4    0    0 -0.29974484492E+02 -0.15623012199E+02  0.88313701521E+01  0.34936246643E+02  0.00000000000E+00 0.  1.
</event>
<event>
 8    1  0.3776180E-010  0.9118800E+02  0.7816164E-02  0.1184000E+00
        -11   -1    0    0    0    0  0.00000000000E+00  0.00000000000E+00  0.45593999997E+02  0.45594000000E+02  0.51100000000E-03 0. -1.
         11   -1    0    0    0    0 -0.00000000000E+00 -0.00000000000E+00 -0.45593999997E+02  0.45594000000E+02  0.51100000000E-03 0.  1.
         23    2    1    2    0    0  0.35527136788E-14  0.00000000000E+00  0.00000000000E+00  0.91188000000E+02  0.91188000000E+02 0.  0.
    9900012    2    3    3    0    0  0.16225166883E+02  0.12511156564E+02  0.38260134510E+02  0.47787274526E+02  0.20000015874E+02 0.  0.
        -12    1    3    3    0    0 -0.16225166883E+02 -0.12511156564E+02 -0.38260134510E+02  0.43400725474E+02  0.00000000000E+00 0.  1.
         11    1    4    4    0    0  0.46707056192E+01 -0.97394225078E+00  0.25459403920E+01  0.54079448249E+01  0.51100000000E-03 0.  1.
        -11    1    4    4    0    0  0.82398902665E+01 -0.64064142156E+00  0.14190201889E+02  0.16421572487E+02  0.51100000000E-03 0. -1.
         12    1    4    4    0    0  0.33145709974E+01  0.14125740237E+02  0.21523992229E+02  0.25957757214E+02  0.00000000000E+00 0. -1.
</event>
<event>
 8    1  0.3776180E-010  0.9118800E+02  0.7816164E-02  0.1184000E+00
        -11   -1    0    0    0    0  0.00000000000E+00  0.00000000000E+00  0.45593999997E+02  0.45594000000E+02  0.51100000000E-03 0. -1.
         11   -1    0    0    0    0 -0.00000000000E+00 -0.00000000000E+00 -0.45593999997E+02  0.45594000000E+02  0.51100000000E-03 0.  1.
         23    2    1    2    0    0  0.66613381478E-15  0.00000000000E+00  0.00000000000E+00  0.91188000000E+02  0.91188000000E+02 0.  0.
    9900012    2    3    3    0    0  0.14485284336E+01  0.18550628113E+02  0.39209686577E+02  0.47787267755E+02  0.19999985001E+02 0.  0.
        -12    1    3    3    0    0 -0.14485284336E+01 -0.18550628113E+02 -0.39209686577E+02  0.43400732245E+02  0.00000000000E+00 0.  1.
         11    1    4    4    0    0 -0.21330059436E+01  0.36631734761E+01  0.13954170892E+02  0.14583807452E+02  0.51100000000E-03 0. -1.
        -11    1    4    4    0    0  0.73487162390E+01  0.69794162173E+01  0.21308174087E+02  0.23595638670E+02  0.51100000000E-03 0.  1.
         12    1    4    4    0    0 -0.37671818618E+01  0.79080384192E+01  0.39473415983E+01  0.96078216320E+01  0.00000000000E+00 0. -1.
</event>
<event>
 8    1  0.3776180E-010  0.9118800E+02  0.7816164E-02  0.1184000E+00
        -11   -1    0    0    0    0  0.00000000000E+00  0.00000000000E+00  0.45593999997E+02  0.45594000000E+02  0.51100000000E-03 0. -1.
         11   -1    0    0    0    0 -0.00000000000E+00 -0.00000000000E+00 -0.45593999997E+02  0.45594000000E+02  0.51100000000E-03 0.  1.
         23    2    1    2    0    0  0.35527136788E-14 -0.44408920985E-15  0.00000000000E+00  0.91188000000E+02  0.91188000000E+02 0.  0.
    9900012    2    3    3    0    0 -0.22690084027E+02  0.26098208417E+01 -0.36904882213E+02  0.47787292527E+02  0.20000097948E+02 0.  0.
         12    1    3    3    0    0  0.22690084027E+02 -0.26098208417E+01  0.36904882213E+02  0.43400707473E+02  0.00000000000E+00 0. -1.
         11    1    4    4    0    0 -0.42564237818E+00 -0.83760571939E-01  0.94966164417E+00  0.10440520902E+01  0.51100000000E-03 0. -1.
        -11    1    4    4    0    0  0.11765898515E+01 -0.15668710797E+01 -0.95372189715E+01  0.97364261734E+01  0.51100000000E-03 0.  1.
        -12    1    4    4    0    0 -0.23441031500E+02  0.42604524934E+01 -0.28317324886E+02  0.37006814264E+02  0.00000000000E+00 0.  1.
</event>
<event>
 8    1  0.3776180E-010  0.9118800E+02  0.7816164E-02  0.1184000E+00
        -11   -1    0    0    0    0  0.00000000000E+00  0.00000000000E+00  0.45593999997E+02  0.45594000000E+02  0.51100000000E-03 0. -1.
         11   -1    0    0    0    0 -0.00000000000E+00 -0.00000000000E+00 -0.45593999997E+02  0.45594000000E+02  0.51100000000E-03 0.  1.
         23    2    1    2    0    0 -0.35527136788E-14 -0.44408920985E-15 -0.35527136788E-14  0.91188000000E+02  0.91188000000E+02 0.  0.
    9900012    2    3    3    0    0 -0.31278971158E+02  0.23048165549E+01  0.29998948103E+02  0.47787273009E+02  0.20000008956E+02 0.  0.
        -12    1    3    3    0    0  0.31278971158E+02 -0.23048165549E+01 -0.29998948103E+02  0.43400726991E+02  0.00000000000E+00 0.  1.
         11    1    4    4    0    0 -0.15004037322E+02 -0.27179078739E+01  0.58560474195E+01  0.16334058002E+02  0.51100000000E-03 0. -1.
        -11    1    4    4    0    0 -0.34357043142E+01 -0.10988989801E+01  0.21092924192E+00  0.36133273460E+01  0.51100000000E-03 0.  1.
        -12    1    4    4    0    0 -0.12839229522E+02  0.61216234090E+01  0.23931971442E+02  0.27839887661E+02  0.00000000000E+00 0.  1.
</event>
<event>
 8    1  0.3776180E-010  0.9118800E+02  0.7816164E-02  0.1184000E+00
        -11   -1    0    0    0    0  0.00000000000E+00  0.00000000000E+00  0.45593999997E+02  0.45594000000E+02  0.51100000000E-03 0. -1.
         11   -1    0    0    0    0 -0.00000000000E+00 -0.00000000000E+00 -0.45593999997E+02  0.45594000000E+02  0.51100000000E-03 0.  1.
         23    2    1    2    0    0  0.00000000000E+00  0.35527136788E-14 -0.35527136788E-14  0.91188000000E+02  0.91188000000E+02 0.  0.
    9900012    2    3    3    0    0  0.10027030301E+02 -0.29009425590E+02  0.30684448240E+02  0.47787268745E+02  0.19999989516E+02 0.  0.
        -12    1    3    3    0    0 -0.10027030301E+02  0.29009425590E+02 -0.30684448240E+02  0.43400731255E+02  0.00000000000E+00 0.  1.
         11    1    4    4    0    0  0.62873464584E+01 -0.15367409915E+02  0.21595296631E+02  0.27240500175E+02  0.51100000000E-03 0. -1.
        -11    1    4    4    0    0  0.50817883453E+01 -0.57899751064E+00  0.38787164944E+01  0.64190538874E+01  0.51100000000E-03 0.  1.
        -12    1    4    4    0    0 -0.13421045028E+01 -0.13063018164E+02  0.52104351146E+01  0.14127714682E+02  0.00000000000E+00 0.  1.
</event>
<event>
 8    1  0.3776180E-010  0.9118800E+02  0.7816164E-02  0.1184000E+00
        -11   -1    0    0    0    0  0.00000000000E+00  0.00000000000E+00  0.45593999997E+02  0.45594000000E+02  0.51100000000E-03 0. -1.
         11   -1    0    0    0    0 -0.00000000000E+00 -0.00000000000E+00 -0.45593999997E+02  0.45594000000E+02  0.51100000000E-03 0.  1.
         23    2    1    2    0    0  0.00000000000E+00 -0.35527136788E-14 -0.35527136788E-14  0.91188000000E+02  0.91188000000E+02 0.  0.
    9900012    2    3    3    0    0 -0.20773956675E+02  0.24637536081E+02 -0.29069877042E+02  0.47787271765E+02  0.20000003287E+02 0.  0.
         12    1    3    3    0    0  0.20773956675E+02 -0.24637536081E+02  0.29069877042E+02  0.43400728235E+02  0.00000000000E+00 0. -1.
         11    1    4    4    0    0  0.70221523296E+00  0.31010626087E+01  0.91929075273E+00  0.33098023031E+01  0.51100000000E-03 0. -1.
        -11    1    4    4    0    0 -0.79210715630E+01  0.18658781103E+01 -0.36506513281E+01  0.89192001440E+01  0.51100000000E-03 0.  1.
        -12    1    4    4    0    0 -0.13555100345E+02  0.19670595362E+02 -0.26338516467E+02  0.35558269318E+02  0.00000000000E+00 0.  1.
</event>
<event>
 8    1  0.3776180E-010  0.9118800E+02  0.7816164E-02  0.1184000E+00
        -11   -1    0    0    0    0  0.00000000000E+00  0.00000000000E+00  0.45593999997E+02  0.45594000000E+02  0.51100000000E-03 0. -1.
         11   -1    0    0    0    0 -0.00000000000E+00 -0.00000000000E+00 -0.45593999997E+02  0.45594000000E+02  0.51100000000E-03 0.  1.
         23    2    1    2    0    0  0.17763568394E-14  0.00000000000E+00  0.00000000000E+00  0.91188000000E+02  0.91188000000E+02 0.  0.
    9900012    2    3    3    0    0  0.12171237214E+02  0.65621621759E+01 -0.41139058052E+02  0.47787273219E+02  0.20000009913E+02 0.  0.
         12    1    3    3    0    0 -0.12171237214E+02 -0.65621621759E+01  0.41139058052E+02  0.43400726781E+02  0.00000000000E+00 0. -1.
         11    1    4    4    0    0  0.22962801906E+01  0.28009578842E+01 -0.74987733802E+01  0.83276569485E+01  0.51100000000E-03 0.  1.
        -11    1    4    4    0    0  0.70179531528E+01 -0.94355717501E-01 -0.17810961067E+01  0.72410546924E+01  0.51100000000E-03 0. -1.
         12    1    4    4    0    0  0.28570038706E+01  0.38555600092E+01 -0.31859188565E+02  0.32218561578E+02  0.00000000000E+00 0. -1.
</event>
<event>
 8    1  0.3776180E-010  0.9118800E+02  0.7816164E-02  0.1184000E+00
        -11   -1    0    0    0    0  0.00000000000E+00  0.00000000000E+00  0.45593999997E+02  0.45594000000E+02  0.51100000000E-03 0. -1.
         11   -1    0    0    0    0 -0.00000000000E+00 -0.00000000000E+00 -0.45593999997E+02  0.45594000000E+02  0.51100000000E-03 0.  1.
         23    2    1    2    0    0 -0.35527136788E-14 -0.88817841970E-15  0.00000000000E+00  0.91188000000E+02  0.91188000000E+02 0.  0.
    9900012    2    3    3    0    0 -0.20667738116E+02 -0.76822198277E+01  0.37382502702E+02  0.47787269493E+02  0.19999992926E+02 0.  0.
        -12    1    3    3    0    0  0.20667738116E+02  0.76822198277E+01 -0.37382502702E+02  0.43400730507E+02  0.00000000000E+00 0.  1.
         11    1    4    4    0    0 -0.25756290056E+01  0.66723337796E+00  0.93406773188E+01  0.97122251925E+01  0.51100000000E-03 0. -1.
        -11    1    4    4    0    0 -0.21003287659E+02 -0.84439421475E+01  0.23127031193E+02  0.32361981143E+02  0.51100000000E-03 0.  1.
        -12    1    4    4    0    0  0.29111785487E+01  0.94488941789E-01  0.49147941903E+01  0.57130631570E+01  0.00000000000E+00 0.  1.
</event>
<event>
 8    1  0.3776180E-010  0.9118800E+02  0.7816164E-02  0.1184000E+00
        -11   -1    0    0    0    0  0.00000000000E+00  0.00000000000E+00  0.45593999997E+02  0.45594000000E+02  0.51100000000E-03 0. -1.
         11   -1    0    0    0    0 -0.00000000000E+00 -0.00000000000E+00 -0.45593999997E+02  0.45594000000E+02  0.51100000000E-03 0.  1.
         23    2    1    2    0    0  0.00000000000E+00  0.17763568394E-14  0.00000000000E+00  0.91188000000E+02  0.91188000000E+02 0.  0.
    9900012    2    3    3    0    0 -0.33496488282E+01 -0.13150702299E+02 -0.41224534577E+02  0.47787269945E+02  0.19999994987E+02 0.  0.
         12    1    3    3    0    0  0.33496488282E+01  0.13150702299E+02  0.41224534577E+02  0.43400730055E+02  0.00000000000E+00 0. -1.
         11    1    4    4    0    0  0.20059250502E+01 -0.40000749862E+00 -0.22029272991E+01  0.30060988427E+01  0.51100000000E-03 0. -1.
        -11    1    4    4    0    0  0.13516206562E+01  0.37084461988E+01 -0.47573552151E+01  0.61815758923E+01  0.51100000000E-03 0.  1.
         12    1    4    4    0    0 -0.67071945345E+01 -0.16459141000E+02 -0.34264252063E+02  0.38599595210E+02  0.00000000000E+00 0. -1.
</event>
<event>
 8    1  0.3776180E-010  0.9118800E+02  0.7816164E-02  0.1184000E+00
        -11   -1    0    0    0    0  0.00000000000E+00  0.00000000000E+00  0.45593999997E+02  0.45594000000E+02  0.51100000000E-03 0. -1.
         11   -1    0    0    0    0 -0.00000000000E+00 -0.00000000000E+00 -0.45593999997E+02  0.45594000000E+02  0.51100000000E-03 0.  1.
         23    2    1    2    0    0  0.00000000000E+00  0.00000000000E+00  0.00000000000E+00  0.91188000000E+02  0.91188000000E+02 0.  0.
    9900012    2    3    3    0    0  0.42632681203E+01  0.38392499029E+02 -0.19785441780E+02  0.47787272550E+02  0.20000006863E+02 0.  0.
         12    1    3    3    0    0 -0.42632681203E+01 -0.38392499029E+02  0.19785441780E+02  0.43400727450E+02  0.00000000000E+00 0. -1.
         11    1    4    4    0    0  0.38580952470E+00  0.17521388482E+02 -0.43237547879E+01  0.18051115175E+02  0.51100000000E-03 0. -1.
        -11    1    4    4    0    0  0.52923265171E+01  0.41557677770E+01  0.27572202448E+00  0.67346231280E+01  0.51100000000E-03 0.  1.
        -12    1    4    4    0    0 -0.14148679215E+01  0.16715342770E+02 -0.15737409016E+02  0.23001534247E+02  0.00000000000E+00 0.  1.
</event>
<event>
 8    1  0.3776180E-010  0.9118800E+02  0.7816164E-02  0.1184000E+00
        -11   -1    0    0    0    0  0.00000000000E+00  0.00000000000E+00  0.45593999997E+02  0.45594000000E+02  0.51100000000E-03 0. -1.
         11   -1    0    0    0    0 -0.00000000000E+00 -0.00000000000E+00 -0.45593999997E+02  0.45594000000E+02  0.51100000000E-03 0.  1.
         23    2    1    2    0    0  0.00000000000E+00  0.00000000000E+00  0.71054273576E-14  0.91188000000E+02  0.91188000000E+02 0.  0.
    9900012    2    3    3    0    0  0.23057543671E+02  0.10585039615E+02  0.35212629388E+02  0.47787278206E+02  0.20000032652E+02 0.  0.
        -12    1    3    3    0    0 -0.23057543671E+02 -0.10585039615E+02 -0.35212629388E+02  0.43400721794E+02  0.00000000000E+00 0.  1.
         11    1    4    4    0    0  0.90384289523E+01  0.11299104828E+02  0.10730005544E+02  0.18013772150E+02  0.51100000000E-03 0.  1.
        -11    1    4    4    0    0  0.66376217999E+01 -0.31350451840E+00  0.34658601535E+01  0.74945643707E+01  0.51100000000E-03 0. -1.
        -12    1    4    4    0    0  0.73814929187E+01 -0.40056069410E+00  0.21016763690E+02  0.22278941685E+02  0.00000000000E+00 0.  1.
</event>
<event>
 8    1  0.3776180E-010  0.9118800E+02  0.7816164E-02  0.1184000E+00
        -11   -1    0    0    0    0  0.00000000000E+00  0.00000000000E+00  0.45593999997E+02  0.45594000000E+02  0.51100000000E-03 0. -1.
         11   -1    0    0    0    0 -0.00000000000E+00 -0.00000000000E+00 -0.45593999997E+02  0.45594000000E+02  0.51100000000E-03 0.  1.
         23    2    1    2    0    0 -0.22204460493E-15  0.00000000000E+00  0.00000000000E+00  0.91188000000E+02  0.91188000000E+02 0.  0.
    9900012    2    3    3    0    0  0.14843475480E+01  0.18465527091E+02 -0.39248483999E+02  0.47787280252E+02  0.20000041982E+02 0.  0.
         12    1    3    3    0    0 -0.14843475480E+01 -0.18465527091E+02  0.39248483999E+02  0.43400719748E+02  0.00000000000E+00 0. -1.
         11    1    4    4    0    0  0.28168194605E+01  0.24414987383E+01 -0.10931555776E+02  0.11549645012E+02  0.51100000000E-03 0. -1.
        -11    1    4    4    0    0 -0.89506120566E+00  0.12034025400E+01 -0.18260273036E+02  0.18321759845E+02  0.51100000000E-03 0.  1.
        -12    1    4    4    0    0 -0.43741070675E+00  0.14820625812E+02 -0.10056655188E+02  0.17915875395E+02  0.00000000000E+00 0.  1.
</event>
<event>
 8    1  0.3776180E-010  0.9118800E+02  0.7816164E-02  0.1184000E+00
        -11   -1    0    0    0    0  0.00000000000E+00  0.00000000000E+00  0.45593999997E+02  0.45594000000E+02  0.51100000000E-03 0. -1.
         11   -1    0    0    0    0 -0.00000000000E+00 -0.00000000000E+00 -0.45593999997E+02  0.45594000000E+02  0.51100000000E-03 0.  1.
         23    2    1    2    0    0  0.35527136788E-14  0.00000000000E+00  0.00000000000E+00  0.91188000000E+02  0.91188000000E+02 0.  0.
    9900012    2    3    3    0    0 -0.24666846302E+02 -0.15607589685E+01 -0.35675397147E+02  0.47787271473E+02  0.20000001954E+02 0.  0.
         12    1    3    3    0    0  0.24666846302E+02  0.15607589685E+01  0.35675397147E+02  0.43400728527E+02  0.00000000000E+00 0. -1.
         11    1    4    4    0    0 -0.60999774394E+01  0.38708873492E+01 -0.46630398631E+01  0.85986879614E+01  0.51100000000E-03 0. -1.
        -11    1    4    4    0    0  0.19150416065E+01 -0.24907692262E+01 -0.28506323713E+01  0.42423367229E+01  0.51100000000E-03 0.  1.
        -12    1    4    4    0    0 -0.20481910470E+02 -0.29408770915E+01 -0.28161724913E+02  0.34946246789E+02  0.00000000000E+00 0.  1.
</event>
<event>
 8    1  0.3776180E-010  0.9118800E+02  0.7816164E-02  0.1184000E+00
        -11   -1    0    0    0    0  0.00000000000E+00  0.00000000000E+00  0.45593999997E+02  0.45594000000E+02  0.51100000000E-03 0. -1.
         11   -1    0    0    0    0 -0.00000000000E+00 -0.00000000000E+00 -0.45593999997E+02  0.45594000000E+02  0.51100000000E-03 0.  1.
         23    2    1    2    0    0  0.00000000000E+00 -0.17763568394E-14  0.00000000000E+00  0.91188000000E+02  0.91188000000E+02 0.  0.
    9900012    2    3    3    0    0 -0.20950593424E+02  0.14576070471E+02 -0.35103196218E+02  0.47787267519E+02  0.19999983927E+02 0.  0.
         12    1    3    3    0    0  0.20950593424E+02 -0.14576070471E+02  0.35103196218E+02  0.43400732481E+02  0.00000000000E+00 0. -1.
         11    1    4    4    0    0 -0.95423317386E+00  0.18852972682E+01 -0.10438547102E+00  0.21156094458E+01  0.51100000000E-03 0. -1.
        -11    1    4    4    0    0 -0.13246918744E+02 -0.15444075482E+01 -0.19044237270E+02  0.23249710199E+02  0.51100000000E-03 0.  1.
        -12    1    4    4    0    0 -0.67494415059E+01  0.14235180751E+02 -0.15954573476E+02  0.22421947874E+02  0.00000000000E+00 0.  1.
</event>
<event>
 8    1  0.3776180E-010  0.9118800E+02  0.7816164E-02  0.1184000E+00
        -11   -1    0    0    0    0  0.00000000000E+00  0.00000000000E+00  0.45593999997E+02  0.45594000000E+02  0.51100000000E-03 0. -1.
         11   -1    0    0    0    0 -0.00000000000E+00 -0.00000000000E+00 -0.45593999997E+02  0.45594000000E+02  0.51100000000E-03 0.  1.
         23    2    1    2    0    0  0.00000000000E+00 -0.71054273576E-14  0.00000000000E+00  0.91188000000E+02  0.91188000000E+02 0.  0.
    9900012    2    3    3    0    0 -0.53728160096E+01  0.35332087278E+02  0.24625182963E+02  0.47787272134E+02  0.20000004968E+02 0.  0.
        -12    1    3    3    0    0  0.53728160096E+01 -0.35332087278E+02 -0.24625182963E+02  0.43400727866E+02  0.00000000000E+00 0.  1.
         11    1    4    4    0    0 -0.28962333585E+01  0.11078647410E+02  0.14240998758E+02  0.18273769233E+02  0.51100000000E-03 0. -1.
        -11    1    4    4    0    0 -0.12665340694E+01  0.88784707568E+01  0.10859039561E+02  0.14083681762E+02  0.51100000000E-03 0.  1.
        -12    1    4    4    0    0 -0.12100485817E+01  0.15374969112E+02 -0.47485535651E+00  0.15429821138E+02  0.00000000000E+00 0.  1.
</event>
<event>
 8    1  0.3776180E-010  0.9118800E+02  0.7816164E-02  0.1184000E+00
        -11   -1    0    0    0    0  0.00000000000E+00  0.00000000000E+00  0.45593999997E+02  0.45594000000E+02  0.51100000000E-03 0. -1.
         11   -1    0    0    0    0 -0.00000000000E+00 -0.00000000000E+00 -0.45593999997E+02  0.45594000000E+02  0.51100000000E-03 0.  1.
         23    2    1    2    0    0  0.00000000000E+00  0.00000000000E+00  0.00000000000E+00  0.91188000000E+02  0.91188000000E+02 0.  0.
    9900012    2    3    3    0    0  0.71733678405E+01 -0.51759955215E+01  0.42489706146E+02  0.47787271156E+02  0.20000000507E+02 0.  0.
        -12    1    3    3    0    0 -0.71733678405E+01  0.51759955215E+01 -0.42489706146E+02  0.43400728844E+02  0.00000000000E+00 0.  1.
         11    1    4    4    0    0 -0.14147676116E+01 -0.74093362275E+00 -0.14187865934E+00  0.16033339775E+01  0.51100000000E-03 0. -1.
        -11    1    4    4    0    0 -0.21423458324E+01  0.37089098176E+01  0.10897824774E+02  0.11709322899E+02  0.51100000000E-03 0.  1.
         12    1    4    4    0    0  0.10730481285E+02 -0.81439717164E+01  0.31733760032E+02  0.34474614279E+02  0.00000000000E+00 0. -1.
</event>
<event>
 8    1  0.3776180E-010  0.9118800E+02  0.7816164E-02  0.1184000E+00
        -11   -1    0    0    0    0  0.00000000000E+00  0.00000000000E+00  0.45593999997E+02  0.45594000000E+02  0.51100000000E-03 0.  1.
         11   -1    0    0    0    0 -0.00000000000E+00 -0.00000000000E+00 -0.45593999997E+02  0.45594000000E+02  0.51100000000E-03 0. -1.
         23    2    1    2    0    0 -0.17763568394E-14  0.00000000000E+00  0.00000000000E+00  0.91188000000E+02  0.91188000000E+02 0.  0.
    9900012    2    3    3    0    0 -0.86456589095E+01 -0.35774624424E+02 -0.23001132751E+02  0.47787270991E+02  0.19999999758E+02 0.  0.
         12    1    3    3    0    0  0.86456589095E+01  0.35774624424E+02  0.23001132751E+02  0.43400729009E+02  0.00000000000E+00 0. -1.
         11    1    4    4    0    0  0.11942264053E+01 -0.15128675667E+02 -0.91299179099E+01  0.17710403876E+02  0.51100000000E-03 0.  1.
        -11    1    4    4    0    0 -0.88314051662E+01 -0.20241440761E+02 -0.70683005487E+01  0.23187723351E+02  0.51100000000E-03 0. -1.
         12    1    4    4    0    0 -0.10084801485E+01 -0.40450799523E+00 -0.68029142925E+01  0.68891437639E+01  0.00000000000E+00 0. -1.
</event>
<event>
 8    1  0.3776180E-010  0.9118800E+02  0.7816164E-02  0.1184000E+00
        -11   -1    0    0    0    0  0.00000000000E+00  0.00000000000E+00  0.45593999997E+02  0.45594000000E+02  0.51100000000E-03 0. -1.
         11   -1    0    0    0    0 -0.00000000000E+00 -0.00000000000E+00 -0.45593999997E+02  0.45594000000E+02  0.51100000000E-03 0.  1.
         23    2    1    2    0    0 -0.66613381478E-15  0.00000000000E+00  0.71054273576E-14  0.91188000000E+02  0.91188000000E+02 0.  0.
    9900012    2    3    3    0    0  0.16453593487E+01  0.16554800638E+02  0.40085593259E+02  0.47787269379E+02  0.19999992406E+02 0.  0.
        -12    1    3    3    0    0 -0.16453593487E+01 -0.16554800638E+02 -0.40085593259E+02  0.43400730621E+02  0.00000000000E+00 0.  1.
         11    1    4    4    0    0  0.75146420453E+01  0.79278897242E+01  0.11552854540E+02  0.15899362529E+02  0.51100000000E-03 0. -1.
        -11    1    4    4    0    0  0.19483661689E+01  0.62338516565E+00  0.10261223986E+02  0.10463147602E+02  0.51100000000E-03 0.  1.
         12    1    4    4    0    0 -0.78176488655E+01  0.80035257476E+01  0.18271514733E+02  0.21424759247E+02  0.00000000000E+00 0. -1.
</event>
<event>
 8    1  0.3776180E-010  0.9118800E+02  0.7816164E-02  0.1184000E+00
        -11   -1    0    0    0    0  0.00000000000E+00  0.00000000000E+00  0.45593999997E+02  0.45594000000E+02  0.51100000000E-03 0. -1.
         11   -1    0    0    0    0 -0.00000000000E+00 -0.00000000000E+00 -0.45593999997E+02  0.45594000000E+02  0.51100000000E-03 0.  1.
         23    2    1    2    0    0  0.17763568394E-14  0.83266726847E-16  0.00000000000E+00  0.91188000000E+02  0.91188000000E+02 0.  0.
    9900012    2    3    3    0    0 -0.93618304151E+01 -0.14963852587E+00  0.42378728571E+02  0.47787275401E+02  0.20000019862E+02 0.  0.
        -12    1    3    3    0    0  0.93618304151E+01  0.14963852587E+00 -0.42378728571E+02  0.43400724599E+02  0.00000000000E+00 0.  1.
         11    1    4    4    0    0 -0.94099096998E+01  0.24938338300E+01  0.11490946339E+02  0.15060128012E+02  0.51100000000E-03 0. -1.
        -11    1    4    4    0    0 -0.45405545647E+01 -0.37409629390E+01  0.13839567286E+02  0.15038120308E+02  0.51100000000E-03 0.  1.
         12    1    4    4    0    0  0.45886338494E+01  0.10974905831E+01  0.17048214947E+02  0.17689027081E+02  0.00000000000E+00 0. -1.
</event>
<event>
 8    1  0.3776180E-010  0.9118800E+02  0.7816164E-02  0.1184000E+00
        -11   -1    0    0    0    0  0.00000000000E+00  0.00000000000E+00  0.45593999997E+02  0.45594000000E+02  0.51100000000E-03 0.  1.
         11   -1    0    0    0    0 -0.00000000000E+00 -0.00000000000E+00 -0.45593999997E+02  0.45594000000E+02  0.51100000000E-03 0. -1.
         23    2    1    2    0    0 -0.17763568394E-14  0.00000000000E+00 -0.17763568394E-14  0.91188000000E+02  0.91188000000E+02 0.  0.
    9900012    2    3    3    0    0  0.78982909315E+01  0.41468338499E+02 -0.10080534202E+02  0.47787271120E+02  0.20000000346E+02 0.  0.
        -12    1    3    3    0    0 -0.78982909315E+01 -0.41468338499E+02  0.10080534202E+02  0.43400728880E+02  0.00000000000E+00 0.  1.
         11    1    4    4    0    0  0.68922117948E+01  0.14938207773E+02  0.84883960192E+00  0.16473407779E+02  0.51100000000E-03 0. -1.
        -11    1    4    4    0    0  0.12188390880E+01 -0.11163865682E+01 -0.23152516821E+00  0.16689792859E+01  0.51100000000E-03 0.  1.
        -12    1    4    4    0    0 -0.21275995123E+00  0.27646517293E+02 -0.10697848636E+02  0.29644884056E+02  0.00000000000E+00 0.  1.
</event>
<event>
 8    1  0.3776180E-010  0.9118800E+02  0.7816164E-02  0.1184000E+00
        -11   -1    0    0    0    0  0.00000000000E+00  0.00000000000E+00  0.45593999997E+02  0.45594000000E+02  0.51100000000E-03 0. -1.
         11   -1    0    0    0    0 -0.00000000000E+00 -0.00000000000E+00 -0.45593999997E+02  0.45594000000E+02  0.51100000000E-03 0.  1.
         23    2    1    2    0    0  0.00000000000E+00 -0.17763568394E-14 -0.35527136788E-14  0.91188000000E+02  0.91188000000E+02 0.  0.
    9900012    2    3    3    0    0  0.30920064524E+02 -0.89342901523E+01 -0.29116173277E+02  0.47787268704E+02  0.19999989330E+02 0.  0.
         12    1    3    3    0    0 -0.30920064524E+02  0.89342901523E+01  0.29116173277E+02  0.43400731296E+02  0.00000000000E+00 0. -1.
         11    1    4    4    0    0  0.93069418985E+00  0.24358062827E+01 -0.97937308252E-01  0.26093937800E+01  0.51100000000E-03 0. -1.
        -11    1    4    4    0    0  0.21272474262E+02 -0.39966795567E+01 -0.12187282880E+02  0.24839916928E+02  0.51100000000E-03 0.  1.
         12    1    4    4    0    0  0.87168960725E+01 -0.73734168783E+01 -0.16830953089E+02  0.20337957997E+02  0.00000000000E+00 0. -1.
</event>
<event>
 8    1  0.3776180E-010  0.9118800E+02  0.7816164E-02  0.1184000E+00
        -11   -1    0    0    0    0  0.00000000000E+00  0.00000000000E+00  0.45593999997E+02  0.45594000000E+02  0.51100000000E-03 0. -1.
         11   -1    0    0    0    0 -0.00000000000E+00 -0.00000000000E+00 -0.45593999997E+02  0.45594000000E+02  0.51100000000E-03 0.  1.
         23    2    1    2    0    0  0.00000000000E+00  0.00000000000E+00  0.00000000000E+00  0.91188000000E+02  0.91188000000E+02 0.  0.
    9900012    2    3    3    0    0 -0.20791548053E+02 -0.97849285591E+01 -0.36818343368E+02  0.47787266069E+02  0.19999977316E+02 0.  0.
         12    1    3    3    0    0  0.20791548053E+02  0.97849285591E+01  0.36818343368E+02  0.43400733931E+02  0.00000000000E+00 0. -1.
         11    1    4    4    0    0  0.18516431204E+01  0.20613561110E+01 -0.34123887327E+01  0.43956988506E+01  0.51100000000E-03 0. -1.
        -11    1    4    4    0    0 -0.43241628657E+01 -0.10585258102E+01 -0.88598898080E+00  0.45391450864E+01  0.51100000000E-03 0.  1.
        -12    1    4    4    0    0 -0.18319028308E+02 -0.10787758860E+02 -0.32519965655E+02  0.38852422132E+02  0.00000000000E+00 0.  1.
</event>
<event>
 8    1  0.4938585E-010  0.9118800E+02  0.7816164E-02  0.1184000E+00
        -11   -1    0    0    0    0  0.00000000000E+00  0.00000000000E+00  0.45593999997E+02  0.45594000000E+02  0.51100000000E-03 0. -1.
         11   -1    0    0    0    0 -0.00000000000E+00 -0.00000000000E+00 -0.45593999997E+02  0.45594000000E+02  0.51100000000E-03 0.  1.
         23    2    1    2    0    0  0.00000000000E+00 -0.17763568394E-14  0.71054273576E-14  0.91188000000E+02  0.91188000000E+02 0.  0.
    9900012    2    3    3    0    0 -0.13182748663E+02 -0.12627923663E+02  0.39374787802E+02  0.47787271518E+02  0.20000002158E+02 0.  0.
        -12    1    3    3    0    0  0.13182748663E+02  0.12627923663E+02 -0.39374787802E+02  0.43400728482E+02  0.00000000000E+00 0.  1.
         11    1    4    4    0    0 -0.10088267204E+02 -0.76073663003E+01  0.27237750774E+02  0.30025659438E+02  0.51100000000E-03 0. -1.
        -11    1    4    4    0    0  0.28498649592E+00 -0.11657980909E+01  0.12560544477E+02  0.12617748623E+02  0.51100000000E-03 0.  1.
        -12    1    4    4    0    0 -0.33794679549E+01 -0.38547592716E+01 -0.42350744925E+00  0.51438634565E+01  0.00000000000E+00 0.  1.
</event>
<event>
 8    1  0.3776180E-010  0.9118800E+02  0.7816164E-02  0.1184000E+00
        -11   -1    0    0    0    0  0.00000000000E+00  0.00000000000E+00  0.45593999997E+02  0.45594000000E+02  0.51100000000E-03 0. -1.
         11   -1    0    0    0    0 -0.00000000000E+00 -0.00000000000E+00 -0.45593999997E+02  0.45594000000E+02  0.51100000000E-03 0.  1.
         23    2    1    2    0    0  0.33306690739E-15  0.71054273576E-14  0.00000000000E+00  0.91188000000E+02  0.91188000000E+02 0.  0.
    9900012    2    3    3    0    0 -0.47677432298E+00 -0.38430809365E+02 -0.20161071574E+02  0.47787271559E+02  0.20000002348E+02 0.  0.
         12    1    3    3    0    0  0.47677432298E+00  0.38430809365E+02  0.20161071574E+02  0.43400728441E+02  0.00000000000E+00 0. -1.
         11    1    4    4    0    0 -0.34201299804E+01  0.60221895917E+00 -0.16885232526E+01  0.38614851797E+01  0.51100000000E-03 0. -1.
        -11    1    4    4    0    0  0.20630410499E+01 -0.77904456928E+01 -0.10063577268E+01  0.81215724218E+01  0.51100000000E-03 0.  1.
         12    1    4    4    0    0  0.88031460747E+00 -0.31242582631E+02 -0.17466190595E+02  0.35804213958E+02  0.00000000000E+00 0. -1.
</event>
<event>
 8    1  0.3776180E-010  0.9118800E+02  0.7816164E-02  0.1184000E+00
        -11   -1    0    0    0    0  0.00000000000E+00  0.00000000000E+00  0.45593999997E+02  0.45594000000E+02  0.51100000000E-03 0.  1.
         11   -1    0    0    0    0 -0.00000000000E+00 -0.00000000000E+00 -0.45593999997E+02  0.45594000000E+02  0.51100000000E-03 0. -1.
         23    2    1    2    0    0  0.00000000000E+00  0.00000000000E+00  0.00000000000E+00  0.91188000000E+02  0.91188000000E+02 0.  0.
    9900012    2    3    3    0    0  0.35463139982E+02 -0.14899686046E+02  0.20099462789E+02  0.47787270212E+02  0.19999996207E+02 0.  0.
        -12    1    3    3    0    0 -0.35463139982E+02  0.14899686046E+02 -0.20099462789E+02  0.43400729788E+02  0.00000000000E+00 0.  1.
         11    1    4    4    0    0  0.69062163608E+01  0.13453850970E+01 -0.23541328885E+01  0.74194223090E+01  0.51100000000E-03 0. -1.
        -11    1    4    4    0    0  0.93942474801E+01 -0.18695792562E+01  0.59085348648E+01  0.11254243503E+02  0.51100000000E-03 0.  1.
        -12    1    4    4    0    0  0.19162676142E+02 -0.14375491887E+02  0.16545060813E+02  0.29113604401E+02  0.00000000000E+00 0.  1.
</event>
<event>
 8    1  0.3776180E-010  0.9118800E+02  0.7816164E-02  0.1184000E+00
        -11   -1    0    0    0    0  0.00000000000E+00  0.00000000000E+00  0.45593999997E+02  0.45594000000E+02  0.51100000000E-03 0. -1.
         11   -1    0    0    0    0 -0.00000000000E+00 -0.00000000000E+00 -0.45593999997E+02  0.45594000000E+02  0.51100000000E-03 0.  1.
         23    2    1    2    0    0 -0.35527136788E-14  0.88817841970E-15  0.00000000000E+00  0.91188000000E+02  0.91188000000E+02 0.  0.
    9900012    2    3    3    0    0 -0.19767608846E+02  0.77618704501E+01  0.37849941235E+02  0.47787273695E+02  0.20000012083E+02 0.  0.
        -12    1    3    3    0    0  0.19767608846E+02 -0.77618704501E+01 -0.37849941235E+02  0.43400726305E+02  0.00000000000E+00 0.  1.
         11    1    4    4    0    0 -0.22298211966E+02  0.26391161480E+01  0.24389179902E+02  0.33151278821E+02  0.51100000000E-03 0. -1.
        -11    1    4    4    0    0  0.33432525799E+00  0.83918902589E+00  0.16336386182E+01  0.18667584191E+01  0.51100000000E-03 0.  1.
         12    1    4    4    0    0  0.21962778620E+01  0.42835652762E+01  0.11827122714E+02  0.12769236454E+02  0.00000000000E+00 0. -1.
</event>
<event>
 8    1  0.3776180E-010  0.9118800E+02  0.7816164E-02  0.1184000E+00
        -11   -1    0    0    0    0  0.00000000000E+00  0.00000000000E+00  0.45593999997E+02  0.45594000000E+02  0.51100000000E-03 0. -1.
         11   -1    0    0    0    0 -0.00000000000E+00 -0.00000000000E+00 -0.45593999997E+02  0.45594000000E+02  0.51100000000E-03 0.  1.
         23    2    1    2    0    0  0.00000000000E+00  0.88817841970E-15  0.00000000000E+00  0.91188000000E+02  0.91188000000E+02 0.  0.
    9900012    2    3    3    0    0  0.20573848470E+01  0.32862411195E+01 -0.43227205454E+02  0.47787268388E+02  0.19999987888E+02 0.  0.
         12    1    3    3    0    0 -0.20573848470E+01 -0.32862411195E+01  0.43227205454E+02  0.43400731612E+02  0.00000000000E+00 0. -1.
         11    1    4    4    0    0 -0.12717056926E+01 -0.49923254004E+00  0.50625829373E+00  0.14569715916E+01  0.51100000000E-03 0. -1.
        -11    1    4    4    0    0  0.46441823532E+01 -0.43914264501E+01 -0.12796736224E+02  0.14304178209E+02  0.51100000000E-03 0.  1.
        -12    1    4    4    0    0 -0.13150918136E+01  0.81769001097E+01 -0.30936727524E+02  0.32026118587E+02  0.00000000000E+00 0.  1.
</event>
<event>
 8    1  0.3776180E-010  0.9118800E+02  0.7816164E-02  0.1184000E+00
        -11   -1    0    0    0    0  0.00000000000E+00  0.00000000000E+00  0.45593999997E+02  0.45594000000E+02  0.51100000000E-03 0. -1.
         11   -1    0    0    0    0 -0.00000000000E+00 -0.00000000000E+00 -0.45593999997E+02  0.45594000000E+02  0.51100000000E-03 0.  1.
         23    2    1    2    0    0  0.00000000000E+00  0.88817841970E-15  0.00000000000E+00  0.91188000000E+02  0.91188000000E+02 0.  0.
    9900012    2    3    3    0    0  0.38233031866E+02  0.72177676966E+01  0.19229205660E+02  0.47787271360E+02  0.20000001439E+02 0.  0.
        -12    1    3    3    0    0 -0.38233031866E+02 -0.72177676966E+01 -0.19229205660E+02  0.43400728640E+02  0.00000000000E+00 0.  1.
         11    1    4    4    0    0  0.96307378423E+01 -0.10764188453E+00  0.39078003299E+01  0.10393921389E+02  0.51100000000E-03 0. -1.
        -11    1    4    4    0    0  0.70002604374E+01  0.99980817214E+01  0.71376347579E+01  0.14138992697E+02  0.51100000000E-03 0.  1.
        -12    1    4    4    0    0  0.21602033586E+02 -0.26726721403E+01  0.81837705722E+01  0.23254357274E+02  0.00000000000E+00 0.  1.
</event>
<event>
 8    1  0.3776180E-010  0.9118800E+02  0.7816164E-02  0.1184000E+00
        -11   -1    0    0    0    0  0.00000000000E+00  0.00000000000E+00  0.45593999997E+02  0.45594000000E+02  0.51100000000E-03 0. -1.
         11   -1    0    0    0    0 -0.00000000000E+00 -0.00000000000E+00 -0.45593999997E+02  0.45594000000E+02  0.51100000000E-03 0.  1.
         23    2    1    2    0    0  0.00000000000E+00  0.00000000000E+00 -0.35527136788E-14  0.91188000000E+02  0.91188000000E+02 0.  0.
    9900012    2    3    3    0    0 -0.19897023056E+02 -0.34332806886E+02  0.17578120726E+02  0.47787268630E+02  0.19999988991E+02 0.  0.
        -12    1    3    3    0    0  0.19897023056E+02  0.34332806886E+02 -0.17578120726E+02  0.43400731370E+02  0.00000000000E+00 0.  1.
         11    1    4    4    0    0 -0.45259580097E+01 -0.12531571156E+02  0.85721348804E+01  0.15843171028E+02  0.51100000000E-03 0.  1.
        -11    1    4    4    0    0 -0.16914793921E+02 -0.15873468444E+02  0.10762655226E+02  0.25571703143E+02  0.51100000000E-03 0. -1.
         12    1    4    4    0    0  0.15437288748E+01 -0.59277672866E+01 -0.17566693796E+01  0.63723944598E+01  0.00000000000E+00 0. -1.
</event>
<event>
 8    1  0.3776180E-010  0.9118800E+02  0.7816164E-02  0.1184000E+00
        -11   -1    0    0    0    0  0.00000000000E+00  0.00000000000E+00  0.45593999997E+02  0.45594000000E+02  0.51100000000E-03 0. -1.
         11   -1    0    0    0    0 -0.00000000000E+00 -0.00000000000E+00 -0.45593999997E+02  0.45594000000E+02  0.51100000000E-03 0.  1.
         23    2    1    2    0    0  0.00000000000E+00  0.17763568394E-14  0.00000000000E+00  0.91188000000E+02  0.91188000000E+02 0.  0.
    9900012    2    3    3    0    0 -0.33039395261E+02  0.82110185770E+01  0.26918412942E+02  0.47787269354E+02  0.19999992294E+02 0.  0.
        -12    1    3    3    0    0  0.33039395261E+02 -0.82110185770E+01 -0.26918412942E+02  0.43400730646E+02  0.00000000000E+00 0.  1.
         11    1    4    4    0    0 -0.25846271719E+01  0.39015253856E+00 -0.54973391704E-01  0.26144863657E+01  0.51100000000E-03 0. -1.
        -11    1    4    4    0    0 -0.70206153572E+01  0.50592423768E+01 -0.84494971505E+00  0.86947635795E+01  0.51100000000E-03 0.  1.
         12    1    4    4    0    0 -0.23434152732E+02  0.27616236617E+01  0.27818336049E+02  0.36478019409E+02  0.00000000000E+00 0. -1.
</event>
<event>
 8    1  0.3776180E-010  0.9118800E+02  0.7816164E-02  0.1184000E+00
        -11   -1    0    0    0    0  0.00000000000E+00  0.00000000000E+00  0.45593999997E+02  0.45594000000E+02  0.51100000000E-03 0. -1.
         11   -1    0    0    0    0 -0.00000000000E+00 -0.00000000000E+00 -0.45593999997E+02  0.45594000000E+02  0.51100000000E-03 0.  1.
         23    2    1    2    0    0 -0.35527136788E-14 -0.17763568394E-14  0.00000000000E+00  0.91188000000E+02  0.91188000000E+02 0.  0.
    9900012    2    3    3    0    0 -0.31474694942E+02 -0.11179583444E+02  0.27712512485E+02  0.47787275859E+02  0.20000021953E+02 0.  0.
        -12    1    3    3    0    0  0.31474694942E+02  0.11179583444E+02 -0.27712512485E+02  0.43400724141E+02  0.00000000000E+00 0.  1.
         11    1    4    4    0    0 -0.13476399581E+02 -0.42059998819E+01  0.34306224520E+01  0.14528349918E+02  0.51100000000E-03 0.  1.
        -11    1    4    4    0    0 -0.63463318130E+01  0.12723564874E+00  0.12216967078E+01  0.64641054677E+01  0.51100000000E-03 0. -1.
         12    1    4    4    0    0 -0.11651963548E+02 -0.71008192104E+01  0.23060193326E+02  0.26794820473E+02  0.00000000000E+00 0. -1.
</event>
<event>
 8    1  0.3776180E-010  0.9118800E+02  0.7816164E-02  0.1184000E+00
        -11   -1    0    0    0    0  0.00000000000E+00  0.00000000000E+00  0.45593999997E+02  0.45594000000E+02  0.51100000000E-03 0. -1.
         11   -1    0    0    0    0 -0.00000000000E+00 -0.00000000000E+00 -0.45593999997E+02  0.45594000000E+02  0.51100000000E-03 0.  1.
         23    2    1    2    0    0 -0.17763568394E-14  0.35527136788E-14  0.71054273576E-14  0.91188000000E+02  0.91188000000E+02 0.  0.
    9900012    2    3    3    0    0  0.15143402200E+02 -0.20027369472E+02 -0.35400630564E+02  0.47787276475E+02  0.20000024760E+02 0.  0.
         12    1    3    3    0    0 -0.15143402200E+02  0.20027369472E+02  0.35400630564E+02  0.43400723525E+02  0.00000000000E+00 0. -1.
         11    1    4    4    0    0  0.46787583123E+01 -0.58751618463E+00 -0.15839850100E+01  0.49744309609E+01  0.51100000000E-03 0. -1.
        -11    1    4    4    0    0  0.11767093553E+02 -0.13001911566E+02 -0.15681912951E+02  0.23525233030E+02  0.51100000000E-03 0.  1.
        -12    1    4    4    0    0 -0.13024496654E+01 -0.64379417211E+01 -0.18134732603E+02  0.19287612484E+02  0.00000000000E+00 0.  1.
</event>
<event>
 8    1  0.3776180E-010  0.9118800E+02  0.7816164E-02  0.1184000E+00
        -11   -1    0    0    0    0  0.00000000000E+00  0.00000000000E+00  0.45593999997E+02  0.45594000000E+02  0.51100000000E-03 0. -1.
         11   -1    0    0    0    0 -0.00000000000E+00 -0.00000000000E+00 -0.45593999997E+02  0.45594000000E+02  0.51100000000E-03 0.  1.
         23    2    1    2    0    0  0.00000000000E+00  0.35527136788E-14  0.00000000000E+00  0.91188000000E+02  0.91188000000E+02 0.  0.
    9900012    2    3    3    0    0  0.14412262522E+02 -0.30319965804E+02 -0.27506538148E+02  0.47787270994E+02  0.19999999769E+02 0.  0.
         12    1    3    3    0    0 -0.14412262522E+02  0.30319965804E+02  0.27506538148E+02  0.43400729006E+02  0.00000000000E+00 0. -1.
         11    1    4    4    0    0  0.17680121834E+01 -0.13388054683E+02 -0.12316330490E+02  0.18277250129E+02  0.51100000000E-03 0. -1.
        -11    1    4    4    0    0  0.62750523470E+01 -0.11939210076E+02 -0.16500646985E+02  0.21311789469E+02  0.51100000000E-03 0.  1.
         12    1    4    4    0    0  0.63691979919E+01 -0.49927010446E+01  0.13104393268E+01  0.81982313952E+01  0.00000000000E+00 0. -1.
</event>
<event>
 8    1  0.3776180E-010  0.9118800E+02  0.7816164E-02  0.1184000E+00
        -11   -1    0    0    0    0  0.00000000000E+00  0.00000000000E+00  0.45593999997E+02  0.45594000000E+02  0.51100000000E-03 0. -1.
         11   -1    0    0    0    0 -0.00000000000E+00 -0.00000000000E+00 -0.45593999997E+02  0.45594000000E+02  0.51100000000E-03 0.  1.
         23    2    1    2    0    0  0.00000000000E+00  0.00000000000E+00  0.00000000000E+00  0.91188000000E+02  0.91188000000E+02 0.  0.
    9900012    2    3    3    0    0  0.32139399950E+02  0.36450413063E+01  0.28937802184E+02  0.47787265553E+02  0.19999974963E+02 0.  0.
        -12    1    3    3    0    0 -0.32139399950E+02 -0.36450413063E+01 -0.28937802184E+02  0.43400734447E+02  0.00000000000E+00 0.  1.
         11    1    4    4    0    0  0.16916882320E+02  0.24423701291E+01  0.14304898357E+02  0.22288476766E+02  0.51100000000E-03 0.  1.
        -11    1    4    4    0    0  0.15339689699E+02  0.82083458191E+00  0.17107416090E+02  0.22992249455E+02  0.51100000000E-03 0. -1.
        -12    1    4    4    0    0 -0.11717206911E+00  0.38183659531E+00 -0.24745122634E+01  0.25065393316E+01  0.00000000000E+00 0.  1.
</event>
<event>
 8    1  0.3776180E-010  0.9118800E+02  0.7816164E-02  0.1184000E+00
        -11   -1    0    0    0    0  0.00000000000E+00  0.00000000000E+00  0.45593999997E+02  0.45594000000E+02  0.51100000000E-03 0. -1.
         11   -1    0    0    0    0 -0.00000000000E+00 -0.00000000000E+00 -0.45593999997E+02  0.45594000000E+02  0.51100000000E-03 0.  1.
         23    2    1    2    0    0  0.71054273576E-14  0.35527136788E-14  0.00000000000E+00  0.91188000000E+02  0.91188000000E+02 0.  0.
    9900012    2    3    3    0    0 -0.31576579241E+02 -0.18311165281E+02  0.23478588977E+02  0.47787271080E+02  0.20000000160E+02 0.  0.
        -12    1    3    3    0    0  0.31576579241E+02  0.18311165281E+02 -0.23478588977E+02  0.43400728920E+02  0.00000000000E+00 0.  1.
         11    1    4    4    0    0 -0.50821844884E+01 -0.44812256557E+01  0.26718494542E+01  0.72834581291E+01  0.51100000000E-03 0. -1.
        -11    1    4    4    0    0 -0.26153229060E+02 -0.87081146498E+01  0.21959703721E+02  0.35242747322E+02  0.51100000000E-03 0.  1.
        -12    1    4    4    0    0 -0.34116569247E+00 -0.51218249755E+01 -0.11529641984E+01  0.52610656289E+01  0.00000000000E+00 0.  1.
</event>
<event>
 8    1  0.3776180E-010  0.9118800E+02  0.7816164E-02  0.1184000E+00
        -11   -1    0    0    0    0  0.00000000000E+00  0.00000000000E+00  0.45593999997E+02  0.45594000000E+02  0.51100000000E-03 0. -1.
         11   -1    0    0    0    0 -0.00000000000E+00 -0.00000000000E+00 -0.45593999997E+02  0.45594000000E+02  0.51100000000E-03 0.  1.
         23    2    1    2    0    0  0.35527136788E-14  0.35527136788E-14  0.00000000000E+00  0.91188000000E+02  0.91188000000E+02 0.  0.
    9900012    2    3    3    0    0  0.18878212353E+02  0.26981045211E+02  0.28271178761E+02  0.47787271310E+02  0.20000001210E+02 0.  0.
        -12    1    3    3    0    0 -0.18878212353E+02 -0.26981045211E+02 -0.28271178761E+02  0.43400728690E+02  0.00000000000E+00 0.  1.
         11    1    4    4    0    0  0.19246015040E+01  0.56293235583E+01  0.11282862526E+02  0.12755248399E+02  0.51100000000E-03 0. -1.
        -11    1    4    4    0    0  0.95441345442E+01  0.95416411929E+01  0.16175914870E+02  0.21066410301E+02  0.51100000000E-03 0.  1.
        -12    1    4    4    0    0  0.74094763047E+01  0.11810080460E+02  0.81240136449E+00  0.13965612609E+02  0.00000000000E+00 0.  1.
</event>
<event>
 8    1  0.3776180E-010  0.9118800E+02  0.7816164E-02  0.1184000E+00
        -11   -1    0    0    0    0  0.00000000000E+00  0.00000000000E+00  0.45593999997E+02  0.45594000000E+02  0.51100000000E-03 0. -1.
         11   -1    0    0    0    0 -0.00000000000E+00 -0.00000000000E+00 -0.45593999997E+02  0.45594000000E+02  0.51100000000E-03 0.  1.
         23    2    1    2    0    0  0.35527136788E-14  0.00000000000E+00  0.00000000000E+00  0.91188000000E+02  0.91188000000E+02 0.  0.
    9900012    2    3    3    0    0  0.20663745410E+02 -0.61891149228E+01  0.37660704292E+02  0.47787260771E+02  0.19999953160E+02 0.  0.
        -12    1    3    3    0    0 -0.20663745410E+02  0.61891149228E+01 -0.37660704292E+02  0.43400739229E+02  0.00000000000E+00 0.  1.
         11    1    4    4    0    0  0.39160469468E+01 -0.95180880348E+01  0.77890941964E+01  0.12907339470E+02  0.51100000000E-03 0. -1.
        -11    1    4    4    0    0  0.40045930399E+01  0.20716450519E+01  0.40630215042E+01  0.60693181364E+01  0.51100000000E-03 0.  1.
         12    1    4    4    0    0  0.12743105423E+02  0.12573280600E+01  0.25808588591E+02  0.28810603165E+02  0.00000000000E+00 0. -1.
</event>
<event>
 8    1  0.3776180E-010  0.9118800E+02  0.7816164E-02  0.1184000E+00
        -11   -1    0    0    0    0  0.00000000000E+00  0.00000000000E+00  0.45593999997E+02  0.45594000000E+02  0.51100000000E-03 0. -1.
         11   -1    0    0    0    0 -0.00000000000E+00 -0.00000000000E+00 -0.45593999997E+02  0.45594000000E+02  0.51100000000E-03 0.  1.
         23    2    1    2    0    0  0.00000000000E+00  0.35527136788E-14  0.71054273576E-14  0.91188000000E+02  0.91188000000E+02 0.  0.
    9900012    2    3    3    0    0 -0.19608425193E+01  0.22751245833E+02 -0.36907439703E+02  0.47787271945E+02  0.20000004104E+02 0.  0.
         12    1    3    3    0    0  0.19608425193E+01 -0.22751245833E+02  0.36907439703E+02  0.43400728055E+02  0.00000000000E+00 0. -1.
         11    1    4    4    0    0 -0.56941784500E+01  0.12202622439E+02 -0.10286030228E+02  0.16944913122E+02  0.51100000000E-03 0. -1.
        -11    1    4    4    0    0  0.23970465342E+01  0.10214613605E+02 -0.11152198768E+02  0.15311946343E+02  0.51100000000E-03 0.  1.
         12    1    4    4    0    0  0.13362893966E+01  0.33400978899E+00 -0.15469210707E+02  0.15530412480E+02  0.00000000000E+00 0. -1.
</event>
<event>
 8    1  0.3776180E-010  0.9118800E+02  0.7816164E-02  0.1184000E+00
        -11   -1    0    0    0    0  0.00000000000E+00  0.00000000000E+00  0.45593999997E+02  0.45594000000E+02  0.51100000000E-03 0. -1.
         11   -1    0    0    0    0 -0.00000000000E+00 -0.00000000000E+00 -0.45593999997E+02  0.45594000000E+02  0.51100000000E-03 0.  1.
         23    2    1    2    0    0 -0.88817841970E-15  0.44408920985E-15  0.00000000000E+00  0.91188000000E+02  0.91188000000E+02 0.  0.
    9900012    2    3    3    0    0 -0.69823795173E+01 -0.17332255305E+01 -0.42800295644E+02  0.47787274180E+02  0.20000014298E+02 0.  0.
         12    1    3    3    0    0  0.69823795173E+01  0.17332255305E+01  0.42800295644E+02  0.43400725820E+02  0.00000000000E+00 0. -1.
         11    1    4    4    0    0 -0.11569702666E+01 -0.98869551193E+00 -0.10352578404E+02  0.10463841497E+02  0.51100000000E-03 0.  1.
        -11    1    4    4    0    0  0.82778749888E-01 -0.53237521160E+01 -0.15659983878E+01  0.55499135242E+01  0.51100000000E-03 0. -1.
         12    1    4    4    0    0 -0.59081880006E+01  0.45792220974E+01 -0.30881718853E+02  0.31773519159E+02  0.00000000000E+00 0. -1.
</event>
<event>
 8    1  0.4649558E-010  0.9118800E+02  0.7816164E-02  0.1184000E+00
        -11   -1    0    0    0    0  0.00000000000E+00  0.00000000000E+00  0.45593999997E+02  0.45594000000E+02  0.51100000000E-03 0. -1.
         11   -1    0    0    0    0 -0.00000000000E+00 -0.00000000000E+00 -0.45593999997E+02  0.45594000000E+02  0.51100000000E-03 0.  1.
         23    2    1    2    0    0  0.00000000000E+00  0.00000000000E+00  0.00000000000E+00  0.91188000000E+02  0.91188000000E+02 0.  0.
    9900012    2    3    3    0    0  0.11970856539E+02 -0.34640654081E+02  0.23245363995E+02  0.47787271104E+02  0.20000000272E+02 0.  0.
        -12    1    3    3    0    0 -0.11970856539E+02  0.34640654081E+02 -0.23245363995E+02  0.43400728896E+02  0.00000000000E+00 0.  1.
         11    1    4    4    0    0  0.62315337425E+01 -0.18112991769E+02  0.92679727043E+01  0.21279281048E+02  0.51100000000E-03 0. -1.
        -11    1    4    4    0    0  0.94594263517E+01 -0.14641831834E+02  0.13967310869E+02  0.22337183339E+02  0.51100000000E-03 0.  1.
        -12    1    4    4    0    0 -0.37201035556E+01 -0.18858304780E+01  0.10080421722E-01  0.41708067171E+01  0.00000000000E+00 0.  1.
</event>
<event>
 8    1  0.3776180E-010  0.9118800E+02  0.7816164E-02  0.1184000E+00
        -11   -1    0    0    0    0  0.00000000000E+00  0.00000000000E+00  0.45593999997E+02  0.45594000000E+02  0.51100000000E-03 0.  1.
         11   -1    0    0    0    0 -0.00000000000E+00 -0.00000000000E+00 -0.45593999997E+02  0.45594000000E+02  0.51100000000E-03 0. -1.
         23    2    1    2    0    0  0.00000000000E+00  0.00000000000E+00  0.88817841970E-15  0.91188000000E+02  0.91188000000E+02 0.  0.
    9900012    2    3    3    0    0  0.39915529279E+02  0.16599358513E+02 -0.38511576822E+01  0.47787313414E+02  0.20000193177E+02 0.  0.
         12    1    3    3    0    0 -0.39915529279E+02 -0.16599358513E+02  0.38511576822E+01  0.43400686586E+02  0.00000000000E+00 0. -1.
         11    1    4    4    0    0  0.21678271843E+01  0.72627484678E-01 -0.41050525320E+01  0.46428661411E+01  0.51100000000E-03 0. -1.
        -11    1    4    4    0    0  0.10999904389E+02  0.11525782891E+02  0.10522690369E+00  0.15932753710E+02  0.51100000000E-03 0.  1.
         12    1    4    4    0    0  0.26747797706E+02  0.50009481368E+01  0.14866794608E+00  0.27211693562E+02  0.00000000000E+00 0. -1.
</event>
<event>
 8    1  0.3776180E-010  0.9118800E+02  0.7816164E-02  0.1184000E+00
        -11   -1    0    0    0    0  0.00000000000E+00  0.00000000000E+00  0.45593999997E+02  0.45594000000E+02  0.51100000000E-03 0.  1.
         11   -1    0    0    0    0 -0.00000000000E+00 -0.00000000000E+00 -0.45593999997E+02  0.45594000000E+02  0.51100000000E-03 0. -1.
         23    2    1    2    0    0  0.00000000000E+00  0.00000000000E+00  0.35527136788E-14  0.91188000000E+02  0.91188000000E+02 0.  0.
    9900012    2    3    3    0    0 -0.18237487398E+02 -0.35512597153E+02 -0.17025644632E+02  0.47787273298E+02  0.20000010274E+02 0.  0.
         12    1    3    3    0    0  0.18237487398E+02  0.35512597153E+02  0.17025644632E+02  0.43400726702E+02  0.00000000000E+00 0. -1.
         11    1    4    4    0    0 -0.12093299364E+01 -0.21493604283E+02 -0.11884896634E+02  0.24590410168E+02  0.51100000000E-03 0. -1.
        -11    1    4    4    0    0 -0.37003545338E+00 -0.15358945613E+01 -0.12624688323E+01  0.20223071364E+01  0.51100000000E-03 0.  1.
         12    1    4    4    0    0 -0.16658122008E+02 -0.12483098309E+02 -0.38782791654E+01  0.21174555993E+02  0.00000000000E+00 0. -1.
</event>
<event>
 8    1  0.3776180E-010  0.9118800E+02  0.7816164E-02  0.1184000E+00
        -11   -1    0    0    0    0  0.00000000000E+00  0.00000000000E+00  0.45593999997E+02  0.45594000000E+02  0.51100000000E-03 0. -1.
         11   -1    0    0    0    0 -0.00000000000E+00 -0.00000000000E+00 -0.45593999997E+02  0.45594000000E+02  0.51100000000E-03 0.  1.
         23    2    1    2    0    0  0.00000000000E+00  0.00000000000E+00  0.00000000000E+00  0.91188000000E+02  0.91188000000E+02 0.  0.
    9900012    2    3    3    0    0  0.20576236699E+02 -0.63563621756E+01  0.37680706023E+02  0.47787303425E+02  0.20000147634E+02 0.  0.
        -12    1    3    3    0    0 -0.20576236699E+02  0.63563621756E+01 -0.37680706023E+02  0.43400696575E+02  0.00000000000E+00 0.  1.
         11    1    4    4    0    0  0.61428149926E+01 -0.65628367506E+01  0.14726036859E+02  0.17252859591E+02  0.51100000000E-03 0. -1.
        -11    1    4    4    0    0  0.15457973330E+02 -0.36286555491E+01  0.20241755400E+02  0.25726343357E+02  0.51100000000E-03 0.  1.
        -12    1    4    4    0    0 -0.10245516241E+01  0.38351301241E+01  0.27129137645E+01  0.48081004765E+01  0.00000000000E+00 0.  1.
</event>
<event>
 8    1  0.3776180E-010  0.9118800E+02  0.7816164E-02  0.1184000E+00
        -11   -1    0    0    0    0  0.00000000000E+00  0.00000000000E+00  0.45593999997E+02  0.45594000000E+02  0.51100000000E-03 0. -1.
         11   -1    0    0    0    0 -0.00000000000E+00 -0.00000000000E+00 -0.45593999997E+02  0.45594000000E+02  0.51100000000E-03 0.  1.
         23    2    1    2    0    0  0.17763568394E-14  0.17763568394E-14  0.00000000000E+00  0.91188000000E+02  0.91188000000E+02 0.  0.
    9900012    2    3    3    0    0  0.13433372471E+02  0.10942259836E+02 -0.39792401385E+02  0.47787265510E+02  0.19999974765E+02 0.  0.
         12    1    3    3    0    0 -0.13433372471E+02 -0.10942259836E+02  0.39792401385E+02  0.43400734490E+02  0.00000000000E+00 0. -1.
         11    1    4    4    0    0 -0.37038438278E+01 -0.12392346156E+01 -0.11645376829E+02  0.12282872762E+02  0.51100000000E-03 0. -1.
        -11    1    4    4    0    0  0.33698038667E+01  0.43307948996E+01 -0.48247865420E+01  0.73068411779E+01  0.51100000000E-03 0.  1.
         12    1    4    4    0    0  0.13767412432E+02  0.78506995520E+01 -0.23322238014E+02  0.28197551570E+02  0.00000000000E+00 0. -1.
</event>
<event>
 8    1  0.3776180E-010  0.9118800E+02  0.7816164E-02  0.1184000E+00
        -11   -1    0    0    0    0  0.00000000000E+00  0.00000000000E+00  0.45593999997E+02  0.45594000000E+02  0.51100000000E-03 0.  1.
         11   -1    0    0    0    0 -0.00000000000E+00 -0.00000000000E+00 -0.45593999997E+02  0.45594000000E+02  0.51100000000E-03 0. -1.
         23    2    1    2    0    0  0.00000000000E+00  0.71054273576E-14 -0.17763568394E-14  0.91188000000E+02  0.91188000000E+02 0.  0.
    9900012    2    3    3    0    0  0.92536834327E+01 -0.41628610981E+02 -0.80654103274E+01  0.47787277045E+02  0.20000027360E+02 0.  0.
        -12    1    3    3    0    0 -0.92536834327E+01  0.41628610981E+02  0.80654103274E+01  0.43400722955E+02  0.00000000000E+00 0.  1.
         11    1    4    4    0    0 -0.26539687624E+01 -0.24176956353E+02 -0.65415947117E+01  0.25186528747E+02  0.51100000000E-03 0.  1.
        -11    1    4    4    0    0  0.29100929151E+01 -0.10886520887E+02 -0.20345471194E+01  0.11450954547E+02  0.51100000000E-03 0. -1.
        -12    1    4    4    0    0  0.89975592800E+01 -0.65651337410E+01  0.51073150379E+00  0.11149793752E+02  0.00000000000E+00 0.  1.
</event>
<event>
 8    1  0.3776180E-010  0.9118800E+02  0.7816164E-02  0.1184000E+00
        -11   -1    0    0    0    0  0.00000000000E+00  0.00000000000E+00  0.45593999997E+02  0.45594000000E+02  0.51100000000E-03 0. -1.
         11   -1    0    0    0    0 -0.00000000000E+00 -0.00000000000E+00 -0.45593999997E+02  0.45594000000E+02  0.51100000000E-03 0.  1.
         23    2    1    2    0    0 -0.35527136788E-14  0.00000000000E+00  0.35527136788E-14  0.91188000000E+02  0.91188000000E+02 0.  0.
    9900012    2    3    3    0    0 -0.21597811018E+02 -0.30176054382E+02  0.22506968851E+02  0.47787270217E+02  0.19999996229E+02 0.  0.
        -12    1    3    3    0    0  0.21597811018E+02  0.30176054382E+02 -0.22506968851E+02  0.43400729783E+02  0.00000000000E+00 0.  1.
         11    1    4    4    0    0 -0.17011643348E+01 -0.72870010105E+01  0.32037335095E+01  0.81399172282E+01  0.51100000000E-03 0. -1.
        -11    1    4    4    0    0 -0.12043345575E+02 -0.15216112019E+02  0.24870201895E+01  0.19564189411E+02  0.51100000000E-03 0.  1.
         12    1    4    4    0    0 -0.78533011083E+01 -0.76729413518E+01  0.16816215152E+02  0.20083163579E+02  0.00000000000E+00 0. -1.
</event>
<event>
 8    1  0.3776180E-010  0.9118800E+02  0.7816164E-02  0.1184000E+00
        -11   -1    0    0    0    0  0.00000000000E+00  0.00000000000E+00  0.45593999997E+02  0.45594000000E+02  0.51100000000E-03 0.  1.
         11   -1    0    0    0    0 -0.00000000000E+00 -0.00000000000E+00 -0.45593999997E+02  0.45594000000E+02  0.51100000000E-03 0. -1.
         23    2    1    2    0    0  0.00000000000E+00  0.00000000000E+00  0.88817841970E-15  0.91188000000E+02  0.91188000000E+02 0.  0.
    9900012    2    3    3    0    0 -0.21169194493E+01 -0.42879387670E+02  0.63639700345E+01  0.47787270173E+02  0.19999996027E+02 0.  0.
         12    1    3    3    0    0  0.21169194493E+01  0.42879387670E+02 -0.63639700345E+01  0.43400729827E+02  0.00000000000E+00 0. -1.
         11    1    4    4    0    0 -0.36512104008E+01 -0.11295346541E+02  0.43481838012E+01  0.12642107953E+02  0.51100000000E-03 0. -1.
        -11    1    4    4    0    0  0.70399248328E+01 -0.26157756078E+02 -0.25006178782E+00  0.27089689475E+02  0.51100000000E-03 0.  1.
         12    1    4    4    0    0 -0.55056338814E+01 -0.54262850508E+01  0.22658480212E+01  0.80554727449E+01  0.00000000000E+00 0. -1.
</event>
<event>
 8    1  0.3776180E-010  0.9118800E+02  0.7816164E-02  0.1184000E+00
        -11   -1    0    0    0    0  0.00000000000E+00  0.00000000000E+00  0.45593999997E+02  0.45594000000E+02  0.51100000000E-03 0. -1.
         11   -1    0    0    0    0 -0.00000000000E+00 -0.00000000000E+00 -0.45593999997E+02  0.45594000000E+02  0.51100000000E-03 0.  1.
         23    2    1    2    0    0  0.00000000000E+00  0.00000000000E+00  0.00000000000E+00  0.91188000000E+02  0.91188000000E+02 0.  0.
    9900012    2    3    3    0    0  0.27714732201E+02 -0.25816273170E+01 -0.33299432621E+02  0.47787269667E+02  0.19999993718E+02 0.  0.
         12    1    3    3    0    0 -0.27714732201E+02  0.25816273170E+01  0.33299432621E+02  0.43400730333E+02  0.00000000000E+00 0. -1.
         11    1    4    4    0    0  0.21609050532E+01  0.22650909969E+01 -0.23823149438E+00  0.31395704132E+01  0.51100000000E-03 0. -1.
        -11    1    4    4    0    0 -0.15719563749E+01  0.14586528047E+01 -0.27120965195E+01  0.34574821246E+01  0.51100000000E-03 0.  1.
        -12    1    4    4    0    0  0.27125783523E+02 -0.63053711186E+01 -0.30349104607E+02  0.41190217129E+02  0.00000000000E+00 0.  1.
</event>
<event>
 8    1  0.3776180E-010  0.9118800E+02  0.7816164E-02  0.1184000E+00
        -11   -1    0    0    0    0  0.00000000000E+00  0.00000000000E+00  0.45593999997E+02  0.45594000000E+02  0.51100000000E-03 0. -1.
         11   -1    0    0    0    0 -0.00000000000E+00 -0.00000000000E+00 -0.45593999997E+02  0.45594000000E+02  0.51100000000E-03 0.  1.
         23    2    1    2    0    0  0.35527136788E-14 -0.17763568394E-14 -0.35527136788E-14  0.91188000000E+02  0.91188000000E+02 0.  0.
    9900012    2    3    3    0    0  0.31124652881E+02 -0.13656659163E+02 -0.26988424280E+02  0.47787269573E+02  0.19999993291E+02 0.  0.
         12    1    3    3    0    0 -0.31124652881E+02  0.13656659163E+02  0.26988424280E+02  0.43400730427E+02  0.00000000000E+00 0. -1.
         11    1    4    4    0    0  0.32117213318E+01  0.24584131401E+01 -0.43139007148E+01  0.59134329047E+01  0.51100000000E-03 0. -1.
        -11    1    4    4    0    0  0.22229109671E+02 -0.70880114766E+01 -0.20342147384E+02  0.30954421073E+02  0.51100000000E-03 0.  1.
         12    1    4    4    0    0  0.56838218784E+01 -0.90270608262E+01 -0.23323761808E+01  0.10919415596E+02  0.00000000000E+00 0. -1.
</event>
<event>
 8    1  0.3776180E-010  0.9118800E+02  0.7816164E-02  0.1184000E+00
        -11   -1    0    0    0    0  0.00000000000E+00  0.00000000000E+00  0.45593999997E+02  0.45594000000E+02  0.51100000000E-03 0. -1.
         11   -1    0    0    0    0 -0.00000000000E+00 -0.00000000000E+00 -0.45593999997E+02  0.45594000000E+02  0.51100000000E-03 0.  1.
         23    2    1    2    0    0  0.00000000000E+00  0.00000000000E+00 -0.71054273576E-14  0.91188000000E+02  0.91188000000E+02 0.  0.
    9900012    2    3    3    0    0 -0.69576316340E+01  0.79690651527E+01  0.42091665368E+02  0.47787274996E+02  0.20000018018E+02 0.  0.
        -12    1    3    3    0    0  0.69576316340E+01 -0.79690651527E+01 -0.42091665368E+02  0.43400725004E+02  0.00000000000E+00 0.  1.
         11    1    4    4    0    0 -0.11800458916E+01  0.38248256498E+01  0.27610334661E+02  0.27898967363E+02  0.51100000000E-03 0. -1.
        -11    1    4    4    0    0  0.35920454739E+01  0.14700679026E+01  0.44194162877E+01  0.58817625683E+01  0.51100000000E-03 0.  1.
        -12    1    4    4    0    0 -0.93696312163E+01  0.26741716003E+01  0.10061914420E+02  0.14006545065E+02  0.00000000000E+00 0.  1.
</event>
<event>
 8    1  0.3776180E-010  0.9118800E+02  0.7816164E-02  0.1184000E+00
        -11   -1    0    0    0    0  0.00000000000E+00  0.00000000000E+00  0.45593999997E+02  0.45594000000E+02  0.51100000000E-03 0. -1.
         11   -1    0    0    0    0 -0.00000000000E+00 -0.00000000000E+00 -0.45593999997E+02  0.45594000000E+02  0.51100000000E-03 0.  1.
         23    2    1    2    0    0  0.00000000000E+00  0.00000000000E+00  0.00000000000E+00  0.91188000000E+02  0.91188000000E+02 0.  0.
    9900012    2    3    3    0    0 -0.15132639259E+02  0.25588619831E+02  0.31620371561E+02  0.47787284183E+02  0.20000059903E+02 0.  0.
        -12    1    3    3    0    0  0.15132639259E+02 -0.25588619831E+02 -0.31620371561E+02  0.43400715817E+02  0.00000000000E+00 0.  1.
         11    1    4    4    0    0 -0.42878338415E+00  0.17078877878E+01  0.69424548266E+01  0.71622911953E+01  0.51100000000E-03 0. -1.
        -11    1    4    4    0    0 -0.98472848214E+01  0.37929901492E+01  0.37138061721E+01  0.11186963358E+02  0.51100000000E-03 0.  1.
         12    1    4    4    0    0 -0.48565710531E+01  0.20087741894E+02  0.20964110562E+02  0.29438029630E+02  0.00000000000E+00 0. -1.
</event>
<event>
 8    1  0.3776180E-010  0.9118800E+02  0.7816164E-02  0.1184000E+00
        -11   -1    0    0    0    0  0.00000000000E+00  0.00000000000E+00  0.45593999997E+02  0.45594000000E+02  0.51100000000E-03 0.  1.
         11   -1    0    0    0    0 -0.00000000000E+00 -0.00000000000E+00 -0.45593999997E+02  0.45594000000E+02  0.51100000000E-03 0. -1.
         23    2    1    2    0    0  0.14210854715E-13 -0.55511151231E-16 -0.88817841970E-15  0.91188000000E+02  0.91188000000E+02 0.  0.
    9900012    2    3    3    0    0  0.42968193807E+02  0.33962917784E+00 -0.61026499078E+01  0.47787270019E+02  0.19999995324E+02 0.  0.
        -12    1    3    3    0    0 -0.42968193807E+02 -0.33962917784E+00  0.61026499078E+01  0.43400729981E+02  0.00000000000E+00 0.  1.
         11    1    4    4    0    0  0.31129848753E+02  0.83792461225E+00 -0.49820394451E+01  0.31537126031E+02  0.51100000000E-03 0. -1.
        -11    1    4    4    0    0  0.84279523982E+01 -0.35868913847E+00 -0.59596575085E+01  0.10328434412E+02  0.51100000000E-03 0.  1.
        -12    1    4    4    0    0  0.34103926559E+01 -0.13960629594E+00  0.48390470459E+01  0.59217095756E+01  0.00000000000E+00 0.  1.
</event>
<event>
 8    1  0.3776180E-010  0.9118800E+02  0.7816164E-02  0.1184000E+00
        -11   -1    0    0    0    0  0.00000000000E+00  0.00000000000E+00  0.45593999997E+02  0.45594000000E+02  0.51100000000E-03 0. -1.
         11   -1    0    0    0    0 -0.00000000000E+00 -0.00000000000E+00 -0.45593999997E+02  0.45594000000E+02  0.51100000000E-03 0.  1.
         23    2    1    2    0    0  0.00000000000E+00  0.00000000000E+00  0.00000000000E+00  0.91188000000E+02  0.91188000000E+02 0.  0.
    9900012    2    3    3    0    0  0.21991993416E+02  0.57219793650E+01 -0.36976127258E+02  0.47787276397E+02  0.20000024403E+02 0.  0.
         12    1    3    3    0    0 -0.21991993416E+02 -0.57219793650E+01  0.36976127258E+02  0.43400723603E+02  0.00000000000E+00 0. -1.
         11    1    4    4    0    0  0.45282515784E+01 -0.42691713508E+01 -0.49528849998E+01  0.79537385211E+01  0.51100000000E-03 0. -1.
        -11    1    4    4    0    0 -0.91758102923E+00 -0.13737099349E+01 -0.47934497831E+01  0.50701277118E+01  0.51100000000E-03 0.  1.
        -12    1    4    4    0    0  0.18381322867E+02  0.11364860651E+02 -0.27229792475E+02  0.34763410164E+02  0.00000000000E+00 0.  1.
</event>
<event>
 8    1  0.3776180E-010  0.9118800E+02  0.7816164E-02  0.1184000E+00
        -11   -1    0    0    0    0  0.00000000000E+00  0.00000000000E+00  0.45593999997E+02  0.45594000000E+02  0.51100000000E-03 0. -1.
         11   -1    0    0    0    0 -0.00000000000E+00 -0.00000000000E+00 -0.45593999997E+02  0.45594000000E+02  0.51100000000E-03 0.  1.
         23    2    1    2    0    0  0.00000000000E+00  0.00000000000E+00  0.00000000000E+00  0.91188000000E+02  0.91188000000E+02 0.  0.
    9900012    2    3    3    0    0  0.17802200200E+02  0.29983515186E+02  0.25839767585E+02  0.47787273004E+02  0.20000008936E+02 0.  0.
        -12    1    3    3    0    0 -0.17802200200E+02 -0.29983515186E+02 -0.25839767585E+02  0.43400726996E+02  0.00000000000E+00 0.  1.
         11    1    4    4    0    0  0.70952800820E+00  0.12944314412E+02  0.12778226097E+02  0.18202795610E+02  0.51100000000E-03 0. -1.
        -11    1    4    4    0    0  0.79049791750E+00  0.16569825636E+01 -0.18952312343E+01  0.26386321961E+01  0.51100000000E-03 0.  1.
        -12    1    4    4    0    0  0.16302174275E+02  0.15382218211E+02  0.14956772722E+02  0.26945845198E+02  0.00000000000E+00 0.  1.
</event>
<event>
 8    1  0.3776180E-010  0.9118800E+02  0.7816164E-02  0.1184000E+00
        -11   -1    0    0    0    0  0.00000000000E+00  0.00000000000E+00  0.45593999997E+02  0.45594000000E+02  0.51100000000E-03 0. -1.
         11   -1    0    0    0    0 -0.00000000000E+00 -0.00000000000E+00 -0.45593999997E+02  0.45594000000E+02  0.51100000000E-03 0.  1.
         23    2    1    2    0    0  0.00000000000E+00  0.00000000000E+00  0.00000000000E+00  0.91188000000E+02  0.91188000000E+02 0.  0.
    9900012    2    3    3    0    0  0.28663816439E+02  0.32327909631E+02  0.41128352667E+01  0.47787268118E+02  0.19999986655E+02 0.  0.
        -12    1    3    3    0    0 -0.28663816439E+02 -0.32327909631E+02 -0.41128352667E+01  0.43400731882E+02  0.00000000000E+00 0.  1.
         11    1    4    4    0    0  0.11940993627E+02  0.10862430645E+02  0.28471982444E+01  0.16391652340E+02  0.51100000000E-03 0. -1.
        -11    1    4    4    0    0  0.86186074426E+01  0.19638251156E+02 -0.36322187098E+01  0.21751650874E+02  0.51100000000E-03 0.  1.
        -12    1    4    4    0    0  0.81042153694E+01  0.18272278303E+01  0.48978557320E+01  0.96439649040E+01  0.00000000000E+00 0.  1.
</event>
<event>
 8    1  0.3776180E-010  0.9118800E+02  0.7816164E-02  0.1184000E+00
        -11   -1    0    0    0    0  0.00000000000E+00  0.00000000000E+00  0.45593999997E+02  0.45594000000E+02  0.51100000000E-03 0. -1.
         11   -1    0    0    0    0 -0.00000000000E+00 -0.00000000000E+00 -0.45593999997E+02  0.45594000000E+02  0.51100000000E-03 0.  1.
         23    2    1    2    0    0  0.00000000000E+00  0.35527136788E-14  0.00000000000E+00  0.91188000000E+02  0.91188000000E+02 0.  0.
    9900012    2    3    3    0    0  0.89117241551E+01  0.22212804490E+02 -0.36204915000E+02  0.47787269812E+02  0.19999994381E+02 0.  0.
         12    1    3    3    0    0 -0.89117241551E+01 -0.22212804490E+02  0.36204915000E+02  0.43400730188E+02  0.00000000000E+00 0. -1.
         11    1    4    4    0    0  0.52167600877E+01  0.34501276755E+01 -0.47494823577E+01  0.78533782360E+01  0.51100000000E-03 0. -1.
        -11    1    4    4    0    0  0.74518644196E+01  0.88482373674E+01 -0.24932930043E+02  0.27485861614E+02  0.51100000000E-03 0.  1.
        -12    1    4    4    0    0 -0.37569003522E+01  0.99144394466E+01 -0.65225025987E+01  0.12448029962E+02  0.00000000000E+00 0.  1.
</event>
<event>
 8    1  0.3776180E-010  0.9118800E+02  0.7816164E-02  0.1184000E+00
        -11   -1    0    0    0    0  0.00000000000E+00  0.00000000000E+00  0.45593999997E+02  0.45594000000E+02  0.51100000000E-03 0. -1.
         11   -1    0    0    0    0 -0.00000000000E+00 -0.00000000000E+00 -0.45593999997E+02  0.45594000000E+02  0.51100000000E-03 0.  1.
         23    2    1    2    0    0  0.00000000000E+00  0.00000000000E+00  0.71054273576E-14  0.91188000000E+02  0.91188000000E+02 0.  0.
    9900012    2    3    3    0    0  0.44412480426E+01 -0.86121657889E+01  0.42305198902E+02  0.47787263394E+02  0.19999965121E+02 0.  0.
        -12    1    3    3    0    0 -0.44412480426E+01  0.86121657889E+01 -0.42305198902E+02  0.43400736606E+02  0.00000000000E+00 0.  1.
         11    1    4    4    0    0 -0.29581316299E+01 -0.11831366398E+01  0.13899007115E+02  0.14259479447E+02  0.51100000000E-03 0. -1.
        -11    1    4    4    0    0 -0.12189342380E+01  0.25061123001E+01  0.72296780784E+00  0.28790766314E+01  0.51100000000E-03 0.  1.
        -12    1    4    4    0    0  0.86183139105E+01 -0.99351414491E+01  0.27683223979E+02  0.30648707316E+02  0.00000000000E+00 0.  1.
</event>
<event>
 8    1  0.3776180E-010  0.9118800E+02  0.7816164E-02  0.1184000E+00
        -11   -1    0    0    0    0  0.00000000000E+00  0.00000000000E+00  0.45593999997E+02  0.45594000000E+02  0.51100000000E-03 0. -1.
         11   -1    0    0    0    0 -0.00000000000E+00 -0.00000000000E+00 -0.45593999997E+02  0.45594000000E+02  0.51100000000E-03 0.  1.
         23    2    1    2    0    0  0.00000000000E+00  0.00000000000E+00 -0.71054273576E-14  0.91188000000E+02  0.91188000000E+02 0.  0.
    9900012    2    3    3    0    0  0.64512638889E+01 -0.30017665582E+01  0.42813472019E+02  0.47787276566E+02  0.20000025175E+02 0.  0.
        -12    1    3    3    0    0 -0.64512638889E+01  0.30017665582E+01 -0.42813472019E+02  0.43400723434E+02  0.00000000000E+00 0.  1.
         11    1    4    4    0    0  0.18497004174E+01  0.22341667835E+01  0.23521380315E+02  0.23699540608E+02  0.51100000000E-03 0. -1.
        -11    1    4    4    0    0  0.57482529365E+01 -0.34769628024E+01  0.20563512331E+02  0.21633070096E+02  0.51100000000E-03 0.  1.
         12    1    4    4    0    0 -0.11466894650E+01 -0.17589705393E+01 -0.12714206259E+01  0.24546658622E+01  0.00000000000E+00 0. -1.
</event>
<event>
 8    1  0.3776180E-010  0.9118800E+02  0.7816164E-02  0.1184000E+00
        -11   -1    0    0    0    0  0.00000000000E+00  0.00000000000E+00  0.45593999997E+02  0.45594000000E+02  0.51100000000E-03 0. -1.
         11   -1    0    0    0    0 -0.00000000000E+00 -0.00000000000E+00 -0.45593999997E+02  0.45594000000E+02  0.51100000000E-03 0.  1.
         23    2    1    2    0    0  0.00000000000E+00  0.00000000000E+00 -0.35527136788E-14  0.91188000000E+02  0.91188000000E+02 0.  0.
    9900012    2    3    3    0    0  0.10166496203E+02  0.27726605073E+02  0.31804103096E+02  0.47787271346E+02  0.20000001377E+02 0.  0.
        -12    1    3    3    0    0 -0.10166496203E+02 -0.27726605073E+02 -0.31804103096E+02  0.43400728654E+02  0.00000000000E+00 0.  1.
         11    1    4    4    0    0 -0.41899819110E+01  0.47199409606E+01  0.10534682557E+02  0.12280607799E+02  0.51100000000E-03 0.  1.
        -11    1    4    4    0    0  0.38819696365E+01  0.13754217194E+02  0.12655455899E+02  0.19089493004E+02  0.51100000000E-03 0. -1.
        -12    1    4    4    0    0  0.10474508477E+02  0.92524469188E+01  0.86139646407E+01  0.16417170544E+02  0.00000000000E+00 0.  1.
</event>
<event>
 8    1  0.3776180E-010  0.9118800E+02  0.7816164E-02  0.1184000E+00
        -11   -1    0    0    0    0  0.00000000000E+00  0.00000000000E+00  0.45593999997E+02  0.45594000000E+02  0.51100000000E-03 0. -1.
         11   -1    0    0    0    0 -0.00000000000E+00 -0.00000000000E+00 -0.45593999997E+02  0.45594000000E+02  0.51100000000E-03 0.  1.
         23    2    1    2    0    0  0.35527136788E-14  0.00000000000E+00  0.00000000000E+00  0.91188000000E+02  0.91188000000E+02 0.  0.
    9900012    2    3    3    0    0 -0.15779878703E+02  0.38177327380E+01 -0.40249760808E+02  0.47787275349E+02  0.20000019625E+02 0.  0.
         12    1    3    3    0    0  0.15779878703E+02 -0.38177327380E+01  0.40249760808E+02  0.43400724651E+02  0.00000000000E+00 0. -1.
         11    1    4    4    0    0  0.59196296773E-01 -0.15388445142E+01 -0.29818075910E+01  0.33559981244E+01  0.51100000000E-03 0. -1.
        -11    1    4    4    0    0 -0.17458347002E+02  0.76611352189E+01 -0.36973201619E+02  0.41599333061E+02  0.51100000000E-03 0.  1.
        -12    1    4    4    0    0  0.16192720027E+01 -0.23045579667E+01 -0.29475159849E+00  0.28319441636E+01  0.00000000000E+00 0.  1.
</event>
<event>
 8    1  0.2388789E-009  0.9118800E+02  0.7816164E-02  0.1184000E+00
        -11   -1    0    0    0    0  0.00000000000E+00  0.00000000000E+00  0.45593999997E+02  0.45594000000E+02  0.51100000000E-03 0. -1.
         11   -1    0    0    0    0 -0.00000000000E+00 -0.00000000000E+00 -0.45593999997E+02  0.45594000000E+02  0.51100000000E-03 0.  1.
         23    2    1    2    0    0  0.26645352591E-14  0.00000000000E+00  0.00000000000E+00  0.91188000000E+02  0.91188000000E+02 0.  0.
    9900012    2    3    3    0    0 -0.47368737746E+01  0.22356449189E+02 -0.36896808573E+02  0.47787271016E+02  0.19999999869E+02 0.  0.
         12    1    3    3    0    0  0.47368737746E+01 -0.22356449189E+02  0.36896808573E+02  0.43400728984E+02  0.00000000000E+00 0. -1.
         11    1    4    4    0    0 -0.53997247986E+00  0.95830361991E+01 -0.78843308830E+01  0.12421305358E+02  0.51100000000E-03 0. -1.
        -11    1    4    4    0    0 -0.94991559931E+01  0.66201582258E+01 -0.12982771388E+02  0.17395769965E+02  0.51100000000E-03 0.  1.
        -12    1    4    4    0    0  0.53022546984E+01  0.61532547637E+01 -0.16029706302E+02  0.17970195692E+02  0.00000000000E+00 0.  1.
</event>
<event>
 8    1  0.4282977E-010  0.9118800E+02  0.7816164E-02  0.1184000E+00
        -11   -1    0    0    0    0  0.00000000000E+00  0.00000000000E+00  0.45593999997E+02  0.45594000000E+02  0.51100000000E-03 0. -1.
         11   -1    0    0    0    0 -0.00000000000E+00 -0.00000000000E+00 -0.45593999997E+02  0.45594000000E+02  0.51100000000E-03 0.  1.
         23    2    1    2    0    0  0.00000000000E+00 -0.17763568394E-14 -0.35527136788E-14  0.91188000000E+02  0.91188000000E+02 0.  0.
    9900012    2    3    3    0    0 -0.35915488466E+02  0.12768648889E+02  0.20752405889E+02  0.47787273550E+02  0.20000011422E+02 0.  0.
        -12    1    3    3    0    0  0.35915488466E+02 -0.12768648889E+02 -0.20752405889E+02  0.43400726450E+02  0.00000000000E+00 0.  1.
         11    1    4    4    0    0 -0.18126140647E+02  0.83803495598E+01  0.77891484895E+01  0.21434973010E+02  0.51100000000E-03 0. -1.
        -11    1    4    4    0    0 -0.17408326750E+02  0.79851682408E+01  0.12029068472E+02  0.22616614261E+02  0.51100000000E-03 0.  1.
        -12    1    4    4    0    0 -0.38102106958E+00 -0.35968689112E+01  0.93418892787E+00  0.37356862787E+01  0.00000000000E+00 0.  1.
</event>
<event>
 8    1  0.3776180E-010  0.9118800E+02  0.7816164E-02  0.1184000E+00
        -11   -1    0    0    0    0  0.00000000000E+00  0.00000000000E+00  0.45593999997E+02  0.45594000000E+02  0.51100000000E-03 0. -1.
         11   -1    0    0    0    0 -0.00000000000E+00 -0.00000000000E+00 -0.45593999997E+02  0.45594000000E+02  0.51100000000E-03 0.  1.
         23    2    1    2    0    0  0.00000000000E+00 -0.35527136788E-14  0.00000000000E+00  0.91188000000E+02  0.91188000000E+02 0.  0.
    9900012    2    3    3    0    0  0.23894366918E+02  0.22523224191E+02 -0.28379340003E+02  0.47787270313E+02  0.19999996665E+02 0.  0.
         12    1    3    3    0    0 -0.23894366918E+02 -0.22523224191E+02  0.28379340003E+02  0.43400729687E+02  0.00000000000E+00 0. -1.
         11    1    4    4    0    0  0.33970329187E+01 -0.19468589184E+01 -0.21137065729E+01  0.44494772767E+01  0.51100000000E-03 0. -1.
        -11    1    4    4    0    0  0.20107586529E+00 -0.85611433590E+00 -0.37135806852E+01  0.38162868114E+01  0.51100000000E-03 0.  1.
        -12    1    4    4    0    0  0.20296258134E+02  0.25326197445E+02 -0.22552052745E+02  0.39521506225E+02  0.00000000000E+00 0.  1.
</event>
<event>
 8    1  0.3776180E-010  0.9118800E+02  0.7816164E-02  0.1184000E+00
        -11   -1    0    0    0    0  0.00000000000E+00  0.00000000000E+00  0.45593999997E+02  0.45594000000E+02  0.51100000000E-03 0. -1.
         11   -1    0    0    0    0 -0.00000000000E+00 -0.00000000000E+00 -0.45593999997E+02  0.45594000000E+02  0.51100000000E-03 0.  1.
         23    2    1    2    0    0 -0.35527136788E-14 -0.88817841970E-15 -0.71054273576E-14  0.91188000000E+02  0.91188000000E+02 0.  0.
    9900012    2    3    3    0    0  0.23603030718E+02  0.18508403523E+01  0.36374367330E+02  0.47787271115E+02  0.20000000321E+02 0.  0.
        -12    1    3    3    0    0 -0.23603030718E+02 -0.18508403523E+01 -0.36374367330E+02  0.43400728885E+02  0.00000000000E+00 0.  1.
         11    1    4    4    0    0  0.43811551194E+01  0.64124505686E+01  0.80432931567E+01  0.11180724822E+02  0.51100000000E-03 0.  1.
        -11    1    4    4    0    0  0.11074358977E+02  0.21238421302E+01  0.84018588653E+01  0.14062125188E+02  0.51100000000E-03 0. -1.
        -12    1    4    4    0    0  0.81475166219E+01 -0.66854523464E+01  0.19929215308E+02  0.22544421105E+02  0.00000000000E+00 0.  1.
</event>
<event>
 8    1  0.3776180E-010  0.9118800E+02  0.7816164E-02  0.1184000E+00
        -11   -1    0    0    0    0  0.00000000000E+00  0.00000000000E+00  0.45593999997E+02  0.45594000000E+02  0.51100000000E-03 0. -1.
         11   -1    0    0    0    0 -0.00000000000E+00 -0.00000000000E+00 -0.45593999997E+02  0.45594000000E+02  0.51100000000E-03 0.  1.
         23    2    1    2    0    0  0.00000000000E+00  0.13322676296E-14  0.00000000000E+00  0.91188000000E+02  0.91188000000E+02 0.  0.
    9900012    2    3    3    0    0 -0.13774289431E+02 -0.38188213616E+01 -0.40979370373E+02  0.47787271410E+02  0.20000001669E+02 0.  0.
         12    1    3    3    0    0  0.13774289431E+02  0.38188213616E+01  0.40979370373E+02  0.43400728590E+02  0.00000000000E+00 0. -1.
         11    1    4    4    0    0 -0.28654237777E+01 -0.26332020185E+01 -0.81631269290E+00  0.39762762693E+01  0.51100000000E-03 0. -1.
        -11    1    4    4    0    0 -0.83617759517E+01 -0.71440042782E+01 -0.24141707364E+02  0.26528816952E+02  0.51100000000E-03 0.  1.
        -12    1    4    4    0    0 -0.25470897013E+01  0.59583849351E+01 -0.16021350317E+02  0.17282178189E+02  0.00000000000E+00 0.  1.
</event>
<event>
 8    1  0.3776180E-010  0.9118800E+02  0.7816164E-02  0.1184000E+00
        -11   -1    0    0    0    0  0.00000000000E+00  0.00000000000E+00  0.45593999997E+02  0.45594000000E+02  0.51100000000E-03 0. -1.
         11   -1    0    0    0    0 -0.00000000000E+00 -0.00000000000E+00 -0.45593999997E+02  0.45594000000E+02  0.51100000000E-03 0.  1.
         23    2    1    2    0    0  0.44408920985E-15  0.44408920985E-15  0.00000000000E+00  0.91188000000E+02  0.91188000000E+02 0.  0.
    9900012    2    3    3    0    0  0.81691055652E+00 -0.39713305760E+01 -0.43210899963E+02  0.47787300869E+02  0.20000135984E+02 0.  0.
         12    1    3    3    0    0 -0.81691055652E+00  0.39713305760E+01  0.43210899963E+02  0.43400699131E+02  0.00000000000E+00 0. -1.
         11    1    4    4    0    0 -0.25540141306E+01  0.36571276041E+01 -0.61044063064E+01  0.75605123573E+01  0.51100000000E-03 0. -1.
        -11    1    4    4    0    0 -0.48407421590E+01 -0.16921357772E+01 -0.91251797765E+01  0.10467330813E+02  0.51100000000E-03 0.  1.
        -12    1    4    4    0    0  0.82116668461E+01 -0.59363224029E+01 -0.27981313880E+02  0.29759457699E+02  0.00000000000E+00 0.  1.
</event>
<event>
 8    1  0.3776180E-010  0.9118800E+02  0.7816164E-02  0.1184000E+00
        -11   -1    0    0    0    0  0.00000000000E+00  0.00000000000E+00  0.45593999997E+02  0.45594000000E+02  0.51100000000E-03 0. -1.
         11   -1    0    0    0    0 -0.00000000000E+00 -0.00000000000E+00 -0.45593999997E+02  0.45594000000E+02  0.51100000000E-03 0.  1.
         23    2    1    2    0    0  0.00000000000E+00  0.17763568394E-14  0.00000000000E+00  0.91188000000E+02  0.91188000000E+02 0.  0.
    9900012    2    3    3    0    0  0.21580452654E+02 -0.11747264053E+02 -0.35775820493E+02  0.47787268653E+02  0.19999989099E+02 0.  0.
         12    1    3    3    0    0 -0.21580452654E+02  0.11747264053E+02  0.35775820493E+02  0.43400731347E+02  0.00000000000E+00 0. -1.
         11    1    4    4    0    0  0.13343892991E+01 -0.18887970564E+01  0.15601509429E+01  0.27896631244E+01  0.51100000000E-03 0. -1.
        -11    1    4    4    0    0 -0.10271224577E+01 -0.36880888206E-01 -0.14066700861E+00  0.10373659969E+01  0.51100000000E-03 0.  1.
        -12    1    4    4    0    0  0.21273185812E+02 -0.98215861079E+01 -0.37195304427E+02  0.43960239532E+02  0.00000000000E+00 0.  1.
</event>
<event>
 8    1  0.3776180E-010  0.9118800E+02  0.7816164E-02  0.1184000E+00
        -11   -1    0    0    0    0  0.00000000000E+00  0.00000000000E+00  0.45593999997E+02  0.45594000000E+02  0.51100000000E-03 0. -1.
         11   -1    0    0    0    0 -0.00000000000E+00 -0.00000000000E+00 -0.45593999997E+02  0.45594000000E+02  0.51100000000E-03 0.  1.
         23    2    1    2    0    0  0.00000000000E+00  0.00000000000E+00  0.00000000000E+00  0.91188000000E+02  0.91188000000E+02 0.  0.
    9900012    2    3    3    0    0 -0.19565410283E+02  0.20417886478E+02 -0.32923035576E+02  0.47787289876E+02  0.20000085859E+02 0.  0.
         12    1    3    3    0    0  0.19565410283E+02 -0.20417886478E+02  0.32923035576E+02  0.43400710124E+02  0.00000000000E+00 0. -1.
         11    1    4    4    0    0 -0.41495441384E+01  0.11234355757E+02 -0.12940798235E+02  0.17632178681E+02  0.51100000000E-03 0. -1.
        -11    1    4    4    0    0 -0.31771251705E+01  0.14366762152E-02 -0.12917665858E+02  0.13302639509E+02  0.51100000000E-03 0.  1.
         12    1    4    4    0    0 -0.12238740974E+02  0.91820940440E+01 -0.70645714830E+01  0.16852471685E+02  0.00000000000E+00 0. -1.
</event>
<event>
 8    1  0.3776180E-010  0.9118800E+02  0.7816164E-02  0.1184000E+00
        -11   -1    0    0    0    0  0.00000000000E+00  0.00000000000E+00  0.45593999997E+02  0.45594000000E+02  0.51100000000E-03 0. -1.
         11   -1    0    0    0    0 -0.00000000000E+00 -0.00000000000E+00 -0.45593999997E+02  0.45594000000E+02  0.51100000000E-03 0.  1.
         23    2    1    2    0    0  0.00000000000E+00  0.00000000000E+00  0.00000000000E+00  0.91188000000E+02  0.91188000000E+02 0.  0.
    9900012    2    3    3    0    0 -0.16632313405E+02  0.25676021640E+02 -0.30785245319E+02  0.47787271138E+02  0.20000000425E+02 0.  0.
         12    1    3    3    0    0  0.16632313405E+02 -0.25676021640E+02  0.30785245319E+02  0.43400728862E+02  0.00000000000E+00 0. -1.
         11    1    4    4    0    0  0.31112273087E+00  0.55995292839E+01 -0.82570893989E+01  0.99815355110E+01  0.51100000000E-03 0. -1.
        -11    1    4    4    0    0 -0.14756337664E+02  0.18449395828E+02 -0.24804127874E+02  0.34254553968E+02  0.51100000000E-03 0.  1.
         12    1    4    4    0    0 -0.21870984712E+01  0.16270965282E+01  0.22759719546E+01  0.35511816587E+01  0.00000000000E+00 0. -1.
</event>
<event>
 8    1  0.3776180E-010  0.9118800E+02  0.7816164E-02  0.1184000E+00
        -11   -1    0    0    0    0  0.00000000000E+00  0.00000000000E+00  0.45593999997E+02  0.45594000000E+02  0.51100000000E-03 0. -1.
         11   -1    0    0    0    0 -0.00000000000E+00 -0.00000000000E+00 -0.45593999997E+02  0.45594000000E+02  0.51100000000E-03 0.  1.
         23    2    1    2    0    0  0.13322676296E-14  0.00000000000E+00  0.00000000000E+00  0.91188000000E+02  0.91188000000E+02 0.  0.
    9900012    2    3    3    0    0  0.10435667745E+01 -0.11189018693E+02  0.41920646330E+02  0.47787265448E+02  0.19999974484E+02 0.  0.
        -12    1    3    3    0    0 -0.10435667745E+01  0.11189018693E+02 -0.41920646330E+02  0.43400734552E+02  0.00000000000E+00 0.  1.
         11    1    4    4    0    0  0.14759673258E+01 -0.17282047153E-02  0.66233280598E+01  0.67857908443E+01  0.51100000000E-03 0. -1.
        -11    1    4    4    0    0  0.76519756987E+01 -0.13093406101E+01  0.17034276353E+02  0.18719873826E+02  0.51100000000E-03 0.  1.
         12    1    4    4    0    0 -0.80843762500E+01 -0.98779498785E+01  0.18263041917E+02  0.22281600778E+02  0.00000000000E+00 0. -1.
</event>
<event>
 8    1  0.5919634E-010  0.9118800E+02  0.7816164E-02  0.1184000E+00
        -11   -1    0    0    0    0  0.00000000000E+00  0.00000000000E+00  0.45593999997E+02  0.45594000000E+02  0.51100000000E-03 0. -1.
         11   -1    0    0    0    0 -0.00000000000E+00 -0.00000000000E+00 -0.45593999997E+02  0.45594000000E+02  0.51100000000E-03 0.  1.
         23    2    1    2    0    0 -0.17763568394E-14  0.00000000000E+00  0.00000000000E+00  0.91188000000E+02  0.91188000000E+02 0.  0.
    9900012    2    3    3    0    0 -0.97492412789E+01  0.93280851426E+01  0.41249987558E+02  0.47787281671E+02  0.20000048450E+02 0.  0.
        -12    1    3    3    0    0  0.97492412789E+01 -0.93280851426E+01 -0.41249987558E+02  0.43400718329E+02  0.00000000000E+00 0.  1.
         11    1    4    4    0    0 -0.62594593759E+01  0.77162347892E+01  0.21937606132E+02  0.24082767159E+02  0.51100000000E-03 0. -1.
        -11    1    4    4    0    0 -0.67897248914E+01  0.15009351242E+01  0.19178275417E+02  0.20399985750E+02  0.51100000000E-03 0.  1.
        -12    1    4    4    0    0  0.32999429883E+01  0.11091522920E+00  0.13410600911E+00  0.33045287616E+01  0.00000000000E+00 0.  1.
</event>
<event>
 8    1  0.3776180E-010  0.9118800E+02  0.7816164E-02  0.1184000E+00
        -11   -1    0    0    0    0  0.00000000000E+00  0.00000000000E+00  0.45593999997E+02  0.45594000000E+02  0.51100000000E-03 0.  1.
         11   -1    0    0    0    0 -0.00000000000E+00 -0.00000000000E+00 -0.45593999997E+02  0.45594000000E+02  0.51100000000E-03 0. -1.
         23    2    1    2    0    0  0.00000000000E+00  0.71054273576E-14  0.88817841970E-15  0.91188000000E+02  0.91188000000E+02 0.  0.
    9900012    2    3    3    0    0  0.17700453253E+02  0.39255370527E+02 -0.54160399824E+01  0.47787266716E+02  0.19999980263E+02 0.  0.
        -12    1    3    3    0    0 -0.17700453253E+02 -0.39255370527E+02  0.54160399824E+01  0.43400733284E+02  0.00000000000E+00 0.  1.
         11    1    4    4    0    0  0.10651298795E+02  0.19159012471E+02 -0.84250520722E+01  0.23484024944E+02  0.51100000000E-03 0.  1.
        -11    1    4    4    0    0  0.27214101188E+01  0.16010813000E+02 -0.22066760884E+01  0.16389680460E+02  0.51100000000E-03 0. -1.
         12    1    4    4    0    0  0.43277443391E+01  0.40855450550E+01  0.52156881781E+01  0.79135613116E+01  0.00000000000E+00 0. -1.
</event>
<event>
 8    1  0.3776180E-010  0.9118800E+02  0.7816164E-02  0.1184000E+00
        -11   -1    0    0    0    0  0.00000000000E+00  0.00000000000E+00  0.45593999997E+02  0.45594000000E+02  0.51100000000E-03 0. -1.
         11   -1    0    0    0    0 -0.00000000000E+00 -0.00000000000E+00 -0.45593999997E+02  0.45594000000E+02  0.51100000000E-03 0.  1.
         23    2    1    2    0    0  0.00000000000E+00  0.00000000000E+00  0.00000000000E+00  0.91188000000E+02  0.91188000000E+02 0.  0.
    9900012    2    3    3    0    0 -0.12123940589E+02  0.77981616479E+01 -0.40936806077E+02  0.47787270141E+02  0.19999995883E+02 0.  0.
         12    1    3    3    0    0  0.12123940589E+02 -0.77981616479E+01  0.40936806077E+02  0.43400729859E+02  0.00000000000E+00 0. -1.
         11    1    4    4    0    0  0.58033750021E+00  0.67097784231E+00  0.70261882999E+00  0.11316697223E+01  0.51100000000E-03 0. -1.
        -11    1    4    4    0    0 -0.13906996647E+02  0.74952866832E+01 -0.22598087632E+02  0.27572766330E+02  0.51100000000E-03 0.  1.
         12    1    4    4    0    0  0.12027185582E+01 -0.36810287761E+00 -0.19041337275E+02  0.19082834089E+02  0.00000000000E+00 0. -1.
</event>
<event>
 8    1  0.3776180E-010  0.9118800E+02  0.7816164E-02  0.1184000E+00
        -11   -1    0    0    0    0  0.00000000000E+00  0.00000000000E+00  0.45593999997E+02  0.45594000000E+02  0.51100000000E-03 0. -1.
         11   -1    0    0    0    0 -0.00000000000E+00 -0.00000000000E+00 -0.45593999997E+02  0.45594000000E+02  0.51100000000E-03 0.  1.
         23    2    1    2    0    0  0.44408920985E-15  0.00000000000E+00  0.00000000000E+00  0.91188000000E+02  0.91188000000E+02 0.  0.
    9900012    2    3    3    0    0 -0.79869097988E+00 -0.24135925469E+01 -0.43326203329E+02  0.47787271537E+02  0.20000002244E+02 0.  0.
         12    1    3    3    0    0  0.79869097988E+00  0.24135925469E+01  0.43326203329E+02  0.43400728463E+02  0.00000000000E+00 0. -1.
         11    1    4    4    0    0 -0.48575322531E+01  0.39537653240E-03 -0.73966448638E+01  0.88490663490E+01  0.51100000000E-03 0. -1.
        -11    1    4    4    0    0  0.22300201696E+01 -0.61082464142E+01 -0.64051099273E+01  0.91273817524E+01  0.51100000000E-03 0.  1.
         12    1    4    4    0    0  0.18288211036E+01  0.36942584907E+01 -0.29524448538E+02  0.29810823435E+02  0.00000000000E+00 0. -1.
</event>
<event>
 8    1  0.3776180E-010  0.9118800E+02  0.7816164E-02  0.1184000E+00
        -11   -1    0    0    0    0  0.00000000000E+00  0.00000000000E+00  0.45593999997E+02  0.45594000000E+02  0.51100000000E-03 0. -1.
         11   -1    0    0    0    0 -0.00000000000E+00 -0.00000000000E+00 -0.45593999997E+02  0.45594000000E+02  0.51100000000E-03 0.  1.
         23    2    1    2    0    0  0.00000000000E+00 -0.35527136788E-14 -0.35527136788E-14  0.91188000000E+02  0.91188000000E+02 0.  0.
    9900012    2    3    3    0    0  0.34543760883E+02 -0.16955134766E+02 -0.20071749609E+02  0.47787272550E+02  0.20000006864E+02 0.  0.
         12    1    3    3    0    0 -0.34543760883E+02  0.16955134766E+02  0.20071749609E+02  0.43400727450E+02  0.00000000000E+00 0. -1.
         11    1    4    4    0    0  0.37714553852E+01  0.52839824265E+00  0.20954499509E+01  0.43467218893E+01  0.51100000000E-03 0. -1.
        -11    1    4    4    0    0  0.84058575654E+01 -0.85948248649E+01 -0.23180023050E+01  0.12243471355E+02  0.51100000000E-03 0.  1.
        -12    1    4    4    0    0  0.22366447932E+02 -0.88887081437E+01 -0.19849197255E+02  0.31197079306E+02  0.00000000000E+00 0.  1.
</event>
<event>
 8    1  0.3776180E-010  0.9118800E+02  0.7816164E-02  0.1184000E+00
        -11   -1    0    0    0    0  0.00000000000E+00  0.00000000000E+00  0.45593999997E+02  0.45594000000E+02  0.51100000000E-03 0. -1.
         11   -1    0    0    0    0 -0.00000000000E+00 -0.00000000000E+00 -0.45593999997E+02  0.45594000000E+02  0.51100000000E-03 0.  1.
         23    2    1    2    0    0  0.35527136788E-14  0.88817841970E-15  0.00000000000E+00  0.91188000000E+02  0.91188000000E+02 0.  0.
    9900012    2    3    3    0    0  0.28187649272E+02 -0.66516461721E+01  0.32323911313E+02  0.47787271770E+02  0.20000003310E+02 0.  0.
        -12    1    3    3    0    0 -0.28187649272E+02  0.66516461721E+01 -0.32323911313E+02  0.43400728230E+02  0.00000000000E+00 0.  1.
         11    1    4    4    0    0 -0.92939370432E+00  0.48815296171E+00  0.79413416153E+01  0.80104290075E+01  0.51100000000E-03 0. -1.
        -11    1    4    4    0    0  0.12019880966E+02 -0.74225392897E+01  0.88097992113E+01  0.16648849521E+02  0.51100000000E-03 0.  1.
        -12    1    4    4    0    0  0.17097162010E+02  0.28274015595E+00  0.15572770487E+02  0.23127993242E+02  0.00000000000E+00 0.  1.
</event>
<event>
 8    1  0.3776180E-010  0.9118800E+02  0.7816164E-02  0.1184000E+00
        -11   -1    0    0    0    0  0.00000000000E+00  0.00000000000E+00  0.45593999997E+02  0.45594000000E+02  0.51100000000E-03 0. -1.
         11   -1    0    0    0    0 -0.00000000000E+00 -0.00000000000E+00 -0.45593999997E+02  0.45594000000E+02  0.51100000000E-03 0.  1.
         23    2    1    2    0    0 -0.17763568394E-14  0.88817841970E-15  0.00000000000E+00  0.91188000000E+02  0.91188000000E+02 0.  0.
    9900012    2    3    3    0    0 -0.13160829615E+02  0.72961246772E+01 -0.40708506300E+02  0.47787270091E+02  0.19999995653E+02 0.  0.
         12    1    3    3    0    0  0.13160829615E+02 -0.72961246772E+01  0.40708506300E+02  0.43400729909E+02  0.00000000000E+00 0. -1.
         11    1    4    4    0    0 -0.62688296597E+01  0.23924756434E+01 -0.28674071655E+01  0.72968615939E+01  0.51100000000E-03 0. -1.
        -11    1    4    4    0    0 -0.13128661296E+01  0.78841709456E+01 -0.23311560192E+02  0.24643713353E+02  0.51100000000E-03 0.  1.
         12    1    4    4    0    0 -0.55791338254E+01 -0.29805219118E+01 -0.14529538943E+02  0.15846695144E+02  0.00000000000E+00 0. -1.
</event>
<event>
 8    1  0.3776180E-010  0.9118800E+02  0.7816164E-02  0.1184000E+00
        -11   -1    0    0    0    0  0.00000000000E+00  0.00000000000E+00  0.45593999997E+02  0.45594000000E+02  0.51100000000E-03 0. -1.
         11   -1    0    0    0    0 -0.00000000000E+00 -0.00000000000E+00 -0.45593999997E+02  0.45594000000E+02  0.51100000000E-03 0.  1.
         23    2    1    2    0    0 -0.35527136788E-14  0.71054273576E-14  0.00000000000E+00  0.91188000000E+02  0.91188000000E+02 0.  0.
    9900012    2    3    3    0    0 -0.14224027893E+02  0.39095137199E+02  0.12364119499E+02  0.47787260685E+02  0.19999952767E+02 0.  0.
        -12    1    3    3    0    0  0.14224027893E+02 -0.39095137199E+02 -0.12364119499E+02  0.43400739315E+02  0.00000000000E+00 0.  1.
         11    1    4    4    0    0 -0.16063452533E+02  0.24659899691E+02  0.47003743371E+01  0.29803333357E+02  0.51100000000E-03 0. -1.
        -11    1    4    4    0    0 -0.23419920702E+01  0.29872523791E+01  0.33272953383E+01  0.50477220767E+01  0.51100000000E-03 0.  1.
        -12    1    4    4    0    0  0.41814167103E+01  0.11447985129E+02  0.43364498240E+01  0.12936205251E+02  0.00000000000E+00 0.  1.
</event>
<event>
 8    1  0.3776180E-010  0.9118800E+02  0.7816164E-02  0.1184000E+00
        -11   -1    0    0    0    0  0.00000000000E+00  0.00000000000E+00  0.45593999997E+02  0.45594000000E+02  0.51100000000E-03 0. -1.
         11   -1    0    0    0    0 -0.00000000000E+00 -0.00000000000E+00 -0.45593999997E+02  0.45594000000E+02  0.51100000000E-03 0.  1.
         23    2    1    2    0    0  0.35527136788E-14  0.00000000000E+00  0.00000000000E+00  0.91188000000E+02  0.91188000000E+02 0.  0.
    9900012    2    3    3    0    0 -0.25126461328E+02  0.24761584487E+02  0.25281348992E+02  0.47787288807E+02  0.20000080987E+02 0.  0.
        -12    1    3    3    0    0  0.25126461328E+02 -0.24761584487E+02 -0.25281348992E+02  0.43400711193E+02  0.00000000000E+00 0.  1.
         11    1    4    4    0    0 -0.35830667772E+01  0.10541499259E+02  0.13395816325E+02  0.17418652916E+02  0.51100000000E-03 0. -1.
        -11    1    4    4    0    0  0.94715679295E+00  0.11094983197E+00  0.16665042217E+01  0.19200657378E+01  0.51100000000E-03 0.  1.
         12    1    4    4    0    0 -0.22490551344E+02  0.14109135396E+02  0.10219028446E+02  0.28448570153E+02  0.00000000000E+00 0. -1.
</event>
<event>
 8    1  0.3776180E-010  0.9118800E+02  0.7816164E-02  0.1184000E+00
        -11   -1    0    0    0    0  0.00000000000E+00  0.00000000000E+00  0.45593999997E+02  0.45594000000E+02  0.51100000000E-03 0. -1.
         11   -1    0    0    0    0 -0.00000000000E+00 -0.00000000000E+00 -0.45593999997E+02  0.45594000000E+02  0.51100000000E-03 0.  1.
         23    2    1    2    0    0  0.17763568394E-14  0.00000000000E+00  0.00000000000E+00  0.91188000000E+02  0.91188000000E+02 0.  0.
    9900012    2    3    3    0    0 -0.10330829325E+02  0.29911390746E+02  0.29701919429E+02  0.47787293224E+02  0.20000101126E+02 0.  0.
        -12    1    3    3    0    0  0.10330829325E+02 -0.29911390746E+02 -0.29701919429E+02  0.43400706776E+02  0.00000000000E+00 0.  1.
         11    1    4    4    0    0 -0.49068026815E+01  0.69287524124E+01  0.16586534016E+02  0.18633234649E+02  0.51100000000E-03 0. -1.
        -11    1    4    4    0    0 -0.35698700798E+01  0.82006204496E+00  0.86611827143E+00  0.37638590921E+01  0.51100000000E-03 0.  1.
         12    1    4    4    0    0 -0.18541565642E+01  0.22162576288E+02  0.12249267141E+02  0.25390199483E+02  0.00000000000E+00 0. -1.
</event>
<event>
 8    1  0.3776180E-010  0.9118800E+02  0.7816164E-02  0.1184000E+00
        -11   -1    0    0    0    0  0.00000000000E+00  0.00000000000E+00  0.45593999997E+02  0.45594000000E+02  0.51100000000E-03 0. -1.
         11   -1    0    0    0    0 -0.00000000000E+00 -0.00000000000E+00 -0.45593999997E+02  0.45594000000E+02  0.51100000000E-03 0.  1.
         23    2    1    2    0    0  0.35527136788E-14 -0.17763568394E-14 -0.71054273576E-14  0.91188000000E+02  0.91188000000E+02 0.  0.
    9900012    2    3    3    0    0 -0.23771899261E+02  0.82567541426E+01  0.35360236074E+02  0.47787268685E+02  0.19999989244E+02 0.  0.
        -12    1    3    3    0    0  0.23771899261E+02 -0.82567541426E+01 -0.35360236074E+02  0.43400731315E+02  0.00000000000E+00 0.  1.
         11    1    4    4    0    0 -0.15964984752E+02  0.94559520672E+01  0.13226216984E+02  0.22786587801E+02  0.51100000000E-03 0.  1.
        -11    1    4    4    0    0 -0.35433821511E+01  0.28956904019E+01  0.45647433245E+01  0.64635487042E+01  0.51100000000E-03 0. -1.
        -12    1    4    4    0    0 -0.42635323586E+01 -0.40948883264E+01  0.17569275765E+02  0.18537132181E+02  0.00000000000E+00 0.  1.
</event>
<event>
 8    1  0.3776180E-010  0.9118800E+02  0.7816164E-02  0.1184000E+00
        -11   -1    0    0    0    0  0.00000000000E+00  0.00000000000E+00  0.45593999997E+02  0.45594000000E+02  0.51100000000E-03 0. -1.
         11   -1    0    0    0    0 -0.00000000000E+00 -0.00000000000E+00 -0.45593999997E+02  0.45594000000E+02  0.51100000000E-03 0.  1.
         23    2    1    2    0    0  0.00000000000E+00  0.00000000000E+00  0.00000000000E+00  0.91188000000E+02  0.91188000000E+02 0.  0.
    9900012    2    3    3    0    0  0.87118805817E+01 -0.63451124534E+01 -0.42041241078E+02  0.47787271127E+02  0.20000000377E+02 0.  0.
         12    1    3    3    0    0 -0.87118805817E+01  0.63451124534E+01  0.42041241078E+02  0.43400728873E+02  0.00000000000E+00 0. -1.
         11    1    4    4    0    0  0.54245142301E+01 -0.39970410529E+01 -0.90012660731E+01  0.11243864237E+02  0.51100000000E-03 0. -1.
        -11    1    4    4    0    0  0.86881258911E+01 -0.44461333724E+01 -0.19154466196E+02  0.21497562862E+02  0.51100000000E-03 0.  1.
         12    1    4    4    0    0 -0.54007595395E+01  0.20980619719E+01 -0.13885508809E+02  0.15045844028E+02  0.00000000000E+00 0. -1.
</event>
<event>
 8    1  0.3776180E-010  0.9118800E+02  0.7816164E-02  0.1184000E+00
        -11   -1    0    0    0    0  0.00000000000E+00  0.00000000000E+00  0.45593999997E+02  0.45594000000E+02  0.51100000000E-03 0. -1.
         11   -1    0    0    0    0 -0.00000000000E+00 -0.00000000000E+00 -0.45593999997E+02  0.45594000000E+02  0.51100000000E-03 0.  1.
         23    2    1    2    0    0  0.00000000000E+00  0.00000000000E+00  0.00000000000E+00  0.91188000000E+02  0.91188000000E+02 0.  0.
    9900012    2    3    3    0    0  0.16892521293E+02  0.14981941447E+02  0.37064904858E+02  0.47787274000E+02  0.20000013478E+02 0.  0.
        -12    1    3    3    0    0 -0.16892521293E+02 -0.14981941447E+02 -0.37064904858E+02  0.43400726000E+02  0.00000000000E+00 0.  1.
         11    1    4    4    0    0  0.19364985972E+01 -0.26644761098E+01  0.16719589624E+01  0.36939012967E+01  0.51100000000E-03 0.  1.
        -11    1    4    4    0    0 -0.70276506844E+00  0.51809553195E+01  0.30341410689E+01  0.60450135692E+01  0.51100000000E-03 0. -1.
         12    1    4    4    0    0  0.15658787764E+02  0.12465462238E+02  0.32358804827E+02  0.38048359135E+02  0.00000000000E+00 0. -1.
</event>
<event>
 8    1  0.3776180E-010  0.9118800E+02  0.7816164E-02  0.1184000E+00
        -11   -1    0    0    0    0  0.00000000000E+00  0.00000000000E+00  0.45593999997E+02  0.45594000000E+02  0.51100000000E-03 0. -1.
         11   -1    0    0    0    0 -0.00000000000E+00 -0.00000000000E+00 -0.45593999997E+02  0.45594000000E+02  0.51100000000E-03 0.  1.
         23    2    1    2    0    0  0.00000000000E+00 -0.66613381478E-15  0.00000000000E+00  0.91188000000E+02  0.91188000000E+02 0.  0.
    9900012    2    3    3    0    0 -0.98819549201E+01  0.16589133473E+01 -0.42228172736E+02  0.47787267297E+02  0.19999982912E+02 0.  0.
         12    1    3    3    0    0  0.98819549201E+01 -0.16589133473E+01  0.42228172736E+02  0.43400732703E+02  0.00000000000E+00 0. -1.
         11    1    4    4    0    0 -0.51740614318E+01 -0.99239172126E-02 -0.39424050557E+00  0.51890688973E+01  0.51100000000E-03 0. -1.
        -11    1    4    4    0    0 -0.60451381305E+00  0.25805543575E+01 -0.65675059991E+01  0.70821489006E+01  0.51100000000E-03 0.  1.
        -12    1    4    4    0    0 -0.41033796753E+01 -0.91171709297E+00 -0.35266426232E+02  0.35516049499E+02  0.00000000000E+00 0.  1.
</event>
<event>
 8    1  0.3776180E-010  0.9118800E+02  0.7816164E-02  0.1184000E+00
        -11   -1    0    0    0    0  0.00000000000E+00  0.00000000000E+00  0.45593999997E+02  0.45594000000E+02  0.51100000000E-03 0.  1.
         11   -1    0    0    0    0 -0.00000000000E+00 -0.00000000000E+00 -0.45593999997E+02  0.45594000000E+02  0.51100000000E-03 0. -1.
         23    2    1    2    0    0  0.00000000000E+00 -0.44408920985E-15  0.17763568394E-14  0.91188000000E+02  0.91188000000E+02 0.  0.
    9900012    2    3    3    0    0 -0.40972795474E+02  0.23560235538E+01  0.14117448424E+02  0.47787272288E+02  0.20000005671E+02 0.  0.
        -12    1    3    3    0    0  0.40972795474E+02 -0.23560235538E+01 -0.14117448424E+02  0.43400727712E+02  0.00000000000E+00 0.  1.
         11    1    4    4    0    0 -0.25410607971E+01 -0.34961494074E+01  0.53016572588E+00  0.43544375769E+01  0.51100000000E-03 0. -1.
        -11    1    4    4    0    0 -0.53542091172E+01  0.19152813750E+01  0.77529320592E+01  0.96147706053E+01  0.51100000000E-03 0.  1.
         12    1    4    4    0    0 -0.33077525560E+02  0.39368915862E+01  0.58343506386E+01  0.33818064106E+02  0.00000000000E+00 0. -1.
</event>
<event>
 8    1  0.3776180E-010  0.9118800E+02  0.7816164E-02  0.1184000E+00
        -11   -1    0    0    0    0  0.00000000000E+00  0.00000000000E+00  0.45593999997E+02  0.45594000000E+02  0.51100000000E-03 0. -1.
         11   -1    0    0    0    0 -0.00000000000E+00 -0.00000000000E+00 -0.45593999997E+02  0.45594000000E+02  0.51100000000E-03 0.  1.
         23    2    1    2    0    0 -0.33306690739E-15  0.00000000000E+00 -0.71054273576E-14  0.91188000000E+02  0.91188000000E+02 0.  0.
    9900012    2    3    3    0    0 -0.55640998325E+00  0.98613533056E+01 -0.42261898543E+02  0.47787263261E+02  0.19999964511E+02 0.  0.
         12    1    3    3    0    0  0.55640998325E+00 -0.98613533056E+01  0.42261898543E+02  0.43400736739E+02  0.00000000000E+00 0. -1.
         11    1    4    4    0    0  0.77889870663E+01  0.82216042742E+01 -0.17765047357E+02  0.21067985291E+02  0.51100000000E-03 0.  1.
        -11    1    4    4    0    0 -0.44565447356E+01  0.38992229741E+01 -0.16692634097E+02  0.17711825545E+02  0.51100000000E-03 0. -1.
        -12    1    4    4    0    0 -0.38888523139E+01 -0.22594739427E+01 -0.78042170886E+01  0.90074524247E+01  0.00000000000E+00 0.  1.
</event>
<event>
 8    1  0.3776180E-010  0.9118800E+02  0.7816164E-02  0.1184000E+00
        -11   -1    0    0    0    0  0.00000000000E+00  0.00000000000E+00  0.45593999997E+02  0.45594000000E+02  0.51100000000E-03 0. -1.
         11   -1    0    0    0    0 -0.00000000000E+00 -0.00000000000E+00 -0.45593999997E+02  0.45594000000E+02  0.51100000000E-03 0.  1.
         23    2    1    2    0    0  0.00000000000E+00  0.00000000000E+00  0.00000000000E+00  0.91188000000E+02  0.91188000000E+02 0.  0.
    9900012    2    3    3    0    0 -0.20870942533E+02  0.14482751003E+02 -0.35189155952E+02  0.47787274022E+02  0.20000013575E+02 0.  0.
         12    1    3    3    0    0  0.20870942533E+02 -0.14482751003E+02  0.35189155952E+02  0.43400725978E+02  0.00000000000E+00 0. -1.
         11    1    4    4    0    0 -0.45593882051E+01  0.60520103507E+01 -0.20942204846E+01  0.78613363870E+01  0.51100000000E-03 0. -1.
        -11    1    4    4    0    0  0.17197574221E+01 -0.90609521438E+00 -0.39844705703E+01  0.44333486345E+01  0.51100000000E-03 0.  1.
        -12    1    4    4    0    0 -0.18031311750E+02  0.93368358664E+01 -0.29110464897E+02  0.35492589000E+02  0.00000000000E+00 0.  1.
</event>
<event>
 8    1  0.3776180E-010  0.9118800E+02  0.7816164E-02  0.1184000E+00
        -11   -1    0    0    0    0  0.00000000000E+00  0.00000000000E+00  0.45593999997E+02  0.45594000000E+02  0.51100000000E-03 0. -1.
         11   -1    0    0    0    0 -0.00000000000E+00 -0.00000000000E+00 -0.45593999997E+02  0.45594000000E+02  0.51100000000E-03 0.  1.
         23    2    1    2    0    0  0.22204460493E-15  0.00000000000E+00  0.00000000000E+00  0.91188000000E+02  0.91188000000E+02 0.  0.
    9900012    2    3    3    0    0 -0.17335444928E+00  0.15380720393E+02  0.40583574855E+02  0.47787272361E+02  0.20000006005E+02 0.  0.
        -12    1    3    3    0    0  0.17335444928E+00 -0.15380720393E+02 -0.40583574855E+02  0.43400727639E+02  0.00000000000E+00 0.  1.
         11    1    4    4    0    0 -0.26292798016E+01  0.98506624757E+01  0.16607254458E+02  0.19487164093E+02  0.51100000000E-03 0. -1.
        -11    1    4    4    0    0 -0.12891064699E+01 -0.22680309970E+01  0.16966213835E+02  0.17165610163E+02  0.51100000000E-03 0.  1.
         12    1    4    4    0    0  0.37450318222E+01  0.77980889145E+01  0.70101065611E+01  0.11134498106E+02  0.00000000000E+00 0. -1.
</event>
<event>
 8    1  0.3776180E-010  0.9118800E+02  0.7816164E-02  0.1184000E+00
        -11   -1    0    0    0    0  0.00000000000E+00  0.00000000000E+00  0.45593999997E+02  0.45594000000E+02  0.51100000000E-03 0.  1.
         11   -1    0    0    0    0 -0.00000000000E+00 -0.00000000000E+00 -0.45593999997E+02  0.45594000000E+02  0.51100000000E-03 0. -1.
         23    2    1    2    0    0  0.00000000000E+00  0.00000000000E+00 -0.17763568394E-14  0.91188000000E+02  0.91188000000E+02 0.  0.
    9900012    2    3    3    0    0 -0.38316969566E+02  0.18694278442E+02  0.81214081028E+01  0.47787268753E+02  0.19999989551E+02 0.  0.
         12    1    3    3    0    0  0.38316969566E+02 -0.18694278442E+02 -0.81214081028E+01  0.43400731247E+02  0.00000000000E+00 0. -1.
         11    1    4    4    0    0 -0.79762086337E+00  0.20998708896E+01  0.20617510519E+01  0.30490120458E+01  0.51100000000E-03 0. -1.
        -11    1    4    4    0    0 -0.99071648897E+01  0.73587279631E+00  0.81181787192E+01  0.12829584986E+02  0.51100000000E-03 0.  1.
         12    1    4    4    0    0 -0.27612183813E+02  0.15858534757E+02 -0.20585216683E+01  0.31908671721E+02  0.00000000000E+00 0. -1.
</event>
<event>
 8    1  0.3776180E-010  0.9118800E+02  0.7816164E-02  0.1184000E+00
        -11   -1    0    0    0    0  0.00000000000E+00  0.00000000000E+00  0.45593999997E+02  0.45594000000E+02  0.51100000000E-03 0. -1.
         11   -1    0    0    0    0 -0.00000000000E+00 -0.00000000000E+00 -0.45593999997E+02  0.45594000000E+02  0.51100000000E-03 0.  1.
         23    2    1    2    0    0  0.00000000000E+00  0.00000000000E+00  0.00000000000E+00  0.91188000000E+02  0.91188000000E+02 0.  0.
    9900012    2    3    3    0    0  0.24903028532E+02  0.17884661352E+02 -0.30718094101E+02  0.47787271355E+02  0.20000001414E+02 0.  0.
         12    1    3    3    0    0 -0.24903028532E+02 -0.17884661352E+02  0.30718094101E+02  0.43400728645E+02  0.00000000000E+00 0. -1.
         11    1    4    4    0    0 -0.99936949869E+00 -0.12188126120E+01 -0.35196625774E+01  0.38564580249E+01  0.51100000000E-03 0. -1.
        -11    1    4    4    0    0  0.63290033258E+01  0.72145907941E+01 -0.15459648260E+02  0.18196354800E+02  0.51100000000E-03 0.  1.
         12    1    4    4    0    0  0.19573394705E+02  0.11888883170E+02 -0.11738783264E+02  0.25734458530E+02  0.00000000000E+00 0. -1.
</event>
<event>
 8    1  0.3776180E-010  0.9118800E+02  0.7816164E-02  0.1184000E+00
        -11   -1    0    0    0    0  0.00000000000E+00  0.00000000000E+00  0.45593999997E+02  0.45594000000E+02  0.51100000000E-03 0. -1.
         11   -1    0    0    0    0 -0.00000000000E+00 -0.00000000000E+00 -0.45593999997E+02  0.45594000000E+02  0.51100000000E-03 0.  1.
         23    2    1    2    0    0  0.00000000000E+00  0.00000000000E+00  0.88817841970E-15  0.91188000000E+02  0.91188000000E+02 0.  0.
    9900012    2    3    3    0    0  0.81218826564E+01 -0.42484802940E+02  0.35636798912E+01  0.47787271054E+02  0.20000000042E+02 0.  0.
        -12    1    3    3    0    0 -0.81218826564E+01  0.42484802940E+02 -0.35636798912E+01  0.43400728946E+02  0.00000000000E+00 0.  1.
         11    1    4    4    0    0  0.67363532378E+01 -0.26323627760E+02  0.91700749123E+01  0.28677554072E+02  0.51100000000E-03 0. -1.
        -11    1    4    4    0    0 -0.50454242985E+00 -0.36702047732E+00  0.15472592851E+01  0.16683161124E+01  0.51100000000E-03 0.  1.
        -12    1    4    4    0    0  0.18900718484E+01 -0.15794154703E+02 -0.71536543062E+01  0.17441400870E+02  0.00000000000E+00 0.  1.
</event>
<event>
 8    1  0.3776180E-010  0.9118800E+02  0.7816164E-02  0.1184000E+00
        -11   -1    0    0    0    0  0.00000000000E+00  0.00000000000E+00  0.45593999997E+02  0.45594000000E+02  0.51100000000E-03 0.  1.
         11   -1    0    0    0    0 -0.00000000000E+00 -0.00000000000E+00 -0.45593999997E+02  0.45594000000E+02  0.51100000000E-03 0. -1.
         23    2    1    2    0    0  0.00000000000E+00 -0.71054273576E-14 -0.88817841970E-15  0.91188000000E+02  0.91188000000E+02 0.  0.
    9900012    2    3    3    0    0  0.13436675458E+02  0.40519630431E+02  0.78254428326E+01  0.47787282803E+02  0.20000053614E+02 0.  0.
        -12    1    3    3    0    0 -0.13436675458E+02 -0.40519630431E+02 -0.78254428326E+01  0.43400717197E+02  0.00000000000E+00 0.  1.
         11    1    4    4    0    0  0.53748462576E+01  0.11661407973E+02 -0.57387309261E+01  0.14064509985E+02  0.51100000000E-03 0. -1.
        -11    1    4    4    0    0  0.28838645440E+01  0.19726284586E+01  0.14536357736E+01  0.37843090476E+01  0.51100000000E-03 0.  1.
         12    1    4    4    0    0  0.51779646567E+01  0.26885593999E+02  0.12110537985E+02  0.29938463771E+02  0.00000000000E+00 0. -1.
</event>
<event>
 8    1  0.3776180E-010  0.9118800E+02  0.7816164E-02  0.1184000E+00
        -11   -1    0    0    0    0  0.00000000000E+00  0.00000000000E+00  0.45593999997E+02  0.45594000000E+02  0.51100000000E-03 0. -1.
         11   -1    0    0    0    0 -0.00000000000E+00 -0.00000000000E+00 -0.45593999997E+02  0.45594000000E+02  0.51100000000E-03 0.  1.
         23    2    1    2    0    0 -0.17763568394E-14  0.00000000000E+00  0.00000000000E+00  0.91188000000E+02  0.91188000000E+02 0.  0.
    9900012    2    3    3    0    0  0.15725878567E+02  0.64144542634E+01 -0.39939637653E+02  0.47787272632E+02  0.20000007239E+02 0.  0.
         12    1    3    3    0    0 -0.15725878567E+02 -0.64144542634E+01  0.39939637653E+02  0.43400727368E+02  0.00000000000E+00 0. -1.
         11    1    4    4    0    0  0.13178485978E+00  0.34580857194E+01  0.64403637619E+00  0.35200152282E+01  0.51100000000E-03 0. -1.
        -11    1    4    4    0    0  0.18343942397E+01  0.13020699671E+01 -0.12720276449E+01  0.25842683715E+01  0.51100000000E-03 0.  1.
        -12    1    4    4    0    0  0.13759699467E+02  0.16542985770E+01 -0.39311646385E+02  0.41682989032E+02  0.00000000000E+00 0.  1.
</event>
<event>
 8    1  0.3776180E-010  0.9118800E+02  0.7816164E-02  0.1184000E+00
        -11   -1    0    0    0    0  0.00000000000E+00  0.00000000000E+00  0.45593999997E+02  0.45594000000E+02  0.51100000000E-03 0. -1.
         11   -1    0    0    0    0 -0.00000000000E+00 -0.00000000000E+00 -0.45593999997E+02  0.45594000000E+02  0.51100000000E-03 0.  1.
         23    2    1    2    0    0  0.00000000000E+00  0.35527136788E-14  0.00000000000E+00  0.91188000000E+02  0.91188000000E+02 0.  0.
    9900012    2    3    3    0    0 -0.64675569025E+01 -0.14451719632E+02  0.40409678361E+02  0.47787267312E+02  0.19999982982E+02 0.  0.
        -12    1    3    3    0    0  0.64675569025E+01  0.14451719632E+02 -0.40409678361E+02  0.43400732688E+02  0.00000000000E+00 0.  1.
         11    1    4    4    0    0  0.19450836427E+01 -0.67745821158E+01  0.22994008498E+02  0.24050004996E+02  0.51100000000E-03 0. -1.
        -11    1    4    4    0    0  0.58176272100E+00 -0.57908102813E+01  0.27664744166E+01  0.64440136978E+01  0.51100000000E-03 0.  1.
        -12    1    4    4    0    0 -0.89944032662E+01 -0.18863272345E+01  0.14649195446E+02  0.17293248618E+02  0.00000000000E+00 0.  1.
</event>
<event>
 8    1  0.3776180E-010  0.9118800E+02  0.7816164E-02  0.1184000E+00
        -11   -1    0    0    0    0  0.00000000000E+00  0.00000000000E+00  0.45593999997E+02  0.45594000000E+02  0.51100000000E-03 0. -1.
         11   -1    0    0    0    0 -0.00000000000E+00 -0.00000000000E+00 -0.45593999997E+02  0.45594000000E+02  0.51100000000E-03 0.  1.
         23    2    1    2    0    0  0.00000000000E+00  0.00000000000E+00  0.00000000000E+00  0.91188000000E+02  0.91188000000E+02 0.  0.
    9900012    2    3    3    0    0  0.69266704671E+01  0.21675391499E+02  0.36957030005E+02  0.47787269278E+02  0.19999991945E+02 0.  0.
        -12    1    3    3    0    0 -0.69266704671E+01 -0.21675391499E+02 -0.36957030005E+02  0.43400730722E+02  0.00000000000E+00 0.  1.
         11    1    4    4    0    0 -0.36982083341E+00  0.32942489061E+01  0.17043648108E+02  0.17363029240E+02  0.51100000000E-03 0.  1.
        -11    1    4    4    0    0 -0.25343208290E+01  0.84690259080E+01  0.97180229654E+01  0.13137242957E+02  0.51100000000E-03 0. -1.
        -12    1    4    4    0    0  0.98308121295E+01  0.99121166851E+01  0.10195358932E+02  0.17286997080E+02  0.00000000000E+00 0.  1.
</event>
<event>
 8    1  0.3776180E-010  0.9118800E+02  0.7816164E-02  0.1184000E+00
        -11   -1    0    0    0    0  0.00000000000E+00  0.00000000000E+00  0.45593999997E+02  0.45594000000E+02  0.51100000000E-03 0.  1.
         11   -1    0    0    0    0 -0.00000000000E+00 -0.00000000000E+00 -0.45593999997E+02  0.45594000000E+02  0.51100000000E-03 0. -1.
         23    2    1    2    0    0 -0.71054273576E-14  0.00000000000E+00  0.35527136788E-14  0.91188000000E+02  0.91188000000E+02 0.  0.
    9900012    2    3    3    0    0  0.40339945930E+02 -0.10928027056E+02  0.11700010835E+02  0.47787271130E+02  0.20000000389E+02 0.  0.
         12    1    3    3    0    0 -0.40339945930E+02  0.10928027056E+02 -0.11700010835E+02  0.43400728870E+02  0.00000000000E+00 0. -1.
         11    1    4    4    0    0  0.90994747453E+01 -0.74443246548E+00  0.77923587788E+01  0.12003144419E+02  0.51100000000E-03 0. -1.
        -11    1    4    4    0    0  0.18800829371E+02 -0.67649219579E+01  0.90004091090E+01  0.21914440867E+02  0.51100000000E-03 0.  1.
         12    1    4    4    0    0  0.12439641813E+02 -0.34186726323E+01 -0.50927570528E+01  0.13869685844E+02  0.00000000000E+00 0. -1.
</event>
<event>
 8    1  0.3776180E-010  0.9118800E+02  0.7816164E-02  0.1184000E+00
        -11   -1    0    0    0    0  0.00000000000E+00  0.00000000000E+00  0.45593999997E+02  0.45594000000E+02  0.51100000000E-03 0. -1.
         11   -1    0    0    0    0 -0.00000000000E+00 -0.00000000000E+00 -0.45593999997E+02  0.45594000000E+02  0.51100000000E-03 0.  1.
         23    2    1    2    0    0  0.00000000000E+00  0.00000000000E+00  0.35527136788E-14  0.91188000000E+02  0.91188000000E+02 0.  0.
    9900012    2    3    3    0    0 -0.31032464114E+01  0.35734144071E+02  0.24434891368E+02  0.47787272967E+02  0.20000008766E+02 0.  0.
        -12    1    3    3    0    0  0.31032464114E+01 -0.35734144071E+02 -0.24434891368E+02  0.43400727033E+02  0.00000000000E+00 0.  1.
         11    1    4    4    0    0 -0.17630080534E+00 -0.10715444598E+01  0.15310693900E+00  0.10966911594E+01  0.51100000000E-03 0.  1.
        -11    1    4    4    0    0  0.45634927105E+01  0.37226763611E+01  0.46071457345E+01  0.74772706978E+01  0.51100000000E-03 0. -1.
         12    1    4    4    0    0 -0.74904383166E+01  0.33083012170E+02  0.19674638695E+02  0.39213311110E+02  0.00000000000E+00 0. -1.
</event>
<event>
 8    1  0.3776180E-010  0.9118800E+02  0.7816164E-02  0.1184000E+00
        -11   -1    0    0    0    0  0.00000000000E+00  0.00000000000E+00  0.45593999997E+02  0.45594000000E+02  0.51100000000E-03 0. -1.
         11   -1    0    0    0    0 -0.00000000000E+00 -0.00000000000E+00 -0.45593999997E+02  0.45594000000E+02  0.51100000000E-03 0.  1.
         23    2    1    2    0    0  0.00000000000E+00  0.00000000000E+00  0.00000000000E+00  0.91188000000E+02  0.91188000000E+02 0.  0.
    9900012    2    3    3    0    0 -0.18812198323E+02  0.11448183928E+02 -0.37398707189E+02  0.47787273964E+02  0.20000013312E+02 0.  0.
         12    1    3    3    0    0  0.18812198323E+02 -0.11448183928E+02  0.37398707189E+02  0.43400726036E+02  0.00000000000E+00 0. -1.
         11    1    4    4    0    0 -0.40681885821E+01 -0.46527743818E+01 -0.32484827233E+01  0.69821993707E+01  0.51100000000E-03 0. -1.
        -11    1    4    4    0    0 -0.21651912412E+01  0.40812854479E+01 -0.46396363518E+01  0.65476079416E+01  0.51100000000E-03 0.  1.
        -12    1    4    4    0    0 -0.12578818500E+02  0.12019672862E+02 -0.29510588114E+02  0.34257466652E+02  0.00000000000E+00 0.  1.
</event>
<event>
 8    1  0.3776180E-010  0.9118800E+02  0.7816164E-02  0.1184000E+00
        -11   -1    0    0    0    0  0.00000000000E+00  0.00000000000E+00  0.45593999997E+02  0.45594000000E+02  0.51100000000E-03 0. -1.
         11   -1    0    0    0    0 -0.00000000000E+00 -0.00000000000E+00 -0.45593999997E+02  0.45594000000E+02  0.51100000000E-03 0.  1.
         23    2    1    2    0    0  0.00000000000E+00  0.00000000000E+00  0.00000000000E+00  0.91188000000E+02  0.91188000000E+02 0.  0.
    9900012    2    3    3    0    0 -0.31421561310E+01 -0.27188829416E+02 -0.33682603107E+02  0.47787270257E+02  0.19999996410E+02 0.  0.
         12    1    3    3    0    0  0.31421561310E+01  0.27188829416E+02  0.33682603107E+02  0.43400729743E+02  0.00000000000E+00 0. -1.
         11    1    4    4    0    0 -0.49471166501E+01 -0.25931237890E+02 -0.20302202108E+02  0.33302889849E+02  0.51100000000E-03 0.  1.
        -11    1    4    4    0    0  0.18969899537E+01 -0.22437093715E+01 -0.35677095264E+01  0.46218345009E+01  0.51100000000E-03 0. -1.
        -12    1    4    4    0    0 -0.92029434607E-01  0.98611784532E+00 -0.98126914730E+01  0.98625459069E+01  0.00000000000E+00 0.  1.
</event>
<event>
 8    1  0.3776180E-010  0.9118800E+02  0.7816164E-02  0.1184000E+00
        -11   -1    0    0    0    0  0.00000000000E+00  0.00000000000E+00  0.45593999997E+02  0.45594000000E+02  0.51100000000E-03 0. -1.
         11   -1    0    0    0    0 -0.00000000000E+00 -0.00000000000E+00 -0.45593999997E+02  0.45594000000E+02  0.51100000000E-03 0.  1.
         23    2    1    2    0    0  0.00000000000E+00  0.00000000000E+00  0.00000000000E+00  0.91188000000E+02  0.91188000000E+02 0.  0.
    9900012    2    3    3    0    0  0.17104050027E+02  0.22052903336E+02 -0.33237691963E+02  0.47787271436E+02  0.20000001786E+02 0.  0.
         12    1    3    3    0    0 -0.17104050027E+02 -0.22052903336E+02  0.33237691963E+02  0.43400728564E+02  0.00000000000E+00 0. -1.
         11    1    4    4    0    0  0.36498293718E+01  0.35722104935E+01 -0.69458975929E+01  0.86213360847E+01  0.51100000000E-03 0.  1.
        -11    1    4    4    0    0  0.74119935406E+01  0.19755009465E+02 -0.25247007842E+02  0.32903031053E+02  0.51100000000E-03 0. -1.
         12    1    4    4    0    0  0.60422271148E+01 -0.12743166228E+01 -0.10447865272E+01  0.62629042983E+01  0.00000000000E+00 0. -1.
</event>
<event>
 8    1  0.3776180E-010  0.9118800E+02  0.7816164E-02  0.1184000E+00
        -11   -1    0    0    0    0  0.00000000000E+00  0.00000000000E+00  0.45593999997E+02  0.45594000000E+02  0.51100000000E-03 0. -1.
         11   -1    0    0    0    0 -0.00000000000E+00 -0.00000000000E+00 -0.45593999997E+02  0.45594000000E+02  0.51100000000E-03 0.  1.
         23    2    1    2    0    0  0.00000000000E+00  0.35527136788E-14 -0.71054273576E-14  0.91188000000E+02  0.91188000000E+02 0.  0.
    9900012    2    3    3    0    0  0.80854171515E+01 -0.16610158714E+02  0.39272789641E+02  0.47787270177E+02  0.19999996043E+02 0.  0.
        -12    1    3    3    0    0 -0.80854171515E+01  0.16610158714E+02 -0.39272789641E+02  0.43400729823E+02  0.00000000000E+00 0.  1.
         11    1    4    4    0    0  0.36179537693E+01 -0.72428964880E+01  0.24253919594E+02  0.25569547414E+02  0.51100000000E-03 0. -1.
        -11    1    4    4    0    0  0.17470546835E+01 -0.32768421010E+01  0.15096889911E+02  0.15546896136E+02  0.51100000000E-03 0.  1.
        -12    1    4    4    0    0  0.27204086987E+01 -0.60904201249E+01 -0.78019863624E-01  0.66708266268E+01  0.00000000000E+00 0.  1.
</event>
<event>
 8    1  0.3776180E-010  0.9118800E+02  0.7816164E-02  0.1184000E+00
        -11   -1    0    0    0    0  0.00000000000E+00  0.00000000000E+00  0.45593999997E+02  0.45594000000E+02  0.51100000000E-03 0. -1.
         11   -1    0    0    0    0 -0.00000000000E+00 -0.00000000000E+00 -0.45593999997E+02  0.45594000000E+02  0.51100000000E-03 0.  1.
         23    2    1    2    0    0 -0.35527136788E-14  0.00000000000E+00 -0.35527136788E-14  0.91188000000E+02  0.91188000000E+02 0.  0.
    9900012    2    3    3    0    0 -0.19515185732E+02 -0.27291641736E+02  0.27530840389E+02  0.47787270106E+02  0.19999995721E+02 0.  0.
        -12    1    3    3    0    0  0.19515185732E+02  0.27291641736E+02 -0.27530840389E+02  0.43400729894E+02  0.00000000000E+00 0.  1.
         11    1    4    4    0    0 -0.60817671024E+01 -0.59519221257E+01  0.16922252203E+02  0.18941380308E+02  0.51100000000E-03 0. -1.
        -11    1    4    4    0    0 -0.97262800554E+01 -0.12219118673E+02  0.10818202879E+02  0.18998444638E+02  0.51100000000E-03 0.  1.
        -12    1    4    4    0    0 -0.37071385746E+01 -0.91206009371E+01 -0.20961469308E+00  0.98474451603E+01  0.00000000000E+00 0.  1.
</event>
<event>
 8    1  0.3776180E-010  0.9118800E+02  0.7816164E-02  0.1184000E+00
        -11   -1    0    0    0    0  0.00000000000E+00  0.00000000000E+00  0.45593999997E+02  0.45594000000E+02  0.51100000000E-03 0. -1.
         11   -1    0    0    0    0 -0.00000000000E+00 -0.00000000000E+00 -0.45593999997E+02  0.45594000000E+02  0.51100000000E-03 0.  1.
         23    2    1    2    0    0  0.00000000000E+00  0.00000000000E+00  0.38857805862E-15  0.91188000000E+02  0.91188000000E+02 0.  0.
    9900012    2    3    3    0    0 -0.40153735016E+02 -0.16468822111E+02 -0.28146160651E+00  0.47787265466E+02  0.19999974567E+02 0.  0.
         12    1    3    3    0    0  0.40153735016E+02  0.16468822111E+02  0.28146160651E+00  0.43400734534E+02  0.00000000000E+00 0. -1.
         11    1    4    4    0    0 -0.14372257815E+02  0.22814384229E+01 -0.17208592083E+00  0.14553225409E+02  0.51100000000E-03 0. -1.
        -11    1    4    4    0    0 -0.12933189786E+02 -0.97539838224E+01  0.46321340926E+01  0.16848271869E+02  0.51100000000E-03 0.  1.
        -12    1    4    4    0    0 -0.12848287414E+02 -0.89962767114E+01 -0.47415097783E+01  0.16385768189E+02  0.00000000000E+00 0.  1.
</event>
<event>
 8    1  0.3776180E-010  0.9118800E+02  0.7816164E-02  0.1184000E+00
        -11   -1    0    0    0    0  0.00000000000E+00  0.00000000000E+00  0.45593999997E+02  0.45594000000E+02  0.51100000000E-03 0.  1.
         11   -1    0    0    0    0 -0.00000000000E+00 -0.00000000000E+00 -0.45593999997E+02  0.45594000000E+02  0.51100000000E-03 0. -1.
         23    2    1    2    0    0  0.17763568394E-14  0.00000000000E+00 -0.88817841970E-15  0.91188000000E+02  0.91188000000E+02 0.  0.
    9900012    2    3    3    0    0 -0.14410522395E+02 -0.40308340741E+02 -0.71552487272E+01  0.47787273355E+02  0.20000010536E+02 0.  0.
        -12    1    3    3    0    0  0.14410522395E+02  0.40308340741E+02  0.71552487272E+01  0.43400726645E+02  0.00000000000E+00 0.  1.
         11    1    4    4    0    0 -0.51301751347E+01 -0.59587683917E+01  0.13323494145E+01  0.79750092716E+01  0.51100000000E-03 0. -1.
        -11    1    4    4    0    0 -0.10348914870E+01 -0.57759098835E+00  0.29789382853E+01  0.32060388813E+01  0.51100000000E-03 0.  1.
        -12    1    4    4    0    0 -0.82454557732E+01 -0.33771981361E+02 -0.11466536427E+02  0.36606225202E+02  0.00000000000E+00 0.  1.
</event>
<event>
 8    1  0.3776180E-010  0.9118800E+02  0.7816164E-02  0.1184000E+00
        -11   -1    0    0    0    0  0.00000000000E+00  0.00000000000E+00  0.45593999997E+02  0.45594000000E+02  0.51100000000E-03 0. -1.
         11   -1    0    0    0    0 -0.00000000000E+00 -0.00000000000E+00 -0.45593999997E+02  0.45594000000E+02  0.51100000000E-03 0.  1.
         23    2    1    2    0    0  0.00000000000E+00 -0.88817841970E-15 -0.71054273576E-14  0.91188000000E+02  0.91188000000E+02 0.  0.
    9900012    2    3    3    0    0 -0.17862402962E+02  0.32716461834E+01  0.39418956501E+02  0.47787271435E+02  0.20000001781E+02 0.  0.
        -12    1    3    3    0    0  0.17862402962E+02 -0.32716461834E+01 -0.39418956501E+02  0.43400728565E+02  0.00000000000E+00 0.  1.
         11    1    4    4    0    0  0.18652677563E+01  0.13096876011E+01  0.31931243190E+01  0.39230789685E+01  0.51100000000E-03 0.  1.
        -11    1    4    4    0    0 -0.11280526287E+02  0.82641073355E+01  0.23444214838E+02  0.27297929463E+02  0.51100000000E-03 0. -1.
        -12    1    4    4    0    0 -0.84471444316E+01 -0.63021487532E+01  0.12781617344E+02  0.16566263003E+02  0.00000000000E+00 0.  1.
</event>
<event>
 8    1  0.3972127E-010  0.9118800E+02  0.7816164E-02  0.1184000E+00
        -11   -1    0    0    0    0  0.00000000000E+00  0.00000000000E+00  0.45593999997E+02  0.45594000000E+02  0.51100000000E-03 0. -1.
         11   -1    0    0    0    0 -0.00000000000E+00 -0.00000000000E+00 -0.45593999997E+02  0.45594000000E+02  0.51100000000E-03 0.  1.
         23    2    1    2    0    0 -0.35527136788E-14  0.35527136788E-14  0.00000000000E+00  0.91188000000E+02  0.91188000000E+02 0.  0.
    9900012    2    3    3    0    0 -0.26355176095E+02 -0.29542024157E+02  0.17784740406E+02  0.47787268559E+02  0.19999988669E+02 0.  0.
        -12    1    3    3    0    0  0.26355176095E+02  0.29542024157E+02 -0.17784740406E+02  0.43400731441E+02  0.00000000000E+00 0.  1.
         11    1    4    4    0    0 -0.10092522409E+02 -0.17550106578E+02  0.96983772248E+01  0.22448246491E+02  0.51100000000E-03 0. -1.
        -11    1    4    4    0    0 -0.16472975605E+02 -0.13909057620E+02  0.87945963828E+01  0.23284452644E+02  0.51100000000E-03 0.  1.
        -12    1    4    4    0    0  0.21032191871E+00  0.19171400412E+01 -0.70823320201E+00  0.20545694234E+01  0.00000000000E+00 0.  1.
</event>
<event>
 8    1  0.3776180E-010  0.9118800E+02  0.7816164E-02  0.1184000E+00
        -11   -1    0    0    0    0  0.00000000000E+00  0.00000000000E+00  0.45593999997E+02  0.45594000000E+02  0.51100000000E-03 0. -1.
         11   -1    0    0    0    0 -0.00000000000E+00 -0.00000000000E+00 -0.45593999997E+02  0.45594000000E+02  0.51100000000E-03 0.  1.
         23    2    1    2    0    0 -0.71054273576E-14  0.17763568394E-14  0.35527136788E-14  0.91188000000E+02  0.91188000000E+02 0.  0.
    9900012    2    3    3    0    0  0.38587429621E+02  0.14157516952E+02 -0.13935507349E+02  0.47787269867E+02  0.19999994632E+02 0.  0.
         12    1    3    3    0    0 -0.38587429621E+02 -0.14157516952E+02  0.13935507349E+02  0.43400730133E+02  0.00000000000E+00 0. -1.
         11    1    4    4    0    0  0.13027393134E+02  0.46490225175E+01 -0.27656161087E+01  0.14105850381E+02  0.51100000000E-03 0. -1.
        -11    1    4    4    0    0  0.21299862644E+02  0.21867854885E+00 -0.95097525266E+01  0.23327395104E+02  0.51100000000E-03 0.  1.
         12    1    4    4    0    0  0.42601738427E+01  0.92898158853E+01 -0.16601387133E+01  0.10354024382E+02  0.00000000000E+00 0. -1.
</event>
<event>
 8    1  0.3776180E-010  0.9118800E+02  0.7816164E-02  0.1184000E+00
        -11   -1    0    0    0    0  0.00000000000E+00  0.00000000000E+00  0.45593999997E+02  0.45594000000E+02  0.51100000000E-03 0. -1.
         11   -1    0    0    0    0 -0.00000000000E+00 -0.00000000000E+00 -0.45593999997E+02  0.45594000000E+02  0.51100000000E-03 0.  1.
         23    2    1    2    0    0  0.27755575616E-15  0.00000000000E+00  0.71054273576E-14  0.91188000000E+02  0.91188000000E+02 0.  0.
    9900012    2    3    3    0    0  0.39157754904E+00 -0.16268165153E+02 -0.40234562496E+02  0.47787233306E+02  0.19999827934E+02 0.  0.
         12    1    3    3    0    0 -0.39157754904E+00  0.16268165153E+02  0.40234562496E+02  0.43400766694E+02  0.00000000000E+00 0. -1.
         11    1    4    4    0    0  0.18153309542E+01 -0.17854354589E+02 -0.26834663410E+02  0.32282697608E+02  0.51100000000E-03 0.  1.
        -11    1    4    4    0    0 -0.42641077440E+01  0.11352352179E+01 -0.52277484946E+01  0.68411057904E+01  0.51100000000E-03 0. -1.
        -12    1    4    4    0    0  0.28403543389E+01  0.45095421794E+00 -0.81721505906E+01  0.86634299069E+01  0.00000000000E+00 0.  1.
</event>
<event>
 8    1  0.3776180E-010  0.9118800E+02  0.7816164E-02  0.1184000E+00
        -11   -1    0    0    0    0  0.00000000000E+00  0.00000000000E+00  0.45593999997E+02  0.45594000000E+02  0.51100000000E-03 0. -1.
         11   -1    0    0    0    0 -0.00000000000E+00 -0.00000000000E+00 -0.45593999997E+02  0.45594000000E+02  0.51100000000E-03 0.  1.
         23    2    1    2    0    0 -0.44408920985E-15  0.00000000000E+00  0.00000000000E+00  0.91188000000E+02  0.91188000000E+02 0.  0.
    9900012    2    3    3    0    0  0.15745366972E+01  0.23626304266E+02  0.36372265535E+02  0.47787272826E+02  0.20000008123E+02 0.  0.
        -12    1    3    3    0    0 -0.15745366972E+01 -0.23626304266E+02 -0.36372265535E+02  0.43400727174E+02  0.00000000000E+00 0.  1.
         11    1    4    4    0    0 -0.34224772614E+01  0.36207147980E+01  0.83569662786E+01  0.97294301938E+01  0.51100000000E-03 0. -1.
        -11    1    4    4    0    0 -0.55142782018E+01  0.78877978369E+01  0.12101118084E+02  0.15461619512E+02  0.51100000000E-03 0.  1.
         12    1    4    4    0    0  0.10511292160E+02  0.12117791631E+02  0.15914181173E+02  0.22596223120E+02  0.00000000000E+00 0. -1.
</event>
<event>
 8    1  0.3776180E-010  0.9118800E+02  0.7816164E-02  0.1184000E+00
        -11   -1    0    0    0    0  0.00000000000E+00  0.00000000000E+00  0.45593999997E+02  0.45594000000E+02  0.51100000000E-03 0. -1.
         11   -1    0    0    0    0 -0.00000000000E+00 -0.00000000000E+00 -0.45593999997E+02  0.45594000000E+02  0.51100000000E-03 0.  1.
         23    2    1    2    0    0  0.35527136788E-14  0.00000000000E+00  0.00000000000E+00  0.91188000000E+02  0.91188000000E+02 0.  0.
    9900012    2    3    3    0    0  0.18762305539E+02 -0.35539978773E+02 -0.16386246873E+02  0.47787270895E+02  0.19999999317E+02 0.  0.
         12    1    3    3    0    0 -0.18762305539E+02  0.35539978773E+02  0.16386246873E+02  0.43400729105E+02  0.00000000000E+00 0. -1.
         11    1    4    4    0    0  0.54314069369E+01 -0.10438073933E+02 -0.14037491766E+01  0.11850066698E+02  0.51100000000E-03 0. -1.
        -11    1    4    4    0    0  0.16130062317E+02 -0.19715406396E+02 -0.80326875677E+01  0.26709553151E+02  0.51100000000E-03 0.  1.
         12    1    4    4    0    0 -0.27991637152E+01 -0.53864984443E+01 -0.69498101288E+01  0.92276510457E+01  0.00000000000E+00 0. -1.
</event>
<event>
 8    1  0.3776180E-010  0.9118800E+02  0.7816164E-02  0.1184000E+00
        -11   -1    0    0    0    0  0.00000000000E+00  0.00000000000E+00  0.45593999997E+02  0.45594000000E+02  0.51100000000E-03 0. -1.
         11   -1    0    0    0    0 -0.00000000000E+00 -0.00000000000E+00 -0.45593999997E+02  0.45594000000E+02  0.51100000000E-03 0.  1.
         23    2    1    2    0    0  0.00000000000E+00 -0.17763568394E-14  0.00000000000E+00  0.91188000000E+02  0.91188000000E+02 0.  0.
    9900012    2    3    3    0    0  0.21323881205E+02 -0.13431771036E+02  0.35334162424E+02  0.47787269396E+02  0.19999992483E+02 0.  0.
        -12    1    3    3    0    0 -0.21323881205E+02  0.13431771036E+02 -0.35334162424E+02  0.43400730604E+02  0.00000000000E+00 0.  1.
         11    1    4    4    0    0  0.16656829870E+01 -0.74972591022E+01  0.20111829482E+02  0.21528332012E+02  0.51100000000E-03 0. -1.
        -11    1    4    4    0    0  0.36863576595E+01 -0.32459056677E+01  0.54759111863E+01  0.73560002704E+01  0.51100000000E-03 0.  1.
        -12    1    4    4    0    0  0.15971840558E+02 -0.26886062661E+01  0.97464217559E+01  0.18902937113E+02  0.00000000000E+00 0.  1.
</event>
<event>
 8    1  0.3776180E-010  0.9118800E+02  0.7816164E-02  0.1184000E+00
        -11   -1    0    0    0    0  0.00000000000E+00  0.00000000000E+00  0.45593999997E+02  0.45594000000E+02  0.51100000000E-03 0. -1.
         11   -1    0    0    0    0 -0.00000000000E+00 -0.00000000000E+00 -0.45593999997E+02  0.45594000000E+02  0.51100000000E-03 0.  1.
         23    2    1    2    0    0 -0.55511151231E-16  0.66613381478E-15  0.00000000000E+00  0.91188000000E+02  0.91188000000E+02 0.  0.
    9900012    2    3    3    0    0 -0.45860036541E+00 -0.17231229551E+01 -0.43364085568E+02  0.47787269774E+02  0.19999994206E+02 0.  0.
         12    1    3    3    0    0  0.45860036541E+00  0.17231229551E+01  0.43364085568E+02  0.43400730226E+02  0.00000000000E+00 0. -1.
         11    1    4    4    0    0  0.13542404017E+01  0.42908594069E+01 -0.21980369111E+01  0.50076749135E+01  0.51100000000E-03 0. -1.
        -11    1    4    4    0    0 -0.19931500859E+01 -0.18112649678E+01 -0.19170469030E+01  0.33058126289E+01  0.51100000000E-03 0.  1.
        -12    1    4    4    0    0  0.18030931875E+00 -0.42027173942E+01 -0.39249001754E+02  0.39473782231E+02  0.00000000000E+00 0.  1.
</event>
<event>
 8    1  0.3776180E-010  0.9118800E+02  0.7816164E-02  0.1184000E+00
        -11   -1    0    0    0    0  0.00000000000E+00  0.00000000000E+00  0.45593999997E+02  0.45594000000E+02  0.51100000000E-03 0. -1.
         11   -1    0    0    0    0 -0.00000000000E+00 -0.00000000000E+00 -0.45593999997E+02  0.45594000000E+02  0.51100000000E-03 0.  1.
         23    2    1    2    0    0  0.71054273576E-14  0.88817841970E-15  0.35527136788E-14  0.91188000000E+02  0.91188000000E+02 0.  0.
    9900012    2    3    3    0    0 -0.34038052417E+02  0.62613893282E+01 -0.26188339834E+02  0.47787272449E+02  0.20000006405E+02 0.  0.
         12    1    3    3    0    0  0.34038052417E+02 -0.62613893282E+01  0.26188339834E+02  0.43400727551E+02  0.00000000000E+00 0. -1.
         11    1    4    4    0    0 -0.15368887315E+01  0.35173870234E+01 -0.52994288025E+01  0.65435452424E+01  0.51100000000E-03 0.  1.
        -11    1    4    4    0    0 -0.79107794176E+01  0.67647839476E+01 -0.83813975551E+01  0.13363777837E+02  0.51100000000E-03 0. -1.
         12    1    4    4    0    0 -0.24590384268E+02 -0.40207816428E+01 -0.12507513476E+02  0.27879949369E+02  0.00000000000E+00 0. -1.
</event>
<event>
 8    1  0.3776180E-010  0.9118800E+02  0.7816164E-02  0.1184000E+00
        -11   -1    0    0    0    0  0.00000000000E+00  0.00000000000E+00  0.45593999997E+02  0.45594000000E+02  0.51100000000E-03 0. -1.
         11   -1    0    0    0    0 -0.00000000000E+00 -0.00000000000E+00 -0.45593999997E+02  0.45594000000E+02  0.51100000000E-03 0.  1.
         23    2    1    2    0    0  0.00000000000E+00  0.00000000000E+00  0.00000000000E+00  0.91188000000E+02  0.91188000000E+02 0.  0.
    9900012    2    3    3    0    0  0.14259219096E+02  0.14789334887E+02 -0.38230532004E+02  0.47787270364E+02  0.19999996896E+02 0.  0.
         12    1    3    3    0    0 -0.14259219096E+02 -0.14789334887E+02  0.38230532004E+02  0.43400729636E+02  0.00000000000E+00 0. -1.
         11    1    4    4    0    0  0.58663717495E+01 -0.16325091657E+01 -0.12458054650E+02  0.13866597621E+02  0.51100000000E-03 0. -1.
        -11    1    4    4    0    0 -0.31333906802E+00 -0.14901204136E+01 -0.46354784231E+01  0.48791700822E+01  0.51100000000E-03 0.  1.
        -12    1    4    4    0    0  0.87061864144E+01  0.17911964466E+02 -0.21136998932E+02  0.29041502660E+02  0.00000000000E+00 0.  1.
</event>
<event>
 8    1  0.3776180E-010  0.9118800E+02  0.7816164E-02  0.1184000E+00
        -11   -1    0    0    0    0  0.00000000000E+00  0.00000000000E+00  0.45593999997E+02  0.45594000000E+02  0.51100000000E-03 0.  1.
         11   -1    0    0    0    0 -0.00000000000E+00 -0.00000000000E+00 -0.45593999997E+02  0.45594000000E+02  0.51100000000E-03 0. -1.
         23    2    1    2    0    0 -0.35527136788E-14 -0.71054273576E-14 -0.35527136788E-14  0.91188000000E+02  0.91188000000E+02 0.  0.
    9900012    2    3    3    0    0 -0.17915230247E+02 -0.31149640772E+02 -0.24338598224E+02  0.47787274677E+02  0.20000016563E+02 0.  0.
         12    1    3    3    0    0  0.17915230247E+02  0.31149640772E+02  0.24338598224E+02  0.43400725323E+02  0.00000000000E+00 0. -1.
         11    1    4    4    0    0 -0.48288626721E+01 -0.10438442470E+02 -0.16903039272E+02  0.20444846118E+02  0.51100000000E-03 0. -1.
        -11    1    4    4    0    0 -0.32835966134E+01 -0.39415886347E+01 -0.59571635455E+01  0.78616744688E+01  0.51100000000E-03 0.  1.
        -12    1    4    4    0    0 -0.98027709617E+01 -0.16769609668E+02 -0.14783954060E+01  0.19480754090E+02  0.00000000000E+00 0.  1.
</event>
<event>
 8    1  0.3776180E-010  0.9118800E+02  0.7816164E-02  0.1184000E+00
        -11   -1    0    0    0    0  0.00000000000E+00  0.00000000000E+00  0.45593999997E+02  0.45594000000E+02  0.51100000000E-03 0. -1.
         11   -1    0    0    0    0 -0.00000000000E+00 -0.00000000000E+00 -0.45593999997E+02  0.45594000000E+02  0.51100000000E-03 0.  1.
         23    2    1    2    0    0  0.88817841970E-15 -0.35527136788E-14 -0.71054273576E-14  0.91188000000E+02  0.91188000000E+02 0.  0.
    9900012    2    3    3    0    0 -0.59797295434E+01  0.19663899556E+02  0.38225607404E+02  0.47787272212E+02  0.20000005321E+02 0.  0.
        -12    1    3    3    0    0  0.59797295434E+01 -0.19663899556E+02 -0.38225607404E+02  0.43400727788E+02  0.00000000000E+00 0.  1.
         11    1    4    4    0    0 -0.50219422073E+01  0.14042079110E+02  0.15122902006E+02  0.21239163228E+02  0.51100000000E-03 0. -1.
        -11    1    4    4    0    0 -0.10505546084E+01  0.83196506210E+01  0.94632913376E+01  0.12644134397E+02  0.51100000000E-03 0.  1.
        -12    1    4    4    0    0  0.92767272363E-01 -0.26978301747E+01  0.13639414060E+02  0.13903974587E+02  0.00000000000E+00 0.  1.
</event>
<event>
 8    1  0.3776180E-010  0.9118800E+02  0.7816164E-02  0.1184000E+00
        -11   -1    0    0    0    0  0.00000000000E+00  0.00000000000E+00  0.45593999997E+02  0.45594000000E+02  0.51100000000E-03 0. -1.
         11   -1    0    0    0    0 -0.00000000000E+00 -0.00000000000E+00 -0.45593999997E+02  0.45594000000E+02  0.51100000000E-03 0.  1.
         23    2    1    2    0    0  0.00000000000E+00  0.00000000000E+00  0.00000000000E+00  0.91188000000E+02  0.91188000000E+02 0.  0.
    9900012    2    3    3    0    0  0.21045046862E+02 -0.12630836795E+02  0.35793734400E+02  0.47787268925E+02  0.19999990335E+02 0.  0.
        -12    1    3    3    0    0 -0.21045046862E+02  0.12630836795E+02 -0.35793734400E+02  0.43400731075E+02  0.00000000000E+00 0.  1.
         11    1    4    4    0    0  0.41691821115E+01 -0.50301974821E+01  0.20321031968E+02  0.21345475087E+02  0.51100000000E-03 0. -1.
        -11    1    4    4    0    0 -0.55851721861E+00 -0.29826234446E+01  0.41698641813E+01  0.51571069067E+01  0.51100000000E-03 0.  1.
        -12    1    4    4    0    0  0.17434381969E+02 -0.46180158679E+01  0.11302838251E+02  0.21284686931E+02  0.00000000000E+00 0.  1.
</event>
<event>
 8    1  0.3776180E-010  0.9118800E+02  0.7816164E-02  0.1184000E+00
        -11   -1    0    0    0    0  0.00000000000E+00  0.00000000000E+00  0.45593999997E+02  0.45594000000E+02  0.51100000000E-03 0. -1.
         11   -1    0    0    0    0 -0.00000000000E+00 -0.00000000000E+00 -0.45593999997E+02  0.45594000000E+02  0.51100000000E-03 0.  1.
         23    2    1    2    0    0  0.66613381478E-15  0.55511151231E-15  0.00000000000E+00  0.91188000000E+02  0.91188000000E+02 0.  0.
    9900012    2    3    3    0    0  0.13465761050E+01  0.61500906173E+00 -0.43375477448E+02  0.47787267895E+02  0.19999985642E+02 0.  0.
         12    1    3    3    0    0 -0.13465761050E+01 -0.61500906173E+00  0.43375477448E+02  0.43400732105E+02  0.00000000000E+00 0. -1.
         11    1    4    4    0    0  0.63180600642E+00  0.43308637320E+01 -0.68633478392E+01  0.81400923409E+01  0.51100000000E-03 0. -1.
        -11    1    4    4    0    0  0.32975112704E+01  0.39868622488E+01 -0.25166096319E+02  0.25692431869E+02  0.51100000000E-03 0.  1.
         12    1    4    4    0    0 -0.25827411719E+01 -0.77027169190E+01 -0.11346033290E+02  0.13954743685E+02  0.00000000000E+00 0. -1.
</event>
<event>
 8    1  0.3776180E-010  0.9118800E+02  0.7816164E-02  0.1184000E+00
        -11   -1    0    0    0    0  0.00000000000E+00  0.00000000000E+00  0.45593999997E+02  0.45594000000E+02  0.51100000000E-03 0. -1.
         11   -1    0    0    0    0 -0.00000000000E+00 -0.00000000000E+00 -0.45593999997E+02  0.45594000000E+02  0.51100000000E-03 0.  1.
         23    2    1    2    0    0  0.00000000000E+00  0.00000000000E+00 -0.35527136788E-14  0.91188000000E+02  0.91188000000E+02 0.  0.
    9900012    2    3    3    0    0 -0.24451251806E+02 -0.16989761968E+02 -0.31577021339E+02  0.47787262642E+02  0.19999961688E+02 0.  0.
         12    1    3    3    0    0  0.24451251806E+02  0.16989761968E+02  0.31577021339E+02  0.43400737358E+02  0.00000000000E+00 0. -1.
         11    1    4    4    0    0 -0.20699983903E+00  0.85732816235E+00 -0.11335840455E+01  0.14362707129E+01  0.51100000000E-03 0. -1.
        -11    1    4    4    0    0 -0.21457465494E+02 -0.89066489513E+01 -0.28529964218E+02  0.36792799289E+02  0.51100000000E-03 0.  1.
        -12    1    4    4    0    0 -0.27867864727E+01 -0.89404411794E+01 -0.19134730748E+01  0.95581926395E+01  0.00000000000E+00 0.  1.
</event>
<event>
 8    1  0.3776180E-010  0.9118800E+02  0.7816164E-02  0.1184000E+00
        -11   -1    0    0    0    0  0.00000000000E+00  0.00000000000E+00  0.45593999997E+02  0.45594000000E+02  0.51100000000E-03 0. -1.
         11   -1    0    0    0    0 -0.00000000000E+00 -0.00000000000E+00 -0.45593999997E+02  0.45594000000E+02  0.51100000000E-03 0.  1.
         23    2    1    2    0    0  0.00000000000E+00  0.00000000000E+00  0.71054273576E-14  0.91188000000E+02  0.91188000000E+02 0.  0.
    9900012    2    3    3    0    0  0.71339182391E+01 -0.23353451164E+02 -0.35879617475E+02  0.47787269351E+02  0.19999992279E+02 0.  0.
         12    1    3    3    0    0 -0.71339182391E+01  0.23353451164E+02  0.35879617475E+02  0.43400730649E+02  0.00000000000E+00 0. -1.
         11    1    4    4    0    0 -0.14605901825E+01 -0.22320462835E+01  0.87714311471E+00  0.28079769582E+01  0.51100000000E-03 0. -1.
        -11    1    4    4    0    0 -0.27635385169E+01 -0.50704435799E+01 -0.12379731913E+02  0.13660318654E+02  0.51100000000E-03 0.  1.
        -12    1    4    4    0    0  0.11358046939E+02 -0.16050961301E+02 -0.24377028676E+02  0.31318973738E+02  0.00000000000E+00 0.  1.
</event>
<event>
 8    1  0.3776180E-010  0.9118800E+02  0.7816164E-02  0.1184000E+00
        -11   -1    0    0    0    0  0.00000000000E+00  0.00000000000E+00  0.45593999997E+02  0.45594000000E+02  0.51100000000E-03 0. -1.
         11   -1    0    0    0    0 -0.00000000000E+00 -0.00000000000E+00 -0.45593999997E+02  0.45594000000E+02  0.51100000000E-03 0.  1.
         23    2    1    2    0    0 -0.83266726847E-16 -0.88817841970E-15  0.71054273576E-14  0.91188000000E+02  0.91188000000E+02 0.  0.
    9900012    2    3    3    0    0 -0.16055020913E+00  0.70964004756E+01 -0.42816349481E+02  0.47787257392E+02  0.19999937752E+02 0.  0.
         12    1    3    3    0    0  0.16055020913E+00 -0.70964004756E+01  0.42816349481E+02  0.43400742608E+02  0.00000000000E+00 0. -1.
         11    1    4    4    0    0 -0.24552213525E+01  0.30213627442E+01 -0.31911854487E+01  0.50339258587E+01  0.51100000000E-03 0.  1.
        -11    1    4    4    0    0 -0.60228754031E+01  0.35549660155E+01 -0.24564148677E+02  0.25540364366E+02  0.51100000000E-03 0. -1.
        -12    1    4    4    0    0  0.83175465465E+01  0.52007171586E+00 -0.15061015355E+02  0.17212967167E+02  0.00000000000E+00 0.  1.
</event>
<event>
 8    1  0.3776180E-010  0.9118800E+02  0.7816164E-02  0.1184000E+00
        -11   -1    0    0    0    0  0.00000000000E+00  0.00000000000E+00  0.45593999997E+02  0.45594000000E+02  0.51100000000E-03 0. -1.
         11   -1    0    0    0    0 -0.00000000000E+00 -0.00000000000E+00 -0.45593999997E+02  0.45594000000E+02  0.51100000000E-03 0.  1.
         23    2    1    2    0    0 -0.35527136788E-14  0.71054273576E-14  0.00000000000E+00  0.91188000000E+02  0.91188000000E+02 0.  0.
    9900012    2    3    3    0    0  0.16237741509E+02 -0.38168139903E+02 -0.12773161891E+02  0.47787253259E+02  0.19999918909E+02 0.  0.
         12    1    3    3    0    0 -0.16237741509E+02  0.38168139903E+02  0.12773161891E+02  0.43400746741E+02  0.00000000000E+00 0. -1.
         11    1    4    4    0    0  0.68670707731E+01 -0.22718773656E+02 -0.83627254366E+01  0.25164151375E+02  0.51100000000E-03 0. -1.
        -11    1    4    4    0    0  0.49269315217E+01 -0.14727701743E+02 -0.74162719676E+01  0.17209908280E+02  0.51100000000E-03 0.  1.
         12    1    4    4    0    0  0.44437392137E+01 -0.72166450381E+00  0.30058355130E+01  0.54131936033E+01  0.00000000000E+00 0. -1.
</event>
<event>
 8    1  0.3776180E-010  0.9118800E+02  0.7816164E-02  0.1184000E+00
        -11   -1    0    0    0    0  0.00000000000E+00  0.00000000000E+00  0.45593999997E+02  0.45594000000E+02  0.51100000000E-03 0.  1.
         11   -1    0    0    0    0 -0.00000000000E+00 -0.00000000000E+00 -0.45593999997E+02  0.45594000000E+02  0.51100000000E-03 0. -1.
         23    2    1    2    0    0  0.00000000000E+00 -0.71054273576E-14  0.00000000000E+00  0.91188000000E+02  0.91188000000E+02 0.  0.
    9900012    2    3    3    0    0  0.50164798073E+01 -0.30227251025E+02  0.30737130648E+02  0.47787274491E+02  0.20000015716E+02 0.  0.
        -12    1    3    3    0    0 -0.50164798073E+01  0.30227251025E+02 -0.30737130648E+02  0.43400725509E+02  0.00000000000E+00 0.  1.
         11    1    4    4    0    0  0.35047799475E+01 -0.22306698301E+01 -0.77471229370E-02  0.41544470932E+01  0.51100000000E-03 0. -1.
        -11    1    4    4    0    0 -0.42445563578E+01 -0.10633984062E+02  0.61970506396E+01  0.13019266976E+02  0.51100000000E-03 0.  1.
         12    1    4    4    0    0  0.57562562176E+01 -0.17362597133E+02  0.24547827132E+02  0.30613560422E+02  0.00000000000E+00 0. -1.
</event>
<event>
 8    1  0.3776180E-010  0.9118800E+02  0.7816164E-02  0.1184000E+00
        -11   -1    0    0    0    0  0.00000000000E+00  0.00000000000E+00  0.45593999997E+02  0.45594000000E+02  0.51100000000E-03 0. -1.
         11   -1    0    0    0    0 -0.00000000000E+00 -0.00000000000E+00 -0.45593999997E+02  0.45594000000E+02  0.51100000000E-03 0.  1.
         23    2    1    2    0    0  0.00000000000E+00 -0.17763568394E-14  0.00000000000E+00  0.91188000000E+02  0.91188000000E+02 0.  0.
    9900012    2    3    3    0    0 -0.16328581480E+02  0.13616236185E+02 -0.37836479860E+02  0.47787266490E+02  0.19999979236E+02 0.  0.
         12    1    3    3    0    0  0.16328581480E+02 -0.13616236185E+02  0.37836479860E+02  0.43400733510E+02  0.00000000000E+00 0. -1.
         11    1    4    4    0    0 -0.28392066208E+01 -0.41152403758E+01 -0.92630254736E+01  0.10526154985E+02  0.51100000000E-03 0. -1.
        -11    1    4    4    0    0 -0.60791770940E+00 -0.17778492056E+00  0.47039248746E+00  0.78894915727E+00  0.51100000000E-03 0.  1.
        -12    1    4    4    0    0 -0.12881457149E+02  0.17909261481E+02 -0.29043846874E+02  0.36472162348E+02  0.00000000000E+00 0.  1.
</event>
<event>
 8    1  0.3776180E-010  0.9118800E+02  0.7816164E-02  0.1184000E+00
        -11   -1    0    0    0    0  0.00000000000E+00  0.00000000000E+00  0.45593999997E+02  0.45594000000E+02  0.51100000000E-03 0. -1.
         11   -1    0    0    0    0 -0.00000000000E+00 -0.00000000000E+00 -0.45593999997E+02  0.45594000000E+02  0.51100000000E-03 0.  1.
         23    2    1    2    0    0 -0.71054273576E-14  0.22204460493E-15  0.00000000000E+00  0.91188000000E+02  0.91188000000E+02 0.  0.
    9900012    2    3    3    0    0  0.41892613920E+02 -0.16572544602E+01  0.11219890604E+02  0.47787267995E+02  0.19999986096E+02 0.  0.
        -12    1    3    3    0    0 -0.41892613920E+02  0.16572544602E+01 -0.11219890604E+02  0.43400732005E+02  0.00000000000E+00 0.  1.
         11    1    4    4    0    0  0.27692223195E+00  0.16210428796E+01  0.21351052134E+01  0.26950214236E+01  0.51100000000E-03 0. -1.
        -11    1    4    4    0    0  0.24062785468E+01  0.32398907266E+00  0.49346056478E+01  0.54995889414E+01  0.51100000000E-03 0.  1.
         12    1    4    4    0    0  0.39209413142E+02 -0.36022864125E+01  0.41501797427E+01  0.39592657630E+02  0.00000000000E+00 0. -1.
</event>
<event>
 8    1  0.3776180E-010  0.9118800E+02  0.7816164E-02  0.1184000E+00
        -11   -1    0    0    0    0  0.00000000000E+00  0.00000000000E+00  0.45593999997E+02  0.45594000000E+02  0.51100000000E-03 0. -1.
         11   -1    0    0    0    0 -0.00000000000E+00 -0.00000000000E+00 -0.45593999997E+02  0.45594000000E+02  0.51100000000E-03 0.  1.
         23    2    1    2    0    0  0.71054273576E-14  0.17763568394E-14  0.35527136788E-14  0.91188000000E+02  0.91188000000E+02 0.  0.
    9900012    2    3    3    0    0  0.30640910346E+02  0.15567373606E+02  0.26503103458E+02  0.47787274191E+02  0.20000014349E+02 0.  0.
        -12    1    3    3    0    0 -0.30640910346E+02 -0.15567373606E+02 -0.26503103458E+02  0.43400725809E+02  0.00000000000E+00 0.  1.
         11    1    4    4    0    0  0.24314654516E+02  0.11358419344E+02  0.17902157402E+02  0.32259934192E+02  0.51100000000E-03 0. -1.
        -11    1    4    4    0    0  0.57886972440E+01 -0.16473816326E+01  0.73764888315E+01  0.95202662657E+01  0.51100000000E-03 0.  1.
         12    1    4    4    0    0  0.53755858577E+00  0.58563358945E+01  0.12244572253E+01  0.60070737334E+01  0.00000000000E+00 0. -1.
</event>
<event>
 8    1  0.3776180E-010  0.9118800E+02  0.7816164E-02  0.1184000E+00
        -11   -1    0    0    0    0  0.00000000000E+00  0.00000000000E+00  0.45593999997E+02  0.45594000000E+02  0.51100000000E-03 0.  1.
         11   -1    0    0    0    0 -0.00000000000E+00 -0.00000000000E+00 -0.45593999997E+02  0.45594000000E+02  0.51100000000E-03 0. -1.
         23    2    1    2    0    0  0.71054273576E-14 -0.13322676296E-14  0.00000000000E+00  0.91188000000E+02  0.91188000000E+02 0.  0.
    9900012    2    3    3    0    0 -0.39741162896E+02 -0.19437636747E+01 -0.17334501547E+02  0.47787272017E+02  0.20000004436E+02 0.  0.
         12    1    3    3    0    0  0.39741162896E+02  0.19437636747E+01  0.17334501547E+02  0.43400727983E+02  0.00000000000E+00 0. -1.
         11    1    4    4    0    0 -0.80072555904E+01  0.68631807885E+01 -0.54913466345E+01  0.11890091705E+02  0.51100000000E-03 0. -1.
        -11    1    4    4    0    0 -0.43761161585E+01 -0.17294559829E+01  0.10739014358E+01  0.48264557581E+01  0.51100000000E-03 0.  1.
         12    1    4    4    0    0 -0.27357791147E+02 -0.70774884803E+01 -0.12917056348E+02  0.31070724554E+02  0.00000000000E+00 0. -1.
</event>
<event>
 8    1  0.3776180E-010  0.9118800E+02  0.7816164E-02  0.1184000E+00
        -11   -1    0    0    0    0  0.00000000000E+00  0.00000000000E+00  0.45593999997E+02  0.45594000000E+02  0.51100000000E-03 0. -1.
         11   -1    0    0    0    0 -0.00000000000E+00 -0.00000000000E+00 -0.45593999997E+02  0.45594000000E+02  0.51100000000E-03 0.  1.
         23    2    1    2    0    0 -0.71054273576E-14 -0.17763568394E-14  0.35527136788E-14  0.91188000000E+02  0.91188000000E+02 0.  0.
    9900012    2    3    3    0    0 -0.37431659748E+02 -0.82792168015E+01 -0.20345723207E+02  0.47787273795E+02  0.20000012539E+02 0.  0.
         12    1    3    3    0    0  0.37431659748E+02  0.82792168015E+01  0.20345723207E+02  0.43400726205E+02  0.00000000000E+00 0. -1.
         11    1    4    4    0    0 -0.22230999367E+02 -0.70593379141E+01 -0.10039187264E+02  0.25393638295E+02  0.51100000000E-03 0. -1.
        -11    1    4    4    0    0 -0.93781919893E+01 -0.61481324832E+01 -0.95477142041E+01  0.14727826208E+02  0.51100000000E-03 0.  1.
        -12    1    4    4    0    0 -0.58224683912E+01  0.49282535959E+01 -0.75882173952E+00  0.76658092922E+01  0.00000000000E+00 0.  1.
</event>
<event>
 8    1  0.3776180E-010  0.9118800E+02  0.7816164E-02  0.1184000E+00
        -11   -1    0    0    0    0  0.00000000000E+00  0.00000000000E+00  0.45593999997E+02  0.45594000000E+02  0.51100000000E-03 0. -1.
         11   -1    0    0    0    0 -0.00000000000E+00 -0.00000000000E+00 -0.45593999997E+02  0.45594000000E+02  0.51100000000E-03 0.  1.
         23    2    1    2    0    0  0.00000000000E+00  0.00000000000E+00  0.00000000000E+00  0.91188000000E+02  0.91188000000E+02 0.  0.
    9900012    2    3    3    0    0  0.55667714820E+01  0.22979868577E+02  0.36394490997E+02  0.47787282501E+02  0.20000052234E+02 0.  0.
        -12    1    3    3    0    0 -0.55667714820E+01 -0.22979868577E+02 -0.36394490997E+02  0.43400717499E+02  0.00000000000E+00 0.  1.
         11    1    4    4    0    0  0.23106216691E+01  0.29817184601E+01  0.52729410917E+01  0.64833267302E+01  0.51100000000E-03 0. -1.
        -11    1    4    4    0    0 -0.90293221613E+00  0.18616683971E+02  0.13161977790E+02  0.22817402750E+02  0.51100000000E-03 0.  1.
         12    1    4    4    0    0  0.41590820290E+01  0.13814661462E+01  0.17959572114E+02  0.18486553020E+02  0.00000000000E+00 0. -1.
</event>
<event>
 8    1  0.3776180E-010  0.9118800E+02  0.7816164E-02  0.1184000E+00
        -11   -1    0    0    0    0  0.00000000000E+00  0.00000000000E+00  0.45593999997E+02  0.45594000000E+02  0.51100000000E-03 0. -1.
         11   -1    0    0    0    0 -0.00000000000E+00 -0.00000000000E+00 -0.45593999997E+02  0.45594000000E+02  0.51100000000E-03 0.  1.
         23    2    1    2    0    0  0.00000000000E+00 -0.71054273576E-14  0.35527136788E-14  0.91188000000E+02  0.91188000000E+02 0.  0.
    9900012    2    3    3    0    0 -0.10061486183E+02  0.33898684813E+02 -0.25164838153E+02  0.47787269413E+02  0.19999992560E+02 0.  0.
         12    1    3    3    0    0  0.10061486183E+02 -0.33898684813E+02  0.25164838153E+02  0.43400730587E+02  0.00000000000E+00 0. -1.
         11    1    4    4    0    0  0.78228682282E+00  0.54226894182E+00  0.13232359835E+01  0.16300251555E+01  0.51100000000E-03 0. -1.
        -11    1    4    4    0    0 -0.15597523162E+01  0.87709360757E+01 -0.15065131774E+02  0.17502009672E+02  0.51100000000E-03 0.  1.
        -12    1    4    4    0    0 -0.92840206891E+01  0.24585479795E+02 -0.11422942363E+02  0.28655234586E+02  0.00000000000E+00 0.  1.
</event>
<event>
 8    1  0.3776180E-010  0.9118800E+02  0.7816164E-02  0.1184000E+00
        -11   -1    0    0    0    0  0.00000000000E+00  0.00000000000E+00  0.45593999997E+02  0.45594000000E+02  0.51100000000E-03 0. -1.
         11   -1    0    0    0    0 -0.00000000000E+00 -0.00000000000E+00 -0.45593999997E+02  0.45594000000E+02  0.51100000000E-03 0.  1.
         23    2    1    2    0    0  0.00000000000E+00  0.35527136788E-14  0.00000000000E+00  0.91188000000E+02  0.91188000000E+02 0.  0.
    9900012    2    3    3    0    0 -0.26739014758E+02  0.22284260598E+02 -0.25924109853E+02  0.47787278205E+02  0.20000032650E+02 0.  0.
         12    1    3    3    0    0  0.26739014758E+02 -0.22284260598E+02  0.25924109853E+02  0.43400721795E+02  0.00000000000E+00 0. -1.
         11    1    4    4    0    0 -0.97971931743E+01  0.11906221544E+02 -0.80399223472E+01  0.17389176437E+02  0.51100000000E-03 0. -1.
        -11    1    4    4    0    0 -0.53178677304E+01  0.99843733341E+01 -0.33795934150E+01  0.11806315259E+02  0.51100000000E-03 0.  1.
        -12    1    4    4    0    0 -0.11623953853E+02  0.39366571979E+00 -0.14504594091E+02  0.18591786510E+02  0.00000000000E+00 0.  1.
</event>
<event>
 8    1  0.3776180E-010  0.9118800E+02  0.7816164E-02  0.1184000E+00
        -11   -1    0    0    0    0  0.00000000000E+00  0.00000000000E+00  0.45593999997E+02  0.45594000000E+02  0.51100000000E-03 0. -1.
         11   -1    0    0    0    0 -0.00000000000E+00 -0.00000000000E+00 -0.45593999997E+02  0.45594000000E+02  0.51100000000E-03 0.  1.
         23    2    1    2    0    0  0.35527136788E-14  0.00000000000E+00  0.00000000000E+00  0.91188000000E+02  0.91188000000E+02 0.  0.
    9900012    2    3    3    0    0  0.13768182053E+02 -0.22493571081E+02 -0.34468821067E+02  0.47787271863E+02  0.20000003734E+02 0.  0.
         12    1    3    3    0    0 -0.13768182053E+02  0.22493571081E+02  0.34468821067E+02  0.43400728137E+02  0.00000000000E+00 0. -1.
         11    1    4    4    0    0  0.73859039960E+01 -0.13530536011E+01 -0.32195848921E+01  0.81699485325E+01  0.51100000000E-03 0. -1.
        -11    1    4    4    0    0  0.86142949921E+01 -0.11427451054E+02 -0.16873366131E+02  0.22124719222E+02  0.51100000000E-03 0.  1.
        -12    1    4    4    0    0 -0.22320169349E+01 -0.97130664256E+01 -0.14375870044E+02  0.17492604109E+02  0.00000000000E+00 0.  1.
</event>
<event>
 8    1  0.3776180E-010  0.9118800E+02  0.7816164E-02  0.1184000E+00
        -11   -1    0    0    0    0  0.00000000000E+00  0.00000000000E+00  0.45593999997E+02  0.45594000000E+02  0.51100000000E-03 0. -1.
         11   -1    0    0    0    0 -0.00000000000E+00 -0.00000000000E+00 -0.45593999997E+02  0.45594000000E+02  0.51100000000E-03 0.  1.
         23    2    1    2    0    0 -0.33306690739E-15 -0.44408920985E-15  0.00000000000E+00  0.91188000000E+02  0.91188000000E+02 0.  0.
    9900012    2    3    3    0    0  0.60053020404E+00 -0.92418804220E+00 -0.43386731335E+02  0.47787271711E+02  0.20000003041E+02 0.  0.
         12    1    3    3    0    0 -0.60053020404E+00  0.92418804220E+00  0.43386731335E+02  0.43400728289E+02  0.00000000000E+00 0. -1.
         11    1    4    4    0    0 -0.50348393357E+01  0.34937450016E+01 -0.10644595101E+02  0.12282640856E+02  0.51100000000E-03 0. -1.
        -11    1    4    4    0    0 -0.30302016026E+01 -0.33726602418E+01 -0.15917704293E+02  0.16550838923E+02  0.51100000000E-03 0.  1.
         12    1    4    4    0    0  0.86655711424E+01 -0.10452728019E+01 -0.16824431941E+02  0.18953791932E+02  0.00000000000E+00 0. -1.
</event>
<event>
 8    1  0.3776180E-010  0.9118800E+02  0.7816164E-02  0.1184000E+00
        -11   -1    0    0    0    0  0.00000000000E+00  0.00000000000E+00  0.45593999997E+02  0.45594000000E+02  0.51100000000E-03 0. -1.
         11   -1    0    0    0    0 -0.00000000000E+00 -0.00000000000E+00 -0.45593999997E+02  0.45594000000E+02  0.51100000000E-03 0.  1.
         23    2    1    2    0    0  0.00000000000E+00  0.88817841970E-15  0.00000000000E+00  0.91188000000E+02  0.91188000000E+02 0.  0.
    9900012    2    3    3    0    0  0.27010835535E+02  0.61894803721E+01 -0.33402509152E+02  0.47787279715E+02  0.20000039534E+02 0.  0.
         12    1    3    3    0    0 -0.27010835535E+02 -0.61894803721E+01  0.33402509152E+02  0.43400720285E+02  0.00000000000E+00 0. -1.
         11    1    4    4    0    0 -0.16319208725E+00 -0.12338694590E+01  0.15787694460E+01  0.20103678081E+01  0.51100000000E-03 0.  1.
        -11    1    4    4    0    0  0.35348972215E+01 -0.10873702977E+01 -0.16826979013E+01  0.40631693318E+01  0.51100000000E-03 0. -1.
        -12    1    4    4    0    0  0.23639130401E+02  0.85107201288E+01 -0.33298580697E+02  0.41713742575E+02  0.00000000000E+00 0.  1.
</event>
<event>
 8    1  0.3776180E-010  0.9118800E+02  0.7816164E-02  0.1184000E+00
        -11   -1    0    0    0    0  0.00000000000E+00  0.00000000000E+00  0.45593999997E+02  0.45594000000E+02  0.51100000000E-03 0. -1.
         11   -1    0    0    0    0 -0.00000000000E+00 -0.00000000000E+00 -0.45593999997E+02  0.45594000000E+02  0.51100000000E-03 0.  1.
         23    2    1    2    0    0  0.00000000000E+00 -0.13322676296E-14 -0.35527136788E-14  0.91188000000E+02  0.91188000000E+02 0.  0.
    9900012    2    3    3    0    0  0.39296074110E+02  0.90618366173E+00 -0.18401647618E+02  0.47787271384E+02  0.20000001549E+02 0.  0.
         12    1    3    3    0    0 -0.39296074110E+02 -0.90618366173E+00  0.18401647618E+02  0.43400728616E+02  0.00000000000E+00 0. -1.
         11    1    4    4    0    0 -0.20919321704E+00 -0.11901092381E+01  0.82036130013E+00  0.14605186492E+01  0.51100000000E-03 0. -1.
        -11    1    4    4    0    0  0.77082103370E+01 -0.52304098008E+01 -0.24188183915E+01  0.96241558568E+01  0.51100000000E-03 0.  1.
        -12    1    4    4    0    0  0.31797056990E+02  0.73267027007E+01 -0.16803190527E+02  0.36702596878E+02  0.00000000000E+00 0.  1.
</event>
<event>
 8    1  0.3776180E-010  0.9118800E+02  0.7816164E-02  0.1184000E+00
        -11   -1    0    0    0    0  0.00000000000E+00  0.00000000000E+00  0.45593999997E+02  0.45594000000E+02  0.51100000000E-03 0. -1.
         11   -1    0    0    0    0 -0.00000000000E+00 -0.00000000000E+00 -0.45593999997E+02  0.45594000000E+02  0.51100000000E-03 0.  1.
         23    2    1    2    0    0  0.17763568394E-14 -0.17763568394E-14  0.00000000000E+00  0.91188000000E+02  0.91188000000E+02 0.  0.
    9900012    2    3    3    0    0  0.10393672452E+02 -0.13960808928E+02 -0.39757899267E+02  0.47787272275E+02  0.20000005611E+02 0.  0.
         12    1    3    3    0    0 -0.10393672452E+02  0.13960808928E+02  0.39757899267E+02  0.43400727725E+02  0.00000000000E+00 0. -1.
         11    1    4    4    0    0  0.48540518223E+01 -0.37261441542E+01 -0.13524058154E+02  0.14844060043E+02  0.51100000000E-03 0. -1.
        -11    1    4    4    0    0  0.95355820952E+01 -0.11406848589E+01 -0.16143091271E+02  0.18783713261E+02  0.51100000000E-03 0.  1.
         12    1    4    4    0    0 -0.39959614658E+01 -0.90939799146E+01 -0.10090749842E+02  0.14159498971E+02  0.00000000000E+00 0. -1.
</event>
<event>
 8    1  0.3776180E-010  0.9118800E+02  0.7816164E-02  0.1184000E+00
        -11   -1    0    0    0    0  0.00000000000E+00  0.00000000000E+00  0.45593999997E+02  0.45594000000E+02  0.51100000000E-03 0. -1.
         11   -1    0    0    0    0 -0.00000000000E+00 -0.00000000000E+00 -0.45593999997E+02  0.45594000000E+02  0.51100000000E-03 0.  1.
         23    2    1    2    0    0 -0.35527136788E-14  0.00000000000E+00  0.71054273576E-14  0.91188000000E+02  0.91188000000E+02 0.  0.
    9900012    2    3    3    0    0 -0.16156118772E+02 -0.10746620890E+02  0.38821557215E+02  0.47787270295E+02  0.19999996584E+02 0.  0.
        -12    1    3    3    0    0  0.16156118772E+02  0.10746620890E+02 -0.38821557215E+02  0.43400729705E+02  0.00000000000E+00 0.  1.
         11    1    4    4    0    0 -0.78968068756E+01 -0.68063707547E+01  0.93150012211E+01  0.13980539678E+02  0.51100000000E-03 0. -1.
        -11    1    4    4    0    0 -0.50890488218E+01  0.34306827011E+01  0.46870553395E+01  0.77224665569E+01  0.51100000000E-03 0.  1.
         12    1    4    4    0    0 -0.31702630746E+01 -0.73709328364E+01  0.24819500654E+02  0.26084264060E+02  0.00000000000E+00 0. -1.
</event>
<event>
 8    1  0.3776180E-010  0.9118800E+02  0.7816164E-02  0.1184000E+00
        -11   -1    0    0    0    0  0.00000000000E+00  0.00000000000E+00  0.45593999997E+02  0.45594000000E+02  0.51100000000E-03 0. -1.
         11   -1    0    0    0    0 -0.00000000000E+00 -0.00000000000E+00 -0.45593999997E+02  0.45594000000E+02  0.51100000000E-03 0.  1.
         23    2    1    2    0    0  0.00000000000E+00  0.00000000000E+00  0.00000000000E+00  0.91188000000E+02  0.91188000000E+02 0.  0.
    9900012    2    3    3    0    0  0.20243180660E+02 -0.26759625611E+02 -0.27527425734E+02  0.47787273121E+02  0.20000009468E+02 0.  0.
         12    1    3    3    0    0 -0.20243180660E+02  0.26759625611E+02  0.27527425734E+02  0.43400726879E+02  0.00000000000E+00 0. -1.
         11    1    4    4    0    0  0.35699987123E+01 -0.55787261750E+01  0.38572874552E+00  0.66344452268E+01  0.51100000000E-03 0. -1.
        -11    1    4    4    0    0  0.10061846311E+02 -0.73689476706E+01 -0.46666100527E+01  0.13316132719E+02  0.51100000000E-03 0.  1.
        -12    1    4    4    0    0  0.66113356373E+01 -0.13811951766E+02 -0.23246544427E+02  0.27836695175E+02  0.00000000000E+00 0.  1.
</event>
<event>
 8    1  0.3776180E-010  0.9118800E+02  0.7816164E-02  0.1184000E+00
        -11   -1    0    0    0    0  0.00000000000E+00  0.00000000000E+00  0.45593999997E+02  0.45594000000E+02  0.51100000000E-03 0. -1.
         11   -1    0    0    0    0 -0.00000000000E+00 -0.00000000000E+00 -0.45593999997E+02  0.45594000000E+02  0.51100000000E-03 0.  1.
         23    2    1    2    0    0  0.00000000000E+00  0.35527136788E-14  0.00000000000E+00  0.91188000000E+02  0.91188000000E+02 0.  0.
    9900012    2    3    3    0    0  0.11123526426E+02 -0.28909642541E+02  0.30399407992E+02  0.47787259473E+02  0.19999947240E+02 0.  0.
        -12    1    3    3    0    0 -0.11123526426E+02  0.28909642541E+02 -0.30399407992E+02  0.43400740527E+02  0.00000000000E+00 0.  1.
         11    1    4    4    0    0  0.49139115824E+01 -0.25945039500E+02  0.26815025347E+02  0.37634255491E+02  0.51100000000E-03 0. -1.
        -11    1    4    4    0    0 -0.13585413658E+01 -0.20075930040E+00  0.97407669648E+00  0.16836759222E+01  0.51100000000E-03 0.  1.
        -12    1    4    4    0    0  0.75681562098E+01 -0.27638437407E+01  0.26103059489E+01  0.84693280598E+01  0.00000000000E+00 0.  1.
</event>
<event>
 8    1  0.3776180E-010  0.9118800E+02  0.7816164E-02  0.1184000E+00
        -11   -1    0    0    0    0  0.00000000000E+00  0.00000000000E+00  0.45593999997E+02  0.45594000000E+02  0.51100000000E-03 0. -1.
         11   -1    0    0    0    0 -0.00000000000E+00 -0.00000000000E+00 -0.45593999997E+02  0.45594000000E+02  0.51100000000E-03 0.  1.
         23    2    1    2    0    0 -0.83266726847E-16  0.00000000000E+00  0.00000000000E+00  0.91188000000E+02  0.91188000000E+02 0.  0.
    9900012    2    3    3    0    0  0.30872767385E-01  0.21442118861E+01  0.43347719737E+02  0.47787269543E+02  0.19999993156E+02 0.  0.
        -12    1    3    3    0    0 -0.30872767385E-01 -0.21442118861E+01 -0.43347719737E+02  0.43400730457E+02  0.00000000000E+00 0.  1.
         11    1    4    4    0    0  0.36767301943E+01 -0.11922390320E+01  0.11900770391E+02  0.12512718130E+02  0.51100000000E-03 0. -1.
        -11    1    4    4    0    0 -0.22811762445E+01  0.67578766347E+00 -0.10783099824E+01  0.26121268545E+01  0.51100000000E-03 0.  1.
        -12    1    4    4    0    0 -0.13646811824E+01  0.26606632547E+01  0.32525259329E+02  0.32662424559E+02  0.00000000000E+00 0.  1.
</event>
<event>
 8    1  0.3776180E-010  0.9118800E+02  0.7816164E-02  0.1184000E+00
        -11   -1    0    0    0    0  0.00000000000E+00  0.00000000000E+00  0.45593999997E+02  0.45594000000E+02  0.51100000000E-03 0. -1.
         11   -1    0    0    0    0 -0.00000000000E+00 -0.00000000000E+00 -0.45593999997E+02  0.45594000000E+02  0.51100000000E-03 0.  1.
         23    2    1    2    0    0  0.00000000000E+00  0.00000000000E+00  0.00000000000E+00  0.91188000000E+02  0.91188000000E+02 0.  0.
    9900012    2    3    3    0    0  0.16467575238E+02 -0.19971597850E+02  0.34836446373E+02  0.47787265550E+02  0.19999974948E+02 0.  0.
        -12    1    3    3    0    0 -0.16467575238E+02  0.19971597850E+02 -0.34836446373E+02  0.43400734450E+02  0.00000000000E+00 0.  1.
         11    1    4    4    0    0  0.39665340111E-01 -0.82472139264E+01  0.21377537174E+02  0.22913253954E+02  0.51100000000E-03 0. -1.
        -11    1    4    4    0    0  0.38297815902E+01 -0.32477561513E+01  0.63841498687E+01  0.81223467578E+01  0.51100000000E-03 0.  1.
        -12    1    4    4    0    0  0.12598128308E+02 -0.84766277726E+01  0.70747593307E+01  0.16751664838E+02  0.00000000000E+00 0.  1.
</event>
<event>
 8    1  0.3776180E-010  0.9118800E+02  0.7816164E-02  0.1184000E+00
        -11   -1    0    0    0    0  0.00000000000E+00  0.00000000000E+00  0.45593999997E+02  0.45594000000E+02  0.51100000000E-03 0. -1.
         11   -1    0    0    0    0 -0.00000000000E+00 -0.00000000000E+00 -0.45593999997E+02  0.45594000000E+02  0.51100000000E-03 0.  1.
         23    2    1    2    0    0  0.00000000000E+00  0.35527136788E-14 -0.71054273576E-14  0.91188000000E+02  0.91188000000E+02 0.  0.
    9900012    2    3    3    0    0 -0.20980270391E+02  0.19254402434E+02 -0.32752397511E+02  0.47787270727E+02  0.19999998551E+02 0.  0.
         12    1    3    3    0    0  0.20980270391E+02 -0.19254402434E+02  0.32752397511E+02  0.43400729273E+02  0.00000000000E+00 0. -1.
         11    1    4    4    0    0 -0.89436419615E+01  0.15697031351E+02 -0.23448191179E+02  0.29600729629E+02  0.51100000000E-03 0.  1.
        -11    1    4    4    0    0 -0.94520054548E+01  0.66748311987E+01 -0.71026095867E+01  0.13577217751E+02  0.51100000000E-03 0. -1.
         12    1    4    4    0    0 -0.25846229742E+01 -0.31174601148E+01 -0.22015967451E+01  0.46093233467E+01  0.00000000000E+00 0. -1.
</event>
<event>
 8    1  0.3776180E-010  0.9118800E+02  0.7816164E-02  0.1184000E+00
        -11   -1    0    0    0    0  0.00000000000E+00  0.00000000000E+00  0.45593999997E+02  0.45594000000E+02  0.51100000000E-03 0. -1.
         11   -1    0    0    0    0 -0.00000000000E+00 -0.00000000000E+00 -0.45593999997E+02  0.45594000000E+02  0.51100000000E-03 0.  1.
         23    2    1    2    0    0  0.88817841970E-15  0.35527136788E-14  0.00000000000E+00  0.91188000000E+02  0.91188000000E+02 0.  0.
    9900012    2    3    3    0    0 -0.44707699687E+01 -0.21061080965E+02  0.37683766090E+02  0.47787272561E+02  0.20000006914E+02 0.  0.
        -12    1    3    3    0    0  0.44707699687E+01  0.21061080965E+02 -0.37683766090E+02  0.43400727439E+02  0.00000000000E+00 0.  1.
         11    1    4    4    0    0 -0.13892455406E+01 -0.13737133346E+01  0.81893596526E+01  0.84191866162E+01  0.51100000000E-03 0. -1.
        -11    1    4    4    0    0  0.46206380561E+01 -0.58101010390E+01  0.18846434684E+02  0.20255756483E+02  0.51100000000E-03 0.  1.
         12    1    4    4    0    0 -0.77021624842E+01 -0.13877266592E+02  0.10647971753E+02  0.19112329461E+02  0.00000000000E+00 0. -1.
</event>
<event>
 8    1  0.3776180E-010  0.9118800E+02  0.7816164E-02  0.1184000E+00
        -11   -1    0    0    0    0  0.00000000000E+00  0.00000000000E+00  0.45593999997E+02  0.45594000000E+02  0.51100000000E-03 0. -1.
         11   -1    0    0    0    0 -0.00000000000E+00 -0.00000000000E+00 -0.45593999997E+02  0.45594000000E+02  0.51100000000E-03 0.  1.
         23    2    1    2    0    0  0.00000000000E+00  0.00000000000E+00  0.00000000000E+00  0.91188000000E+02  0.91188000000E+02 0.  0.
    9900012    2    3    3    0    0 -0.30741150170E+02 -0.23882735782E+02 -0.19189062788E+02  0.47787268290E+02  0.19999987444E+02 0.  0.
         12    1    3    3    0    0  0.30741150170E+02  0.23882735782E+02  0.19189062788E+02  0.43400731710E+02  0.00000000000E+00 0. -1.
         11    1    4    4    0    0 -0.10988293583E+02 -0.39085848273E+01 -0.14462815705E+02  0.18579361388E+02  0.51100000000E-03 0.  1.
        -11    1    4    4    0    0  0.48359320870E+00 -0.48630216644E+00  0.12700783803E+00  0.69748364901E+00  0.51100000000E-03 0. -1.
        -12    1    4    4    0    0 -0.20236449797E+02 -0.19487848788E+02 -0.48532549212E+01  0.28510423254E+02  0.00000000000E+00 0.  1.
</event>
<event>
 8    1  0.3776180E-010  0.9118800E+02  0.7816164E-02  0.1184000E+00
        -11   -1    0    0    0    0  0.00000000000E+00  0.00000000000E+00  0.45593999997E+02  0.45594000000E+02  0.51100000000E-03 0. -1.
         11   -1    0    0    0    0 -0.00000000000E+00 -0.00000000000E+00 -0.45593999997E+02  0.45594000000E+02  0.51100000000E-03 0.  1.
         23    2    1    2    0    0  0.00000000000E+00  0.00000000000E+00  0.00000000000E+00  0.91188000000E+02  0.91188000000E+02 0.  0.
    9900012    2    3    3    0    0 -0.32211249322E+02 -0.17615455006E+02  0.23146377519E+02  0.47787266939E+02  0.19999981284E+02 0.  0.
        -12    1    3    3    0    0  0.32211249322E+02  0.17615455006E+02 -0.23146377519E+02  0.43400733061E+02  0.00000000000E+00 0.  1.
         11    1    4    4    0    0 -0.16979229466E+01 -0.33268982765E+00 -0.90152456115E-02  0.17302330449E+01  0.51100000000E-03 0. -1.
        -11    1    4    4    0    0 -0.91977889960E+01 -0.19532296283E+01  0.16467956492E+02  0.18963333559E+02  0.51100000000E-03 0.  1.
        -12    1    4    4    0    0 -0.21315537379E+02 -0.15329535550E+02  0.66874362719E+01  0.27093700335E+02  0.00000000000E+00 0.  1.
</event>
<event>
 8    1  0.3776180E-010  0.9118800E+02  0.7816164E-02  0.1184000E+00
        -11   -1    0    0    0    0  0.00000000000E+00  0.00000000000E+00  0.45593999997E+02  0.45594000000E+02  0.51100000000E-03 0. -1.
         11   -1    0    0    0    0 -0.00000000000E+00 -0.00000000000E+00 -0.45593999997E+02  0.45594000000E+02  0.51100000000E-03 0.  1.
         23    2    1    2    0    0  0.35527136788E-14  0.00000000000E+00  0.00000000000E+00  0.91188000000E+02  0.91188000000E+02 0.  0.
    9900012    2    3    3    0    0 -0.19288726559E+02 -0.90215030411E+01  0.37817718783E+02  0.47787281764E+02  0.20000048876E+02 0.  0.
        -12    1    3    3    0    0  0.19288726559E+02  0.90215030411E+01 -0.37817718783E+02  0.43400718236E+02  0.00000000000E+00 0.  1.
         11    1    4    4    0    0 -0.61395931085E+01 -0.40757824534E+01  0.47149987037E+01  0.87485895539E+01  0.51100000000E-03 0. -1.
        -11    1    4    4    0    0 -0.76274501597E+01  0.44036823165E-01  0.32826326703E+01  0.83039516309E+01  0.51100000000E-03 0.  1.
         12    1    4    4    0    0 -0.55216832910E+01 -0.49897574109E+01  0.29820087409E+02  0.30734740580E+02  0.00000000000E+00 0. -1.
</event>
<event>
 8    1  0.3776180E-010  0.9118800E+02  0.7816164E-02  0.1184000E+00
        -11   -1    0    0    0    0  0.00000000000E+00  0.00000000000E+00  0.45593999997E+02  0.45594000000E+02  0.51100000000E-03 0. -1.
         11   -1    0    0    0    0 -0.00000000000E+00 -0.00000000000E+00 -0.45593999997E+02  0.45594000000E+02  0.51100000000E-03 0.  1.
         23    2    1    2    0    0  0.13322676296E-14 -0.44408920985E-15  0.00000000000E+00  0.91188000000E+02  0.91188000000E+02 0.  0.
    9900012    2    3    3    0    0  0.26121103428E+01  0.21646105349E+01 -0.43267940815E+02  0.47787270034E+02  0.19999995391E+02 0.  0.
         12    1    3    3    0    0 -0.26121103428E+01 -0.21646105349E+01  0.43267940815E+02  0.43400729966E+02  0.00000000000E+00 0. -1.
         11    1    4    4    0    0 -0.20099651726E+01 -0.11952774119E+01 -0.49117022807E+00  0.23895389808E+01  0.51100000000E-03 0. -1.
        -11    1    4    4    0    0 -0.31008007196E+01 -0.31677122346E+01 -0.76191916904E+01  0.88148424932E+01  0.51100000000E-03 0.  1.
        -12    1    4    4    0    0  0.77228762351E+01  0.65276001815E+01 -0.35157578897E+02  0.36582888560E+02  0.00000000000E+00 0.  1.
</event>
<event>
 8    1  0.3776180E-010  0.9118800E+02  0.7816164E-02  0.1184000E+00
        -11   -1    0    0    0    0  0.00000000000E+00  0.00000000000E+00  0.45593999997E+02  0.45594000000E+02  0.51100000000E-03 0. -1.
         11   -1    0    0    0    0 -0.00000000000E+00 -0.00000000000E+00 -0.45593999997E+02  0.45594000000E+02  0.51100000000E-03 0.  1.
         23    2    1    2    0    0  0.00000000000E+00  0.44408920985E-15  0.00000000000E+00  0.91188000000E+02  0.91188000000E+02 0.  0.
    9900012    2    3    3    0    0 -0.25145352797E+02  0.36164472652E+01 -0.35188841564E+02  0.47787285389E+02  0.20000065402E+02 0.  0.
         12    1    3    3    0    0  0.25145352797E+02 -0.36164472652E+01  0.35188841564E+02  0.43400714611E+02  0.00000000000E+00 0. -1.
         11    1    4    4    0    0 -0.54872342409E+01 -0.50798092782E+01 -0.57168124476E+01  0.94125526155E+01  0.51100000000E-03 0. -1.
        -11    1    4    4    0    0 -0.10278203295E+02  0.23000949145E+01 -0.55726056393E+01  0.11915780858E+02  0.51100000000E-03 0.  1.
         12    1    4    4    0    0 -0.93799152613E+01  0.63961616289E+01 -0.23899423477E+02  0.26458951915E+02  0.00000000000E+00 0. -1.
</event>
<event>
 8    1  0.3776180E-010  0.9118800E+02  0.7816164E-02  0.1184000E+00
        -11   -1    0    0    0    0  0.00000000000E+00  0.00000000000E+00  0.45593999997E+02  0.45594000000E+02  0.51100000000E-03 0. -1.
         11   -1    0    0    0    0 -0.00000000000E+00 -0.00000000000E+00 -0.45593999997E+02  0.45594000000E+02  0.51100000000E-03 0.  1.
         23    2    1    2    0    0 -0.35527136788E-14  0.00000000000E+00 -0.35527136788E-14  0.91188000000E+02  0.91188000000E+02 0.  0.
    9900012    2    3    3    0    0 -0.27554415738E+02 -0.30448009905E+02 -0.14046210933E+02  0.47787272179E+02  0.20000005172E+02 0.  0.
         12    1    3    3    0    0  0.27554415738E+02  0.30448009905E+02  0.14046210933E+02  0.43400727821E+02  0.00000000000E+00 0. -1.
         11    1    4    4    0    0 -0.30898129793E+01 -0.32707741239E+01  0.39203778534E-01  0.44996049619E+01  0.51100000000E-03 0. -1.
        -11    1    4    4    0    0 -0.21686085020E+02 -0.28341403692E+02 -0.16604884235E+02  0.39360432257E+02  0.51100000000E-03 0.  1.
         12    1    4    4    0    0 -0.27785177393E+01  0.11641679118E+01  0.25194695228E+01  0.39272349600E+01  0.00000000000E+00 0. -1.
</event>
<event>
 8    1  0.3776180E-010  0.9118800E+02  0.7816164E-02  0.1184000E+00
        -11   -1    0    0    0    0  0.00000000000E+00  0.00000000000E+00  0.45593999997E+02  0.45594000000E+02  0.51100000000E-03 0. -1.
         11   -1    0    0    0    0 -0.00000000000E+00 -0.00000000000E+00 -0.45593999997E+02  0.45594000000E+02  0.51100000000E-03 0.  1.
         23    2    1    2    0    0  0.35527136788E-14  0.00000000000E+00  0.00000000000E+00  0.91188000000E+02  0.91188000000E+02 0.  0.
    9900012    2    3    3    0    0 -0.29307642680E+02 -0.12027356581E+02  0.29665266113E+02  0.47787271442E+02  0.20000001814E+02 0.  0.
        -12    1    3    3    0    0  0.29307642680E+02  0.12027356581E+02 -0.29665266113E+02  0.43400728558E+02  0.00000000000E+00 0.  1.
         11    1    4    4    0    0 -0.63357921697E+01  0.18904777445E+01  0.94228984244E+01  0.11511176460E+02  0.51100000000E-03 0. -1.
        -11    1    4    4    0    0 -0.44577999910E+01  0.16472050892E+01  0.76523955170E+01  0.90080199142E+01  0.51100000000E-03 0.  1.
        -12    1    4    4    0    0 -0.18514050520E+02 -0.15565039415E+02  0.12589972171E+02  0.27268075068E+02  0.00000000000E+00 0.  1.
</event>
<event>
 8    1  0.3953311E-010  0.9118800E+02  0.7816164E-02  0.1184000E+00
        -11   -1    0    0    0    0  0.00000000000E+00  0.00000000000E+00  0.45593999997E+02  0.45594000000E+02  0.51100000000E-03 0. -1.
         11   -1    0    0    0    0 -0.00000000000E+00 -0.00000000000E+00 -0.45593999997E+02  0.45594000000E+02  0.51100000000E-03 0.  1.
         23    2    1    2    0    0  0.35527136788E-14  0.00000000000E+00  0.00000000000E+00  0.91188000000E+02  0.91188000000E+02 0.  0.
    9900012    2    3    3    0    0  0.10455221444E+02  0.44462517105E+01  0.41887253991E+02  0.47787275851E+02  0.20000021916E+02 0.  0.
        -12    1    3    3    0    0 -0.10455221444E+02 -0.44462517105E+01 -0.41887253991E+02  0.43400724149E+02  0.00000000000E+00 0.  1.
         11    1    4    4    0    0  0.83294394718E+01  0.18828494316E+01  0.15516149583E+02  0.17710888799E+02  0.51100000000E-03 0.  1.
        -11    1    4    4    0    0  0.68767177482E+01 -0.13731850241E+01  0.77114192583E+01  0.10423093175E+02  0.51100000000E-03 0. -1.
        -12    1    4    4    0    0 -0.47509357762E+01  0.39365873029E+01  0.18659685150E+02  0.19653293877E+02  0.00000000000E+00 0.  1.
</event>
<event>
 8    1  0.3776180E-010  0.9118800E+02  0.7816164E-02  0.1184000E+00
        -11   -1    0    0    0    0  0.00000000000E+00  0.00000000000E+00  0.45593999997E+02  0.45594000000E+02  0.51100000000E-03 0.  1.
         11   -1    0    0    0    0 -0.00000000000E+00 -0.00000000000E+00 -0.45593999997E+02  0.45594000000E+02  0.51100000000E-03 0. -1.
         23    2    1    2    0    0  0.00000000000E+00  0.00000000000E+00 -0.17763568394E-14  0.91188000000E+02  0.91188000000E+02 0.  0.
    9900012    2    3    3    0    0  0.11069998065E+02  0.39248839849E+02 -0.14852903021E+02  0.47787250988E+02  0.19999908553E+02 0.  0.
         12    1    3    3    0    0 -0.11069998065E+02 -0.39248839849E+02  0.14852903021E+02  0.43400749012E+02  0.00000000000E+00 0. -1.
         11    1    4    4    0    0  0.60425328726E+00  0.30404336558E+01  0.40704080151E+01  0.51164030842E+01  0.51100000000E-03 0. -1.
        -11    1    4    4    0    0 -0.29046041350E-03  0.94496782087E+01 -0.36417427991E+01  0.10127127392E+02  0.51100000000E-03 0.  1.
         12    1    4    4    0    0  0.10466035239E+02  0.26758727985E+02 -0.15281568237E+02  0.32543720512E+02  0.00000000000E+00 0. -1.
</event>
<event>
 8    1  0.3776180E-010  0.9118800E+02  0.7816164E-02  0.1184000E+00
        -11   -1    0    0    0    0  0.00000000000E+00  0.00000000000E+00  0.45593999997E+02  0.45594000000E+02  0.51100000000E-03 0. -1.
         11   -1    0    0    0    0 -0.00000000000E+00 -0.00000000000E+00 -0.45593999997E+02  0.45594000000E+02  0.51100000000E-03 0.  1.
         23    2    1    2    0    0  0.35527136788E-14  0.17763568394E-14  0.00000000000E+00  0.91188000000E+02  0.91188000000E+02 0.  0.
    9900012    2    3    3    0    0 -0.29955963204E+02  0.13746352497E+02  0.28236512315E+02  0.47787279197E+02  0.20000037173E+02 0.  0.
        -12    1    3    3    0    0  0.29955963204E+02 -0.13746352497E+02 -0.28236512315E+02  0.43400720803E+02  0.00000000000E+00 0.  1.
         11    1    4    4    0    0 -0.13140490925E+02  0.45546632513E+01  0.13296415517E+02  0.19240897197E+02  0.51100000000E-03 0. -1.
        -11    1    4    4    0    0 -0.16847938439E+02  0.63012134355E+01  0.17191933019E+02  0.24882139811E+02  0.51100000000E-03 0.  1.
        -12    1    4    4    0    0  0.32466159470E-01  0.28904758100E+01 -0.22518362204E+01  0.36642421895E+01  0.00000000000E+00 0.  1.
</event>
<event>
 8    1  0.3776180E-010  0.9118800E+02  0.7816164E-02  0.1184000E+00
        -11   -1    0    0    0    0  0.00000000000E+00  0.00000000000E+00  0.45593999997E+02  0.45594000000E+02  0.51100000000E-03 0.  1.
         11   -1    0    0    0    0 -0.00000000000E+00 -0.00000000000E+00 -0.45593999997E+02  0.45594000000E+02  0.51100000000E-03 0. -1.
         23    2    1    2    0    0 -0.71054273576E-14 -0.22204460493E-15  0.17763568394E-14  0.91188000000E+02  0.91188000000E+02 0.  0.
    9900012    2    3    3    0    0 -0.42501393604E+02  0.15732852657E+01 -0.86475251598E+01  0.47787269866E+02  0.19999994627E+02 0.  0.
         12    1    3    3    0    0  0.42501393604E+02 -0.15732852657E+01  0.86475251598E+01  0.43400730134E+02  0.00000000000E+00 0. -1.
         11    1    4    4    0    0 -0.35884073024E+02 -0.13051017734E+01 -0.11008700514E+02  0.37557442335E+02  0.51100000000E-03 0. -1.
        -11    1    4    4    0    0 -0.46109897661E+01  0.32377366682E+01 -0.15290364920E+01  0.58379892267E+01  0.51100000000E-03 0.  1.
         12    1    4    4    0    0 -0.20063308132E+01 -0.35934962912E+00  0.38902118461E+01  0.43918383048E+01  0.00000000000E+00 0. -1.
</event>
<event>
 8    1  0.3776180E-010  0.9118800E+02  0.7816164E-02  0.1184000E+00
        -11   -1    0    0    0    0  0.00000000000E+00  0.00000000000E+00  0.45593999997E+02  0.45594000000E+02  0.51100000000E-03 0. -1.
         11   -1    0    0    0    0 -0.00000000000E+00 -0.00000000000E+00 -0.45593999997E+02  0.45594000000E+02  0.51100000000E-03 0.  1.
         23    2    1    2    0    0  0.35527136788E-14  0.00000000000E+00  0.71054273576E-14  0.91188000000E+02  0.91188000000E+02 0.  0.
    9900012    2    3    3    0    0 -0.17028119016E+02  0.94396738205E+01 -0.38788646430E+02  0.47787269926E+02  0.19999994901E+02 0.  0.
         12    1    3    3    0    0  0.17028119016E+02 -0.94396738205E+01  0.38788646430E+02  0.43400730074E+02  0.00000000000E+00 0. -1.
         11    1    4    4    0    0 -0.30454066486E+01  0.62456625803E+01 -0.58610172676E+01  0.90903424795E+01  0.51100000000E-03 0. -1.
        -11    1    4    4    0    0 -0.11352320849E+02  0.85078966034E+01 -0.25628681965E+02  0.29293153344E+02  0.51100000000E-03 0.  1.
         12    1    4    4    0    0 -0.26303915184E+01 -0.53138853632E+01 -0.72989471973E+01  0.94037741031E+01  0.00000000000E+00 0. -1.
</event>
<event>
 8    1  0.3776180E-010  0.9118800E+02  0.7816164E-02  0.1184000E+00
        -11   -1    0    0    0    0  0.00000000000E+00  0.00000000000E+00  0.45593999997E+02  0.45594000000E+02  0.51100000000E-03 0. -1.
         11   -1    0    0    0    0 -0.00000000000E+00 -0.00000000000E+00 -0.45593999997E+02  0.45594000000E+02  0.51100000000E-03 0.  1.
         23    2    1    2    0    0  0.00000000000E+00  0.35527136788E-14  0.71054273576E-14  0.91188000000E+02  0.91188000000E+02 0.  0.
    9900012    2    3    3    0    0 -0.25222037557E+02  0.23520192190E+02  0.26349054006E+02  0.47787271133E+02  0.20000000402E+02 0.  0.
        -12    1    3    3    0    0  0.25222037557E+02 -0.23520192190E+02 -0.26349054006E+02  0.43400728867E+02  0.00000000000E+00 0.  1.
         11    1    4    4    0    0 -0.13022909749E+02  0.21886203712E+02  0.16190073381E+02  0.30178147186E+02  0.51100000000E-03 0.  1.
        -11    1    4    4    0    0 -0.87393304770E+01  0.38591052638E+01  0.43650905504E+01  0.10503456878E+02  0.51100000000E-03 0. -1.
         12    1    4    4    0    0 -0.34597973314E+01 -0.22251167855E+01  0.57938900746E+01  0.71056670679E+01  0.00000000000E+00 0. -1.
</event>
<event>
 8    1  0.3776180E-010  0.9118800E+02  0.7816164E-02  0.1184000E+00
        -11   -1    0    0    0    0  0.00000000000E+00  0.00000000000E+00  0.45593999997E+02  0.45594000000E+02  0.51100000000E-03 0. -1.
         11   -1    0    0    0    0 -0.00000000000E+00 -0.00000000000E+00 -0.45593999997E+02  0.45594000000E+02  0.51100000000E-03 0.  1.
         23    2    1    2    0    0  0.00000000000E+00 -0.35527136788E-14  0.00000000000E+00  0.91188000000E+02  0.91188000000E+02 0.  0.
    9900012    2    3    3    0    0  0.28300220450E+02 -0.31479139012E+02 -0.95804378049E+01  0.47787268912E+02  0.19999990277E+02 0.  0.
         12    1    3    3    0    0 -0.28300220450E+02  0.31479139012E+02  0.95804378049E+01  0.43400731088E+02  0.00000000000E+00 0. -1.
         11    1    4    4    0    0 -0.10569613913E+01 -0.48622913936E+01  0.28942781554E+01  0.57563783129E+01  0.51100000000E-03 0. -1.
        -11    1    4    4    0    0  0.42111355659E+01 -0.39277416345E+01 -0.43063850762E+01  0.71906724155E+01  0.51100000000E-03 0.  1.
         12    1    4    4    0    0  0.25146046276E+02 -0.22689105984E+02 -0.81683308840E+01  0.34840218183E+02  0.00000000000E+00 0. -1.
</event>
<event>
 8    1  0.3776180E-010  0.9118800E+02  0.7816164E-02  0.1184000E+00
        -11   -1    0    0    0    0  0.00000000000E+00  0.00000000000E+00  0.45593999997E+02  0.45594000000E+02  0.51100000000E-03 0. -1.
         11   -1    0    0    0    0 -0.00000000000E+00 -0.00000000000E+00 -0.45593999997E+02  0.45594000000E+02  0.51100000000E-03 0.  1.
         23    2    1    2    0    0  0.71054273576E-14  0.17763568394E-14 -0.71054273576E-14  0.91188000000E+02  0.91188000000E+02 0.  0.
    9900012    2    3    3    0    0  0.36941710055E+02 -0.82082309914E+01 -0.21249902495E+02  0.47787270123E+02  0.19999995797E+02 0.  0.
         12    1    3    3    0    0 -0.36941710055E+02  0.82082309914E+01  0.21249902495E+02  0.43400729877E+02  0.00000000000E+00 0. -1.
         11    1    4    4    0    0  0.96878043149E+01 -0.43482466406E+01 -0.86413536238E+00  0.10653991340E+02  0.51100000000E-03 0. -1.
        -11    1    4    4    0    0  0.26155441833E+02 -0.72927759059E+01 -0.16236792466E+02  0.31637401090E+02  0.51100000000E-03 0.  1.
         12    1    4    4    0    0  0.10984639071E+01  0.34327915551E+01 -0.41489746674E+01  0.54958776921E+01  0.00000000000E+00 0. -1.
</event>
<event>
 8    1  0.3776180E-010  0.9118800E+02  0.7816164E-02  0.1184000E+00
        -11   -1    0    0    0    0  0.00000000000E+00  0.00000000000E+00  0.45593999997E+02  0.45594000000E+02  0.51100000000E-03 0.  1.
         11   -1    0    0    0    0 -0.00000000000E+00 -0.00000000000E+00 -0.45593999997E+02  0.45594000000E+02  0.51100000000E-03 0. -1.
         23    2    1    2    0    0 -0.88817841970E-15 -0.71054273576E-14  0.88817841970E-15  0.91188000000E+02  0.91188000000E+02 0.  0.
    9900012    2    3    3    0    0  0.58060950795E+01  0.42589903110E+02 -0.60010629901E+01  0.47787270237E+02  0.19999996317E+02 0.  0.
        -12    1    3    3    0    0 -0.58060950795E+01 -0.42589903110E+02  0.60010629901E+01  0.43400729763E+02  0.00000000000E+00 0.  1.
         11    1    4    4    0    0  0.46722655032E+01  0.10101526797E+02 -0.57179811122E+01  0.12512642280E+02  0.51100000000E-03 0. -1.
        -11    1    4    4    0    0  0.39436059745E+01  0.25976220004E+02 -0.50154646787E+01  0.26748288170E+02  0.51100000000E-03 0.  1.
        -12    1    4    4    0    0 -0.28097763982E+01  0.65121563081E+01  0.47323828008E+01  0.85263397870E+01  0.00000000000E+00 0.  1.
</event>
<event>
 8    1  0.3776180E-010  0.9118800E+02  0.7816164E-02  0.1184000E+00
        -11   -1    0    0    0    0  0.00000000000E+00  0.00000000000E+00  0.45593999997E+02  0.45594000000E+02  0.51100000000E-03 0. -1.
         11   -1    0    0    0    0 -0.00000000000E+00 -0.00000000000E+00 -0.45593999997E+02  0.45594000000E+02  0.51100000000E-03 0.  1.
         23    2    1    2    0    0  0.00000000000E+00 -0.17763568394E-14  0.00000000000E+00  0.91188000000E+02  0.91188000000E+02 0.  0.
    9900012    2    3    3    0    0 -0.35008040040E+02  0.10367034558E+02  0.23464542791E+02  0.47787273724E+02  0.20000012216E+02 0.  0.
        -12    1    3    3    0    0  0.35008040040E+02 -0.10367034558E+02 -0.23464542791E+02  0.43400726276E+02  0.00000000000E+00 0.  1.
         11    1    4    4    0    0 -0.54307157802E+01  0.13479508495E+01  0.11803271536E+02  0.13062421850E+02  0.51100000000E-03 0. -1.
        -11    1    4    4    0    0 -0.44097972487E+00 -0.16234643056E+01  0.44583570024E+00  0.17403646750E+01  0.51100000000E-03 0.  1.
         12    1    4    4    0    0 -0.29136344534E+02  0.10642548014E+02  0.11215435554E+02  0.32984487198E+02  0.00000000000E+00 0. -1.
</event>
<event>
 8    1  0.3776180E-010  0.9118800E+02  0.7816164E-02  0.1184000E+00
        -11   -1    0    0    0    0  0.00000000000E+00  0.00000000000E+00  0.45593999997E+02  0.45594000000E+02  0.51100000000E-03 0. -1.
         11   -1    0    0    0    0 -0.00000000000E+00 -0.00000000000E+00 -0.45593999997E+02  0.45594000000E+02  0.51100000000E-03 0.  1.
         23    2    1    2    0    0  0.00000000000E+00 -0.17763568394E-14 -0.35527136788E-14  0.91188000000E+02  0.91188000000E+02 0.  0.
    9900012    2    3    3    0    0 -0.28025250998E+02  0.11630433633E+02 -0.31031287665E+02  0.47787280027E+02  0.20000040957E+02 0.  0.
         12    1    3    3    0    0  0.28025250998E+02 -0.11630433633E+02  0.31031287665E+02  0.43400719973E+02  0.00000000000E+00 0. -1.
         11    1    4    4    0    0 -0.92901977874E+01  0.14436529431E+01 -0.85334074573E+01  0.12696887486E+02  0.51100000000E-03 0.  1.
        -11    1    4    4    0    0 -0.11865181106E+02  0.32132943170E+01 -0.22105535185E+02  0.25293526229E+02  0.51100000000E-03 0. -1.
         12    1    4    4    0    0 -0.68698721040E+01  0.69734863725E+01 -0.39234502356E+00  0.97968663118E+01  0.00000000000E+00 0. -1.
</event>
<event>
 8    1  0.3776180E-010  0.9118800E+02  0.7816164E-02  0.1184000E+00
        -11   -1    0    0    0    0  0.00000000000E+00  0.00000000000E+00  0.45593999997E+02  0.45594000000E+02  0.51100000000E-03 0.  1.
         11   -1    0    0    0    0 -0.00000000000E+00 -0.00000000000E+00 -0.45593999997E+02  0.45594000000E+02  0.51100000000E-03 0. -1.
         23    2    1    2    0    0  0.71054273576E-14  0.00000000000E+00  0.00000000000E+00  0.91188000000E+02  0.91188000000E+02 0.  0.
    9900012    2    3    3    0    0 -0.34471856863E+02  0.21642083492E+02  0.15064343959E+02  0.47787272445E+02  0.20000006384E+02 0.  0.
        -12    1    3    3    0    0  0.34471856863E+02 -0.21642083492E+02 -0.15064343959E+02  0.43400727555E+02  0.00000000000E+00 0.  1.
         11    1    4    4    0    0  0.28993795441E+00  0.38686952509E+01  0.16108037319E+01  0.42006613629E+01  0.51100000000E-03 0. -1.
        -11    1    4    4    0    0 -0.14021556052E+02  0.10830609520E+02  0.12521200554E+02  0.21695312864E+02  0.51100000000E-03 0.  1.
         12    1    4    4    0    0 -0.20740238765E+02  0.69427787210E+01  0.93233967327E+00  0.21891298218E+02  0.00000000000E+00 0. -1.
</event>
<event>
 8    1  0.3776180E-010  0.9118800E+02  0.7816164E-02  0.1184000E+00
        -11   -1    0    0    0    0  0.00000000000E+00  0.00000000000E+00  0.45593999997E+02  0.45594000000E+02  0.51100000000E-03 0. -1.
         11   -1    0    0    0    0 -0.00000000000E+00 -0.00000000000E+00 -0.45593999997E+02  0.45594000000E+02  0.51100000000E-03 0.  1.
         23    2    1    2    0    0 -0.71054273576E-14  0.44408920985E-15  0.35527136788E-14  0.91188000000E+02  0.91188000000E+02 0.  0.
    9900012    2    3    3    0    0 -0.31732835856E+02 -0.22198143531E+01 -0.29524953546E+02  0.47787270408E+02  0.19999997098E+02 0.  0.
         12    1    3    3    0    0  0.31732835856E+02  0.22198143531E+01  0.29524953546E+02  0.43400729592E+02  0.00000000000E+00 0. -1.
         11    1    4    4    0    0 -0.18558787017E+02 -0.10047209490E+02 -0.14997626485E+02  0.25890225849E+02  0.51100000000E-03 0. -1.
        -11    1    4    4    0    0 -0.51013098447E+01  0.14619995322E+01 -0.19519625082E+01  0.56542871043E+01  0.51100000000E-03 0.  1.
         12    1    4    4    0    0 -0.80727389940E+01  0.63653956052E+01 -0.12575364553E+02  0.16242757454E+02  0.00000000000E+00 0. -1.
</event>
<event>
 8    1  0.3776180E-010  0.9118800E+02  0.7816164E-02  0.1184000E+00
        -11   -1    0    0    0    0  0.00000000000E+00  0.00000000000E+00  0.45593999997E+02  0.45594000000E+02  0.51100000000E-03 0. -1.
         11   -1    0    0    0    0 -0.00000000000E+00 -0.00000000000E+00 -0.45593999997E+02  0.45594000000E+02  0.51100000000E-03 0.  1.
         23    2    1    2    0    0  0.00000000000E+00  0.35527136788E-14  0.00000000000E+00  0.91188000000E+02  0.91188000000E+02 0.  0.
    9900012    2    3    3    0    0  0.81906906669E+01  0.22309014746E+02 -0.36315890677E+02  0.47787268806E+02  0.19999989792E+02 0.  0.
         12    1    3    3    0    0 -0.81906906669E+01 -0.22309014746E+02  0.36315890677E+02  0.43400731194E+02  0.00000000000E+00 0. -1.
         11    1    4    4    0    0  0.91956072168E+01  0.17810211767E+02 -0.20237069921E+02  0.28483360661E+02  0.51100000000E-03 0. -1.
        -11    1    4    4    0    0 -0.15173585027E+01  0.74546310953E+01 -0.12512286451E+02  0.14643470015E+02  0.51100000000E-03 0.  1.
         12    1    4    4    0    0  0.51244195276E+00 -0.29558281167E+01 -0.35665343056E+01  0.46604381299E+01  0.00000000000E+00 0. -1.
</event>
<event>
 8    1  0.3776180E-010  0.9118800E+02  0.7816164E-02  0.1184000E+00
        -11   -1    0    0    0    0  0.00000000000E+00  0.00000000000E+00  0.45593999997E+02  0.45594000000E+02  0.51100000000E-03 0. -1.
         11   -1    0    0    0    0 -0.00000000000E+00 -0.00000000000E+00 -0.45593999997E+02  0.45594000000E+02  0.51100000000E-03 0.  1.
         23    2    1    2    0    0 -0.17763568394E-14  0.00000000000E+00  0.35527136788E-14  0.91188000000E+02  0.91188000000E+02 0.  0.
    9900012    2    3    3    0    0 -0.13485782062E+02  0.37963189961E+02 -0.16141662501E+02  0.47787269843E+02  0.19999994524E+02 0.  0.
         12    1    3    3    0    0  0.13485782062E+02 -0.37963189961E+02  0.16141662501E+02  0.43400730157E+02  0.00000000000E+00 0. -1.
         11    1    4    4    0    0 -0.13203635474E+00  0.23736658775E+00  0.11526922399E+01  0.11842618616E+01  0.51100000000E-03 0. -1.
        -11    1    4    4    0    0  0.27884057652E+01  0.21815937355E+01  0.71382413458E+00  0.36116620958E+01  0.51100000000E-03 0.  1.
        -12    1    4    4    0    0 -0.16142151472E+02  0.35544229637E+02 -0.18008178876E+02  0.42991345886E+02  0.00000000000E+00 0.  1.
</event>
<event>
 8    1  0.3776180E-010  0.9118800E+02  0.7816164E-02  0.1184000E+00
        -11   -1    0    0    0    0  0.00000000000E+00  0.00000000000E+00  0.45593999997E+02  0.45594000000E+02  0.51100000000E-03 0. -1.
         11   -1    0    0    0    0 -0.00000000000E+00 -0.00000000000E+00 -0.45593999997E+02  0.45594000000E+02  0.51100000000E-03 0.  1.
         23    2    1    2    0    0 -0.35527136788E-14  0.00000000000E+00 -0.14210854715E-13  0.91188000000E+02  0.91188000000E+02 0.  0.
    9900012    2    3    3    0    0  0.16278523053E+02  0.95214924513E+01  0.39089303071E+02  0.47787277127E+02  0.20000027734E+02 0.  0.
        -12    1    3    3    0    0 -0.16278523053E+02 -0.95214924513E+01 -0.39089303071E+02  0.43400722873E+02  0.00000000000E+00 0.  1.
         11    1    4    4    0    0  0.12003352356E+02  0.91063677778E+01  0.27572483330E+02  0.31420506666E+02  0.51100000000E-03 0. -1.
        -11    1    4    4    0    0  0.74287084509E+01 -0.13959728274E+01  0.97123891730E+01  0.12307109859E+02  0.51100000000E-03 0.  1.
         12    1    4    4    0    0 -0.31535377547E+01  0.18110975009E+01  0.18044305687E+01  0.40596606023E+01  0.00000000000E+00 0. -1.
</event>
<event>
 8    1  0.3776180E-010  0.9118800E+02  0.7816164E-02  0.1184000E+00
        -11   -1    0    0    0    0  0.00000000000E+00  0.00000000000E+00  0.45593999997E+02  0.45594000000E+02  0.51100000000E-03 0. -1.
         11   -1    0    0    0    0 -0.00000000000E+00 -0.00000000000E+00 -0.45593999997E+02  0.45594000000E+02  0.51100000000E-03 0.  1.
         23    2    1    2    0    0  0.00000000000E+00  0.00000000000E+00  0.00000000000E+00  0.91188000000E+02  0.91188000000E+02 0.  0.
    9900012    2    3    3    0    0 -0.12125011094E+02  0.17373950328E+02 -0.37878138847E+02  0.47787269055E+02  0.19999990929E+02 0.  0.
         12    1    3    3    0    0  0.12125011094E+02 -0.17373950328E+02  0.37878138847E+02  0.43400730945E+02  0.00000000000E+00 0. -1.
         11    1    4    4    0    0 -0.69980675201E+01  0.27372968592E+01 -0.42521078511E+01  0.86340120773E+01  0.51100000000E-03 0. -1.
        -11    1    4    4    0    0 -0.39791258000E+00  0.82136000203E+01 -0.54384864896E+01  0.98589398656E+01  0.51100000000E-03 0.  1.
        -12    1    4    4    0    0 -0.47290309936E+01  0.64230534486E+01 -0.28187544507E+02  0.29294317112E+02  0.00000000000E+00 0.  1.
</event>
<event>
 8    1  0.3776180E-010  0.9118800E+02  0.7816164E-02  0.1184000E+00
        -11   -1    0    0    0    0  0.00000000000E+00  0.00000000000E+00  0.45593999997E+02  0.45594000000E+02  0.51100000000E-03 0.  1.
         11   -1    0    0    0    0 -0.00000000000E+00 -0.00000000000E+00 -0.45593999997E+02  0.45594000000E+02  0.51100000000E-03 0. -1.
         23    2    1    2    0    0  0.17763568394E-14 -0.71054273576E-14  0.17763568394E-14  0.91188000000E+02  0.91188000000E+02 0.  0.
    9900012    2    3    3    0    0 -0.12757615254E+02  0.39827722213E+02 -0.11602548539E+02  0.47787270325E+02  0.19999996722E+02 0.  0.
        -12    1    3    3    0    0  0.12757615254E+02 -0.39827722213E+02  0.11602548539E+02  0.43400729675E+02  0.00000000000E+00 0.  1.
         11    1    4    4    0    0 -0.11738128784E+01  0.14700268517E+02 -0.36699651845E+01  0.15196854144E+02  0.51100000000E-03 0. -1.
        -11    1    4    4    0    0 -0.70777624544E+01  0.22875970640E+02 -0.92950348399E+00  0.23963904754E+02  0.51100000000E-03 0.  1.
        -12    1    4    4    0    0 -0.45060399212E+01  0.22514830559E+01 -0.70030798709E+01  0.86265114271E+01  0.00000000000E+00 0.  1.
</event>
<event>
 8    1  0.3776180E-010  0.9118800E+02  0.7816164E-02  0.1184000E+00
        -11   -1    0    0    0    0  0.00000000000E+00  0.00000000000E+00  0.45593999997E+02  0.45594000000E+02  0.51100000000E-03 0. -1.
         11   -1    0    0    0    0 -0.00000000000E+00 -0.00000000000E+00 -0.45593999997E+02  0.45594000000E+02  0.51100000000E-03 0.  1.
         23    2    1    2    0    0  0.00000000000E+00  0.00000000000E+00 -0.35527136788E-14  0.91188000000E+02  0.91188000000E+02 0.  0.
    9900012    2    3    3    0    0 -0.13920284347E+01 -0.39957588709E+02 -0.16884211888E+02  0.47787271323E+02  0.20000001270E+02 0.  0.
         12    1    3    3    0    0  0.13920284347E+01  0.39957588709E+02  0.16884211888E+02  0.43400728677E+02  0.00000000000E+00 0. -1.
         11    1    4    4    0    0  0.93907195645E+00  0.14751445742E+01 -0.14952575410E+01  0.23008048656E+01  0.51100000000E-03 0. -1.
        -11    1    4    4    0    0 -0.25998990576E+01 -0.10178405488E+02 -0.84208662950E+01  0.13463669738E+02  0.51100000000E-03 0.  1.
         12    1    4    4    0    0  0.26879866648E+00 -0.31254327795E+02 -0.69680880524E+01  0.32022796720E+02  0.00000000000E+00 0. -1.
</event>
<event>
 8    1  0.3776180E-010  0.9118800E+02  0.7816164E-02  0.1184000E+00
        -11   -1    0    0    0    0  0.00000000000E+00  0.00000000000E+00  0.45593999997E+02  0.45594000000E+02  0.51100000000E-03 0. -1.
         11   -1    0    0    0    0 -0.00000000000E+00 -0.00000000000E+00 -0.45593999997E+02  0.45594000000E+02  0.51100000000E-03 0.  1.
         23    2    1    2    0    0 -0.35527136788E-14  0.00000000000E+00  0.00000000000E+00  0.91188000000E+02  0.91188000000E+02 0.  0.
    9900012    2    3    3    0    0 -0.25608667339E+02  0.29107570466E+02  0.19508170351E+02  0.47787271760E+02  0.20000003262E+02 0.  0.
        -12    1    3    3    0    0  0.25608667339E+02 -0.29107570466E+02 -0.19508170351E+02  0.43400728240E+02  0.00000000000E+00 0.  1.
         11    1    4    4    0    0 -0.25006860335E+02  0.22014900144E+02  0.92956626062E+01  0.34589134648E+02  0.51100000000E-03 0. -1.
        -11    1    4    4    0    0 -0.20046676119E+01  0.16211588106E+01  0.43543490953E+01  0.50603561563E+01  0.51100000000E-03 0.  1.
         12    1    4    4    0    0  0.14028606081E+01  0.54715115121E+01  0.58581586495E+01  0.81377809553E+01  0.00000000000E+00 0. -1.
</event>
<event>
 8    1  0.3776180E-010  0.9118800E+02  0.7816164E-02  0.1184000E+00
        -11   -1    0    0    0    0  0.00000000000E+00  0.00000000000E+00  0.45593999997E+02  0.45594000000E+02  0.51100000000E-03 0.  1.
         11   -1    0    0    0    0 -0.00000000000E+00 -0.00000000000E+00 -0.45593999997E+02  0.45594000000E+02  0.51100000000E-03 0. -1.
         23    2    1    2    0    0  0.00000000000E+00  0.00000000000E+00  0.35527136788E-14  0.91188000000E+02  0.91188000000E+02 0.  0.
    9900012    2    3    3    0    0 -0.38356481635E+02  0.33176069789E+01 -0.20034869312E+02  0.47787283556E+02  0.20000057046E+02 0.  0.
         12    1    3    3    0    0  0.38356481635E+02 -0.33176069789E+01  0.20034869312E+02  0.43400716444E+02  0.00000000000E+00 0. -1.
         11    1    4    4    0    0 -0.81945038556E+01 -0.41438582204E+01 -0.36757525396E+01  0.98910369216E+01  0.51100000000E-03 0. -1.
        -11    1    4    4    0    0 -0.16938993808E+02  0.13111584545E+01 -0.15955663600E+02  0.23307334659E+02  0.51100000000E-03 0.  1.
        -12    1    4    4    0    0 -0.13222983972E+02  0.61503067449E+01 -0.40345317171E+00  0.14588911975E+02  0.00000000000E+00 0.  1.
</event>
<event>
 8    1  0.3776180E-010  0.9118800E+02  0.7816164E-02  0.1184000E+00
        -11   -1    0    0    0    0  0.00000000000E+00  0.00000000000E+00  0.45593999997E+02  0.45594000000E+02  0.51100000000E-03 0. -1.
         11   -1    0    0    0    0 -0.00000000000E+00 -0.00000000000E+00 -0.45593999997E+02  0.45594000000E+02  0.51100000000E-03 0.  1.
         23    2    1    2    0    0  0.00000000000E+00 -0.11102230246E-15 -0.71054273576E-14  0.91188000000E+02  0.91188000000E+02 0.  0.
    9900012    2    3    3    0    0  0.16166521843E+02  0.84997699884E+00 -0.40268390521E+02  0.47787283824E+02  0.20000058267E+02 0.  0.
         12    1    3    3    0    0 -0.16166521843E+02 -0.84997699884E+00  0.40268390521E+02  0.43400716176E+02  0.00000000000E+00 0. -1.
         11    1    4    4    0    0  0.26257754240E+01  0.82387330708E+00 -0.13414448507E+01  0.30615254943E+01  0.51100000000E-03 0. -1.
        -11    1    4    4    0    0 -0.23718503490E+01 -0.47279737757E+01 -0.11581009423E+02  0.12731818001E+02  0.51100000000E-03 0.  1.
        -12    1    4    4    0    0  0.15912596768E+02  0.47540774675E+01 -0.27345936248E+02  0.31993940329E+02  0.00000000000E+00 0.  1.
</event>
<event>
 8    1  0.3776180E-010  0.9118800E+02  0.7816164E-02  0.1184000E+00
        -11   -1    0    0    0    0  0.00000000000E+00  0.00000000000E+00  0.45593999997E+02  0.45594000000E+02  0.51100000000E-03 0. -1.
         11   -1    0    0    0    0 -0.00000000000E+00 -0.00000000000E+00 -0.45593999997E+02  0.45594000000E+02  0.51100000000E-03 0.  1.
         23    2    1    2    0    0  0.00000000000E+00  0.00000000000E+00  0.00000000000E+00  0.91188000000E+02  0.91188000000E+02 0.  0.
    9900012    2    3    3    0    0  0.28376713111E+02  0.34431662952E+01  0.32657770707E+02  0.47787271565E+02  0.20000002374E+02 0.  0.
        -12    1    3    3    0    0 -0.28376713111E+02 -0.34431662952E+01 -0.32657770707E+02  0.43400728435E+02  0.00000000000E+00 0.  1.
         11    1    4    4    0    0  0.53738829745E+00  0.26885067188E+01  0.17411422250E+01  0.32478348277E+01  0.51100000000E-03 0. -1.
        -11    1    4    4    0    0  0.82539242243E+01 -0.58708630073E+01  0.16402594585E+02  0.19277951316E+02  0.51100000000E-03 0.  1.
         12    1    4    4    0    0  0.19585400589E+02  0.66255225837E+01  0.14514033897E+02  0.25261485422E+02  0.00000000000E+00 0. -1.
</event>
<event>
 8    1  0.3776180E-010  0.9118800E+02  0.7816164E-02  0.1184000E+00
        -11   -1    0    0    0    0  0.00000000000E+00  0.00000000000E+00  0.45593999997E+02  0.45594000000E+02  0.51100000000E-03 0. -1.
         11   -1    0    0    0    0 -0.00000000000E+00 -0.00000000000E+00 -0.45593999997E+02  0.45594000000E+02  0.51100000000E-03 0.  1.
         23    2    1    2    0    0 -0.35527136788E-14  0.00000000000E+00 -0.71054273576E-14  0.91188000000E+02  0.91188000000E+02 0.  0.
    9900012    2    3    3    0    0  0.19170398821E+02  0.19536881961E+02  0.33681287134E+02  0.47787273615E+02  0.20000011722E+02 0.  0.
        -12    1    3    3    0    0 -0.19170398821E+02 -0.19536881961E+02 -0.33681287134E+02  0.43400726385E+02  0.00000000000E+00 0.  1.
         11    1    4    4    0    0  0.16176960786E+02  0.10160570231E+02  0.25752524994E+02  0.32064369501E+02  0.51100000000E-03 0. -1.
        -11    1    4    4    0    0  0.52604337025E+01  0.28396879848E+01  0.61557637312E+01  0.85807585892E+01  0.51100000000E-03 0.  1.
        -12    1    4    4    0    0 -0.22669956671E+01  0.65366237457E+01  0.17729984089E+01  0.71421455253E+01  0.00000000000E+00 0.  1.
</event>
<event>
 8    1  0.3776180E-010  0.9118800E+02  0.7816164E-02  0.1184000E+00
        -11   -1    0    0    0    0  0.00000000000E+00  0.00000000000E+00  0.45593999997E+02  0.45594000000E+02  0.51100000000E-03 0. -1.
         11   -1    0    0    0    0 -0.00000000000E+00 -0.00000000000E+00 -0.45593999997E+02  0.45594000000E+02  0.51100000000E-03 0.  1.
         23    2    1    2    0    0 -0.11102230246E-14  0.00000000000E+00  0.00000000000E+00  0.91188000000E+02  0.91188000000E+02 0.  0.
    9900012    2    3    3    0    0 -0.19924834696E+01 -0.12739893550E+02  0.41440902281E+02  0.47787271206E+02  0.20000000736E+02 0.  0.
        -12    1    3    3    0    0  0.19924834696E+01  0.12739893550E+02 -0.41440902281E+02  0.43400728794E+02  0.00000000000E+00 0.  1.
         11    1    4    4    0    0 -0.92595938244E+01 -0.11471270194E+01  0.17345230491E+02  0.19695507082E+02  0.51100000000E-03 0.  1.
        -11    1    4    4    0    0  0.28944780953E+01 -0.16593492613E+01  0.81144542787E+01  0.87735860352E+01  0.51100000000E-03 0. -1.
        -12    1    4    4    0    0  0.43726322594E+01 -0.99334172689E+01  0.15981217511E+02  0.19318178088E+02  0.00000000000E+00 0.  1.
</event>
<event>
 8    1  0.3776180E-010  0.9118800E+02  0.7816164E-02  0.1184000E+00
        -11   -1    0    0    0    0  0.00000000000E+00  0.00000000000E+00  0.45593999997E+02  0.45594000000E+02  0.51100000000E-03 0.  1.
         11   -1    0    0    0    0 -0.00000000000E+00 -0.00000000000E+00 -0.45593999997E+02  0.45594000000E+02  0.51100000000E-03 0. -1.
         23    2    1    2    0    0  0.00000000000E+00 -0.71054273576E-14  0.00000000000E+00  0.91188000000E+02  0.91188000000E+02 0.  0.
    9900012    2    3    3    0    0 -0.15328627104E+02  0.37754857621E+02  0.14940821743E+02  0.47787259946E+02  0.19999949396E+02 0.  0.
        -12    1    3    3    0    0  0.15328627104E+02 -0.37754857621E+02 -0.14940821743E+02  0.43400740054E+02  0.00000000000E+00 0.  1.
         11    1    4    4    0    0 -0.12620077022E+02  0.32215495275E+02  0.71815938846E+01  0.35336663267E+02  0.51100000000E-03 0. -1.
        -11    1    4    4    0    0  0.42632119070E+00  0.33484928418E+01 -0.43918951638E+00  0.34039744068E+01  0.51100000000E-03 0.  1.
        -12    1    4    4    0    0 -0.31348712721E+01  0.21908695048E+01  0.81984173750E+01  0.90466222721E+01  0.00000000000E+00 0.  1.
</event>
<event>
 8    1  0.3776180E-010  0.9118800E+02  0.7816164E-02  0.1184000E+00
        -11   -1    0    0    0    0  0.00000000000E+00  0.00000000000E+00  0.45593999997E+02  0.45594000000E+02  0.51100000000E-03 0. -1.
         11   -1    0    0    0    0 -0.00000000000E+00 -0.00000000000E+00 -0.45593999997E+02  0.45594000000E+02  0.51100000000E-03 0.  1.
         23    2    1    2    0    0  0.00000000000E+00 -0.88817841970E-15  0.35527136788E-14  0.91188000000E+02  0.91188000000E+02 0.  0.
    9900012    2    3    3    0    0 -0.34141641945E+02  0.68202920911E+01 -0.25912449054E+02  0.47787272876E+02  0.20000008350E+02 0.  0.
         12    1    3    3    0    0  0.34141641945E+02 -0.68202920911E+01  0.25912449054E+02  0.43400727124E+02  0.00000000000E+00 0. -1.
         11    1    4    4    0    0 -0.18942885634E+00  0.72662695136E+00  0.11600117191E+01  0.13818456743E+01  0.51100000000E-03 0. -1.
        -11    1    4    4    0    0 -0.13868668170E+02  0.68854128410E+01 -0.19563236399E+02  0.24949330361E+02  0.51100000000E-03 0.  1.
         12    1    4    4    0    0 -0.20083544919E+02 -0.79174770131E+00 -0.75092243740E+01  0.21456096841E+02  0.00000000000E+00 0. -1.
</event>
<event>
 8    1  0.3776180E-010  0.9118800E+02  0.7816164E-02  0.1184000E+00
        -11   -1    0    0    0    0  0.00000000000E+00  0.00000000000E+00  0.45593999997E+02  0.45594000000E+02  0.51100000000E-03 0. -1.
         11   -1    0    0    0    0 -0.00000000000E+00 -0.00000000000E+00 -0.45593999997E+02  0.45594000000E+02  0.51100000000E-03 0.  1.
         23    2    1    2    0    0 -0.13322676296E-14 -0.17763568394E-14  0.00000000000E+00  0.91188000000E+02  0.91188000000E+02 0.  0.
    9900012    2    3    3    0    0  0.34615347286E+01  0.15918794741E+02 -0.40227250385E+02  0.47787286616E+02  0.20000070998E+02 0.  0.
         12    1    3    3    0    0 -0.34615347286E+01 -0.15918794741E+02  0.40227250385E+02  0.43400713384E+02  0.00000000000E+00 0. -1.
         11    1    4    4    0    0  0.38174084878E+01  0.55082504859E+01 -0.66723284479E+01  0.94569232923E+01  0.51100000000E-03 0.  1.
        -11    1    4    4    0    0  0.67489915961E+01  0.32354246330E+01 -0.85471019453E+01  0.11360889580E+02  0.51100000000E-03 0. -1.
         12    1    4    4    0    0 -0.71048653553E+01  0.71751196219E+01 -0.25007819992E+02  0.26969473744E+02  0.00000000000E+00 0. -1.
</event>
<event>
 8    1  0.3776180E-010  0.9118800E+02  0.7816164E-02  0.1184000E+00
        -11   -1    0    0    0    0  0.00000000000E+00  0.00000000000E+00  0.45593999997E+02  0.45594000000E+02  0.51100000000E-03 0.  1.
         11   -1    0    0    0    0 -0.00000000000E+00 -0.00000000000E+00 -0.45593999997E+02  0.45594000000E+02  0.51100000000E-03 0. -1.
         23    2    1    2    0    0  0.00000000000E+00  0.00000000000E+00  0.00000000000E+00  0.91188000000E+02  0.91188000000E+02 0.  0.
    9900012    2    3    3    0    0  0.22702949629E+02  0.34446150419E+02  0.13478220951E+02  0.47787266821E+02  0.19999980742E+02 0.  0.
        -12    1    3    3    0    0 -0.22702949629E+02 -0.34446150419E+02 -0.13478220951E+02  0.43400733179E+02  0.00000000000E+00 0.  1.
         11    1    4    4    0    0  0.32755951407E+01  0.32223179680E+01  0.62980026172E+00  0.46378341112E+01  0.51100000000E-03 0. -1.
        -11    1    4    4    0    0  0.10305105740E+02  0.26021673720E+02  0.20129643068E+01  0.28060198379E+02  0.51100000000E-03 0.  1.
        -12    1    4    4    0    0  0.91222487480E+01  0.52021587310E+01  0.10835456382E+02  0.15089234331E+02  0.00000000000E+00 0.  1.
</event>
<event>
 8    1  0.3776180E-010  0.9118800E+02  0.7816164E-02  0.1184000E+00
        -11   -1    0    0    0    0  0.00000000000E+00  0.00000000000E+00  0.45593999997E+02  0.45594000000E+02  0.51100000000E-03 0. -1.
         11   -1    0    0    0    0 -0.00000000000E+00 -0.00000000000E+00 -0.45593999997E+02  0.45594000000E+02  0.51100000000E-03 0.  1.
         23    2    1    2    0    0  0.00000000000E+00  0.00000000000E+00  0.00000000000E+00  0.91188000000E+02  0.91188000000E+02 0.  0.
    9900012    2    3    3    0    0  0.13842255552E+02 -0.10335859873E+02 -0.39814381220E+02  0.47787274315E+02  0.20000014911E+02 0.  0.
         12    1    3    3    0    0 -0.13842255552E+02  0.10335859873E+02  0.39814381220E+02  0.43400725685E+02  0.00000000000E+00 0. -1.
         11    1    4    4    0    0  0.64839273802E+01 -0.76958728218E+01 -0.12563011074E+02  0.16096490930E+02  0.51100000000E-03 0. -1.
        -11    1    4    4    0    0  0.69155245304E+01 -0.68173701530E+01 -0.25219284058E+02  0.27024309501E+02  0.51100000000E-03 0.  1.
         12    1    4    4    0    0  0.44280364163E+00  0.41773831016E+01 -0.20320860877E+01  0.46664738841E+01  0.00000000000E+00 0. -1.
</event>
<event>
 8    1  0.3776180E-010  0.9118800E+02  0.7816164E-02  0.1184000E+00
        -11   -1    0    0    0    0  0.00000000000E+00  0.00000000000E+00  0.45593999997E+02  0.45594000000E+02  0.51100000000E-03 0. -1.
         11   -1    0    0    0    0 -0.00000000000E+00 -0.00000000000E+00 -0.45593999997E+02  0.45594000000E+02  0.51100000000E-03 0.  1.
         23    2    1    2    0    0 -0.35527136788E-14  0.00000000000E+00  0.00000000000E+00  0.91188000000E+02  0.91188000000E+02 0.  0.
    9900012    2    3    3    0    0 -0.25384585942E+02 -0.29760494181E+02 -0.18803161628E+02  0.47787272995E+02  0.20000008892E+02 0.  0.
         12    1    3    3    0    0  0.25384585942E+02  0.29760494181E+02  0.18803161628E+02  0.43400727005E+02  0.00000000000E+00 0. -1.
         11    1    4    4    0    0 -0.35435858528E+00 -0.42315525344E+01 -0.21586769525E+01  0.47635588906E+01  0.51100000000E-03 0.  1.
        -11    1    4    4    0    0 -0.10287354696E+02 -0.17027623279E+02 -0.16747903657E+02  0.26005036019E+02  0.51100000000E-03 0. -1.
         12    1    4    4    0    0 -0.14742872661E+02 -0.85013183682E+01  0.10341898153E+00  0.17018678086E+02  0.00000000000E+00 0. -1.
</event>
<event>
 8    1  0.3776180E-010  0.9118800E+02  0.7816164E-02  0.1184000E+00
        -11   -1    0    0    0    0  0.00000000000E+00  0.00000000000E+00  0.45593999997E+02  0.45594000000E+02  0.51100000000E-03 0. -1.
         11   -1    0    0    0    0 -0.00000000000E+00 -0.00000000000E+00 -0.45593999997E+02  0.45594000000E+02  0.51100000000E-03 0.  1.
         23    2    1    2    0    0 -0.17763568394E-14  0.00000000000E+00  0.00000000000E+00  0.91188000000E+02  0.91188000000E+02 0.  0.
    9900012    2    3    3    0    0  0.12147898409E+02 -0.27606401987E+02  0.31207977634E+02  0.47787277259E+02  0.20000028334E+02 0.  0.
        -12    1    3    3    0    0 -0.12147898409E+02  0.27606401987E+02 -0.31207977634E+02  0.43400722741E+02  0.00000000000E+00 0.  1.
         11    1    4    4    0    0  0.10017369925E+02 -0.11240042920E+02  0.16013186395E+02  0.21979727111E+02  0.51100000000E-03 0. -1.
        -11    1    4    4    0    0  0.50468994260E+01 -0.67574093771E+01  0.11059009622E+01  0.85062795924E+01  0.51100000000E-03 0.  1.
         12    1    4    4    0    0 -0.29163709421E+01 -0.96089496896E+01  0.14088890277E+02  0.17301270556E+02  0.00000000000E+00 0. -1.
</event>
<event>
 8    1  0.3776180E-010  0.9118800E+02  0.7816164E-02  0.1184000E+00
        -11   -1    0    0    0    0  0.00000000000E+00  0.00000000000E+00  0.45593999997E+02  0.45594000000E+02  0.51100000000E-03 0. -1.
         11   -1    0    0    0    0 -0.00000000000E+00 -0.00000000000E+00 -0.45593999997E+02  0.45594000000E+02  0.51100000000E-03 0.  1.
         23    2    1    2    0    0 -0.17763568394E-14 -0.35527136788E-14 -0.71054273576E-14  0.91188000000E+02  0.91188000000E+02 0.  0.
    9900012    2    3    3    0    0  0.10555842974E+02  0.23107512632E+02  0.35188647004E+02  0.47787264535E+02  0.19999970320E+02 0.  0.
        -12    1    3    3    0    0 -0.10555842974E+02 -0.23107512632E+02 -0.35188647004E+02  0.43400735465E+02  0.00000000000E+00 0.  1.
         11    1    4    4    0    0  0.99151443738E+00  0.14185236929E+02  0.22428118636E+02  0.26556064344E+02  0.51100000000E-03 0. -1.
        -11    1    4    4    0    0 -0.16866125723E+01  0.28118990613E+01  0.18360851822E+00  0.32840753111E+01  0.51100000000E-03 0.  1.
        -12    1    4    4    0    0  0.11250941109E+02  0.61103766417E+01  0.12576919850E+02  0.17947124880E+02  0.00000000000E+00 0.  1.
</event>
<event>
 8    1  0.3776180E-010  0.9118800E+02  0.7816164E-02  0.1184000E+00
        -11   -1    0    0    0    0  0.00000000000E+00  0.00000000000E+00  0.45593999997E+02  0.45594000000E+02  0.51100000000E-03 0. -1.
         11   -1    0    0    0    0 -0.00000000000E+00 -0.00000000000E+00 -0.45593999997E+02  0.45594000000E+02  0.51100000000E-03 0.  1.
         23    2    1    2    0    0  0.00000000000E+00  0.00000000000E+00 -0.71054273576E-14  0.91188000000E+02  0.91188000000E+02 0.  0.
    9900012    2    3    3    0    0  0.20060029694E+02 -0.47933955323E+01  0.38186937804E+02  0.47787266701E+02  0.19999980195E+02 0.  0.
        -12    1    3    3    0    0 -0.20060029694E+02  0.47933955323E+01 -0.38186937804E+02  0.43400733299E+02  0.00000000000E+00 0.  1.
         11    1    4    4    0    0  0.10839472246E+02 -0.45928889308E+01  0.26394702240E+02  0.28901022368E+02  0.51100000000E-03 0.  1.
        -11    1    4    4    0    0  0.18396683576E+01 -0.43897459387E+00  0.11330300432E+02  0.11487070405E+02  0.51100000000E-03 0. -1.
        -12    1    4    4    0    0  0.73808890899E+01  0.23846799232E+00  0.46193513222E+00  0.73991739274E+01  0.00000000000E+00 0.  1.
</event>
<event>
 8    1  0.3776180E-010  0.9118800E+02  0.7816164E-02  0.1184000E+00
        -11   -1    0    0    0    0  0.00000000000E+00  0.00000000000E+00  0.45593999997E+02  0.45594000000E+02  0.51100000000E-03 0. -1.
         11   -1    0    0    0    0 -0.00000000000E+00 -0.00000000000E+00 -0.45593999997E+02  0.45594000000E+02  0.51100000000E-03 0.  1.
         23    2    1    2    0    0  0.00000000000E+00 -0.44408920985E-15  0.00000000000E+00  0.91188000000E+02  0.91188000000E+02 0.  0.
    9900012    2    3    3    0    0 -0.25596337811E+02  0.33546773134E+01 -0.34888349004E+02  0.47787271142E+02  0.20000000444E+02 0.  0.
         12    1    3    3    0    0  0.25596337811E+02 -0.33546773134E+01  0.34888349004E+02  0.43400728858E+02  0.00000000000E+00 0. -1.
         11    1    4    4    0    0 -0.19904532367E+01  0.54428940896E+01 -0.51102602656E+01  0.77266914266E+01  0.51100000000E-03 0. -1.
        -11    1    4    4    0    0 -0.16804304506E+01 -0.90947543724E-01 -0.10987965900E+02  0.11116092516E+02  0.51100000000E-03 0.  1.
        -12    1    4    4    0    0 -0.21925454124E+02 -0.19972692325E+01 -0.18790122838E+02  0.28944487199E+02  0.00000000000E+00 0.  1.
</event>
<event>
 8    1  0.3776180E-010  0.9118800E+02  0.7816164E-02  0.1184000E+00
        -11   -1    0    0    0    0  0.00000000000E+00  0.00000000000E+00  0.45593999997E+02  0.45594000000E+02  0.51100000000E-03 0. -1.
         11   -1    0    0    0    0 -0.00000000000E+00 -0.00000000000E+00 -0.45593999997E+02  0.45594000000E+02  0.51100000000E-03 0.  1.
         23    2    1    2    0    0 -0.35527136788E-14  0.00000000000E+00 -0.71054273576E-14  0.91188000000E+02  0.91188000000E+02 0.  0.
    9900012    2    3    3    0    0 -0.25377073821E+02 -0.89377095953E+01  0.34055005574E+02  0.47787286490E+02  0.20000070423E+02 0.  0.
        -12    1    3    3    0    0  0.25377073821E+02  0.89377095953E+01 -0.34055005574E+02  0.43400713510E+02  0.00000000000E+00 0.  1.
         11    1    4    4    0    0 -0.95032481070E+01  0.43094910497E+01  0.80602620153E+01  0.13185266842E+02  0.51100000000E-03 0. -1.
        -11    1    4    4    0    0 -0.68430360058E+00 -0.30350078793E+01  0.40096437989E+00  0.31369279463E+01  0.51100000000E-03 0.  1.
         12    1    4    4    0    0 -0.15189522114E+02 -0.10212192766E+02  0.25593779179E+02  0.31465091701E+02  0.00000000000E+00 0. -1.
</event>
<event>
 8    1  0.3776180E-010  0.9118800E+02  0.7816164E-02  0.1184000E+00
        -11   -1    0    0    0    0  0.00000000000E+00  0.00000000000E+00  0.45593999997E+02  0.45594000000E+02  0.51100000000E-03 0. -1.
         11   -1    0    0    0    0 -0.00000000000E+00 -0.00000000000E+00 -0.45593999997E+02  0.45594000000E+02  0.51100000000E-03 0.  1.
         23    2    1    2    0    0  0.00000000000E+00  0.00000000000E+00  0.71054273576E-14  0.91188000000E+02  0.91188000000E+02 0.  0.
    9900012    2    3    3    0    0  0.21407944828E+02  0.12490951691E+02 -0.35627225968E+02  0.47787271825E+02  0.20000003561E+02 0.  0.
         12    1    3    3    0    0 -0.21407944828E+02 -0.12490951691E+02  0.35627225968E+02  0.43400728175E+02  0.00000000000E+00 0. -1.
         11    1    4    4    0    0 -0.15369475241E+01  0.52407279952E+00 -0.34454044339E+00  0.16599904727E+01  0.51100000000E-03 0. -1.
        -11    1    4    4    0    0  0.76585794514E+00  0.69258729072E+01 -0.82137916405E+01  0.10771287170E+02  0.51100000000E-03 0.  1.
        -12    1    4    4    0    0  0.22179034407E+02  0.50410059845E+01 -0.27068893884E+02  0.35355994183E+02  0.00000000000E+00 0.  1.
</event>
<event>
 8    1  0.3776180E-010  0.9118800E+02  0.7816164E-02  0.1184000E+00
        -11   -1    0    0    0    0  0.00000000000E+00  0.00000000000E+00  0.45593999997E+02  0.45594000000E+02  0.51100000000E-03 0. -1.
         11   -1    0    0    0    0 -0.00000000000E+00 -0.00000000000E+00 -0.45593999997E+02  0.45594000000E+02  0.51100000000E-03 0.  1.
         23    2    1    2    0    0  0.00000000000E+00  0.00000000000E+00  0.35527136788E-14  0.91188000000E+02  0.91188000000E+02 0.  0.
    9900012    2    3    3    0    0  0.14758390919E+02 -0.31127726080E+02 -0.26398388289E+02  0.47787304871E+02  0.20000154227E+02 0.  0.
         12    1    3    3    0    0 -0.14758390919E+02  0.31127726080E+02  0.26398388289E+02  0.43400695129E+02  0.00000000000E+00 0. -1.
         11    1    4    4    0    0  0.14580019970E+01 -0.75930458537E+01 -0.10548373984E+02  0.13078543846E+02  0.51100000000E-03 0. -1.
        -11    1    4    4    0    0  0.82984215721E+01 -0.85384963205E+01 -0.14616428659E+02  0.18852313041E+02  0.51100000000E-03 0.  1.
         12    1    4    4    0    0  0.50019673503E+01 -0.14996183906E+02 -0.12335856463E+01  0.15856447984E+02  0.00000000000E+00 0. -1.
</event>
<event>
 8    1  0.3776180E-010  0.9118800E+02  0.7816164E-02  0.1184000E+00
        -11   -1    0    0    0    0  0.00000000000E+00  0.00000000000E+00  0.45593999997E+02  0.45594000000E+02  0.51100000000E-03 0. -1.
         11   -1    0    0    0    0 -0.00000000000E+00 -0.00000000000E+00 -0.45593999997E+02  0.45594000000E+02  0.51100000000E-03 0.  1.
         23    2    1    2    0    0 -0.16653345369E-15  0.00000000000E+00  0.35527136788E-14  0.91188000000E+02  0.91188000000E+02 0.  0.
    9900012    2    3    3    0    0 -0.38954662075E+00  0.35423050442E+02  0.25073471188E+02  0.47787271820E+02  0.20000003536E+02 0.  0.
        -12    1    3    3    0    0  0.38954662075E+00 -0.35423050442E+02 -0.25073471188E+02  0.43400728180E+02  0.00000000000E+00 0.  1.
         11    1    4    4    0    0 -0.41335423502E+00  0.41697217411E+01  0.70984250810E+01  0.82428805653E+01  0.51100000000E-03 0. -1.
        -11    1    4    4    0    0 -0.15138038651E+01  0.89872533499E+01  0.14251983533E+02  0.16916895690E+02  0.51100000000E-03 0.  1.
        -12    1    4    4    0    0  0.15376114793E+01  0.22266075351E+02  0.37230625740E+01  0.22627495564E+02  0.00000000000E+00 0.  1.
</event>
<event>
 8    1  0.3776180E-010  0.9118800E+02  0.7816164E-02  0.1184000E+00
        -11   -1    0    0    0    0  0.00000000000E+00  0.00000000000E+00  0.45593999997E+02  0.45594000000E+02  0.51100000000E-03 0. -1.
         11   -1    0    0    0    0 -0.00000000000E+00 -0.00000000000E+00 -0.45593999997E+02  0.45594000000E+02  0.51100000000E-03 0.  1.
         23    2    1    2    0    0  0.00000000000E+00 -0.17763568394E-14  0.00000000000E+00  0.91188000000E+02  0.91188000000E+02 0.  0.
    9900012    2    3    3    0    0  0.13954699002E+02  0.78809386712E+01 -0.40333364158E+02  0.47787273245E+02  0.20000010032E+02 0.  0.
         12    1    3    3    0    0 -0.13954699002E+02 -0.78809386712E+01  0.40333364158E+02  0.43400726755E+02  0.00000000000E+00 0. -1.
         11    1    4    4    0    0  0.85278095871E+01  0.12751732126E+02 -0.22744553683E+02  0.27434374990E+02  0.51100000000E-03 0. -1.
        -11    1    4    4    0    0  0.72658421259E+00  0.13366348376E+01 -0.72622012529E+01  0.74198439745E+01  0.51100000000E-03 0.  1.
         12    1    4    4    0    0  0.47003052026E+01 -0.62074282922E+01 -0.10326609222E+02  0.12933054280E+02  0.00000000000E+00 0. -1.
</event>
<event>
 8    1  0.3776180E-010  0.9118800E+02  0.7816164E-02  0.1184000E+00
        -11   -1    0    0    0    0  0.00000000000E+00  0.00000000000E+00  0.45593999997E+02  0.45594000000E+02  0.51100000000E-03 0.  1.
         11   -1    0    0    0    0 -0.00000000000E+00 -0.00000000000E+00 -0.45593999997E+02  0.45594000000E+02  0.51100000000E-03 0. -1.
         23    2    1    2    0    0  0.35527136788E-14 -0.35527136788E-14  0.00000000000E+00  0.91188000000E+02  0.91188000000E+02 0.  0.
    9900012    2    3    3    0    0  0.22204785609E+02  0.23590586631E+02  0.28879985375E+02  0.47787287600E+02  0.20000075485E+02 0.  0.
        -12    1    3    3    0    0 -0.22204785609E+02 -0.23590586631E+02 -0.28879985375E+02  0.43400712400E+02  0.00000000000E+00 0.  1.
         11    1    4    4    0    0  0.99999466231E+01  0.69132535749E+01  0.11400160868E+02  0.16666003586E+02  0.51100000000E-03 0. -1.
        -11    1    4    4    0    0  0.15250166203E+02  0.15839799041E+02  0.12699534190E+02  0.25391828839E+02  0.51100000000E-03 0.  1.
        -12    1    4    4    0    0 -0.30453272177E+01  0.83753401506E+00  0.47802903170E+01  0.57294551752E+01  0.00000000000E+00 0.  1.
</event>
<event>
 8    1  0.3776180E-010  0.9118800E+02  0.7816164E-02  0.1184000E+00
        -11   -1    0    0    0    0  0.00000000000E+00  0.00000000000E+00  0.45593999997E+02  0.45594000000E+02  0.51100000000E-03 0. -1.
         11   -1    0    0    0    0 -0.00000000000E+00 -0.00000000000E+00 -0.45593999997E+02  0.45594000000E+02  0.51100000000E-03 0.  1.
         23    2    1    2    0    0 -0.10658141036E-13  0.00000000000E+00 -0.71054273576E-14  0.91188000000E+02  0.91188000000E+02 0.  0.
    9900012    2    3    3    0    0  0.22572668874E+02  0.94154348705E+01  0.35853136691E+02  0.47787271844E+02  0.20000003645E+02 0.  0.
        -12    1    3    3    0    0 -0.22572668874E+02 -0.94154348705E+01 -0.35853136691E+02  0.43400728156E+02  0.00000000000E+00 0.  1.
         11    1    4    4    0    0  0.70843292542E+01 -0.92290241670E-01  0.78278947074E+01  0.10558038373E+02  0.51100000000E-03 0.  1.
        -11    1    4    4    0    0  0.16807042237E+02  0.49037365138E+01  0.27232605578E+02  0.32374961118E+02  0.51100000000E-03 0. -1.
        -12    1    4    4    0    0 -0.13187026174E+01  0.46039885984E+01  0.79263640573E+00  0.48542723532E+01  0.00000000000E+00 0.  1.
</event>
<event>
 8    1  0.3776180E-010  0.9118800E+02  0.7816164E-02  0.1184000E+00
        -11   -1    0    0    0    0  0.00000000000E+00  0.00000000000E+00  0.45593999997E+02  0.45594000000E+02  0.51100000000E-03 0. -1.
         11   -1    0    0    0    0 -0.00000000000E+00 -0.00000000000E+00 -0.45593999997E+02  0.45594000000E+02  0.51100000000E-03 0.  1.
         23    2    1    2    0    0  0.00000000000E+00  0.00000000000E+00 -0.71054273576E-14  0.91188000000E+02  0.91188000000E+02 0.  0.
    9900012    2    3    3    0    0  0.15357159547E+02 -0.19626602928E+02 -0.35532763919E+02  0.47787271854E+02  0.20000003692E+02 0.  0.
         12    1    3    3    0    0 -0.15357159547E+02  0.19626602928E+02  0.35532763919E+02  0.43400728146E+02  0.00000000000E+00 0. -1.
         11    1    4    4    0    0 -0.15482495083E+01 -0.24552464734E+01 -0.23782352604E+01  0.37525078281E+01  0.51100000000E-03 0. -1.
        -11    1    4    4    0    0  0.10429427918E+02 -0.79810544739E+01 -0.29369407245E+02  0.32171917559E+02  0.51100000000E-03 0.  1.
         12    1    4    4    0    0  0.64759811375E+01 -0.91903019810E+01 -0.37851214133E+01  0.11862846467E+02  0.00000000000E+00 0. -1.
</event>
<event>
 8    1  0.3776180E-010  0.9118800E+02  0.7816164E-02  0.1184000E+00
        -11   -1    0    0    0    0  0.00000000000E+00  0.00000000000E+00  0.45593999997E+02  0.45594000000E+02  0.51100000000E-03 0. -1.
         11   -1    0    0    0    0 -0.00000000000E+00 -0.00000000000E+00 -0.45593999997E+02  0.45594000000E+02  0.51100000000E-03 0.  1.
         23    2    1    2    0    0  0.00000000000E+00  0.35527136788E-14  0.00000000000E+00  0.91188000000E+02  0.91188000000E+02 0.  0.
    9900012    2    3    3    0    0  0.33852766953E+02 -0.21868657625E+02 -0.16105119728E+02  0.47787275373E+02  0.20000019738E+02 0.  0.
         12    1    3    3    0    0 -0.33852766953E+02  0.21868657625E+02  0.16105119728E+02  0.43400724627E+02  0.00000000000E+00 0. -1.
         11    1    4    4    0    0  0.82925030440E+01 -0.34981509775E+01 -0.70676998579E+01  0.11443559260E+02  0.51100000000E-03 0. -1.
        -11    1    4    4    0    0  0.27267751264E+02 -0.15501576794E+02 -0.62236664372E+01  0.31977541592E+02  0.51100000000E-03 0.  1.
        -12    1    4    4    0    0 -0.17074873551E+01 -0.28689298534E+01 -0.28137534327E+01  0.43661745214E+01  0.00000000000E+00 0.  1.
</event>
<event>
 8    1  0.3776180E-010  0.9118800E+02  0.7816164E-02  0.1184000E+00
        -11   -1    0    0    0    0  0.00000000000E+00  0.00000000000E+00  0.45593999997E+02  0.45594000000E+02  0.51100000000E-03 0. -1.
         11   -1    0    0    0    0 -0.00000000000E+00 -0.00000000000E+00 -0.45593999997E+02  0.45594000000E+02  0.51100000000E-03 0.  1.
         23    2    1    2    0    0  0.00000000000E+00  0.00000000000E+00  0.00000000000E+00  0.91188000000E+02  0.91188000000E+02 0.  0.
    9900012    2    3    3    0    0  0.16746851484E+02 -0.34977428400E+02  0.19487069385E+02  0.47787269530E+02  0.19999993096E+02 0.  0.
        -12    1    3    3    0    0 -0.16746851484E+02  0.34977428400E+02 -0.19487069385E+02  0.43400730470E+02  0.00000000000E+00 0.  1.
         11    1    4    4    0    0 -0.11552141701E+01 -0.23812717128E+01 -0.10215857645E+01  0.28370076638E+01  0.51100000000E-03 0. -1.
        -11    1    4    4    0    0  0.21400337377E+00 -0.26640272847E+01  0.72727243194E+01  0.77482487121E+01  0.51100000000E-03 0.  1.
         12    1    4    4    0    0  0.17688062280E+02 -0.29932129403E+02  0.13235930830E+02  0.37202013154E+02  0.00000000000E+00 0. -1.
</event>
<event>
 8    1  0.3776180E-010  0.9118800E+02  0.7816164E-02  0.1184000E+00
        -11   -1    0    0    0    0  0.00000000000E+00  0.00000000000E+00  0.45593999997E+02  0.45594000000E+02  0.51100000000E-03 0. -1.
         11   -1    0    0    0    0 -0.00000000000E+00 -0.00000000000E+00 -0.45593999997E+02  0.45594000000E+02  0.51100000000E-03 0.  1.
         23    2    1    2    0    0  0.22204460493E-15 -0.17763568394E-14  0.00000000000E+00  0.91188000000E+02  0.91188000000E+02 0.  0.
    9900012    2    3    3    0    0 -0.16539884994E+01 -0.10548212823E+02  0.42066894169E+02  0.47787262026E+02  0.19999958880E+02 0.  0.
        -12    1    3    3    0    0  0.16539884994E+01  0.10548212823E+02 -0.42066894169E+02  0.43400737974E+02  0.00000000000E+00 0.  1.
         11    1    4    4    0    0 -0.49799556675E+01 -0.10591458674E+02  0.27276198765E+02  0.29681138364E+02  0.51100000000E-03 0. -1.
        -11    1    4    4    0    0 -0.13335597248E+01 -0.12711693571E+01  0.12699459659E+02  0.12832401528E+02  0.51100000000E-03 0.  1.
        -12    1    4    4    0    0  0.46595268929E+01  0.13144152072E+01  0.20912357445E+01  0.52737221336E+01  0.00000000000E+00 0.  1.
</event>
<event>
 8    1  0.3776180E-010  0.9118800E+02  0.7816164E-02  0.1184000E+00
        -11   -1    0    0    0    0  0.00000000000E+00  0.00000000000E+00  0.45593999997E+02  0.45594000000E+02  0.51100000000E-03 0. -1.
         11   -1    0    0    0    0 -0.00000000000E+00 -0.00000000000E+00 -0.45593999997E+02  0.45594000000E+02  0.51100000000E-03 0.  1.
         23    2    1    2    0    0  0.71054273576E-14  0.00000000000E+00  0.00000000000E+00  0.91188000000E+02  0.91188000000E+02 0.  0.
    9900012    2    3    3    0    0 -0.41921968585E+02  0.57985280132E+01  0.96202360218E+01  0.47787270533E+02  0.19999997669E+02 0.  0.
        -12    1    3    3    0    0  0.41921968585E+02 -0.57985280132E+01 -0.96202360218E+01  0.43400729467E+02  0.00000000000E+00 0.  1.
         11    1    4    4    0    0 -0.11358034131E+02  0.64426895498E+01  0.39091353294E+01  0.13630646619E+02  0.51100000000E-03 0. -1.
        -11    1    4    4    0    0 -0.36002218767E+01  0.48140519719E+01 -0.21397761679E+00  0.60151874976E+01  0.51100000000E-03 0.  1.
         12    1    4    4    0    0 -0.26963712577E+02 -0.54582135086E+01  0.59250783093E+01  0.28141436417E+02  0.00000000000E+00 0. -1.
</event>
<event>
 8    1  0.3776180E-010  0.9118800E+02  0.7816164E-02  0.1184000E+00
        -11   -1    0    0    0    0  0.00000000000E+00  0.00000000000E+00  0.45593999997E+02  0.45594000000E+02  0.51100000000E-03 0. -1.
         11   -1    0    0    0    0 -0.00000000000E+00 -0.00000000000E+00 -0.45593999997E+02  0.45594000000E+02  0.51100000000E-03 0.  1.
         23    2    1    2    0    0  0.00000000000E+00 -0.44408920985E-15  0.00000000000E+00  0.91188000000E+02  0.91188000000E+02 0.  0.
    9900012    2    3    3    0    0 -0.13780003469E+02 -0.24723910138E+01  0.41080675900E+02  0.47787272526E+02  0.20000006753E+02 0.  0.
        -12    1    3    3    0    0  0.13780003469E+02  0.24723910138E+01 -0.41080675900E+02  0.43400727474E+02  0.00000000000E+00 0.  1.
         11    1    4    4    0    0 -0.19842453168E+01 -0.19032032567E+01  0.18050242774E+01  0.32890006106E+01  0.51100000000E-03 0. -1.
        -11    1    4    4    0    0 -0.12184352703E+01 -0.42474814229E+01  0.28886985977E+02  0.29222998513E+02  0.51100000000E-03 0.  1.
         12    1    4    4    0    0 -0.10577322882E+02  0.36782936658E+01  0.10388665645E+02  0.15275273402E+02  0.00000000000E+00 0. -1.
</event>
<event>
 8    1  0.3776180E-010  0.9118800E+02  0.7816164E-02  0.1184000E+00
        -11   -1    0    0    0    0  0.00000000000E+00  0.00000000000E+00  0.45593999997E+02  0.45594000000E+02  0.51100000000E-03 0. -1.
         11   -1    0    0    0    0 -0.00000000000E+00 -0.00000000000E+00 -0.45593999997E+02  0.45594000000E+02  0.51100000000E-03 0.  1.
         23    2    1    2    0    0  0.13322676296E-14  0.00000000000E+00  0.00000000000E+00  0.91188000000E+02  0.91188000000E+02 0.  0.
    9900012    2    3    3    0    0 -0.36502852727E+01  0.15642231974E+02  0.40318968310E+02  0.47787271788E+02  0.20000003392E+02 0.  0.
        -12    1    3    3    0    0  0.36502852727E+01 -0.15642231974E+02 -0.40318968310E+02  0.43400728212E+02  0.00000000000E+00 0.  1.
         11    1    4    4    0    0 -0.34304429106E+01  0.29475884789E+01  0.22596237227E+01  0.50558991320E+01  0.51100000000E-03 0. -1.
        -11    1    4    4    0    0 -0.60915019181E+01  0.50065671851E+01  0.26551920174E+02  0.27697952556E+02  0.51100000000E-03 0.  1.
        -12    1    4    4    0    0  0.58716595560E+01  0.76880763095E+01  0.11507424414E+02  0.15033420100E+02  0.00000000000E+00 0.  1.
</event>
<event>
 8    1  0.3776180E-010  0.9118800E+02  0.7816164E-02  0.1184000E+00
        -11   -1    0    0    0    0  0.00000000000E+00  0.00000000000E+00  0.45593999997E+02  0.45594000000E+02  0.51100000000E-03 0. -1.
         11   -1    0    0    0    0 -0.00000000000E+00 -0.00000000000E+00 -0.45593999997E+02  0.45594000000E+02  0.51100000000E-03 0.  1.
         23    2    1    2    0    0 -0.35527136788E-14 -0.17763568394E-14  0.00000000000E+00  0.91188000000E+02  0.91188000000E+02 0.  0.
    9900012    2    3    3    0    0  0.19716990658E+02  0.13573762887E+02  0.36202436314E+02  0.47787272418E+02  0.20000006264E+02 0.  0.
        -12    1    3    3    0    0 -0.19716990658E+02 -0.13573762887E+02 -0.36202436314E+02  0.43400727582E+02  0.00000000000E+00 0.  1.
         11    1    4    4    0    0  0.69583161847E+01  0.61763804346E+01  0.26429068972E+02  0.28018949416E+02  0.51100000000E-03 0. -1.
        -11    1    4    4    0    0 -0.75525082751E-01  0.38259522472E+01  0.27159752634E+01  0.46925618300E+01  0.51100000000E-03 0.  1.
        -12    1    4    4    0    0  0.12834199556E+02  0.35714302050E+01  0.70573920785E+01  0.15075761172E+02  0.00000000000E+00 0.  1.
</event>
<event>
 8    1  0.3776180E-010  0.9118800E+02  0.7816164E-02  0.1184000E+00
        -11   -1    0    0    0    0  0.00000000000E+00  0.00000000000E+00  0.45593999997E+02  0.45594000000E+02  0.51100000000E-03 0. -1.
         11   -1    0    0    0    0 -0.00000000000E+00 -0.00000000000E+00 -0.45593999997E+02  0.45594000000E+02  0.51100000000E-03 0.  1.
         23    2    1    2    0    0  0.00000000000E+00  0.00000000000E+00 -0.35527136788E-14  0.91188000000E+02  0.91188000000E+02 0.  0.
    9900012    2    3    3    0    0 -0.28963978836E+02 -0.26211099336E+02 -0.18912680600E+02  0.47787270906E+02  0.19999999368E+02 0.  0.
         12    1    3    3    0    0  0.28963978836E+02  0.26211099336E+02  0.18912680600E+02  0.43400729094E+02  0.00000000000E+00 0. -1.
         11    1    4    4    0    0 -0.76943159165E+01 -0.45056415806E+01 -0.21797050205E+01  0.91790205204E+01  0.51100000000E-03 0. -1.
        -11    1    4    4    0    0 -0.16947824713E+02 -0.13075238579E+02 -0.26979734234E+01  0.21574746517E+02  0.51100000000E-03 0.  1.
        -12    1    4    4    0    0 -0.43218382058E+01 -0.86302191770E+01 -0.14035002156E+02  0.17033503869E+02  0.00000000000E+00 0.  1.
</event>
<event>
 8    1  0.3776180E-010  0.9118800E+02  0.7816164E-02  0.1184000E+00
        -11   -1    0    0    0    0  0.00000000000E+00  0.00000000000E+00  0.45593999997E+02  0.45594000000E+02  0.51100000000E-03 0. -1.
         11   -1    0    0    0    0 -0.00000000000E+00 -0.00000000000E+00 -0.45593999997E+02  0.45594000000E+02  0.51100000000E-03 0.  1.
         23    2    1    2    0    0  0.00000000000E+00  0.00000000000E+00  0.00000000000E+00  0.91188000000E+02  0.91188000000E+02 0.  0.
    9900012    2    3    3    0    0  0.23467682447E+02 -0.16787936665E+02 -0.32419998128E+02  0.47787271717E+02  0.20000003065E+02 0.  0.
         12    1    3    3    0    0 -0.23467682447E+02  0.16787936665E+02  0.32419998128E+02  0.43400728283E+02  0.00000000000E+00 0. -1.
         11    1    4    4    0    0  0.30855095336E+00 -0.39776667517E+01 -0.94349145227E+01  0.10243761457E+02  0.51100000000E-03 0. -1.
        -11    1    4    4    0    0  0.11437561396E+02 -0.68577924475E-01 -0.13869029500E+02  0.17976999003E+02  0.51100000000E-03 0.  1.
         12    1    4    4    0    0  0.11721570098E+02 -0.12741691989E+02 -0.91160541054E+01  0.19566511257E+02  0.00000000000E+00 0. -1.
</event>
<event>
 8    1  0.3776180E-010  0.9118800E+02  0.7816164E-02  0.1184000E+00
        -11   -1    0    0    0    0  0.00000000000E+00  0.00000000000E+00  0.45593999997E+02  0.45594000000E+02  0.51100000000E-03 0. -1.
         11   -1    0    0    0    0 -0.00000000000E+00 -0.00000000000E+00 -0.45593999997E+02  0.45594000000E+02  0.51100000000E-03 0.  1.
         23    2    1    2    0    0  0.66613381478E-15 -0.16653345369E-15  0.00000000000E+00  0.91188000000E+02  0.91188000000E+02 0.  0.
    9900012    2    3    3    0    0 -0.97594429905E+00 -0.32364960213E+00  0.43388572672E+02  0.47787245919E+02  0.19999885442E+02 0.  0.
        -12    1    3    3    0    0  0.97594429905E+00  0.32364960213E+00 -0.43388572672E+02  0.43400754081E+02  0.00000000000E+00 0.  1.
         11    1    4    4    0    0  0.45402206260E+01 -0.26333221242E+01  0.77585680320E+01  0.93671429428E+01  0.51100000000E-03 0. -1.
        -11    1    4    4    0    0  0.24540669797E-01  0.15763380339E+01 -0.65499835641E+00  0.17071809950E+01  0.51100000000E-03 0.  1.
        -12    1    4    4    0    0 -0.55407055948E+01  0.73333448817E+00  0.36285002996E+02  0.36712921981E+02  0.00000000000E+00 0.  1.
</event>
<event>
 8    1  0.3776180E-010  0.9118800E+02  0.7816164E-02  0.1184000E+00
        -11   -1    0    0    0    0  0.00000000000E+00  0.00000000000E+00  0.45593999997E+02  0.45594000000E+02  0.51100000000E-03 0. -1.
         11   -1    0    0    0    0 -0.00000000000E+00 -0.00000000000E+00 -0.45593999997E+02  0.45594000000E+02  0.51100000000E-03 0.  1.
         23    2    1    2    0    0 -0.66613381478E-15  0.00000000000E+00 -0.71054273576E-14  0.91188000000E+02  0.91188000000E+02 0.  0.
    9900012    2    3    3    0    0 -0.14117707939E+01 -0.21005507704E+02 -0.37952584690E+02  0.47787272641E+02  0.20000007278E+02 0.  0.
         12    1    3    3    0    0  0.14117707939E+01  0.21005507704E+02  0.37952584690E+02  0.43400727359E+02  0.00000000000E+00 0. -1.
         11    1    4    4    0    0 -0.66647580331E+01 -0.20151429248E+02 -0.20493643671E+02  0.29504042631E+02  0.51100000000E-03 0. -1.
        -11    1    4    4    0    0  0.31313658940E+01 -0.22631978319E+00 -0.86994338832E+01  0.92486119583E+01  0.51100000000E-03 0.  1.
         12    1    4    4    0    0  0.21216213452E+01 -0.62775867299E+00 -0.87595071357E+01  0.90346180520E+01  0.00000000000E+00 0. -1.
</event>
<event>
 8    1  0.3776180E-010  0.9118800E+02  0.7816164E-02  0.1184000E+00
        -11   -1    0    0    0    0  0.00000000000E+00  0.00000000000E+00  0.45593999997E+02  0.45594000000E+02  0.51100000000E-03 0. -1.
         11   -1    0    0    0    0 -0.00000000000E+00 -0.00000000000E+00 -0.45593999997E+02  0.45594000000E+02  0.51100000000E-03 0.  1.
         23    2    1    2    0    0  0.89858676056E-15  0.35527136788E-14  0.00000000000E+00  0.91188000000E+02  0.91188000000E+02 0.  0.
    9900012    2    3    3    0    0 -0.28727115767E-01  0.22954811927E+02 -0.36833393701E+02  0.47787272963E+02  0.20000008747E+02 0.  0.
         12    1    3    3    0    0  0.28727115767E-01 -0.22954811927E+02  0.36833393701E+02  0.43400727037E+02  0.00000000000E+00 0. -1.
         11    1    4    4    0    0 -0.75197485001E+01  0.67469895567E+01 -0.11249178935E+02  0.15119937584E+02  0.51100000000E-03 0. -1.
        -11    1    4    4    0    0  0.16170072397E+01  0.19867636210E+00 -0.80312795350E+01  0.81948542354E+01  0.51100000000E-03 0.  1.
        -12    1    4    4    0    0  0.58740141446E+01  0.16009146008E+02 -0.17552935231E+02  0.24472481143E+02  0.00000000000E+00 0.  1.
</event>
<event>
 8    1  0.3776180E-010  0.9118800E+02  0.7816164E-02  0.1184000E+00
        -11   -1    0    0    0    0  0.00000000000E+00  0.00000000000E+00  0.45593999997E+02  0.45594000000E+02  0.51100000000E-03 0. -1.
         11   -1    0    0    0    0 -0.00000000000E+00 -0.00000000000E+00 -0.45593999997E+02  0.45594000000E+02  0.51100000000E-03 0.  1.
         23    2    1    2    0    0  0.44408920985E-15  0.00000000000E+00  0.00000000000E+00  0.91188000000E+02  0.91188000000E+02 0.  0.
    9900012    2    3    3    0    0 -0.38984618822E+01  0.15068855886E+02  0.40513638550E+02  0.47787270382E+02  0.19999996981E+02 0.  0.
        -12    1    3    3    0    0  0.38984618822E+01 -0.15068855886E+02 -0.40513638550E+02  0.43400729618E+02  0.00000000000E+00 0.  1.
         11    1    4    4    0    0  0.25808061965E+01  0.12438749631E+02  0.25202647163E+02  0.28223332143E+02  0.51100000000E-03 0. -1.
        -11    1    4    4    0    0  0.19742732423E+01 -0.11030535361E+01  0.87802311804E+00  0.24259857369E+01  0.51100000000E-03 0.  1.
         12    1    4    4    0    0 -0.84535413210E+01  0.37331597918E+01  0.14432968269E+02  0.17137952502E+02  0.00000000000E+00 0. -1.
</event>
<event>
 8    1  0.3776180E-010  0.9118800E+02  0.7816164E-02  0.1184000E+00
        -11   -1    0    0    0    0  0.00000000000E+00  0.00000000000E+00  0.45593999997E+02  0.45594000000E+02  0.51100000000E-03 0. -1.
         11   -1    0    0    0    0 -0.00000000000E+00 -0.00000000000E+00 -0.45593999997E+02  0.45594000000E+02  0.51100000000E-03 0.  1.
         23    2    1    2    0    0  0.00000000000E+00  0.00000000000E+00  0.00000000000E+00  0.91188000000E+02  0.91188000000E+02 0.  0.
    9900012    2    3    3    0    0  0.35029886004E+01 -0.18808683514E+02 -0.38956208375E+02  0.47787266416E+02  0.19999978898E+02 0.  0.
         12    1    3    3    0    0 -0.35029886004E+01  0.18808683514E+02  0.38956208375E+02  0.43400733584E+02  0.00000000000E+00 0. -1.
         11    1    4    4    0    0 -0.69487689518E+01 -0.51784373583E+01 -0.18246073781E+02  0.20199525047E+02  0.51100000000E-03 0. -1.
        -11    1    4    4    0    0  0.21083341315E+01 -0.15785892724E+01 -0.59786387217E+00  0.27008254982E+01  0.51100000000E-03 0.  1.
        -12    1    4    4    0    0  0.83434234207E+01 -0.12051656884E+02 -0.20112270721E+02  0.24886915871E+02  0.00000000000E+00 0.  1.
</event>
<event>
 8    1  0.3776180E-010  0.9118800E+02  0.7816164E-02  0.1184000E+00
        -11   -1    0    0    0    0  0.00000000000E+00  0.00000000000E+00  0.45593999997E+02  0.45594000000E+02  0.51100000000E-03 0. -1.
         11   -1    0    0    0    0 -0.00000000000E+00 -0.00000000000E+00 -0.45593999997E+02  0.45594000000E+02  0.51100000000E-03 0.  1.
         23    2    1    2    0    0 -0.35527136788E-14  0.00000000000E+00  0.71054273576E-14  0.91188000000E+02  0.91188000000E+02 0.  0.
    9900012    2    3    3    0    0  0.17598551325E+02  0.12616165418E+02 -0.37613118927E+02  0.47787270121E+02  0.19999995790E+02 0.  0.
         12    1    3    3    0    0 -0.17598551325E+02 -0.12616165418E+02  0.37613118927E+02  0.43400729879E+02  0.00000000000E+00 0. -1.
         11    1    4    4    0    0  0.13440808969E+01 -0.22609270567E+01  0.83673681077E+00  0.27601582137E+01  0.51100000000E-03 0.  1.
        -11    1    4    4    0    0  0.89530973231E+01  0.10310956988E+02 -0.16312353019E+02  0.21273613867E+02  0.51100000000E-03 0. -1.
        -12    1    4    4    0    0  0.73013731049E+01  0.45661354860E+01 -0.22137502720E+02  0.23753498040E+02  0.00000000000E+00 0.  1.
</event>
<event>
 8    1  0.3776180E-010  0.9118800E+02  0.7816164E-02  0.1184000E+00
        -11   -1    0    0    0    0  0.00000000000E+00  0.00000000000E+00  0.45593999997E+02  0.45594000000E+02  0.51100000000E-03 0. -1.
         11   -1    0    0    0    0 -0.00000000000E+00 -0.00000000000E+00 -0.45593999997E+02  0.45594000000E+02  0.51100000000E-03 0.  1.
         23    2    1    2    0    0  0.17763568394E-14  0.00000000000E+00  0.00000000000E+00  0.91188000000E+02  0.91188000000E+02 0.  0.
    9900012    2    3    3    0    0  0.13837423634E+02  0.32237726142E+02  0.25551461201E+02  0.47787280546E+02  0.20000043322E+02 0.  0.
        -12    1    3    3    0    0 -0.13837423634E+02 -0.32237726142E+02 -0.25551461201E+02  0.43400719454E+02  0.00000000000E+00 0.  1.
         11    1    4    4    0    0  0.31050626379E+01  0.64149825175E+01  0.74661885544E+01  0.10321694942E+02  0.51100000000E-03 0. -1.
        -11    1    4    4    0    0  0.13107081178E+02  0.25323182897E+02  0.19603731521E+02  0.34602968931E+02  0.51100000000E-03 0.  1.
         12    1    4    4    0    0 -0.23747201822E+01  0.49956072776E+00 -0.15184588746E+01  0.28626166733E+01  0.00000000000E+00 0. -1.
</event>
<event>
 8    1  0.3776180E-010  0.9118800E+02  0.7816164E-02  0.1184000E+00
        -11   -1    0    0    0    0  0.00000000000E+00  0.00000000000E+00  0.45593999997E+02  0.45594000000E+02  0.51100000000E-03 0. -1.
         11   -1    0    0    0    0 -0.00000000000E+00 -0.00000000000E+00 -0.45593999997E+02  0.45594000000E+02  0.51100000000E-03 0.  1.
         23    2    1    2    0    0  0.00000000000E+00  0.00000000000E+00  0.00000000000E+00  0.91188000000E+02  0.91188000000E+02 0.  0.
    9900012    2    3    3    0    0  0.13691288299E+02 -0.19122279504E+02  0.36476159825E+02  0.47787272077E+02  0.20000004707E+02 0.  0.
        -12    1    3    3    0    0 -0.13691288299E+02  0.19122279504E+02 -0.36476159825E+02  0.43400727923E+02  0.00000000000E+00 0.  1.
         11    1    4    4    0    0  0.27554636206E+01 -0.49445872315E+01  0.17049809305E+02  0.17964896889E+02  0.51100000000E-03 0. -1.
        -11    1    4    4    0    0  0.10300383166E+02 -0.15144911140E+02  0.21002473494E+02  0.27867007732E+02  0.51100000000E-03 0.  1.
        -12    1    4    4    0    0  0.63544151215E+00  0.96721886795E+00 -0.15761229744E+01  0.19553674550E+01  0.00000000000E+00 0.  1.
</event>
<event>
 8    1  0.3776180E-010  0.9118800E+02  0.7816164E-02  0.1184000E+00
        -11   -1    0    0    0    0  0.00000000000E+00  0.00000000000E+00  0.45593999997E+02  0.45594000000E+02  0.51100000000E-03 0. -1.
         11   -1    0    0    0    0 -0.00000000000E+00 -0.00000000000E+00 -0.45593999997E+02  0.45594000000E+02  0.51100000000E-03 0.  1.
         23    2    1    2    0    0  0.00000000000E+00  0.00000000000E+00  0.00000000000E+00  0.91188000000E+02  0.91188000000E+02 0.  0.
    9900012    2    3    3    0    0 -0.22870249350E+02 -0.16306498451E+02  0.33085846253E+02  0.47787269369E+02  0.19999992360E+02 0.  0.
        -12    1    3    3    0    0  0.22870249350E+02  0.16306498451E+02 -0.33085846253E+02  0.43400730631E+02  0.00000000000E+00 0.  1.
         11    1    4    4    0    0  0.69559501410E+00  0.65979321157E+00 -0.37878396651E+00  0.10308525889E+01  0.51100000000E-03 0.  1.
        -11    1    4    4    0    0 -0.16386318298E+02 -0.47746005137E+01  0.11329421005E+02  0.20485702770E+02  0.51100000000E-03 0. -1.
         12    1    4    4    0    0 -0.71795260663E+01 -0.12191691149E+02  0.22135209215E+02  0.26270714010E+02  0.00000000000E+00 0. -1.
</event>
<event>
 8    1  0.3776180E-010  0.9118800E+02  0.7816164E-02  0.1184000E+00
        -11   -1    0    0    0    0  0.00000000000E+00  0.00000000000E+00  0.45593999997E+02  0.45594000000E+02  0.51100000000E-03 0. -1.
         11   -1    0    0    0    0 -0.00000000000E+00 -0.00000000000E+00 -0.45593999997E+02  0.45594000000E+02  0.51100000000E-03 0.  1.
         23    2    1    2    0    0  0.00000000000E+00  0.17763568394E-14  0.17763568394E-14  0.91188000000E+02  0.91188000000E+02 0.  0.
    9900012    2    3    3    0    0 -0.39535722585E+02 -0.15277546355E+02  0.93352192014E+01  0.47787273042E+02  0.20000009106E+02 0.  0.
        -12    1    3    3    0    0  0.39535722585E+02  0.15277546355E+02 -0.93352192014E+01  0.43400726958E+02  0.00000000000E+00 0.  1.
         11    1    4    4    0    0 -0.81865687782E+00  0.99881080407E+00 -0.24096938046E+00  0.13137307979E+01  0.51100000000E-03 0. -1.
        -11    1    4    4    0    0 -0.25638428938E+02 -0.13327360601E+02 -0.17136067034E+01  0.28946226476E+02  0.51100000000E-03 0.  1.
         12    1    4    4    0    0 -0.13078636769E+02 -0.29489965587E+01  0.11289795285E+02  0.17527315768E+02  0.00000000000E+00 0. -1.
</event>
<event>
 8    1  0.3776180E-010  0.9118800E+02  0.7816164E-02  0.1184000E+00
        -11   -1    0    0    0    0  0.00000000000E+00  0.00000000000E+00  0.45593999997E+02  0.45594000000E+02  0.51100000000E-03 0. -1.
         11   -1    0    0    0    0 -0.00000000000E+00 -0.00000000000E+00 -0.45593999997E+02  0.45594000000E+02  0.51100000000E-03 0.  1.
         23    2    1    2    0    0  0.00000000000E+00  0.35527136788E-14  0.00000000000E+00  0.91188000000E+02  0.91188000000E+02 0.  0.
    9900012    2    3    3    0    0  0.11464492784E+02  0.22135353320E+02  0.35527661616E+02  0.47787271881E+02  0.20000003815E+02 0.  0.
        -12    1    3    3    0    0 -0.11464492784E+02 -0.22135353320E+02 -0.35527661616E+02  0.43400728119E+02  0.00000000000E+00 0.  1.
         11    1    4    4    0    0  0.42994655256E+01  0.11049167809E+02  0.16623755428E+02  0.20418588538E+02  0.51100000000E-03 0. -1.
        -11    1    4    4    0    0  0.12241162801E+01  0.13024293730E+02  0.15393103357E+02  0.20200948469E+02  0.51100000000E-03 0.  1.
        -12    1    4    4    0    0  0.59409109779E+01 -0.19381082189E+01  0.35108028305E+01  0.71677348745E+01  0.00000000000E+00 0.  1.
</event>
<event>
 8    1  0.3776180E-010  0.9118800E+02  0.7816164E-02  0.1184000E+00
        -11   -1    0    0    0    0  0.00000000000E+00  0.00000000000E+00  0.45593999997E+02  0.45594000000E+02  0.51100000000E-03 0. -1.
         11   -1    0    0    0    0 -0.00000000000E+00 -0.00000000000E+00 -0.45593999997E+02  0.45594000000E+02  0.51100000000E-03 0.  1.
         23    2    1    2    0    0  0.22204460493E-15  0.00000000000E+00 -0.17763568394E-14  0.91188000000E+02  0.91188000000E+02 0.  0.
    9900012    2    3    3    0    0  0.45794229725E+00  0.41685010898E+02 -0.12073698050E+02  0.47787262342E+02  0.19999960321E+02 0.  0.
         12    1    3    3    0    0 -0.45794229725E+00 -0.41685010898E+02  0.12073698050E+02  0.43400737658E+02  0.00000000000E+00 0. -1.
         11    1    4    4    0    0  0.19524818537E+01  0.41831725340E+01  0.31159747217E+01  0.55695975228E+01  0.51100000000E-03 0. -1.
        -11    1    4    4    0    0  0.37333665267E+01  0.77559555440E+01 -0.47197003163E+00  0.86206512512E+01  0.51100000000E-03 0.  1.
         12    1    4    4    0    0 -0.52279060831E+01  0.29745882820E+02 -0.14717702740E+02  0.33597013568E+02  0.00000000000E+00 0. -1.
</event>
<event>
 8    1  0.3776180E-010  0.9118800E+02  0.7816164E-02  0.1184000E+00
        -11   -1    0    0    0    0  0.00000000000E+00  0.00000000000E+00  0.45593999997E+02  0.45594000000E+02  0.51100000000E-03 0. -1.
         11   -1    0    0    0    0 -0.00000000000E+00 -0.00000000000E+00 -0.45593999997E+02  0.45594000000E+02  0.51100000000E-03 0.  1.
         23    2    1    2    0    0  0.00000000000E+00  0.17763568394E-14  0.00000000000E+00  0.91188000000E+02  0.91188000000E+02 0.  0.
    9900012    2    3    3    0    0  0.16543517467E+02 -0.10215504329E+02 -0.38801788878E+02  0.47787270525E+02  0.19999997631E+02 0.  0.
         12    1    3    3    0    0 -0.16543517467E+02  0.10215504329E+02  0.38801788878E+02  0.43400729475E+02  0.00000000000E+00 0. -1.
         11    1    4    4    0    0  0.10543875086E+01  0.20122659688E+01 -0.27483069875E+01  0.35656891208E+01  0.51100000000E-03 0. -1.
        -11    1    4    4    0    0  0.21036002823E+01 -0.10382270440E+02 -0.86816883693E+01  0.13696290988E+02  0.51100000000E-03 0.  1.
        -12    1    4    4    0    0  0.13385529676E+02 -0.18454998578E+01 -0.27371793521E+02  0.30525290416E+02  0.00000000000E+00 0.  1.
</event>
<event>
 8    1  0.3776180E-010  0.9118800E+02  0.7816164E-02  0.1184000E+00
        -11   -1    0    0    0    0  0.00000000000E+00  0.00000000000E+00  0.45593999997E+02  0.45594000000E+02  0.51100000000E-03 0. -1.
         11   -1    0    0    0    0 -0.00000000000E+00 -0.00000000000E+00 -0.45593999997E+02  0.45594000000E+02  0.51100000000E-03 0.  1.
         23    2    1    2    0    0  0.00000000000E+00  0.00000000000E+00  0.00000000000E+00  0.91188000000E+02  0.91188000000E+02 0.  0.
    9900012    2    3    3    0    0  0.63354163811E+01 -0.19762148408E+02 -0.38117495560E+02  0.47787268690E+02  0.19999989267E+02 0.  0.
         12    1    3    3    0    0 -0.63354163811E+01  0.19762148408E+02  0.38117495560E+02  0.43400731310E+02  0.00000000000E+00 0. -1.
         11    1    4    4    0    0  0.63550701168E+01 -0.12983698858E+02 -0.21189269416E+02  0.25650506640E+02  0.51100000000E-03 0. -1.
        -11    1    4    4    0    0  0.59467813832E+01 -0.38498192921E+01 -0.11712118932E+02  0.13687916114E+02  0.51100000000E-03 0.  1.
         12    1    4    4    0    0 -0.59664351189E+01 -0.29286302575E+01 -0.52161072122E+01  0.84488459368E+01  0.00000000000E+00 0. -1.
</event>
<event>
 8    1  0.3776180E-010  0.9118800E+02  0.7816164E-02  0.1184000E+00
        -11   -1    0    0    0    0  0.00000000000E+00  0.00000000000E+00  0.45593999997E+02  0.45594000000E+02  0.51100000000E-03 0. -1.
         11   -1    0    0    0    0 -0.00000000000E+00 -0.00000000000E+00 -0.45593999997E+02  0.45594000000E+02  0.51100000000E-03 0.  1.
         23    2    1    2    0    0  0.00000000000E+00  0.00000000000E+00  0.00000000000E+00  0.91188000000E+02  0.91188000000E+02 0.  0.
    9900012    2    3    3    0    0  0.49178726984E+01  0.33665082435E+02 -0.26946241154E+02  0.47787272361E+02  0.20000006004E+02 0.  0.
         12    1    3    3    0    0 -0.49178726984E+01 -0.33665082435E+02  0.26946241154E+02  0.43400727639E+02  0.00000000000E+00 0. -1.
         11    1    4    4    0    0  0.28745838583E+01  0.11783937914E+02 -0.14921163367E+02  0.19229288640E+02  0.51100000000E-03 0. -1.
        -11    1    4    4    0    0  0.27200516686E+01  0.21310508896E+01 -0.75394947929E+01  0.82936144694E+01  0.51100000000E-03 0.  1.
         12    1    4    4    0    0 -0.67676282845E+00  0.19750093631E+02 -0.44855829940E+01  0.20264369252E+02  0.00000000000E+00 0. -1.
</event>
<event>
 8    1  0.3776180E-010  0.9118800E+02  0.7816164E-02  0.1184000E+00
        -11   -1    0    0    0    0  0.00000000000E+00  0.00000000000E+00  0.45593999997E+02  0.45594000000E+02  0.51100000000E-03 0. -1.
         11   -1    0    0    0    0 -0.00000000000E+00 -0.00000000000E+00 -0.45593999997E+02  0.45594000000E+02  0.51100000000E-03 0.  1.
         23    2    1    2    0    0 -0.71054273576E-14  0.00000000000E+00  0.00000000000E+00  0.91188000000E+02  0.91188000000E+02 0.  0.
    9900012    2    3    3    0    0 -0.37799627053E+02 -0.18416866723E+02 -0.10753160058E+02  0.47787271475E+02  0.20000001965E+02 0.  0.
         12    1    3    3    0    0  0.37799627053E+02  0.18416866723E+02  0.10753160058E+02  0.43400728525E+02  0.00000000000E+00 0. -1.
         11    1    4    4    0    0  0.90562106677E+00 -0.12919983724E+01  0.25249718580E+01  0.29773969261E+01  0.51100000000E-03 0. -1.
        -11    1    4    4    0    0 -0.64225624502E+01 -0.22705964728E+01  0.16982922148E+00  0.68142320914E+01  0.51100000000E-03 0.  1.
        -12    1    4    4    0    0 -0.32282685669E+02 -0.14854271878E+02 -0.13447961137E+02  0.37995642458E+02  0.00000000000E+00 0.  1.
</event>
<event>
 8    1  0.3776180E-010  0.9118800E+02  0.7816164E-02  0.1184000E+00
        -11   -1    0    0    0    0  0.00000000000E+00  0.00000000000E+00  0.45593999997E+02  0.45594000000E+02  0.51100000000E-03 0. -1.
         11   -1    0    0    0    0 -0.00000000000E+00 -0.00000000000E+00 -0.45593999997E+02  0.45594000000E+02  0.51100000000E-03 0.  1.
         23    2    1    2    0    0  0.00000000000E+00  0.00000000000E+00  0.00000000000E+00  0.91188000000E+02  0.91188000000E+02 0.  0.
    9900012    2    3    3    0    0  0.24104661181E+02  0.10224799163E+02 -0.34612668034E+02  0.47787331838E+02  0.20000277178E+02 0.  0.
         12    1    3    3    0    0 -0.24104661181E+02 -0.10224799163E+02  0.34612668034E+02  0.43400668162E+02  0.00000000000E+00 0. -1.
         11    1    4    4    0    0  0.17271289516E+02  0.13963848849E+01 -0.22018510973E+02  0.28018960688E+02  0.51100000000E-03 0. -1.
        -11    1    4    4    0    0  0.87038741334E+01  0.66933060947E+01 -0.12869000422E+02  0.16916528708E+02  0.51100000000E-03 0.  1.
         12    1    4    4    0    0 -0.18705024687E+01  0.21351081830E+01  0.27484336167E+00  0.28518424416E+01  0.00000000000E+00 0. -1.
</event>
<event>
 8    1  0.3776180E-010  0.9118800E+02  0.7816164E-02  0.1184000E+00
        -11   -1    0    0    0    0  0.00000000000E+00  0.00000000000E+00  0.45593999997E+02  0.45594000000E+02  0.51100000000E-03 0. -1.
         11   -1    0    0    0    0 -0.00000000000E+00 -0.00000000000E+00 -0.45593999997E+02  0.45594000000E+02  0.51100000000E-03 0.  1.
         23    2    1    2    0    0  0.35527136788E-14  0.00000000000E+00  0.00000000000E+00  0.91188000000E+02  0.91188000000E+02 0.  0.
    9900012    2    3    3    0    0  0.17968931801E+02  0.19084460680E+02 -0.34590828533E+02  0.47787256134E+02  0.19999932015E+02 0.  0.
         12    1    3    3    0    0 -0.17968931801E+02 -0.19084460680E+02  0.34590828533E+02  0.43400743866E+02  0.00000000000E+00 0. -1.
         11    1    4    4    0    0  0.80654965706E+01  0.63308218181E+01 -0.32218931402E+01  0.10747657209E+02  0.51100000000E-03 0. -1.
        -11    1    4    4    0    0  0.10214216835E+01 -0.20572534403E+01 -0.24647092938E+01  0.33690334129E+01  0.51100000000E-03 0.  1.
        -12    1    4    4    0    0  0.88820135473E+01  0.14810892302E+02 -0.28904226099E+02  0.33670565511E+02  0.00000000000E+00 0.  1.
</event>
<event>
 8    1  0.3776180E-010  0.9118800E+02  0.7816164E-02  0.1184000E+00
        -11   -1    0    0    0    0  0.00000000000E+00  0.00000000000E+00  0.45593999997E+02  0.45594000000E+02  0.51100000000E-03 0. -1.
         11   -1    0    0    0    0 -0.00000000000E+00 -0.00000000000E+00 -0.45593999997E+02  0.45594000000E+02  0.51100000000E-03 0.  1.
         23    2    1    2    0    0  0.00000000000E+00  0.00000000000E+00  0.00000000000E+00  0.91188000000E+02  0.91188000000E+02 0.  0.
    9900012    2    3    3    0    0 -0.13943406955E+02 -0.39252607345E+02 -0.12183484605E+02  0.47787273301E+02  0.20000010289E+02 0.  0.
         12    1    3    3    0    0  0.13943406955E+02  0.39252607345E+02  0.12183484605E+02  0.43400726699E+02  0.00000000000E+00 0. -1.
         11    1    4    4    0    0 -0.37165723925E+01 -0.18427191702E+02 -0.66690974164E+01  0.19946206782E+02  0.51100000000E-03 0. -1.
        -11    1    4    4    0    0 -0.10735410745E+01 -0.11317857513E+02 -0.86390252347E+01  0.14278625508E+02  0.51100000000E-03 0.  1.
         12    1    4    4    0    0 -0.91532934881E+01 -0.95075581298E+01  0.31246380464E+01  0.13562441012E+02  0.00000000000E+00 0. -1.
</event>
<event>
 8    1  0.3776180E-010  0.9118800E+02  0.7816164E-02  0.1184000E+00
        -11   -1    0    0    0    0  0.00000000000E+00  0.00000000000E+00  0.45593999997E+02  0.45594000000E+02  0.51100000000E-03 0. -1.
         11   -1    0    0    0    0 -0.00000000000E+00 -0.00000000000E+00 -0.45593999997E+02  0.45594000000E+02  0.51100000000E-03 0.  1.
         23    2    1    2    0    0  0.00000000000E+00  0.00000000000E+00  0.17763568394E-14  0.91188000000E+02  0.91188000000E+02 0.  0.
    9900012    2    3    3    0    0  0.25350508536E+02  0.32381014953E+02 -0.13872477733E+02  0.47787262093E+02  0.19999959187E+02 0.  0.
         12    1    3    3    0    0 -0.25350508536E+02 -0.32381014953E+02  0.13872477733E+02  0.43400737907E+02  0.00000000000E+00 0. -1.
         11    1    4    4    0    0  0.21363937665E+02  0.20642185020E+02 -0.31237852296E+01  0.29870983736E+02  0.51100000000E-03 0. -1.
        -11    1    4    4    0    0  0.42603251637E+01  0.24415447047E+01 -0.48529927648E+01  0.69038431386E+01  0.51100000000E-03 0.  1.
        -12    1    4    4    0    0 -0.27375429262E+00  0.92972852279E+01 -0.58956997389E+01  0.11012435218E+02  0.00000000000E+00 0.  1.
</event>
<event>
 8    1  0.3776180E-010  0.9118800E+02  0.7816164E-02  0.1184000E+00
        -11   -1    0    0    0    0  0.00000000000E+00  0.00000000000E+00  0.45593999997E+02  0.45594000000E+02  0.51100000000E-03 0. -1.
         11   -1    0    0    0    0 -0.00000000000E+00 -0.00000000000E+00 -0.45593999997E+02  0.45594000000E+02  0.51100000000E-03 0.  1.
         23    2    1    2    0    0 -0.88817841970E-15  0.00000000000E+00  0.00000000000E+00  0.91188000000E+02  0.91188000000E+02 0.  0.
    9900012    2    3    3    0    0  0.78565754028E+01 -0.26903413600E+02  0.33137649151E+02  0.47787271531E+02  0.20000002218E+02 0.  0.
        -12    1    3    3    0    0 -0.78565754028E+01  0.26903413600E+02 -0.33137649151E+02  0.43400728469E+02  0.00000000000E+00 0.  1.
         11    1    4    4    0    0  0.16872265674E+01  0.27431192472E+01  0.87106270525E+00  0.33361935183E+01  0.51100000000E-03 0. -1.
        -11    1    4    4    0    0  0.29918652594E+01 -0.61951004273E+01  0.64819337954E+01  0.94523009381E+01  0.51100000000E-03 0.  1.
         12    1    4    4    0    0  0.31774835760E+01 -0.23451432420E+02  0.25784652650E+02  0.34998777075E+02  0.00000000000E+00 0. -1.
</event>
<event>
 8    1  0.3776180E-010  0.9118800E+02  0.7816164E-02  0.1184000E+00
        -11   -1    0    0    0    0  0.00000000000E+00  0.00000000000E+00  0.45593999997E+02  0.45594000000E+02  0.51100000000E-03 0. -1.
         11   -1    0    0    0    0 -0.00000000000E+00 -0.00000000000E+00 -0.45593999997E+02  0.45594000000E+02  0.51100000000E-03 0.  1.
         23    2    1    2    0    0 -0.66613381478E-15 -0.35527136788E-14  0.71054273576E-14  0.91188000000E+02  0.91188000000E+02 0.  0.
    9900012    2    3    3    0    0  0.14453160890E+01  0.17302687219E+02 -0.39776265217E+02  0.47787271917E+02  0.20000003976E+02 0.  0.
         12    1    3    3    0    0 -0.14453160890E+01 -0.17302687219E+02  0.39776265217E+02  0.43400728083E+02  0.00000000000E+00 0. -1.
         11    1    4    4    0    0  0.41782682599E+00  0.31002429373E+01 -0.12998830972E+02  0.13369954841E+02  0.51100000000E-03 0. -1.
        -11    1    4    4    0    0  0.45770297576E+01  0.88498905156E+01 -0.26126552772E+02  0.27961876252E+02  0.51100000000E-03 0.  1.
         12    1    4    4    0    0 -0.35495404946E+01  0.53525537659E+01 -0.65088147253E+00  0.64554408239E+01  0.00000000000E+00 0. -1.
</event>
<event>
 8    1  0.3776180E-010  0.9118800E+02  0.7816164E-02  0.1184000E+00
        -11   -1    0    0    0    0  0.00000000000E+00  0.00000000000E+00  0.45593999997E+02  0.45594000000E+02  0.51100000000E-03 0. -1.
         11   -1    0    0    0    0 -0.00000000000E+00 -0.00000000000E+00 -0.45593999997E+02  0.45594000000E+02  0.51100000000E-03 0.  1.
         23    2    1    2    0    0  0.00000000000E+00  0.00000000000E+00  0.71054273576E-14  0.91188000000E+02  0.91188000000E+02 0.  0.
    9900012    2    3    3    0    0 -0.81921602877E+01  0.18969520420E+02 -0.38166339631E+02  0.47787266412E+02  0.19999978879E+02 0.  0.
         12    1    3    3    0    0  0.81921602877E+01 -0.18969520420E+02  0.38166339631E+02  0.43400733588E+02  0.00000000000E+00 0. -1.
         11    1    4    4    0    0  0.19674831809E+01  0.21327929850E+01 -0.45389518417E+01  0.53871959373E+01  0.51100000000E-03 0. -1.
        -11    1    4    4    0    0 -0.11651149315E+02  0.13392453525E+02 -0.34267681669E+02  0.38592500554E+02  0.51100000000E-03 0.  1.
         12    1    4    4    0    0  0.14915058463E+01  0.34442739095E+01  0.64029387917E+00  0.38075699212E+01  0.00000000000E+00 0. -1.
</event>
<event>
 8    1  0.3776180E-010  0.9118800E+02  0.7816164E-02  0.1184000E+00
        -11   -1    0    0    0    0  0.00000000000E+00  0.00000000000E+00  0.45593999997E+02  0.45594000000E+02  0.51100000000E-03 0. -1.
         11   -1    0    0    0    0 -0.00000000000E+00 -0.00000000000E+00 -0.45593999997E+02  0.45594000000E+02  0.51100000000E-03 0.  1.
         23    2    1    2    0    0  0.00000000000E+00  0.00000000000E+00  0.00000000000E+00  0.91188000000E+02  0.91188000000E+02 0.  0.
    9900012    2    3    3    0    0 -0.87025319044E+01 -0.20906885242E+02 -0.37024189947E+02  0.47787279346E+02  0.20000037849E+02 0.  0.
         12    1    3    3    0    0  0.87025319044E+01  0.20906885242E+02  0.37024189947E+02  0.43400720654E+02  0.00000000000E+00 0. -1.
         11    1    4    4    0    0 -0.10747527814E+02 -0.21818970745E+02 -0.26914435983E+02  0.36276214012E+02  0.51100000000E-03 0. -1.
        -11    1    4    4    0    0  0.10361872783E+01 -0.20310359847E+01 -0.31602680191E+01  0.38969328273E+01  0.51100000000E-03 0.  1.
         12    1    4    4    0    0  0.10088086313E+01  0.29431214868E+01 -0.69494859443E+01  0.76141325067E+01  0.00000000000E+00 0. -1.
</event>
<event>
 8    1  0.3776180E-010  0.9118800E+02  0.7816164E-02  0.1184000E+00
        -11   -1    0    0    0    0  0.00000000000E+00  0.00000000000E+00  0.45593999997E+02  0.45594000000E+02  0.51100000000E-03 0. -1.
         11   -1    0    0    0    0 -0.00000000000E+00 -0.00000000000E+00 -0.45593999997E+02  0.45594000000E+02  0.51100000000E-03 0.  1.
         23    2    1    2    0    0  0.00000000000E+00  0.00000000000E+00  0.00000000000E+00  0.91188000000E+02  0.91188000000E+02 0.  0.
    9900012    2    3    3    0    0  0.14737588067E+02 -0.30351189255E+02 -0.27298945793E+02  0.47787266911E+02  0.19999981154E+02 0.  0.
         12    1    3    3    0    0 -0.14737588067E+02  0.30351189255E+02  0.27298945793E+02  0.43400733089E+02  0.00000000000E+00 0. -1.
         11    1    4    4    0    0 -0.37617660833E-01 -0.55490259581E+01 -0.10314816782E+02  0.11712751585E+02  0.51100000000E-03 0. -1.
        -11    1    4    4    0    0 -0.20648126918E+01 -0.54239946973E+01 -0.53313930293E+01  0.78807944918E+01  0.51100000000E-03 0.  1.
        -12    1    4    4    0    0  0.16840018419E+02 -0.19378168600E+02 -0.11652735982E+02  0.28193720835E+02  0.00000000000E+00 0.  1.
</event>
<event>
 8    1  0.3776180E-010  0.9118800E+02  0.7816164E-02  0.1184000E+00
        -11   -1    0    0    0    0  0.00000000000E+00  0.00000000000E+00  0.45593999997E+02  0.45594000000E+02  0.51100000000E-03 0. -1.
         11   -1    0    0    0    0 -0.00000000000E+00 -0.00000000000E+00 -0.45593999997E+02  0.45594000000E+02  0.51100000000E-03 0.  1.
         23    2    1    2    0    0 -0.44408920985E-15 -0.35527136788E-14  0.14210854715E-13  0.91188000000E+02  0.91188000000E+02 0.  0.
    9900012    2    3    3    0    0 -0.23494402420E+01 -0.23380608570E+02  0.36489051326E+02  0.47787267365E+02  0.19999983225E+02 0.  0.
        -12    1    3    3    0    0  0.23494402420E+01  0.23380608570E+02 -0.36489051326E+02  0.43400732635E+02  0.00000000000E+00 0.  1.
         11    1    4    4    0    0 -0.54541375465E+01 -0.12026088076E+02  0.28515360118E+02  0.31424515489E+02  0.51100000000E-03 0. -1.
        -11    1    4    4    0    0  0.14730106285E+01  0.26498476909E+00  0.34977709256E+01  0.38045208566E+01  0.51100000000E-03 0.  1.
        -12    1    4    4    0    0  0.16316866760E+01 -0.11619505263E+02  0.44759202825E+01  0.12558231019E+02  0.00000000000E+00 0.  1.
</event>
<event>
 8    1  0.3776180E-010  0.9118800E+02  0.7816164E-02  0.1184000E+00
        -11   -1    0    0    0    0  0.00000000000E+00  0.00000000000E+00  0.45593999997E+02  0.45594000000E+02  0.51100000000E-03 0. -1.
         11   -1    0    0    0    0 -0.00000000000E+00 -0.00000000000E+00 -0.45593999997E+02  0.45594000000E+02  0.51100000000E-03 0.  1.
         23    2    1    2    0    0  0.35527136788E-14  0.00000000000E+00  0.71054273576E-14  0.91188000000E+02  0.91188000000E+02 0.  0.
    9900012    2    3    3    0    0 -0.18071523862E+02 -0.13072892426E+02  0.37230945352E+02  0.47787265180E+02  0.19999973262E+02 0.  0.
        -12    1    3    3    0    0  0.18071523862E+02  0.13072892426E+02 -0.37230945352E+02  0.43400734820E+02  0.00000000000E+00 0.  1.
         11    1    4    4    0    0 -0.55362481288E+01 -0.82364784143E+01  0.11999942123E+02  0.15572033626E+02  0.51100000000E-03 0. -1.
        -11    1    4    4    0    0 -0.45738167570E+01 -0.33304229510E+01  0.23175212657E+02  0.23855858792E+02  0.51100000000E-03 0.  1.
        -12    1    4    4    0    0 -0.79614589763E+01 -0.15059910608E+01  0.20557905722E+01  0.83593727626E+01  0.00000000000E+00 0.  1.
</event>
<event>
 8    1  0.4111743E-010  0.9118800E+02  0.7816164E-02  0.1184000E+00
        -11   -1    0    0    0    0  0.00000000000E+00  0.00000000000E+00  0.45593999997E+02  0.45594000000E+02  0.51100000000E-03 0. -1.
         11   -1    0    0    0    0 -0.00000000000E+00 -0.00000000000E+00 -0.45593999997E+02  0.45594000000E+02  0.51100000000E-03 0.  1.
         23    2    1    2    0    0  0.00000000000E+00  0.00000000000E+00  0.71054273576E-14  0.91188000000E+02  0.91188000000E+02 0.  0.
    9900012    2    3    3    0    0 -0.14814446690E+02  0.56115968207E+01  0.40406255937E+02  0.47787269954E+02  0.19999995030E+02 0.  0.
        -12    1    3    3    0    0  0.14814446690E+02 -0.56115968207E+01 -0.40406255937E+02  0.43400730046E+02  0.00000000000E+00 0.  1.
         11    1    4    4    0    0 -0.97096556378E+01  0.38339735076E+01  0.11372137847E+02  0.15437042623E+02  0.51100000000E-03 0. -1.
        -11    1    4    4    0    0 -0.73405125467E+01 -0.37945467111E+01  0.16752349413E+02  0.18679478587E+02  0.51100000000E-03 0.  1.
        -12    1    4    4    0    0  0.22357214943E+01  0.55721700242E+01  0.12281768677E+02  0.13670748744E+02  0.00000000000E+00 0.  1.
</event>
<event>
 8    1  0.3776180E-010  0.9118800E+02  0.7816164E-02  0.1184000E+00
        -11   -1    0    0    0    0  0.00000000000E+00  0.00000000000E+00  0.45593999997E+02  0.45594000000E+02  0.51100000000E-03 0. -1.
         11   -1    0    0    0    0 -0.00000000000E+00 -0.00000000000E+00 -0.45593999997E+02  0.45594000000E+02  0.51100000000E-03 0.  1.
         23    2    1    2    0    0  0.00000000000E+00  0.00000000000E+00  0.00000000000E+00  0.91188000000E+02  0.91188000000E+02 0.  0.
    9900012    2    3    3    0    0 -0.16440660633E+02 -0.29215285891E+02 -0.27564386295E+02  0.47787266786E+02  0.19999980583E+02 0.  0.
         12    1    3    3    0    0  0.16440660633E+02  0.29215285891E+02  0.27564386295E+02  0.43400733214E+02  0.00000000000E+00 0. -1.
         11    1    4    4    0    0 -0.64294586256E+01 -0.44646438656E+01 -0.38583391067E+00  0.78370817996E+01  0.51100000000E-03 0. -1.
        -11    1    4    4    0    0 -0.97579662111E+01 -0.12525976511E+02 -0.96577542472E+01  0.18584676739E+02  0.51100000000E-03 0.  1.
        -12    1    4    4    0    0 -0.25323579596E+00 -0.12224665514E+02 -0.17520798137E+02  0.21365508247E+02  0.00000000000E+00 0.  1.
</event>
<event>
 8    1  0.3776180E-010  0.9118800E+02  0.7816164E-02  0.1184000E+00
        -11   -1    0    0    0    0  0.00000000000E+00  0.00000000000E+00  0.45593999997E+02  0.45594000000E+02  0.51100000000E-03 0. -1.
         11   -1    0    0    0    0 -0.00000000000E+00 -0.00000000000E+00 -0.45593999997E+02  0.45594000000E+02  0.51100000000E-03 0.  1.
         23    2    1    2    0    0  0.00000000000E+00 -0.88817841970E-15  0.00000000000E+00  0.91188000000E+02  0.91188000000E+02 0.  0.
    9900012    2    3    3    0    0 -0.34878708077E+02 -0.18891589462E+01 -0.25759075851E+02  0.47787272042E+02  0.20000004547E+02 0.  0.
         12    1    3    3    0    0  0.34878708077E+02  0.18891589462E+01  0.25759075851E+02  0.43400727958E+02  0.00000000000E+00 0. -1.
         11    1    4    4    0    0 -0.52462802566E+01  0.81981063599E+00  0.21236695056E+01  0.57188738787E+01  0.51100000000E-03 0. -1.
        -11    1    4    4    0    0 -0.19453461664E+01  0.22689597936E+01 -0.98355446901E+00  0.31464154059E+01  0.51100000000E-03 0.  1.
        -12    1    4    4    0    0 -0.27687081654E+02 -0.49779293758E+01 -0.26899190887E+02  0.38921982757E+02  0.00000000000E+00 0.  1.
</event>
<event>
 8    1  0.3776180E-010  0.9118800E+02  0.7816164E-02  0.1184000E+00
        -11   -1    0    0    0    0  0.00000000000E+00  0.00000000000E+00  0.45593999997E+02  0.45594000000E+02  0.51100000000E-03 0.  1.
         11   -1    0    0    0    0 -0.00000000000E+00 -0.00000000000E+00 -0.45593999997E+02  0.45594000000E+02  0.51100000000E-03 0. -1.
         23    2    1    2    0    0  0.71054273576E-14  0.00000000000E+00 -0.88817841970E-15  0.91188000000E+02  0.91188000000E+02 0.  0.
    9900012    2    3    3    0    0  0.40424062379E+02 -0.14205875072E+02  0.69073333815E+01  0.47787274657E+02  0.20000016473E+02 0.  0.
        -12    1    3    3    0    0 -0.40424062379E+02  0.14205875072E+02 -0.69073333815E+01  0.43400725343E+02  0.00000000000E+00 0.  1.
         11    1    4    4    0    0  0.11940704029E+02 -0.24757050374E+01 -0.41094567983E+01  0.12868456146E+02  0.51100000000E-03 0. -1.
        -11    1    4    4    0    0  0.11498941955E+02  0.91705727128E+00  0.12627594968E+01  0.11604362194E+02  0.51100000000E-03 0.  1.
        -12    1    4    4    0    0  0.16984416396E+02 -0.12647227306E+02  0.97540306830E+01  0.23314456318E+02  0.00000000000E+00 0.  1.
</event>
<event>
 8    1  0.3776180E-010  0.9118800E+02  0.7816164E-02  0.1184000E+00
        -11   -1    0    0    0    0  0.00000000000E+00  0.00000000000E+00  0.45593999997E+02  0.45594000000E+02  0.51100000000E-03 0. -1.
         11   -1    0    0    0    0 -0.00000000000E+00 -0.00000000000E+00 -0.45593999997E+02  0.45594000000E+02  0.51100000000E-03 0.  1.
         23    2    1    2    0    0  0.00000000000E+00  0.00000000000E+00  0.00000000000E+00  0.91188000000E+02  0.91188000000E+02 0.  0.
    9900012    2    3    3    0    0 -0.16871319539E+02 -0.22087602183E+02 -0.33333430843E+02  0.47787294880E+02  0.20000108675E+02 0.  0.
         12    1    3    3    0    0  0.16871319539E+02  0.22087602183E+02  0.33333430843E+02  0.43400705120E+02  0.00000000000E+00 0. -1.
         11    1    4    4    0    0 -0.24700302480E+01  0.14258670596E+01 -0.19616625845E+01  0.34615410808E+01  0.51100000000E-03 0. -1.
        -11    1    4    4    0    0 -0.11676340887E+02 -0.65854677987E+01 -0.18685489118E+02  0.22996800353E+02  0.51100000000E-03 0.  1.
        -12    1    4    4    0    0 -0.27249484043E+01 -0.16928001444E+02 -0.12686279140E+02  0.21328953446E+02  0.00000000000E+00 0.  1.
</event>
<event>
 8    1  0.3776180E-010  0.9118800E+02  0.7816164E-02  0.1184000E+00
        -11   -1    0    0    0    0  0.00000000000E+00  0.00000000000E+00  0.45593999997E+02  0.45594000000E+02  0.51100000000E-03 0. -1.
         11   -1    0    0    0    0 -0.00000000000E+00 -0.00000000000E+00 -0.45593999997E+02  0.45594000000E+02  0.51100000000E-03 0.  1.
         23    2    1    2    0    0  0.35527136788E-14  0.00000000000E+00  0.35527136788E-14  0.91188000000E+02  0.91188000000E+02 0.  0.
    9900012    2    3    3    0    0  0.29810903481E+02  0.15160654907E+02 -0.27660216294E+02  0.47787274327E+02  0.20000014967E+02 0.  0.
         12    1    3    3    0    0 -0.29810903481E+02 -0.15160654907E+02  0.27660216294E+02  0.43400725673E+02  0.00000000000E+00 0. -1.
         11    1    4    4    0    0  0.10860904311E+02  0.38396350572E+01 -0.62161947875E+01  0.13089809690E+02  0.51100000000E-03 0. -1.
        -11    1    4    4    0    0  0.19298263098E+02  0.92148205860E+01 -0.23471782995E+02  0.31753117552E+02  0.51100000000E-03 0.  1.
         12    1    4    4    0    0 -0.34826392792E+00  0.21061992634E+01  0.20277614893E+01  0.29443470852E+01  0.00000000000E+00 0. -1.
</event>
<event>
 8    1  0.3776180E-010  0.9118800E+02  0.7816164E-02  0.1184000E+00
        -11   -1    0    0    0    0  0.00000000000E+00  0.00000000000E+00  0.45593999997E+02  0.45594000000E+02  0.51100000000E-03 0. -1.
         11   -1    0    0    0    0 -0.00000000000E+00 -0.00000000000E+00 -0.45593999997E+02  0.45594000000E+02  0.51100000000E-03 0.  1.
         23    2    1    2    0    0  0.00000000000E+00 -0.17763568394E-14  0.00000000000E+00  0.91188000000E+02  0.91188000000E+02 0.  0.
    9900012    2    3    3    0    0 -0.34320325305E+02 -0.50679210872E+01  0.26077862072E+02  0.47787269091E+02  0.19999991093E+02 0.  0.
        -12    1    3    3    0    0  0.34320325305E+02  0.50679210872E+01 -0.26077862072E+02  0.43400730909E+02  0.00000000000E+00 0.  1.
         11    1    4    4    0    0 -0.11034033294E+02 -0.58517983593E+01  0.71400650523E+01  0.14386589728E+02  0.51100000000E-03 0. -1.
        -11    1    4    4    0    0 -0.16605749478E+01 -0.47308636455E+01  0.20644491233E+01  0.54222255977E+01  0.51100000000E-03 0.  1.
         12    1    4    4    0    0 -0.21625717063E+02  0.55147409176E+01  0.16873347896E+02  0.27978453766E+02  0.00000000000E+00 0. -1.
</event>
<event>
 8    1  0.3776180E-010  0.9118800E+02  0.7816164E-02  0.1184000E+00
        -11   -1    0    0    0    0  0.00000000000E+00  0.00000000000E+00  0.45593999997E+02  0.45594000000E+02  0.51100000000E-03 0. -1.
         11   -1    0    0    0    0 -0.00000000000E+00 -0.00000000000E+00 -0.45593999997E+02  0.45594000000E+02  0.51100000000E-03 0.  1.
         23    2    1    2    0    0  0.00000000000E+00  0.00000000000E+00  0.00000000000E+00  0.91188000000E+02  0.91188000000E+02 0.  0.
    9900012    2    3    3    0    0 -0.35550695489E+02 -0.11759037601E+02  0.21943020648E+02  0.47787273391E+02  0.20000010697E+02 0.  0.
        -12    1    3    3    0    0  0.35550695489E+02  0.11759037601E+02 -0.21943020648E+02  0.43400726609E+02  0.00000000000E+00 0.  1.
         11    1    4    4    0    0 -0.12864252369E+01 -0.31973360646E+01  0.52714272186E+01  0.62980785151E+01  0.51100000000E-03 0. -1.
        -11    1    4    4    0    0 -0.80286584558E+01 -0.27692773723E+01 -0.20569119081E+01  0.87383717375E+01  0.51100000000E-03 0.  1.
        -12    1    4    4    0    0 -0.26235611797E+02 -0.57924241641E+01  0.18728505337E+02  0.32750823138E+02  0.00000000000E+00 0.  1.
</event>
<event>
 8    1  0.3776180E-010  0.9118800E+02  0.7816164E-02  0.1184000E+00
        -11   -1    0    0    0    0  0.00000000000E+00  0.00000000000E+00  0.45593999997E+02  0.45594000000E+02  0.51100000000E-03 0. -1.
         11   -1    0    0    0    0 -0.00000000000E+00 -0.00000000000E+00 -0.45593999997E+02  0.45594000000E+02  0.51100000000E-03 0.  1.
         23    2    1    2    0    0  0.17763568394E-14  0.00000000000E+00  0.00000000000E+00  0.91188000000E+02  0.91188000000E+02 0.  0.
    9900012    2    3    3    0    0 -0.15615062391E+02  0.21627675845E+02  0.34235048475E+02  0.47787250237E+02  0.19999905130E+02 0.  0.
        -12    1    3    3    0    0  0.15615062391E+02 -0.21627675845E+02 -0.34235048475E+02  0.43400749763E+02  0.00000000000E+00 0.  1.
         11    1    4    4    0    0 -0.95935580595E+01  0.15601167781E+02  0.21254266686E+02  0.28056668459E+02  0.51100000000E-03 0.  1.
        -11    1    4    4    0    0  0.12884689097E+01  0.54255983299E+01  0.10672040745E+02  0.12041167854E+02  0.51100000000E-03 0. -1.
        -12    1    4    4    0    0 -0.73099732410E+01  0.60090973458E+00  0.23087410435E+01  0.76894139243E+01  0.00000000000E+00 0.  1.
</event>
<event>
 8    1  0.3776180E-010  0.9118800E+02  0.7816164E-02  0.1184000E+00
        -11   -1    0    0    0    0  0.00000000000E+00  0.00000000000E+00  0.45593999997E+02  0.45594000000E+02  0.51100000000E-03 0. -1.
         11   -1    0    0    0    0 -0.00000000000E+00 -0.00000000000E+00 -0.45593999997E+02  0.45594000000E+02  0.51100000000E-03 0.  1.
         23    2    1    2    0    0  0.00000000000E+00  0.00000000000E+00 -0.71054273576E-14  0.91188000000E+02  0.91188000000E+02 0.  0.
    9900012    2    3    3    0    0  0.15508307942E+02 -0.13395392700E+02  0.38258062931E+02  0.47787267978E+02  0.19999986017E+02 0.  0.
        -12    1    3    3    0    0 -0.15508307942E+02  0.13395392700E+02 -0.38258062931E+02  0.43400732022E+02  0.00000000000E+00 0.  1.
         11    1    4    4    0    0  0.50227525773E+00 -0.51421294493E+01  0.90776291950E+01  0.10444957050E+02  0.51100000000E-03 0. -1.
        -11    1    4    4    0    0  0.14482326749E+01 -0.31233813169E+00  0.17993761250E+02  0.18054649738E+02  0.51100000000E-03 0.  1.
        -12    1    4    4    0    0  0.13557800010E+02 -0.79409251188E+01  0.11186672487E+02  0.19287661190E+02  0.00000000000E+00 0.  1.
</event>
<event>
 8    1  0.3776180E-010  0.9118800E+02  0.7816164E-02  0.1184000E+00
        -11   -1    0    0    0    0  0.00000000000E+00  0.00000000000E+00  0.45593999997E+02  0.45594000000E+02  0.51100000000E-03 0. -1.
         11   -1    0    0    0    0 -0.00000000000E+00 -0.00000000000E+00 -0.45593999997E+02  0.45594000000E+02  0.51100000000E-03 0.  1.
         23    2    1    2    0    0 -0.35527136788E-14  0.35527136788E-14  0.35527136788E-14  0.91188000000E+02  0.91188000000E+02 0.  0.
    9900012    2    3    3    0    0  0.17647225950E+02 -0.23546999593E+02 -0.31901998067E+02  0.47787271271E+02  0.20000001031E+02 0.  0.
         12    1    3    3    0    0 -0.17647225950E+02  0.23546999593E+02  0.31901998067E+02  0.43400728729E+02  0.00000000000E+00 0. -1.
         11    1    4    4    0    0  0.98475515620E+01 -0.13767845971E+02 -0.10877536060E+02  0.20120851012E+02  0.51100000000E-03 0. -1.
        -11    1    4    4    0    0  0.36191407934E+01 -0.12437455596E+02 -0.16305886150E+02  0.20824754625E+02  0.51100000000E-03 0.  1.
         12    1    4    4    0    0  0.41805335949E+01  0.26583019743E+01 -0.47185758573E+01  0.68416656339E+01  0.00000000000E+00 0. -1.
</event>
<event>
 8    1  0.6208781E-010  0.9118800E+02  0.7816164E-02  0.1184000E+00
        -11   -1    0    0    0    0  0.00000000000E+00  0.00000000000E+00  0.45593999997E+02  0.45594000000E+02  0.51100000000E-03 0. -1.
         11   -1    0    0    0    0 -0.00000000000E+00 -0.00000000000E+00 -0.45593999997E+02  0.45594000000E+02  0.51100000000E-03 0.  1.
         23    2    1    2    0    0  0.44408920985E-15  0.00000000000E+00  0.71054273576E-14  0.91188000000E+02  0.91188000000E+02 0.  0.
    9900012    2    3    3    0    0 -0.31108599180E+01  0.15404937715E+02  0.40455321695E+02  0.47787278706E+02  0.20000034930E+02 0.  0.
        -12    1    3    3    0    0  0.31108599180E+01 -0.15404937715E+02 -0.40455321695E+02  0.43400721294E+02  0.00000000000E+00 0.  1.
         11    1    4    4    0    0  0.30312859059E+00  0.13062994233E+02  0.26159416417E+02  0.29241217020E+02  0.51100000000E-03 0. -1.
        -11    1    4    4    0    0  0.18787477243E+01 -0.60127651276E+00  0.11852750359E+02  0.12015777869E+02  0.51100000000E-03 0.  1.
        -12    1    4    4    0    0 -0.52927362329E+01  0.29432199949E+01  0.24431549191E+01  0.65302838169E+01  0.00000000000E+00 0.  1.
</event>
<event>
 8    1  0.3776180E-010  0.9118800E+02  0.7816164E-02  0.1184000E+00
        -11   -1    0    0    0    0  0.00000000000E+00  0.00000000000E+00  0.45593999997E+02  0.45594000000E+02  0.51100000000E-03 0. -1.
         11   -1    0    0    0    0 -0.00000000000E+00 -0.00000000000E+00 -0.45593999997E+02  0.45594000000E+02  0.51100000000E-03 0.  1.
         23    2    1    2    0    0  0.00000000000E+00 -0.88817841970E-15  0.00000000000E+00  0.91188000000E+02  0.91188000000E+02 0.  0.
    9900012    2    3    3    0    0  0.12707897972E+02 -0.54159865317E+01 -0.41143639147E+02  0.47787278540E+02  0.20000034175E+02 0.  0.
         12    1    3    3    0    0 -0.12707897972E+02  0.54159865317E+01  0.41143639147E+02  0.43400721460E+02  0.00000000000E+00 0. -1.
         11    1    4    4    0    0 -0.27204877764E+01  0.28951120850E+01 -0.55731972814E+01  0.68442133167E+01  0.51100000000E-03 0. -1.
        -11    1    4    4    0    0  0.57480157846E+01  0.19429734314E+01 -0.12693354505E+02  0.14068975801E+02  0.51100000000E-03 0.  1.
        -12    1    4    4    0    0  0.96803699637E+01 -0.10254072048E+02 -0.22877087360E+02  0.26874089423E+02  0.00000000000E+00 0.  1.
</event>
<event>
 8    1  0.3776180E-010  0.9118800E+02  0.7816164E-02  0.1184000E+00
        -11   -1    0    0    0    0  0.00000000000E+00  0.00000000000E+00  0.45593999997E+02  0.45594000000E+02  0.51100000000E-03 0.  1.
         11   -1    0    0    0    0 -0.00000000000E+00 -0.00000000000E+00 -0.45593999997E+02  0.45594000000E+02  0.51100000000E-03 0. -1.
         23    2    1    2    0    0  0.00000000000E+00  0.00000000000E+00 -0.44408920985E-15  0.91188000000E+02  0.91188000000E+02 0.  0.
    9900012    2    3    3    0    0  0.16191346219E+02  0.40111781588E+02 -0.35367118323E+01  0.47787273680E+02  0.20000012016E+02 0.  0.
        -12    1    3    3    0    0 -0.16191346219E+02 -0.40111781588E+02  0.35367118323E+01  0.43400726320E+02  0.00000000000E+00 0.  1.
         11    1    4    4    0    0  0.10735126514E+02  0.18004736058E+02 -0.30083591242E+01  0.21176961224E+02  0.51100000000E-03 0. -1.
        -11    1    4    4    0    0  0.35532317376E+01  0.77679231839E-01  0.24249582927E+01  0.43025472486E+01  0.51100000000E-03 0.  1.
        -12    1    4    4    0    0  0.19029879677E+01  0.22029366298E+02 -0.29533110008E+01  0.22307765207E+02  0.00000000000E+00 0.  1.
</event>
<event>
 8    1  0.3776180E-010  0.9118800E+02  0.7816164E-02  0.1184000E+00
        -11   -1    0    0    0    0  0.00000000000E+00  0.00000000000E+00  0.45593999997E+02  0.45594000000E+02  0.51100000000E-03 0. -1.
         11   -1    0    0    0    0 -0.00000000000E+00 -0.00000000000E+00 -0.45593999997E+02  0.45594000000E+02  0.51100000000E-03 0.  1.
         23    2    1    2    0    0 -0.35527136788E-14  0.71054273576E-14 -0.88817841970E-15  0.91188000000E+02  0.91188000000E+02 0.  0.
    9900012    2    3    3    0    0 -0.17439076692E+02 -0.39159451765E+02  0.67852762470E+01  0.47787262309E+02  0.19999960171E+02 0.  0.
        -12    1    3    3    0    0  0.17439076692E+02  0.39159451765E+02 -0.67852762470E+01  0.43400737691E+02  0.00000000000E+00 0.  1.
         11    1    4    4    0    0 -0.16907478854E+02 -0.31761649730E+02  0.93406842494E+01  0.37174098741E+02  0.51100000000E-03 0. -1.
        -11    1    4    4    0    0  0.53316371795E+00 -0.36696615350E+01  0.23275138692E+01  0.43781274997E+01  0.51100000000E-03 0.  1.
        -12    1    4    4    0    0 -0.10647615561E+01 -0.37281405003E+01 -0.48829218716E+01  0.62350360677E+01  0.00000000000E+00 0.  1.
</event>
<event>
 8    1  0.3776180E-010  0.9118800E+02  0.7816164E-02  0.1184000E+00
        -11   -1    0    0    0    0  0.00000000000E+00  0.00000000000E+00  0.45593999997E+02  0.45594000000E+02  0.51100000000E-03 0.  1.
         11   -1    0    0    0    0 -0.00000000000E+00 -0.00000000000E+00 -0.45593999997E+02  0.45594000000E+02  0.51100000000E-03 0. -1.
         23    2    1    2    0    0  0.00000000000E+00  0.00000000000E+00  0.17763568394E-14  0.91188000000E+02  0.91188000000E+02 0.  0.
    9900012    2    3    3    0    0 -0.18771055911E+02 -0.37919147625E+02  0.96648393142E+01  0.47787269412E+02  0.19999992557E+02 0.  0.
         12    1    3    3    0    0  0.18771055911E+02  0.37919147625E+02 -0.96648393142E+01  0.43400730588E+02  0.00000000000E+00 0. -1.
         11    1    4    4    0    0  0.16953382156E+01 -0.22126094836E+01 -0.22783179882E+01  0.36000757643E+01  0.51100000000E-03 0. -1.
        -11    1    4    4    0    0 -0.53001679245E+00 -0.90339138851E+00 -0.15489889402E+01  0.18698665190E+01  0.51100000000E-03 0.  1.
        -12    1    4    4    0    0 -0.19936377334E+02 -0.34803146753E+02  0.13492146243E+02  0.42317327129E+02  0.00000000000E+00 0.  1.
</event>
<event>
 8    1  0.3776180E-010  0.9118800E+02  0.7816164E-02  0.1184000E+00
        -11   -1    0    0    0    0  0.00000000000E+00  0.00000000000E+00  0.45593999997E+02  0.45594000000E+02  0.51100000000E-03 0. -1.
         11   -1    0    0    0    0 -0.00000000000E+00 -0.00000000000E+00 -0.45593999997E+02  0.45594000000E+02  0.51100000000E-03 0.  1.
         23    2    1    2    0    0 -0.17763568394E-14  0.17763568394E-14  0.00000000000E+00  0.91188000000E+02  0.91188000000E+02 0.  0.
    9900012    2    3    3    0    0 -0.92224489930E+01  0.15747901481E+02 -0.39377321792E+02  0.47787269153E+02  0.19999991377E+02 0.  0.
         12    1    3    3    0    0  0.92224489930E+01 -0.15747901481E+02  0.39377321792E+02  0.43400730847E+02  0.00000000000E+00 0. -1.
         11    1    4    4    0    0 -0.22057238818E+01 -0.16627079226E+01 -0.55507492065E+01  0.62000510073E+01  0.51100000000E-03 0.  1.
        -11    1    4    4    0    0 -0.31425949633E+01 -0.13743541091E+01 -0.10083564391E+01  0.35751273111E+01  0.51100000000E-03 0. -1.
        -12    1    4    4    0    0 -0.38741301479E+01  0.18784963513E+02 -0.32818216147E+02  0.38012090835E+02  0.00000000000E+00 0.  1.
</event>
<event>
 8    1  0.3776180E-010  0.9118800E+02  0.7816164E-02  0.1184000E+00
        -11   -1    0    0    0    0  0.00000000000E+00  0.00000000000E+00  0.45593999997E+02  0.45594000000E+02  0.51100000000E-03 0.  1.
         11   -1    0    0    0    0 -0.00000000000E+00 -0.00000000000E+00 -0.45593999997E+02  0.45594000000E+02  0.51100000000E-03 0. -1.
         23    2    1    2    0    0  0.35527136788E-14  0.35527136788E-14  0.00000000000E+00  0.91188000000E+02  0.91188000000E+02 0.  0.
    9900012    2    3    3    0    0  0.29869007765E+02  0.31474812259E+02  0.89547073963E+00  0.47787270749E+02  0.19999998655E+02 0.  0.
         12    1    3    3    0    0 -0.29869007765E+02 -0.31474812259E+02 -0.89547073963E+00  0.43400729251E+02  0.00000000000E+00 0. -1.
         11    1    4    4    0    0  0.29977942347E+01  0.87197418404E+01  0.27550826579E+01  0.96234686444E+01  0.51100000000E-03 0.  1.
        -11    1    4    4    0    0  0.80849455364E+01  0.16402086770E+02 -0.99977646362E+00  0.18313774815E+02  0.51100000000E-03 0. -1.
         12    1    4    4    0    0  0.18786267994E+02  0.63529836486E+01 -0.85983545464E+00  0.19850027290E+02  0.00000000000E+00 0. -1.
</event>
<event>
 8    1  0.3776180E-010  0.9118800E+02  0.7816164E-02  0.1184000E+00
        -11   -1    0    0    0    0  0.00000000000E+00  0.00000000000E+00  0.45593999997E+02  0.45594000000E+02  0.51100000000E-03 0. -1.
         11   -1    0    0    0    0 -0.00000000000E+00 -0.00000000000E+00 -0.45593999997E+02  0.45594000000E+02  0.51100000000E-03 0.  1.
         23    2    1    2    0    0  0.35527136788E-14  0.00000000000E+00  0.00000000000E+00  0.91188000000E+02  0.91188000000E+02 0.  0.
    9900012    2    3    3    0    0  0.27708200858E+02 -0.12648261397E+02  0.30917643607E+02  0.47787267317E+02  0.19999983006E+02 0.  0.
        -12    1    3    3    0    0 -0.27708200858E+02  0.12648261397E+02 -0.30917643607E+02  0.43400732683E+02  0.00000000000E+00 0.  1.
         11    1    4    4    0    0  0.17781381412E+02 -0.90544436202E+01  0.25847179367E+02  0.32653287058E+02  0.51100000000E-03 0. -1.
        -11    1    4    4    0    0  0.69960035556E+00  0.17827152298E+01  0.39578419251E+01  0.43968201252E+01  0.51100000000E-03 0.  1.
        -12    1    4    4    0    0  0.92272190908E+01 -0.53765330071E+01  0.11126223148E+01  0.10737160134E+02  0.00000000000E+00 0.  1.
</event>
<event>
 8    1  0.3776180E-010  0.9118800E+02  0.7816164E-02  0.1184000E+00
        -11   -1    0    0    0    0  0.00000000000E+00  0.00000000000E+00  0.45593999997E+02  0.45594000000E+02  0.51100000000E-03 0.  1.
         11   -1    0    0    0    0 -0.00000000000E+00 -0.00000000000E+00 -0.45593999997E+02  0.45594000000E+02  0.51100000000E-03 0. -1.
         23    2    1    2    0    0  0.00000000000E+00  0.00000000000E+00  0.00000000000E+00  0.91188000000E+02  0.91188000000E+02 0.  0.
    9900012    2    3    3    0    0  0.40068397025E+02  0.15538487912E+02 -0.60582243535E+01  0.47787272713E+02  0.20000007607E+02 0.  0.
        -12    1    3    3    0    0 -0.40068397025E+02 -0.15538487912E+02  0.60582243535E+01  0.43400727287E+02  0.00000000000E+00 0.  1.
         11    1    4    4    0    0  0.15190389168E+01 -0.15275403269E+01 -0.21105071665E+01  0.30158082569E+01  0.51100000000E-03 0. -1.
        -11    1    4    4    0    0  0.91024018191E+01  0.11192208386E+02  0.39638842284E+00  0.14431783378E+02  0.51100000000E-03 0.  1.
         12    1    4    4    0    0  0.29446956289E+02  0.58738198523E+01 -0.43441056098E+01  0.30339681078E+02  0.00000000000E+00 0. -1.
</event>
<event>
 8    1  0.3776180E-010  0.9118800E+02  0.7816164E-02  0.1184000E+00
        -11   -1    0    0    0    0  0.00000000000E+00  0.00000000000E+00  0.45593999997E+02  0.45594000000E+02  0.51100000000E-03 0. -1.
         11   -1    0    0    0    0 -0.00000000000E+00 -0.00000000000E+00 -0.45593999997E+02  0.45594000000E+02  0.51100000000E-03 0.  1.
         23    2    1    2    0    0  0.00000000000E+00  0.00000000000E+00  0.00000000000E+00  0.91188000000E+02  0.91188000000E+02 0.  0.
    9900012    2    3    3    0    0 -0.24013470269E+02 -0.21610595566E+02 -0.28982040580E+02  0.47787271074E+02  0.20000000136E+02 0.  0.
         12    1    3    3    0    0  0.24013470269E+02  0.21610595566E+02  0.28982040580E+02  0.43400728926E+02  0.00000000000E+00 0. -1.
         11    1    4    4    0    0 -0.14537054323E+02 -0.78458224146E+01 -0.69998754692E+01  0.17941046084E+02  0.51100000000E-03 0. -1.
        -11    1    4    4    0    0 -0.25950108795E+01 -0.32052193352E+01  0.41640198463E+00  0.41449853227E+01  0.51100000000E-03 0.  1.
        -12    1    4    4    0    0 -0.68814050662E+01 -0.10559553816E+02 -0.22398567096E+02  0.25701239667E+02  0.00000000000E+00 0.  1.
</event>
<event>
 8    1  0.3776180E-010  0.9118800E+02  0.7816164E-02  0.1184000E+00
        -11   -1    0    0    0    0  0.00000000000E+00  0.00000000000E+00  0.45593999997E+02  0.45594000000E+02  0.51100000000E-03 0. -1.
         11   -1    0    0    0    0 -0.00000000000E+00 -0.00000000000E+00 -0.45593999997E+02  0.45594000000E+02  0.51100000000E-03 0.  1.
         23    2    1    2    0    0 -0.17763568394E-14  0.00000000000E+00 -0.35527136788E-14  0.91188000000E+02  0.91188000000E+02 0.  0.
    9900012    2    3    3    0    0 -0.11240588811E+02 -0.30700595329E+02 -0.28543751740E+02  0.47787272428E+02  0.20000006308E+02 0.  0.
         12    1    3    3    0    0  0.11240588811E+02  0.30700595329E+02  0.28543751740E+02  0.43400727572E+02  0.00000000000E+00 0. -1.
         11    1    4    4    0    0 -0.41700193047E+00 -0.73822690907E+01 -0.27051900992E+01  0.78733627677E+01  0.51100000000E-03 0. -1.
        -11    1    4    4    0    0 -0.95281687646E+01 -0.23166690597E+02 -0.27886966056E+02  0.37485522930E+02  0.51100000000E-03 0.  1.
         12    1    4    4    0    0 -0.12954181163E+01 -0.15163564104E+00  0.20484044153E+01  0.24283867303E+01  0.00000000000E+00 0. -1.
</event>
<event>
 8    1  0.3776180E-010  0.9118800E+02  0.7816164E-02  0.1184000E+00
        -11   -1    0    0    0    0  0.00000000000E+00  0.00000000000E+00  0.45593999997E+02  0.45594000000E+02  0.51100000000E-03 0. -1.
         11   -1    0    0    0    0 -0.00000000000E+00 -0.00000000000E+00 -0.45593999997E+02  0.45594000000E+02  0.51100000000E-03 0.  1.
         23    2    1    2    0    0  0.00000000000E+00 -0.35527136788E-14  0.71054273576E-14  0.91188000000E+02  0.91188000000E+02 0.  0.
    9900012    2    3    3    0    0  0.26004663054E+01 -0.27924020949E+02  0.33122655609E+02  0.47787266302E+02  0.19999978376E+02 0.  0.
        -12    1    3    3    0    0 -0.26004663054E+01  0.27924020949E+02 -0.33122655609E+02  0.43400733698E+02  0.00000000000E+00 0.  1.
         11    1    4    4    0    0  0.51781386900E+01 -0.26380260414E+02  0.29299218171E+02  0.39763996850E+02  0.51100000000E-03 0. -1.
        -11    1    4    4    0    0 -0.10406978566E+01 -0.15603627443E+01  0.54629332198E+01  0.57759348635E+01  0.51100000000E-03 0.  1.
         12    1    4    4    0    0 -0.15369745280E+01  0.16602209289E-01 -0.16394957819E+01  0.22473345883E+01  0.00000000000E+00 0. -1.
</event>
<event>
 8    1  0.3776180E-010  0.9118800E+02  0.7816164E-02  0.1184000E+00
        -11   -1    0    0    0    0  0.00000000000E+00  0.00000000000E+00  0.45593999997E+02  0.45594000000E+02  0.51100000000E-03 0. -1.
         11   -1    0    0    0    0 -0.00000000000E+00 -0.00000000000E+00 -0.45593999997E+02  0.45594000000E+02  0.51100000000E-03 0.  1.
         23    2    1    2    0    0  0.22204460493E-15  0.17763568394E-14  0.00000000000E+00  0.91188000000E+02  0.91188000000E+02 0.  0.
    9900012    2    3    3    0    0 -0.14925332510E+01 -0.11321712421E+02 -0.41871401136E+02  0.47787273500E+02  0.20000011196E+02 0.  0.
         12    1    3    3    0    0  0.14925332510E+01  0.11321712421E+02  0.41871401136E+02  0.43400726500E+02  0.00000000000E+00 0. -1.
         11    1    4    4    0    0  0.52841063489E+01 -0.69752419469E+01 -0.20164387429E+02  0.21981317085E+02  0.51100000000E-03 0. -1.
        -11    1    4    4    0    0  0.50231631571E+00  0.73432030438E-01 -0.14887415368E+02  0.14896068291E+02  0.51100000000E-03 0.  1.
        -12    1    4    4    0    0 -0.72789559156E+01 -0.44199025045E+01 -0.68195983387E+01  0.10909888124E+02  0.00000000000E+00 0.  1.
</event>
<event>
 8    1  0.3776180E-010  0.9118800E+02  0.7816164E-02  0.1184000E+00
        -11   -1    0    0    0    0  0.00000000000E+00  0.00000000000E+00  0.45593999997E+02  0.45594000000E+02  0.51100000000E-03 0. -1.
         11   -1    0    0    0    0 -0.00000000000E+00 -0.00000000000E+00 -0.45593999997E+02  0.45594000000E+02  0.51100000000E-03 0.  1.
         23    2    1    2    0    0 -0.88817841970E-15 -0.71054273576E-14  0.00000000000E+00  0.91188000000E+02  0.91188000000E+02 0.  0.
    9900012    2    3    3    0    0 -0.47325461938E+01 -0.43134561552E+02  0.79740571229E+00  0.47787271323E+02  0.20000001272E+02 0.  0.
         12    1    3    3    0    0  0.47325461938E+01  0.43134561552E+02 -0.79740571229E+00  0.43400728677E+02  0.00000000000E+00 0. -1.
         11    1    4    4    0    0 -0.42879237207E+01 -0.14340004199E+02  0.17470014417E+01  0.15068975565E+02  0.51100000000E-03 0. -1.
        -11    1    4    4    0    0  0.53266863980E+01 -0.25366952127E+02  0.12455270487E+00  0.25920481513E+02  0.51100000000E-03 0.  1.
         12    1    4    4    0    0 -0.57713088710E+01 -0.34276052260E+01 -0.10741484343E+01  0.67978142464E+01  0.00000000000E+00 0. -1.
</event>
<event>
 8    1  0.3776180E-010  0.9118800E+02  0.7816164E-02  0.1184000E+00
        -11   -1    0    0    0    0  0.00000000000E+00  0.00000000000E+00  0.45593999997E+02  0.45594000000E+02  0.51100000000E-03 0. -1.
         11   -1    0    0    0    0 -0.00000000000E+00 -0.00000000000E+00 -0.45593999997E+02  0.45594000000E+02  0.51100000000E-03 0.  1.
         23    2    1    2    0    0  0.00000000000E+00  0.00000000000E+00  0.00000000000E+00  0.91188000000E+02  0.91188000000E+02 0.  0.
    9900012    2    3    3    0    0 -0.12445487810E+02 -0.23870354384E+02  0.34043201122E+02  0.47787268118E+02  0.19999986655E+02 0.  0.
        -12    1    3    3    0    0  0.12445487810E+02  0.23870354384E+02 -0.34043201122E+02  0.43400731882E+02  0.00000000000E+00 0.  1.
         11    1    4    4    0    0 -0.18178627929E+01 -0.53667155859E+00 -0.30122214977E+00  0.19192124792E+01  0.51100000000E-03 0.  1.
        -11    1    4    4    0    0  0.14971691909E+00 -0.12677741058E+02  0.25086301256E+02  0.28108184652E+02  0.51100000000E-03 0. -1.
         12    1    4    4    0    0 -0.10777341936E+02 -0.10655941768E+02  0.92581220166E+01  0.17759870986E+02  0.00000000000E+00 0. -1.
</event>
<event>
 8    1  0.3776180E-010  0.9118800E+02  0.7816164E-02  0.1184000E+00
        -11   -1    0    0    0    0  0.00000000000E+00  0.00000000000E+00  0.45593999997E+02  0.45594000000E+02  0.51100000000E-03 0. -1.
         11   -1    0    0    0    0 -0.00000000000E+00 -0.00000000000E+00 -0.45593999997E+02  0.45594000000E+02  0.51100000000E-03 0.  1.
         23    2    1    2    0    0 -0.27755575616E-16 -0.35527136788E-14  0.00000000000E+00  0.91188000000E+02  0.91188000000E+02 0.  0.
    9900012    2    3    3    0    0  0.13680216279E+00 -0.18329144875E+02  0.39340145520E+02  0.47787270556E+02  0.19999997775E+02 0.  0.
        -12    1    3    3    0    0 -0.13680216279E+00  0.18329144875E+02 -0.39340145520E+02  0.43400729444E+02  0.00000000000E+00 0.  1.
         11    1    4    4    0    0  0.66026119181E+01 -0.12227809905E+02  0.19605126843E+02  0.24030705732E+02  0.51100000000E-03 0. -1.
        -11    1    4    4    0    0 -0.11066338265E+01 -0.75686613260E+01  0.10789140520E+02  0.13225536893E+02  0.51100000000E-03 0.  1.
         12    1    4    4    0    0 -0.53591759289E+01  0.14673263558E+01  0.89458781583E+01  0.10531027931E+02  0.00000000000E+00 0. -1.
</event>
<event>
 8    1  0.3776180E-010  0.9118800E+02  0.7816164E-02  0.1184000E+00
        -11   -1    0    0    0    0  0.00000000000E+00  0.00000000000E+00  0.45593999997E+02  0.45594000000E+02  0.51100000000E-03 0. -1.
         11   -1    0    0    0    0 -0.00000000000E+00 -0.00000000000E+00 -0.45593999997E+02  0.45594000000E+02  0.51100000000E-03 0.  1.
         23    2    1    2    0    0  0.00000000000E+00  0.00000000000E+00  0.00000000000E+00  0.91188000000E+02  0.91188000000E+02 0.  0.
    9900012    2    3    3    0    0  0.11610469913E+02  0.30002135947E+02 -0.29132321466E+02  0.47787270432E+02  0.19999997210E+02 0.  0.
         12    1    3    3    0    0 -0.11610469913E+02 -0.30002135947E+02  0.29132321466E+02  0.43400729568E+02  0.00000000000E+00 0. -1.
         11    1    4    4    0    0  0.94363649846E+01  0.19186892704E+02 -0.27260940955E+02  0.34645933928E+02  0.51100000000E-03 0. -1.
        -11    1    4    4    0    0  0.11439952815E+01  0.70858968654E+01 -0.44928785447E+01  0.84678579033E+01  0.51100000000E-03 0.  1.
         12    1    4    4    0    0  0.10301096473E+01  0.37293463777E+01  0.26214980338E+01  0.46734786007E+01  0.00000000000E+00 0. -1.
</event>
<event>
 8    1  0.3776180E-010  0.9118800E+02  0.7816164E-02  0.1184000E+00
        -11   -1    0    0    0    0  0.00000000000E+00  0.00000000000E+00  0.45593999997E+02  0.45594000000E+02  0.51100000000E-03 0.  1.
         11   -1    0    0    0    0 -0.00000000000E+00 -0.00000000000E+00 -0.45593999997E+02  0.45594000000E+02  0.51100000000E-03 0. -1.
         23    2    1    2    0    0 -0.35527136788E-14  0.00000000000E+00  0.00000000000E+00  0.91188000000E+02  0.91188000000E+02 0.  0.
    9900012    2    3    3    0    0 -0.19997216305E+02 -0.25710062873E+02 -0.28683196958E+02  0.47787288247E+02  0.20000078434E+02 0.  0.
         12    1    3    3    0    0  0.19997216305E+02  0.25710062873E+02  0.28683196958E+02  0.43400711753E+02  0.00000000000E+00 0. -1.
         11    1    4    4    0    0 -0.19091539104E+00  0.92782013285E-01  0.71669684132E+00  0.74747027499E+00  0.51100000000E-03 0. -1.
        -11    1    4    4    0    0 -0.41662779850E+01 -0.16589310347E+02 -0.20869233725E+02  0.26983105948E+02  0.51100000000E-03 0.  1.
        -12    1    4    4    0    0 -0.15640022929E+02 -0.92135345398E+01 -0.85306600739E+01  0.20056712025E+02  0.00000000000E+00 0.  1.
</event>
<event>
 8    1  0.3776180E-010  0.9118800E+02  0.7816164E-02  0.1184000E+00
        -11   -1    0    0    0    0  0.00000000000E+00  0.00000000000E+00  0.45593999997E+02  0.45594000000E+02  0.51100000000E-03 0.  1.
         11   -1    0    0    0    0 -0.00000000000E+00 -0.00000000000E+00 -0.45593999997E+02  0.45594000000E+02  0.51100000000E-03 0. -1.
         23    2    1    2    0    0  0.00000000000E+00  0.35527136788E-14  0.00000000000E+00  0.91188000000E+02  0.91188000000E+02 0.  0.
    9900012    2    3    3    0    0  0.20272173704E+02 -0.31522366205E+02 -0.21886123446E+02  0.47787274230E+02  0.20000014524E+02 0.  0.
         12    1    3    3    0    0 -0.20272173704E+02  0.31522366205E+02  0.21886123446E+02  0.43400725770E+02  0.00000000000E+00 0. -1.
         11    1    4    4    0    0  0.78626913353E+01 -0.19564736348E+02 -0.66531424764E+01  0.22110294626E+02  0.51100000000E-03 0. -1.
        -11    1    4    4    0    0  0.13944699622E+02 -0.12577269604E+02 -0.14937575281E+02  0.23995281073E+02  0.51100000000E-03 0.  1.
         12    1    4    4    0    0 -0.15352172527E+01  0.61963974606E+00 -0.29540568854E+00  0.16816985308E+01  0.00000000000E+00 0. -1.
</event>
<event>
 8    1  0.3776180E-010  0.9118800E+02  0.7816164E-02  0.1184000E+00
        -11   -1    0    0    0    0  0.00000000000E+00  0.00000000000E+00  0.45593999997E+02  0.45594000000E+02  0.51100000000E-03 0. -1.
         11   -1    0    0    0    0 -0.00000000000E+00 -0.00000000000E+00 -0.45593999997E+02  0.45594000000E+02  0.51100000000E-03 0.  1.
         23    2    1    2    0    0  0.00000000000E+00  0.71054273576E-14  0.00000000000E+00  0.91188000000E+02  0.91188000000E+02 0.  0.
    9900012    2    3    3    0    0  0.87425230756E+01  0.32718717787E+02 -0.27141793032E+02  0.47787272675E+02  0.20000007434E+02 0.  0.
         12    1    3    3    0    0 -0.87425230756E+01 -0.32718717787E+02  0.27141793032E+02  0.43400727325E+02  0.00000000000E+00 0. -1.
         11    1    4    4    0    0  0.11726345797E+02  0.13027503086E+02 -0.10909694192E+02  0.20645688413E+02  0.51100000000E-03 0. -1.
        -11    1    4    4    0    0  0.12560271604E+01  0.74733174040E+00  0.46749077316E+00  0.15344891143E+01  0.51100000000E-03 0.  1.
        -12    1    4    4    0    0 -0.42398498822E+01  0.18943882960E+02 -0.16699589614E+02  0.25607095148E+02  0.00000000000E+00 0.  1.
</event>
<event>
 8    1  0.3776180E-010  0.9118800E+02  0.7816164E-02  0.1184000E+00
        -11   -1    0    0    0    0  0.00000000000E+00  0.00000000000E+00  0.45593999997E+02  0.45594000000E+02  0.51100000000E-03 0. -1.
         11   -1    0    0    0    0 -0.00000000000E+00 -0.00000000000E+00 -0.45593999997E+02  0.45594000000E+02  0.51100000000E-03 0.  1.
         23    2    1    2    0    0  0.00000000000E+00 -0.13322676296E-14 -0.35527136788E-14  0.91188000000E+02  0.91188000000E+02 0.  0.
    9900012    2    3    3    0    0  0.35574092804E+02 -0.38735338386E+01 -0.24558203881E+02  0.47787242851E+02  0.19999871456E+02 0.  0.
         12    1    3    3    0    0 -0.35574092804E+02  0.38735338386E+01  0.24558203881E+02  0.43400757149E+02  0.00000000000E+00 0. -1.
         11    1    4    4    0    0  0.22951405454E+02 -0.67115168351E+01 -0.15451819871E+02  0.28470514714E+02  0.51100000000E-03 0. -1.
        -11    1    4    4    0    0  0.12801041606E+02  0.63851332178E-01 -0.10160834678E+02  0.16343601341E+02  0.51100000000E-03 0.  1.
        -12    1    4    4    0    0 -0.17835425593E+00  0.27741316643E+01  0.10544506675E+01  0.29731267954E+01  0.00000000000E+00 0.  1.
</event>
<event>
 8    1  0.3776180E-010  0.9118800E+02  0.7816164E-02  0.1184000E+00
        -11   -1    0    0    0    0  0.00000000000E+00  0.00000000000E+00  0.45593999997E+02  0.45594000000E+02  0.51100000000E-03 0. -1.
         11   -1    0    0    0    0 -0.00000000000E+00 -0.00000000000E+00 -0.45593999997E+02  0.45594000000E+02  0.51100000000E-03 0.  1.
         23    2    1    2    0    0  0.00000000000E+00  0.00000000000E+00  0.00000000000E+00  0.91188000000E+02  0.91188000000E+02 0.  0.
    9900012    2    3    3    0    0 -0.14510239677E+02  0.40778408360E+02  0.31933635040E+01  0.47787271731E+02  0.20000003129E+02 0.  0.
        -12    1    3    3    0    0  0.14510239677E+02 -0.40778408360E+02 -0.31933635040E+01  0.43400728269E+02  0.00000000000E+00 0.  1.
         11    1    4    4    0    0 -0.41087436334E+01  0.17868029418E+02  0.32461158725E-01  0.18334374915E+02  0.51100000000E-03 0. -1.
        -11    1    4    4    0    0  0.93427256021E-01  0.14748937844E+02 -0.25770565141E+01  0.14972679010E+02  0.51100000000E-03 0.  1.
        -12    1    4    4    0    0 -0.10494923299E+02  0.81614410978E+01  0.57379588594E+01  0.14480217806E+02  0.00000000000E+00 0.  1.
</event>
<event>
 8    1  0.3776180E-010  0.9118800E+02  0.7816164E-02  0.1184000E+00
        -11   -1    0    0    0    0  0.00000000000E+00  0.00000000000E+00  0.45593999997E+02  0.45594000000E+02  0.51100000000E-03 0. -1.
         11   -1    0    0    0    0 -0.00000000000E+00 -0.00000000000E+00 -0.45593999997E+02  0.45594000000E+02  0.51100000000E-03 0.  1.
         23    2    1    2    0    0  0.88817841970E-15  0.00000000000E+00  0.00000000000E+00  0.91188000000E+02  0.91188000000E+02 0.  0.
    9900012    2    3    3    0    0  0.54748812513E+01 -0.23499277667E+02  0.36075374203E+02  0.47787274206E+02  0.20000014414E+02 0.  0.
        -12    1    3    3    0    0 -0.54748812513E+01  0.23499277667E+02 -0.36075374203E+02  0.43400725794E+02  0.00000000000E+00 0.  1.
         11    1    4    4    0    0 -0.18286925953E+01 -0.10740360696E+02  0.60545723353E+01  0.12464241289E+02  0.51100000000E-03 0. -1.
        -11    1    4    4    0    0  0.35449423090E+00  0.18011761682E+01  0.92961856029E+00  0.20576911035E+01  0.51100000000E-03 0.  1.
         12    1    4    4    0    0  0.69490796157E+01 -0.14560093139E+02  0.29091183307E+02  0.33265341813E+02  0.00000000000E+00 0. -1.
</event>
<event>
 8    1  0.3776180E-010  0.9118800E+02  0.7816164E-02  0.1184000E+00
        -11   -1    0    0    0    0  0.00000000000E+00  0.00000000000E+00  0.45593999997E+02  0.45594000000E+02  0.51100000000E-03 0. -1.
         11   -1    0    0    0    0 -0.00000000000E+00 -0.00000000000E+00 -0.45593999997E+02  0.45594000000E+02  0.51100000000E-03 0.  1.
         23    2    1    2    0    0  0.00000000000E+00 -0.66613381478E-15  0.00000000000E+00  0.91188000000E+02  0.91188000000E+02 0.  0.
    9900012    2    3    3    0    0  0.18041179602E+02 -0.14133487720E+01 -0.39447956413E+02  0.47787274415E+02  0.20000015367E+02 0.  0.
         12    1    3    3    0    0 -0.18041179602E+02  0.14133487720E+01  0.39447956413E+02  0.43400725585E+02  0.00000000000E+00 0. -1.
         11    1    4    4    0    0  0.25375276507E+01 -0.54494766042E+01 -0.14367282022E+02  0.15574165621E+02  0.51100000000E-03 0. -1.
        -11    1    4    4    0    0  0.90265453620E+01  0.57445181047E+00 -0.22791283605E+02  0.24520422604E+02  0.51100000000E-03 0.  1.
         12    1    4    4    0    0  0.64771065894E+01  0.34616760217E+01 -0.22893907864E+01  0.76926861903E+01  0.00000000000E+00 0. -1.
</event>
<event>
 8    1  0.3776180E-010  0.9118800E+02  0.7816164E-02  0.1184000E+00
        -11   -1    0    0    0    0  0.00000000000E+00  0.00000000000E+00  0.45593999997E+02  0.45594000000E+02  0.51100000000E-03 0. -1.
         11   -1    0    0    0    0 -0.00000000000E+00 -0.00000000000E+00 -0.45593999997E+02  0.45594000000E+02  0.51100000000E-03 0.  1.
         23    2    1    2    0    0  0.35527136788E-14  0.00000000000E+00  0.00000000000E+00  0.91188000000E+02  0.91188000000E+02 0.  0.
    9900012    2    3    3    0    0  0.30149834373E+02  0.21705901114E+02  0.22438019952E+02  0.47787269646E+02  0.19999993625E+02 0.  0.
        -12    1    3    3    0    0 -0.30149834373E+02 -0.21705901114E+02 -0.22438019952E+02  0.43400730354E+02  0.00000000000E+00 0.  1.
         11    1    4    4    0    0  0.15994762642E+02  0.11639526912E+02  0.21497605759E+02  0.29214004729E+02  0.51100000000E-03 0. -1.
        -11    1    4    4    0    0  0.20551079269E+01 -0.83410649462E+00 -0.30988015111E+00  0.22394705189E+01  0.51100000000E-03 0.  1.
         12    1    4    4    0    0  0.12099963804E+02  0.10900480697E+02  0.12502943439E+01  0.16333794398E+02  0.00000000000E+00 0. -1.
</event>
<event>
 8    1  0.3776180E-010  0.9118800E+02  0.7816164E-02  0.1184000E+00
        -11   -1    0    0    0    0  0.00000000000E+00  0.00000000000E+00  0.45593999997E+02  0.45594000000E+02  0.51100000000E-03 0. -1.
         11   -1    0    0    0    0 -0.00000000000E+00 -0.00000000000E+00 -0.45593999997E+02  0.45594000000E+02  0.51100000000E-03 0.  1.
         23    2    1    2    0    0 -0.44408920985E-15  0.00000000000E+00 -0.71054273576E-14  0.91188000000E+02  0.91188000000E+02 0.  0.
    9900012    2    3    3    0    0  0.20024818548E+01 -0.87077522604E+01 -0.42471026162E+02  0.47787274819E+02  0.20000017209E+02 0.  0.
         12    1    3    3    0    0 -0.20024818548E+01  0.87077522604E+01  0.42471026162E+02  0.43400725181E+02  0.00000000000E+00 0. -1.
         11    1    4    4    0    0  0.13985466867E+01  0.28132232891E+01 -0.14490651510E+01  0.34597612897E+01  0.51100000000E-03 0. -1.
        -11    1    4    4    0    0  0.53860725653E+01 -0.18743793562E+01 -0.18596233530E+02  0.19451040523E+02  0.51100000000E-03 0.  1.
        -12    1    4    4    0    0 -0.47821373971E+01 -0.96465961933E+01 -0.22425727481E+02  0.24876473006E+02  0.00000000000E+00 0.  1.
</event>
<event>
 8    1  0.3776180E-010  0.9118800E+02  0.7816164E-02  0.1184000E+00
        -11   -1    0    0    0    0  0.00000000000E+00  0.00000000000E+00  0.45593999997E+02  0.45594000000E+02  0.51100000000E-03 0. -1.
         11   -1    0    0    0    0 -0.00000000000E+00 -0.00000000000E+00 -0.45593999997E+02  0.45594000000E+02  0.51100000000E-03 0.  1.
         23    2    1    2    0    0  0.00000000000E+00  0.00000000000E+00  0.00000000000E+00  0.91188000000E+02  0.91188000000E+02 0.  0.
    9900012    2    3    3    0    0  0.50563852036E+01  0.17106135488E+02  0.39565595483E+02  0.47787271336E+02  0.20000001329E+02 0.  0.
        -12    1    3    3    0    0 -0.50563852036E+01 -0.17106135488E+02 -0.39565595483E+02  0.43400728664E+02  0.00000000000E+00 0.  1.
         11    1    4    4    0    0  0.11383540226E+01  0.15436534112E+02  0.36759615523E+02  0.39885483185E+02  0.51100000000E-03 0. -1.
        -11    1    4    4    0    0 -0.93672906606E+00  0.21680512501E+01  0.16657002761E+01  0.28900631891E+01  0.51100000000E-03 0.  1.
        -12    1    4    4    0    0  0.48547602471E+01 -0.49844987381E+00  0.11402796838E+01  0.50117249616E+01  0.00000000000E+00 0.  1.
</event>
<event>
 8    1  0.3776180E-010  0.9118800E+02  0.7816164E-02  0.1184000E+00
        -11   -1    0    0    0    0  0.00000000000E+00  0.00000000000E+00  0.45593999997E+02  0.45594000000E+02  0.51100000000E-03 0. -1.
         11   -1    0    0    0    0 -0.00000000000E+00 -0.00000000000E+00 -0.45593999997E+02  0.45594000000E+02  0.51100000000E-03 0.  1.
         23    2    1    2    0    0  0.00000000000E+00 -0.35527136788E-14 -0.17763568394E-14  0.91188000000E+02  0.91188000000E+02 0.  0.
    9900012    2    3    3    0    0  0.33547440357E+02 -0.23370612232E+02 -0.14560473866E+02  0.47787266484E+02  0.19999979205E+02 0.  0.
         12    1    3    3    0    0 -0.33547440357E+02  0.23370612232E+02  0.14560473866E+02  0.43400733516E+02  0.00000000000E+00 0. -1.
         11    1    4    4    0    0  0.23693983022E+00 -0.20728797332E+01 -0.25895146639E+01  0.33254409222E+01  0.51100000000E-03 0. -1.
        -11    1    4    4    0    0  0.59601161880E+01  0.13819408930E+01 -0.57397608705E+01  0.83891358744E+01  0.51100000000E-03 0.  1.
         12    1    4    4    0    0  0.27350384338E+02 -0.22679673392E+02 -0.62311983313E+01  0.36072689687E+02  0.00000000000E+00 0. -1.
</event>
<event>
 8    1  0.3776180E-010  0.9118800E+02  0.7816164E-02  0.1184000E+00
        -11   -1    0    0    0    0  0.00000000000E+00  0.00000000000E+00  0.45593999997E+02  0.45594000000E+02  0.51100000000E-03 0. -1.
         11   -1    0    0    0    0 -0.00000000000E+00 -0.00000000000E+00 -0.45593999997E+02  0.45594000000E+02  0.51100000000E-03 0.  1.
         23    2    1    2    0    0  0.17763568394E-14  0.00000000000E+00  0.71054273576E-14  0.91188000000E+02  0.91188000000E+02 0.  0.
    9900012    2    3    3    0    0  0.10846638781E+02 -0.51324477698E+01  0.41708896174E+02  0.47787267137E+02  0.19999982186E+02 0.  0.
        -12    1    3    3    0    0 -0.10846638781E+02  0.51324477698E+01 -0.41708896174E+02  0.43400732863E+02  0.00000000000E+00 0.  1.
         11    1    4    4    0    0  0.22919380689E+01  0.47736719056E+01  0.69765616851E+01  0.87586150036E+01  0.51100000000E-03 0. -1.
        -11    1    4    4    0    0  0.96285407681E+01 -0.37998765938E+01  0.14144583880E+02  0.17527610015E+02  0.51100000000E-03 0.  1.
        -12    1    4    4    0    0 -0.10738400559E+01 -0.61062430816E+01  0.20587750609E+02  0.21501042118E+02  0.00000000000E+00 0.  1.
</event>
<event>
 8    1  0.3776180E-010  0.9118800E+02  0.7816164E-02  0.1184000E+00
        -11   -1    0    0    0    0  0.00000000000E+00  0.00000000000E+00  0.45593999997E+02  0.45594000000E+02  0.51100000000E-03 0.  1.
         11   -1    0    0    0    0 -0.00000000000E+00 -0.00000000000E+00 -0.45593999997E+02  0.45594000000E+02  0.51100000000E-03 0. -1.
         23    2    1    2    0    0 -0.35527136788E-14  0.35527136788E-14 -0.99920072216E-15  0.91188000000E+02  0.91188000000E+02 0.  0.
    9900012    2    3    3    0    0 -0.30557321030E+02  0.30809416351E+02  0.80813263699E+00  0.47787273246E+02  0.20000010039E+02 0.  0.
         12    1    3    3    0    0  0.30557321030E+02 -0.30809416351E+02 -0.80813263699E+00  0.43400726754E+02  0.00000000000E+00 0. -1.
         11    1    4    4    0    0 -0.80667016760E+01  0.11203167442E+01  0.53081983170E+01  0.97213041908E+01  0.51100000000E-03 0. -1.
        -11    1    4    4    0    0 -0.95296824656E+01  0.11231561679E+02  0.12748578059E+01  0.14784724831E+02  0.51100000000E-03 0.  1.
         12    1    4    4    0    0 -0.12960936888E+02  0.18457537927E+02 -0.57749234859E+01  0.23281244224E+02  0.00000000000E+00 0. -1.
</event>
<event>
 8    1  0.3776180E-010  0.9118800E+02  0.7816164E-02  0.1184000E+00
        -11   -1    0    0    0    0  0.00000000000E+00  0.00000000000E+00  0.45593999997E+02  0.45594000000E+02  0.51100000000E-03 0. -1.
         11   -1    0    0    0    0 -0.00000000000E+00 -0.00000000000E+00 -0.45593999997E+02  0.45594000000E+02  0.51100000000E-03 0.  1.
         23    2    1    2    0    0  0.00000000000E+00  0.71054273576E-14  0.00000000000E+00  0.91188000000E+02  0.91188000000E+02 0.  0.
    9900012    2    3    3    0    0  0.21604866552E+02  0.34709554484E+02  0.14563661546E+02  0.47787266494E+02  0.19999979253E+02 0.  0.
        -12    1    3    3    0    0 -0.21604866552E+02 -0.34709554484E+02 -0.14563661546E+02  0.43400733506E+02  0.00000000000E+00 0.  1.
         11    1    4    4    0    0  0.10507543770E+02  0.11854446242E+02  0.29049745251E+01  0.16105131140E+02  0.51100000000E-03 0. -1.
        -11    1    4    4    0    0  0.72964491251E+00 -0.13665904175E+01 -0.15654106219E+01  0.22023763856E+01  0.51100000000E-03 0.  1.
         12    1    4    4    0    0  0.10367677869E+02  0.24221698660E+02  0.13224097643E+02  0.29479758969E+02  0.00000000000E+00 0. -1.
</event>
<event>
 8    1  0.3776180E-010  0.9118800E+02  0.7816164E-02  0.1184000E+00
        -11   -1    0    0    0    0  0.00000000000E+00  0.00000000000E+00  0.45593999997E+02  0.45594000000E+02  0.51100000000E-03 0. -1.
         11   -1    0    0    0    0 -0.00000000000E+00 -0.00000000000E+00 -0.45593999997E+02  0.45594000000E+02  0.51100000000E-03 0.  1.
         23    2    1    2    0    0 -0.88817841970E-15  0.00000000000E+00  0.00000000000E+00  0.91188000000E+02  0.91188000000E+02 0.  0.
    9900012    2    3    3    0    0 -0.59795060742E+01 -0.23090034514E+01  0.42924789383E+02  0.47787268054E+02  0.19999986368E+02 0.  0.
        -12    1    3    3    0    0  0.59795060742E+01  0.23090034514E+01 -0.42924789383E+02  0.43400731946E+02  0.00000000000E+00 0.  1.
         11    1    4    4    0    0 -0.71133071056E+01  0.27340459843E+01  0.36102501563E+02  0.36898031991E+02  0.51100000000E-03 0. -1.
        -11    1    4    4    0    0 -0.19866679696E+01  0.49011652841E+00  0.23742574907E+01  0.31343520424E+01  0.51100000000E-03 0.  1.
        -12    1    4    4    0    0  0.31204690010E+01 -0.55331659641E+01  0.44480303294E+01  0.77548840213E+01  0.00000000000E+00 0.  1.
</event>
<event>
 8    1  0.3776180E-010  0.9118800E+02  0.7816164E-02  0.1184000E+00
        -11   -1    0    0    0    0  0.00000000000E+00  0.00000000000E+00  0.45593999997E+02  0.45594000000E+02  0.51100000000E-03 0. -1.
         11   -1    0    0    0    0 -0.00000000000E+00 -0.00000000000E+00 -0.45593999997E+02  0.45594000000E+02  0.51100000000E-03 0.  1.
         23    2    1    2    0    0  0.00000000000E+00  0.00000000000E+00  0.71054273576E-14  0.91188000000E+02  0.91188000000E+02 0.  0.
    9900012    2    3    3    0    0  0.23078772362E+02 -0.64633776040E+01  0.36183120252E+02  0.47787272184E+02  0.20000005194E+02 0.  0.
        -12    1    3    3    0    0 -0.23078772362E+02  0.64633776040E+01 -0.36183120252E+02  0.43400727816E+02  0.00000000000E+00 0.  1.
         11    1    4    4    0    0  0.13834690022E+02  0.41366398176E+01  0.16963930907E+02  0.22277463703E+02  0.51100000000E-03 0. -1.
        -11    1    4    4    0    0  0.48541859537E+01 -0.28958082954E+00  0.95163380324E+01  0.10686798779E+02  0.51100000000E-03 0.  1.
        -12    1    4    4    0    0  0.43898963868E+01 -0.10310436592E+02  0.97028513132E+01  0.14823009702E+02  0.00000000000E+00 0.  1.
</event>
<event>
 8    1  0.3776180E-010  0.9118800E+02  0.7816164E-02  0.1184000E+00
        -11   -1    0    0    0    0  0.00000000000E+00  0.00000000000E+00  0.45593999997E+02  0.45594000000E+02  0.51100000000E-03 0. -1.
         11   -1    0    0    0    0 -0.00000000000E+00 -0.00000000000E+00 -0.45593999997E+02  0.45594000000E+02  0.51100000000E-03 0.  1.
         23    2    1    2    0    0  0.00000000000E+00  0.00000000000E+00 -0.35527136788E-14  0.91188000000E+02  0.91188000000E+02 0.  0.
    9900012    2    3    3    0    0 -0.50377565922E+01 -0.33232617786E+02  0.27456105807E+02  0.47787267028E+02  0.19999981688E+02 0.  0.
        -12    1    3    3    0    0  0.50377565922E+01  0.33232617786E+02 -0.27456105807E+02  0.43400732972E+02  0.00000000000E+00 0.  1.
         11    1    4    4    0    0 -0.12084058833E+01 -0.14862806918E+02  0.16267483854E+02  0.22067947468E+02  0.51100000000E-03 0. -1.
        -11    1    4    4    0    0 -0.13295793467E+00  0.11530025545E+00  0.62226354626E+01  0.62251236391E+01  0.51100000000E-03 0.  1.
         12    1    4    4    0    0 -0.36963927742E+01 -0.18485111123E+02  0.49659864911E+01  0.19494195921E+02  0.00000000000E+00 0. -1.
</event>
<event>
 8    1  0.3776180E-010  0.9118800E+02  0.7816164E-02  0.1184000E+00
        -11   -1    0    0    0    0  0.00000000000E+00  0.00000000000E+00  0.45593999997E+02  0.45594000000E+02  0.51100000000E-03 0. -1.
         11   -1    0    0    0    0 -0.00000000000E+00 -0.00000000000E+00 -0.45593999997E+02  0.45594000000E+02  0.51100000000E-03 0.  1.
         23    2    1    2    0    0 -0.17763568394E-14  0.00000000000E+00  0.00000000000E+00  0.91188000000E+02  0.91188000000E+02 0.  0.
    9900012    2    3    3    0    0  0.37325965352E+01  0.97198135026E+01  0.42133316413E+02  0.47787269553E+02  0.19999993199E+02 0.  0.
        -12    1    3    3    0    0 -0.37325965352E+01 -0.97198135026E+01 -0.42133316413E+02  0.43400730447E+02  0.00000000000E+00 0.  1.
         11    1    4    4    0    0  0.65431175699E+01  0.45425911840E+00  0.14615820241E+02  0.16020016868E+02  0.51100000000E-03 0. -1.
        -11    1    4    4    0    0  0.35366749059E+01  0.86996739857E+01  0.14530152237E+02  0.17300801171E+02  0.51100000000E-03 0.  1.
         12    1    4    4    0    0 -0.63471959406E+01  0.56588039853E+00  0.12987343935E+02  0.14466451514E+02  0.00000000000E+00 0. -1.
</event>
<event>
 8    1  0.3776180E-010  0.9118800E+02  0.7816164E-02  0.1184000E+00
        -11   -1    0    0    0    0  0.00000000000E+00  0.00000000000E+00  0.45593999997E+02  0.45594000000E+02  0.51100000000E-03 0. -1.
         11   -1    0    0    0    0 -0.00000000000E+00 -0.00000000000E+00 -0.45593999997E+02  0.45594000000E+02  0.51100000000E-03 0.  1.
         23    2    1    2    0    0 -0.17763568394E-14  0.00000000000E+00  0.00000000000E+00  0.91188000000E+02  0.91188000000E+02 0.  0.
    9900012    2    3    3    0    0  0.71086250789E+01  0.25740771518E+02  0.34212618602E+02  0.47787272581E+02  0.20000007006E+02 0.  0.
        -12    1    3    3    0    0 -0.71086250789E+01 -0.25740771518E+02 -0.34212618602E+02  0.43400727419E+02  0.00000000000E+00 0.  1.
         11    1    4    4    0    0  0.43972849572E+01  0.27812884331E+01  0.13937862643E+02  0.14877355129E+02  0.51100000000E-03 0. -1.
        -11    1    4    4    0    0  0.40437507046E+01  0.13497117532E+01  0.30178492967E+01  0.52231270534E+01  0.51100000000E-03 0.  1.
        -12    1    4    4    0    0 -0.13324105829E+01  0.21609771332E+02  0.17256906663E+02  0.27686790398E+02  0.00000000000E+00 0.  1.
</event>
<event>
 8    1  0.3776180E-010  0.9118800E+02  0.7816164E-02  0.1184000E+00
        -11   -1    0    0    0    0  0.00000000000E+00  0.00000000000E+00  0.45593999997E+02  0.45594000000E+02  0.51100000000E-03 0. -1.
         11   -1    0    0    0    0 -0.00000000000E+00 -0.00000000000E+00 -0.45593999997E+02  0.45594000000E+02  0.51100000000E-03 0.  1.
         23    2    1    2    0    0  0.00000000000E+00 -0.17763568394E-14  0.00000000000E+00  0.91188000000E+02  0.91188000000E+02 0.  0.
    9900012    2    3    3    0    0  0.81812404941E+01  0.13874522290E+02 -0.40301220623E+02  0.47787269033E+02  0.19999990827E+02 0.  0.
         12    1    3    3    0    0 -0.81812404941E+01 -0.13874522290E+02  0.40301220623E+02  0.43400730967E+02  0.00000000000E+00 0. -1.
         11    1    4    4    0    0  0.24733591674E+01  0.42267768930E+01 -0.18203540613E+02  0.18850783527E+02  0.51100000000E-03 0. -1.
        -11    1    4    4    0    0  0.62409667951E+01 -0.23404809293E+01 -0.73154895897E+01  0.98966613419E+01  0.51100000000E-03 0.  1.
        -12    1    4    4    0    0 -0.53308546834E+00  0.11988226326E+02 -0.14782190421E+02  0.19039824164E+02  0.00000000000E+00 0.  1.
</event>
<event>
 8    1  0.3776180E-010  0.9118800E+02  0.7816164E-02  0.1184000E+00
        -11   -1    0    0    0    0  0.00000000000E+00  0.00000000000E+00  0.45593999997E+02  0.45594000000E+02  0.51100000000E-03 0. -1.
         11   -1    0    0    0    0 -0.00000000000E+00 -0.00000000000E+00 -0.45593999997E+02  0.45594000000E+02  0.51100000000E-03 0.  1.
         23    2    1    2    0    0  0.35527136788E-14  0.00000000000E+00 -0.71054273576E-14  0.91188000000E+02  0.91188000000E+02 0.  0.
    9900012    2    3    3    0    0 -0.18774992504E+02  0.42432268593E+01  0.38898807836E+02  0.47787279168E+02  0.20000037037E+02 0.  0.
        -12    1    3    3    0    0  0.18774992504E+02 -0.42432268593E+01 -0.38898807836E+02  0.43400720832E+02  0.00000000000E+00 0.  1.
         11    1    4    4    0    0 -0.16949444166E+02  0.21763074631E+01  0.27877280658E+02  0.32698054206E+02  0.51100000000E-03 0. -1.
        -11    1    4    4    0    0 -0.83455016894E+00  0.58738164606E+01  0.86719660244E+01  0.10507197000E+02  0.51100000000E-03 0.  1.
        -12    1    4    4    0    0 -0.99099816927E+00 -0.38068970644E+01  0.23495611532E+01  0.45820279618E+01  0.00000000000E+00 0.  1.
</event>
<event>
 8    1  0.3776180E-010  0.9118800E+02  0.7816164E-02  0.1184000E+00
        -11   -1    0    0    0    0  0.00000000000E+00  0.00000000000E+00  0.45593999997E+02  0.45594000000E+02  0.51100000000E-03 0. -1.
         11   -1    0    0    0    0 -0.00000000000E+00 -0.00000000000E+00 -0.45593999997E+02  0.45594000000E+02  0.51100000000E-03 0.  1.
         23    2    1    2    0    0  0.00000000000E+00 -0.55511151231E-15 -0.71054273576E-14  0.91188000000E+02  0.91188000000E+02 0.  0.
    9900012    2    3    3    0    0  0.10321478520E+02  0.55086075898E+00 -0.42151946951E+02  0.47787274221E+02  0.20000014483E+02 0.  0.
         12    1    3    3    0    0 -0.10321478520E+02 -0.55086075898E+00  0.42151946951E+02  0.43400725779E+02  0.00000000000E+00 0. -1.
         11    1    4    4    0    0  0.46098961906E+01 -0.38332105881E+01 -0.11625150538E+02  0.13080090657E+02  0.51100000000E-03 0. -1.
        -11    1    4    4    0    0  0.43718343843E+01 -0.34198448798E+01 -0.23415947764E+02  0.24064805938E+02  0.51100000000E-03 0.  1.
         12    1    4    4    0    0  0.13397479455E+01  0.78039162269E+01 -0.71108486485E+01  0.10642377626E+02  0.00000000000E+00 0. -1.
</event>
<event>
 8    1  0.3776180E-010  0.9118800E+02  0.7816164E-02  0.1184000E+00
        -11   -1    0    0    0    0  0.00000000000E+00  0.00000000000E+00  0.45593999997E+02  0.45594000000E+02  0.51100000000E-03 0. -1.
         11   -1    0    0    0    0 -0.00000000000E+00 -0.00000000000E+00 -0.45593999997E+02  0.45594000000E+02  0.51100000000E-03 0.  1.
         23    2    1    2    0    0  0.88817841970E-15  0.71054273576E-14  0.35527136788E-14  0.91188000000E+02  0.91188000000E+02 0.  0.
    9900012    2    3    3    0    0  0.60549538353E+01 -0.35560125388E+02  0.24133755337E+02  0.47787272699E+02  0.20000007544E+02 0.  0.
        -12    1    3    3    0    0 -0.60549538353E+01  0.35560125388E+02 -0.24133755337E+02  0.43400727301E+02  0.00000000000E+00 0.  1.
         11    1    4    4    0    0 -0.15410206204E+01 -0.25842071225E+02  0.10935199483E+02  0.28102775268E+02  0.51100000000E-03 0. -1.
        -11    1    4    4    0    0  0.46524776278E+01 -0.96721044759E+01  0.69761602475E+01  0.12800857984E+02  0.51100000000E-03 0.  1.
        -12    1    4    4    0    0  0.29434968279E+01 -0.45949687237E-01  0.62223956069E+01  0.68836394472E+01  0.00000000000E+00 0.  1.
</event>
<event>
 8    1  0.3776180E-010  0.9118800E+02  0.7816164E-02  0.1184000E+00
        -11   -1    0    0    0    0  0.00000000000E+00  0.00000000000E+00  0.45593999997E+02  0.45594000000E+02  0.51100000000E-03 0. -1.
         11   -1    0    0    0    0 -0.00000000000E+00 -0.00000000000E+00 -0.45593999997E+02  0.45594000000E+02  0.51100000000E-03 0.  1.
         23    2    1    2    0    0 -0.33306690739E-15  0.00000000000E+00  0.00000000000E+00  0.91188000000E+02  0.91188000000E+02 0.  0.
    9900012    2    3    3    0    0  0.80259926253E+00 -0.20651239012E+01  0.43344139202E+02  0.47787270681E+02  0.19999998341E+02 0.  0.
        -12    1    3    3    0    0 -0.80259926253E+00  0.20651239012E+01 -0.43344139202E+02  0.43400729319E+02  0.00000000000E+00 0.  1.
         11    1    4    4    0    0  0.26963658327E+01 -0.46349355716E+01  0.38621931081E+02  0.38992391272E+02  0.51100000000E-03 0. -1.
        -11    1    4    4    0    0  0.11887602075E+01 -0.16961594032E+01  0.75706683326E+00  0.22052795748E+01  0.51100000000E-03 0.  1.
         12    1    4    4    0    0 -0.30825267776E+01  0.42659710735E+01  0.39651412881E+01  0.65895998338E+01  0.00000000000E+00 0. -1.
</event>
<event>
 8    1  0.3776180E-010  0.9118800E+02  0.7816164E-02  0.1184000E+00
        -11   -1    0    0    0    0  0.00000000000E+00  0.00000000000E+00  0.45593999997E+02  0.45594000000E+02  0.51100000000E-03 0. -1.
         11   -1    0    0    0    0 -0.00000000000E+00 -0.00000000000E+00 -0.45593999997E+02  0.45594000000E+02  0.51100000000E-03 0.  1.
         23    2    1    2    0    0 -0.35527136788E-14  0.00000000000E+00  0.00000000000E+00  0.91188000000E+02  0.91188000000E+02 0.  0.
    9900012    2    3    3    0    0 -0.24248993747E+02 -0.23195797167E+02 -0.27523888834E+02  0.47787272350E+02  0.20000005951E+02 0.  0.
         12    1    3    3    0    0  0.24248993747E+02  0.23195797167E+02  0.27523888834E+02  0.43400727650E+02  0.00000000000E+00 0. -1.
         11    1    4    4    0    0  0.17307961306E-01 -0.91265290806E+01 -0.87264220068E+01  0.12627124531E+02  0.51100000000E-03 0. -1.
        -11    1    4    4    0    0 -0.69250724730E+01 -0.94571526938E+01 -0.84090901626E+01  0.14425919848E+02  0.51100000000E-03 0.  1.
        -12    1    4    4    0    0 -0.17341229236E+02 -0.46121153930E+01 -0.10388376665E+02  0.20734227971E+02  0.00000000000E+00 0.  1.
</event>
<event>
 8    1  0.3776180E-010  0.9118800E+02  0.7816164E-02  0.1184000E+00
        -11   -1    0    0    0    0  0.00000000000E+00  0.00000000000E+00  0.45593999997E+02  0.45594000000E+02  0.51100000000E-03 0. -1.
         11   -1    0    0    0    0 -0.00000000000E+00 -0.00000000000E+00 -0.45593999997E+02  0.45594000000E+02  0.51100000000E-03 0.  1.
         23    2    1    2    0    0  0.00000000000E+00 -0.17763568394E-14  0.71054273576E-14  0.91188000000E+02  0.91188000000E+02 0.  0.
    9900012    2    3    3    0    0  0.49678987530E+01 -0.12297885926E+02  0.41324388723E+02  0.47787272821E+02  0.20000008102E+02 0.  0.
        -12    1    3    3    0    0 -0.49678987530E+01  0.12297885926E+02 -0.41324388723E+02  0.43400727179E+02  0.00000000000E+00 0.  1.
         11    1    4    4    0    0  0.21786365983E+01 -0.66527152767E+01  0.45327766110E+01  0.83397327323E+01  0.51100000000E-03 0. -1.
        -11    1    4    4    0    0  0.66010539627E+01 -0.74799857781E+01  0.26840943549E+02  0.28634949826E+02  0.51100000000E-03 0.  1.
        -12    1    4    4    0    0 -0.38117918080E+01  0.18348151288E+01  0.99506685631E+01  0.10812590263E+02  0.00000000000E+00 0.  1.
</event>
<event>
 8    1  0.3776180E-010  0.9118800E+02  0.7816164E-02  0.1184000E+00
        -11   -1    0    0    0    0  0.00000000000E+00  0.00000000000E+00  0.45593999997E+02  0.45594000000E+02  0.51100000000E-03 0. -1.
         11   -1    0    0    0    0 -0.00000000000E+00 -0.00000000000E+00 -0.45593999997E+02  0.45594000000E+02  0.51100000000E-03 0.  1.
         23    2    1    2    0    0 -0.35527136788E-14  0.00000000000E+00  0.00000000000E+00  0.91188000000E+02  0.91188000000E+02 0.  0.
    9900012    2    3    3    0    0  0.27395810982E+02 -0.54621671840E+01  0.33215319160E+02  0.47787272395E+02  0.20000006160E+02 0.  0.
        -12    1    3    3    0    0 -0.27395810982E+02  0.54621671840E+01 -0.33215319160E+02  0.43400727605E+02  0.00000000000E+00 0.  1.
         11    1    4    4    0    0  0.88587454638E+01 -0.20590210752E+01  0.51026503784E+01  0.10428517638E+02  0.51100000000E-03 0. -1.
        -11    1    4    4    0    0  0.15386779391E+02 -0.52954127722E+01  0.10498352257E+02  0.19365169166E+02  0.51100000000E-03 0.  1.
         12    1    4    4    0    0  0.31502861268E+01  0.18922666634E+01  0.17614316524E+02  0.17993585591E+02  0.00000000000E+00 0. -1.
</event>
<event>
 8    1  0.3776180E-010  0.9118800E+02  0.7816164E-02  0.1184000E+00
        -11   -1    0    0    0    0  0.00000000000E+00  0.00000000000E+00  0.45593999997E+02  0.45594000000E+02  0.51100000000E-03 0. -1.
         11   -1    0    0    0    0 -0.00000000000E+00 -0.00000000000E+00 -0.45593999997E+02  0.45594000000E+02  0.51100000000E-03 0.  1.
         23    2    1    2    0    0  0.35527136788E-14 -0.17763568394E-14  0.00000000000E+00  0.91188000000E+02  0.91188000000E+02 0.  0.
    9900012    2    3    3    0    0 -0.31056277051E+02  0.13582240206E+02  0.27104493485E+02  0.47787272352E+02  0.20000005963E+02 0.  0.
        -12    1    3    3    0    0  0.31056277051E+02 -0.13582240206E+02 -0.27104493485E+02  0.43400727648E+02  0.00000000000E+00 0.  1.
         11    1    4    4    0    0 -0.10528727620E+02  0.78755625507E+01  0.13658744953E+02  0.18958900410E+02  0.51100000000E-03 0. -1.
        -11    1    4    4    0    0  0.64266748267E+00  0.11773485806E+01  0.56676404454E+01  0.58242012030E+01  0.51100000000E-03 0.  1.
        -12    1    4    4    0    0 -0.21170216913E+02  0.45293290744E+01  0.77781080872E+01  0.23004170740E+02  0.00000000000E+00 0.  1.
</event>
<event>
 8    1  0.3776180E-010  0.9118800E+02  0.7816164E-02  0.1184000E+00
        -11   -1    0    0    0    0  0.00000000000E+00  0.00000000000E+00  0.45593999997E+02  0.45594000000E+02  0.51100000000E-03 0. -1.
         11   -1    0    0    0    0 -0.00000000000E+00 -0.00000000000E+00 -0.45593999997E+02  0.45594000000E+02  0.51100000000E-03 0.  1.
         23    2    1    2    0    0  0.00000000000E+00  0.00000000000E+00 -0.35527136788E-14  0.91188000000E+02  0.91188000000E+02 0.  0.
    9900012    2    3    3    0    0 -0.51573856161E+01 -0.36658732853E+02 -0.22653074212E+02  0.47787273139E+02  0.20000009549E+02 0.  0.
         12    1    3    3    0    0  0.51573856161E+01  0.36658732853E+02  0.22653074212E+02  0.43400726861E+02  0.00000000000E+00 0. -1.
         11    1    4    4    0    0  0.22642417497E+01 -0.18165555105E+02 -0.12647159079E+02  0.22250052045E+02  0.51100000000E-03 0. -1.
        -11    1    4    4    0    0 -0.90338590316E+00 -0.97167817837E+01 -0.10825020447E+02  0.14574396120E+02  0.51100000000E-03 0.  1.
        -12    1    4    4    0    0 -0.65182414627E+01 -0.87763959647E+01  0.81910531373E+00  0.10962824974E+02  0.00000000000E+00 0.  1.
</event>
<event>
 8    1  0.3776180E-010  0.9118800E+02  0.7816164E-02  0.1184000E+00
        -11   -1    0    0    0    0  0.00000000000E+00  0.00000000000E+00  0.45593999997E+02  0.45594000000E+02  0.51100000000E-03 0. -1.
         11   -1    0    0    0    0 -0.00000000000E+00 -0.00000000000E+00 -0.45593999997E+02  0.45594000000E+02  0.51100000000E-03 0.  1.
         23    2    1    2    0    0  0.88817841970E-15 -0.71054273576E-14 -0.17763568394E-14  0.91188000000E+02  0.91188000000E+02 0.  0.
    9900012    2    3    3    0    0 -0.66722245921E+01  0.41913415885E+02  0.90757674731E+01  0.47787279184E+02  0.20000037110E+02 0.  0.
        -12    1    3    3    0    0  0.66722245921E+01 -0.41913415885E+02 -0.90757674731E+01  0.43400720816E+02  0.00000000000E+00 0.  1.
         11    1    4    4    0    0 -0.19188234597E+01  0.90796291140E+01  0.38922196557E+01  0.10063345489E+02  0.51100000000E-03 0. -1.
        -11    1    4    4    0    0  0.52245987762E+01  0.13087535216E+02  0.65870912013E+01  0.15555377885E+02  0.51100000000E-03 0.  1.
        -12    1    4    4    0    0 -0.99779999085E+01  0.19746251555E+02 -0.14035433838E+01  0.22168555809E+02  0.00000000000E+00 0.  1.
</event>
<event>
 8    1  0.4888003E-010  0.9118800E+02  0.7816164E-02  0.1184000E+00
        -11   -1    0    0    0    0  0.00000000000E+00  0.00000000000E+00  0.45593999997E+02  0.45594000000E+02  0.51100000000E-03 0. -1.
         11   -1    0    0    0    0 -0.00000000000E+00 -0.00000000000E+00 -0.45593999997E+02  0.45594000000E+02  0.51100000000E-03 0.  1.
         23    2    1    2    0    0 -0.35527136788E-14  0.35527136788E-14 -0.35527136788E-14  0.91188000000E+02  0.91188000000E+02 0.  0.
    9900012    2    3    3    0    0  0.16068115677E+02 -0.26241403554E+02  0.30607636746E+02  0.47787273865E+02  0.20000012859E+02 0.  0.
        -12    1    3    3    0    0 -0.16068115677E+02  0.26241403554E+02 -0.30607636746E+02  0.43400726135E+02  0.00000000000E+00 0.  1.
         11    1    4    4    0    0  0.71382836194E+01 -0.97004638558E+01  0.40154494326E+01  0.12695586889E+02  0.51100000000E-03 0. -1.
        -11    1    4    4    0    0  0.80571818536E+01 -0.15899008566E+02  0.14571485675E+02  0.23022268520E+02  0.51100000000E-03 0.  1.
        -12    1    4    4    0    0  0.87265020353E+00 -0.64193113262E+00  0.12020701639E+02  0.12069418456E+02  0.00000000000E+00 0.  1.
</event>
<event>
 8    1  0.3776180E-010  0.9118800E+02  0.7816164E-02  0.1184000E+00
        -11   -1    0    0    0    0  0.00000000000E+00  0.00000000000E+00  0.45593999997E+02  0.45594000000E+02  0.51100000000E-03 0. -1.
         11   -1    0    0    0    0 -0.00000000000E+00 -0.00000000000E+00 -0.45593999997E+02  0.45594000000E+02  0.51100000000E-03 0.  1.
         23    2    1    2    0    0 -0.88817841970E-15  0.00000000000E+00  0.00000000000E+00  0.91188000000E+02  0.91188000000E+02 0.  0.
    9900012    2    3    3    0    0  0.74779955316E+01 -0.16828791626E+02 -0.39300058008E+02  0.47787271847E+02  0.20000003659E+02 0.  0.
         12    1    3    3    0    0 -0.74779955316E+01  0.16828791626E+02  0.39300058008E+02  0.43400728153E+02  0.00000000000E+00 0. -1.
         11    1    4    4    0    0  0.19809184545E+01 -0.30075104508E+00 -0.16693647402E+02  0.16813457495E+02  0.51100000000E-03 0. -1.
        -11    1    4    4    0    0 -0.10117810215E+01 -0.87629238230E+01 -0.17567402082E+02  0.19657724968E+02  0.51100000000E-03 0.  1.
         12    1    4    4    0    0  0.65088580985E+01 -0.77651167584E+01 -0.50390085246E+01  0.11316089383E+02  0.00000000000E+00 0. -1.
</event>
<event>
 8    1  0.3776180E-010  0.9118800E+02  0.7816164E-02  0.1184000E+00
        -11   -1    0    0    0    0  0.00000000000E+00  0.00000000000E+00  0.45593999997E+02  0.45594000000E+02  0.51100000000E-03 0. -1.
         11   -1    0    0    0    0 -0.00000000000E+00 -0.00000000000E+00 -0.45593999997E+02  0.45594000000E+02  0.51100000000E-03 0.  1.
         23    2    1    2    0    0  0.00000000000E+00  0.00000000000E+00  0.00000000000E+00  0.91188000000E+02  0.91188000000E+02 0.  0.
    9900012    2    3    3    0    0 -0.22642304045E+02 -0.61521600691E+01  0.36511650576E+02  0.47787266898E+02  0.19999981095E+02 0.  0.
        -12    1    3    3    0    0  0.22642304045E+02  0.61521600691E+01 -0.36511650576E+02  0.43400733102E+02  0.00000000000E+00 0.  1.
         11    1    4    4    0    0 -0.58552912445E+01 -0.23233717732E+01  0.36220910773E+01  0.72665009452E+01  0.51100000000E-03 0. -1.
        -11    1    4    4    0    0 -0.15029736528E+02 -0.39210973697E+01  0.12185864812E+02  0.19742423512E+02  0.51100000000E-03 0.  1.
         12    1    4    4    0    0 -0.17572762729E+01  0.92309073702E-01  0.20703694687E+02  0.20778342440E+02  0.00000000000E+00 0. -1.
</event>
<event>
 8    1  0.3776180E-010  0.9118800E+02  0.7816164E-02  0.1184000E+00
        -11   -1    0    0    0    0  0.00000000000E+00  0.00000000000E+00  0.45593999997E+02  0.45594000000E+02  0.51100000000E-03 0. -1.
         11   -1    0    0    0    0 -0.00000000000E+00 -0.00000000000E+00 -0.45593999997E+02  0.45594000000E+02  0.51100000000E-03 0.  1.
         23    2    1    2    0    0  0.00000000000E+00  0.00000000000E+00  0.00000000000E+00  0.91188000000E+02  0.91188000000E+02 0.  0.
    9900012    2    3    3    0    0 -0.98864220984E+01 -0.32865601331E+02  0.26565655367E+02  0.47787272612E+02  0.20000007147E+02 0.  0.
        -12    1    3    3    0    0  0.98864220984E+01  0.32865601331E+02 -0.26565655367E+02  0.43400727388E+02  0.00000000000E+00 0.  1.
         11    1    4    4    0    0 -0.10990216495E+00 -0.16754892575E+01  0.86247435370E+01  0.87866685426E+01  0.51100000000E-03 0. -1.
        -11    1    4    4    0    0 -0.77738974551E+00 -0.34514130947E+01  0.70194747321E+01  0.78606369299E+01  0.51100000000E-03 0.  1.
         12    1    4    4    0    0 -0.89991301879E+01 -0.27738698979E+02  0.10921437098E+02  0.31139967139E+02  0.00000000000E+00 0. -1.
</event>
<event>
 8    1  0.3776180E-010  0.9118800E+02  0.7816164E-02  0.1184000E+00
        -11   -1    0    0    0    0  0.00000000000E+00  0.00000000000E+00  0.45593999997E+02  0.45594000000E+02  0.51100000000E-03 0. -1.
         11   -1    0    0    0    0 -0.00000000000E+00 -0.00000000000E+00 -0.45593999997E+02  0.45594000000E+02  0.51100000000E-03 0.  1.
         23    2    1    2    0    0  0.00000000000E+00  0.00000000000E+00  0.00000000000E+00  0.91188000000E+02  0.91188000000E+02 0.  0.
    9900012    2    3    3    0    0  0.38879754044E+02 -0.14237340922E+02  0.13010985526E+02  0.47787275405E+02  0.20000019880E+02 0.  0.
        -12    1    3    3    0    0 -0.38879754044E+02  0.14237340922E+02 -0.13010985526E+02  0.43400724595E+02  0.00000000000E+00 0.  1.
         11    1    4    4    0    0  0.14909583427E+02  0.18264818948E+01  0.57776797980E+01  0.16093890088E+02  0.51100000000E-03 0. -1.
        -11    1    4    4    0    0  0.18128815129E+02 -0.86751166572E+01  0.91484885398E+01  0.22081812195E+02  0.51100000000E-03 0.  1.
        -12    1    4    4    0    0  0.58413554880E+01 -0.73887061600E+01 -0.19151828117E+01  0.96115731209E+01  0.00000000000E+00 0.  1.
</event>
<event>
 8    1  0.3776180E-010  0.9118800E+02  0.7816164E-02  0.1184000E+00
        -11   -1    0    0    0    0  0.00000000000E+00  0.00000000000E+00  0.45593999997E+02  0.45594000000E+02  0.51100000000E-03 0. -1.
         11   -1    0    0    0    0 -0.00000000000E+00 -0.00000000000E+00 -0.45593999997E+02  0.45594000000E+02  0.51100000000E-03 0.  1.
         23    2    1    2    0    0  0.00000000000E+00 -0.71054273576E-14  0.00000000000E+00  0.91188000000E+02  0.91188000000E+02 0.  0.
    9900012    2    3    3    0    0  0.43388732465E+01  0.39519421884E+02  0.17407272353E+02  0.47787266620E+02  0.19999979828E+02 0.  0.
        -12    1    3    3    0    0 -0.43388732465E+01 -0.39519421884E+02 -0.17407272353E+02  0.43400733380E+02  0.00000000000E+00 0.  1.
         11    1    4    4    0    0  0.33650679403E+01  0.14280385309E+02  0.85154085238E+00  0.14696197090E+02  0.51100000000E-03 0. -1.
        -11    1    4    4    0    0  0.62109762242E+01  0.58090658685E+01  0.43022730578E+01  0.95305312364E+01  0.51100000000E-03 0.  1.
        -12    1    4    4    0    0 -0.52371709180E+01  0.19429970707E+02  0.12253458443E+02  0.23560538294E+02  0.00000000000E+00 0.  1.
</event>
<event>
 8    1  0.3776180E-010  0.9118800E+02  0.7816164E-02  0.1184000E+00
        -11   -1    0    0    0    0  0.00000000000E+00  0.00000000000E+00  0.45593999997E+02  0.45594000000E+02  0.51100000000E-03 0. -1.
         11   -1    0    0    0    0 -0.00000000000E+00 -0.00000000000E+00 -0.45593999997E+02  0.45594000000E+02  0.51100000000E-03 0.  1.
         23    2    1    2    0    0  0.00000000000E+00  0.00000000000E+00 -0.71054273576E-14  0.91188000000E+02  0.91188000000E+02 0.  0.
    9900012    2    3    3    0    0  0.22266452632E+01  0.23249196259E+02  0.36580601305E+02  0.47787268812E+02  0.19999989823E+02 0.  0.
        -12    1    3    3    0    0 -0.22266452632E+01 -0.23249196259E+02 -0.36580601305E+02  0.43400731188E+02  0.00000000000E+00 0.  1.
         11    1    4    4    0    0  0.51932288724E+01  0.59176973234E+01  0.25844474457E+02  0.27017135820E+02  0.51100000000E-03 0. -1.
        -11    1    4    4    0    0 -0.13187411000E+01  0.29595960304E+01  0.27268349186E+01  0.42348454148E+01  0.51100000000E-03 0.  1.
        -12    1    4    4    0    0 -0.16478425092E+01  0.14371902905E+02  0.80092919294E+01  0.16535287577E+02  0.00000000000E+00 0.  1.
</event>
<event>
 8    1  0.3776180E-010  0.9118800E+02  0.7816164E-02  0.1184000E+00
        -11   -1    0    0    0    0  0.00000000000E+00  0.00000000000E+00  0.45593999997E+02  0.45594000000E+02  0.51100000000E-03 0. -1.
         11   -1    0    0    0    0 -0.00000000000E+00 -0.00000000000E+00 -0.45593999997E+02  0.45594000000E+02  0.51100000000E-03 0.  1.
         23    2    1    2    0    0 -0.35527136788E-14  0.17763568394E-14  0.00000000000E+00  0.91188000000E+02  0.91188000000E+02 0.  0.
    9900012    2    3    3    0    0  0.20896943077E+02  0.15956740671E+02  0.34530034757E+02  0.47787273011E+02  0.20000008968E+02 0.  0.
        -12    1    3    3    0    0 -0.20896943077E+02 -0.15956740671E+02 -0.34530034757E+02  0.43400726989E+02  0.00000000000E+00 0.  1.
         11    1    4    4    0    0  0.68295838280E+01  0.46126493820E+00  0.10758199925E+02  0.12751268427E+02  0.51100000000E-03 0. -1.
        -11    1    4    4    0    0  0.42003411147E+01 -0.25782143639E+01  0.65164773487E+01  0.81703446735E+01  0.51100000000E-03 0.  1.
        -12    1    4    4    0    0  0.98670181346E+01  0.18073690097E+02  0.17255357484E+02  0.26865659911E+02  0.00000000000E+00 0.  1.
</event>
<event>
 8    1  0.3776180E-010  0.9118800E+02  0.7816164E-02  0.1184000E+00
        -11   -1    0    0    0    0  0.00000000000E+00  0.00000000000E+00  0.45593999997E+02  0.45594000000E+02  0.51100000000E-03 0. -1.
         11   -1    0    0    0    0 -0.00000000000E+00 -0.00000000000E+00 -0.45593999997E+02  0.45594000000E+02  0.51100000000E-03 0.  1.
         23    2    1    2    0    0  0.00000000000E+00  0.44408920985E-15  0.00000000000E+00  0.91188000000E+02  0.91188000000E+02 0.  0.
    9900012    2    3    3    0    0  0.90553943555E+01 -0.11002674175E+01 -0.42431270647E+02  0.47787268623E+02  0.19999988959E+02 0.  0.
         12    1    3    3    0    0 -0.90553943555E+01  0.11002674175E+01  0.42431270647E+02  0.43400731377E+02  0.00000000000E+00 0. -1.
         11    1    4    4    0    0  0.58044229538E+01  0.52314160739E+00 -0.13215157762E+02  0.14443178248E+02  0.51100000000E-03 0. -1.
        -11    1    4    4    0    0 -0.22057107159E+01  0.61611368834E+01 -0.12724373620E+02  0.14308544711E+02  0.51100000000E-03 0.  1.
        -12    1    4    4    0    0  0.54566821176E+01 -0.77845459083E+01 -0.16491739265E+02  0.19035545664E+02  0.00000000000E+00 0.  1.
</event>
<event>
 8    1  0.3776180E-010  0.9118800E+02  0.7816164E-02  0.1184000E+00
        -11   -1    0    0    0    0  0.00000000000E+00  0.00000000000E+00  0.45593999997E+02  0.45594000000E+02  0.51100000000E-03 0. -1.
         11   -1    0    0    0    0 -0.00000000000E+00 -0.00000000000E+00 -0.45593999997E+02  0.45594000000E+02  0.51100000000E-03 0.  1.
         23    2    1    2    0    0  0.00000000000E+00  0.00000000000E+00  0.35527136788E-14  0.91188000000E+02  0.91188000000E+02 0.  0.
    9900012    2    3    3    0    0  0.99834574896E+01  0.35031809594E+02 -0.23595049161E+02  0.47787268995E+02  0.19999990654E+02 0.  0.
         12    1    3    3    0    0 -0.99834574896E+01 -0.35031809594E+02  0.23595049161E+02  0.43400731005E+02  0.00000000000E+00 0. -1.
         11    1    4    4    0    0 -0.17023495129E+01  0.87201181807E+01 -0.77573188530E+00  0.89185321196E+01  0.51100000000E-03 0. -1.
        -11    1    4    4    0    0  0.85129845632E+01  0.71198617418E+01 -0.39827945166E+01  0.11790928285E+02  0.51100000000E-03 0.  1.
        -12    1    4    4    0    0  0.31728224393E+01  0.19191829672E+02 -0.18836522759E+02  0.27077808590E+02  0.00000000000E+00 0.  1.
</event>
<event>
 8    1  0.3776180E-010  0.9118800E+02  0.7816164E-02  0.1184000E+00
        -11   -1    0    0    0    0  0.00000000000E+00  0.00000000000E+00  0.45593999997E+02  0.45594000000E+02  0.51100000000E-03 0. -1.
         11   -1    0    0    0    0 -0.00000000000E+00 -0.00000000000E+00 -0.45593999997E+02  0.45594000000E+02  0.51100000000E-03 0.  1.
         23    2    1    2    0    0 -0.17763568394E-14 -0.17763568394E-14  0.00000000000E+00  0.91188000000E+02  0.91188000000E+02 0.  0.
    9900012    2    3    3    0    0  0.13822143718E+02  0.12642135086E+02  0.39150330000E+02  0.47787267569E+02  0.19999984152E+02 0.  0.
        -12    1    3    3    0    0 -0.13822143718E+02 -0.12642135086E+02 -0.39150330000E+02  0.43400732431E+02  0.00000000000E+00 0.  1.
         11    1    4    4    0    0  0.89674441772E+01  0.14137679192E+02  0.24944028650E+02  0.30041531145E+02  0.51100000000E-03 0. -1.
        -11    1    4    4    0    0  0.19891687578E+01  0.34318419641E+01  0.24019088058E+01  0.46371864084E+01  0.51100000000E-03 0.  1.
        -12    1    4    4    0    0  0.28655307831E+01 -0.49273860703E+01  0.11804392544E+02  0.13108550015E+02  0.00000000000E+00 0.  1.
</event>
<event>
 8    1  0.3776180E-010  0.9118800E+02  0.7816164E-02  0.1184000E+00
        -11   -1    0    0    0    0  0.00000000000E+00  0.00000000000E+00  0.45593999997E+02  0.45594000000E+02  0.51100000000E-03 0. -1.
         11   -1    0    0    0    0 -0.00000000000E+00 -0.00000000000E+00 -0.45593999997E+02  0.45594000000E+02  0.51100000000E-03 0.  1.
         23    2    1    2    0    0  0.35527136788E-14  0.22204460493E-15 -0.35527136788E-14  0.91188000000E+02  0.91188000000E+02 0.  0.
    9900012    2    3    3    0    0 -0.30541889110E+02 -0.19039940434E+01  0.30776469017E+02  0.47787271563E+02  0.20000002363E+02 0.  0.
        -12    1    3    3    0    0  0.30541889110E+02  0.19039940434E+01 -0.30776469017E+02  0.43400728437E+02  0.00000000000E+00 0.  1.
         11    1    4    4    0    0 -0.11563902281E+02 -0.29061696142E+01  0.19162555432E+02  0.22569297480E+02  0.51100000000E-03 0. -1.
        -11    1    4    4    0    0 -0.36409233707E+01 -0.31916408105E+01 -0.97328976530E+00  0.49386422510E+01  0.51100000000E-03 0.  1.
         12    1    4    4    0    0 -0.15337063458E+02  0.41938163813E+01  0.12587203350E+02  0.20279331832E+02  0.00000000000E+00 0. -1.
</event>
<event>
 8    1  0.3776180E-010  0.9118800E+02  0.7816164E-02  0.1184000E+00
        -11   -1    0    0    0    0  0.00000000000E+00  0.00000000000E+00  0.45593999997E+02  0.45594000000E+02  0.51100000000E-03 0. -1.
         11   -1    0    0    0    0 -0.00000000000E+00 -0.00000000000E+00 -0.45593999997E+02  0.45594000000E+02  0.51100000000E-03 0.  1.
         23    2    1    2    0    0  0.00000000000E+00  0.17763568394E-14  0.00000000000E+00  0.91188000000E+02  0.91188000000E+02 0.  0.
    9900012    2    3    3    0    0 -0.17256788686E+02  0.15885027943E+02  0.36517014287E+02  0.47787271884E+02  0.20000003830E+02 0.  0.
        -12    1    3    3    0    0  0.17256788686E+02 -0.15885027943E+02 -0.36517014287E+02  0.43400728116E+02  0.00000000000E+00 0.  1.
         11    1    4    4    0    0 -0.16022531333E+01  0.96173500293E+01  0.17055027503E+02  0.19645218249E+02  0.51100000000E-03 0. -1.
        -11    1    4    4    0    0 -0.32486704094E+00 -0.67503087047E+00 -0.12487391918E+01  0.14562125877E+01  0.51100000000E-03 0.  1.
         12    1    4    4    0    0 -0.15329668511E+02  0.69427087845E+01  0.20710725976E+02  0.26685841047E+02  0.00000000000E+00 0. -1.
</event>
<event>
 8    1  0.3776180E-010  0.9118800E+02  0.7816164E-02  0.1184000E+00
        -11   -1    0    0    0    0  0.00000000000E+00  0.00000000000E+00  0.45593999997E+02  0.45594000000E+02  0.51100000000E-03 0. -1.
         11   -1    0    0    0    0 -0.00000000000E+00 -0.00000000000E+00 -0.45593999997E+02  0.45594000000E+02  0.51100000000E-03 0.  1.
         23    2    1    2    0    0  0.88817841970E-15  0.66613381478E-15  0.00000000000E+00  0.91188000000E+02  0.91188000000E+02 0.  0.
    9900012    2    3    3    0    0 -0.69727094656E+01  0.15326132964E+01 -0.42809530556E+02  0.47787268587E+02  0.19999988794E+02 0.  0.
         12    1    3    3    0    0  0.69727094656E+01 -0.15326132964E+01  0.42809530556E+02  0.43400731413E+02  0.00000000000E+00 0. -1.
         11    1    4    4    0    0  0.36471298873E+01  0.13727341737E+01 -0.75108905413E+01  0.84616447876E+01  0.51100000000E-03 0. -1.
        -11    1    4    4    0    0 -0.22933146127E+01  0.54748400218E+01 -0.21831300549E+02  0.22623855752E+02  0.51100000000E-03 0.  1.
        -12    1    4    4    0    0 -0.83265247402E+01 -0.53149608991E+01 -0.13467339466E+02  0.16701768047E+02  0.00000000000E+00 0.  1.
</event>
<event>
 8    1  0.3776180E-010  0.9118800E+02  0.7816164E-02  0.1184000E+00
        -11   -1    0    0    0    0  0.00000000000E+00  0.00000000000E+00  0.45593999997E+02  0.45594000000E+02  0.51100000000E-03 0. -1.
         11   -1    0    0    0    0 -0.00000000000E+00 -0.00000000000E+00 -0.45593999997E+02  0.45594000000E+02  0.51100000000E-03 0.  1.
         23    2    1    2    0    0  0.00000000000E+00 -0.17763568394E-14  0.00000000000E+00  0.91188000000E+02  0.91188000000E+02 0.  0.
    9900012    2    3    3    0    0 -0.17294904400E+02 -0.13313041108E+02  0.37513637063E+02  0.47787265589E+02  0.19999975124E+02 0.  0.
        -12    1    3    3    0    0  0.17294904400E+02  0.13313041108E+02 -0.37513637063E+02  0.43400734411E+02  0.00000000000E+00 0.  1.
         11    1    4    4    0    0 -0.15376155663E+02 -0.15135038435E+02  0.29432425808E+02  0.36493331454E+02  0.51100000000E-03 0. -1.
        -11    1    4    4    0    0 -0.10085162213E+01 -0.28436834939E+01  0.41170798175E+01  0.51043106554E+01  0.51100000000E-03 0.  1.
        -12    1    4    4    0    0 -0.91023251507E+00  0.46656808210E+01  0.39641314375E+01  0.61896234788E+01  0.00000000000E+00 0.  1.
</event>
<event>
 8    1  0.3776180E-010  0.9118800E+02  0.7816164E-02  0.1184000E+00
        -11   -1    0    0    0    0  0.00000000000E+00  0.00000000000E+00  0.45593999997E+02  0.45594000000E+02  0.51100000000E-03 0. -1.
         11   -1    0    0    0    0 -0.00000000000E+00 -0.00000000000E+00 -0.45593999997E+02  0.45594000000E+02  0.51100000000E-03 0.  1.
         23    2    1    2    0    0  0.35527136788E-14  0.00000000000E+00  0.71054273576E-14  0.91188000000E+02  0.91188000000E+02 0.  0.
    9900012    2    3    3    0    0  0.16791587949E+02 -0.11060446044E+02 -0.38462078636E+02  0.47787281279E+02  0.20000046663E+02 0.  0.
         12    1    3    3    0    0 -0.16791587949E+02  0.11060446044E+02  0.38462078636E+02  0.43400718721E+02  0.00000000000E+00 0. -1.
         11    1    4    4    0    0 -0.20440971810E+01 -0.28012976076E+01 -0.47519207930E+01  0.58827164691E+01  0.51100000000E-03 0. -1.
        -11    1    4    4    0    0  0.18293199564E+02 -0.83883720168E+01 -0.35070438398E+02  0.40434410902E+02  0.51100000000E-03 0.  1.
         12    1    4    4    0    0  0.54248556608E+00  0.12922358081E+00  0.13602805549E+01  0.14701539073E+01  0.00000000000E+00 0. -1.
</event>
<event>
 8    1  0.3776180E-010  0.9118800E+02  0.7816164E-02  0.1184000E+00
        -11   -1    0    0    0    0  0.00000000000E+00  0.00000000000E+00  0.45593999997E+02  0.45594000000E+02  0.51100000000E-03 0. -1.
         11   -1    0    0    0    0 -0.00000000000E+00 -0.00000000000E+00 -0.45593999997E+02  0.45594000000E+02  0.51100000000E-03 0.  1.
         23    2    1    2    0    0  0.00000000000E+00  0.35527136788E-14  0.71054273576E-14  0.91188000000E+02  0.91188000000E+02 0.  0.
    9900012    2    3    3    0    0  0.11475486168E+02 -0.25668991047E+02 -0.33061146580E+02  0.47787270774E+02  0.19999998765E+02 0.  0.
         12    1    3    3    0    0 -0.11475486168E+02  0.25668991047E+02  0.33061146580E+02  0.43400729226E+02  0.00000000000E+00 0. -1.
         11    1    4    4    0    0 -0.58380349007E+00 -0.49234827286E+01 -0.72790352693E+00  0.50111228781E+01  0.51100000000E-03 0. -1.
        -11    1    4    4    0    0  0.11419671534E+01 -0.15216316108E+02 -0.21917139322E+02  0.26705830098E+02  0.51100000000E-03 0.  1.
        -12    1    4    4    0    0  0.10917322505E+02 -0.55291922104E+01 -0.10416103731E+02  0.16070317797E+02  0.00000000000E+00 0.  1.
</event>
<event>
 8    1  0.3776180E-010  0.9118800E+02  0.7816164E-02  0.1184000E+00
        -11   -1    0    0    0    0  0.00000000000E+00  0.00000000000E+00  0.45593999997E+02  0.45594000000E+02  0.51100000000E-03 0. -1.
         11   -1    0    0    0    0 -0.00000000000E+00 -0.00000000000E+00 -0.45593999997E+02  0.45594000000E+02  0.51100000000E-03 0.  1.
         23    2    1    2    0    0 -0.88817841970E-15  0.00000000000E+00  0.00000000000E+00  0.91188000000E+02  0.91188000000E+02 0.  0.
    9900012    2    3    3    0    0  0.71511399493E+01  0.14092411687E+02 -0.40421384893E+02  0.47787271592E+02  0.20000002496E+02 0.  0.
         12    1    3    3    0    0 -0.71511399493E+01 -0.14092411687E+02  0.40421384893E+02  0.43400728408E+02  0.00000000000E+00 0. -1.
         11    1    4    4    0    0  0.16215861257E+01  0.39688338184E+00 -0.74099998063E+00  0.18265101189E+01  0.51100000000E-03 0. -1.
        -11    1    4    4    0    0 -0.59074395844E+01  0.62008249086E+01 -0.92872933766E+01  0.12633364180E+02  0.51100000000E-03 0.  1.
         12    1    4    4    0    0  0.11436993408E+02  0.74947033963E+01 -0.30393091535E+02  0.33327397292E+02  0.00000000000E+00 0. -1.
</event>
<event>
 8    1  0.3776180E-010  0.9118800E+02  0.7816164E-02  0.1184000E+00
        -11   -1    0    0    0    0  0.00000000000E+00  0.00000000000E+00  0.45593999997E+02  0.45594000000E+02  0.51100000000E-03 0. -1.
         11   -1    0    0    0    0 -0.00000000000E+00 -0.00000000000E+00 -0.45593999997E+02  0.45594000000E+02  0.51100000000E-03 0.  1.
         23    2    1    2    0    0  0.00000000000E+00  0.00000000000E+00  0.71054273576E-14  0.91188000000E+02  0.91188000000E+02 0.  0.
    9900012    2    3    3    0    0  0.17516529337E+01 -0.17476019098E+02  0.39688085071E+02  0.47787266964E+02  0.19999981394E+02 0.  0.
        -12    1    3    3    0    0 -0.17516529337E+01  0.17476019098E+02 -0.39688085071E+02  0.43400733036E+02  0.00000000000E+00 0.  1.
         11    1    4    4    0    0  0.17233142213E+01 -0.52919553376E+01  0.24838632407E+02  0.25454513614E+02  0.51100000000E-03 0. -1.
        -11    1    4    4    0    0 -0.84458610591E-01  0.20921336066E+01  0.63873967743E+00  0.21890968278E+01  0.51100000000E-03 0.  1.
        -12    1    4    4    0    0  0.11279732296E+00 -0.14276197367E+02  0.14210712986E+02  0.20143656522E+02  0.00000000000E+00 0.  1.
</event>
<event>
 8    1  0.3776180E-010  0.9118800E+02  0.7816164E-02  0.1184000E+00
        -11   -1    0    0    0    0  0.00000000000E+00  0.00000000000E+00  0.45593999997E+02  0.45594000000E+02  0.51100000000E-03 0. -1.
         11   -1    0    0    0    0 -0.00000000000E+00 -0.00000000000E+00 -0.45593999997E+02  0.45594000000E+02  0.51100000000E-03 0.  1.
         23    2    1    2    0    0  0.00000000000E+00  0.00000000000E+00  0.35527136788E-14  0.91188000000E+02  0.91188000000E+02 0.  0.
    9900012    2    3    3    0    0  0.22368457685E+02  0.22300998871E+02 -0.29764756580E+02  0.47787272079E+02  0.20000004717E+02 0.  0.
         12    1    3    3    0    0 -0.22368457685E+02 -0.22300998871E+02  0.29764756580E+02  0.43400727921E+02  0.00000000000E+00 0. -1.
         11    1    4    4    0    0  0.78354642551E+01  0.69848209424E+01 -0.18594110027E+02  0.21352357051E+02  0.51100000000E-03 0.  1.
        -11    1    4    4    0    0  0.10701826965E+02  0.14188298536E+02 -0.39836339957E+01  0.18212804721E+02  0.51100000000E-03 0. -1.
         12    1    4    4    0    0  0.38311664648E+01  0.11278793927E+01 -0.71870125569E+01  0.82221103069E+01  0.00000000000E+00 0. -1.
</event>
<event>
 8    1  0.3776180E-010  0.9118800E+02  0.7816164E-02  0.1184000E+00
        -11   -1    0    0    0    0  0.00000000000E+00  0.00000000000E+00  0.45593999997E+02  0.45594000000E+02  0.51100000000E-03 0. -1.
         11   -1    0    0    0    0 -0.00000000000E+00 -0.00000000000E+00 -0.45593999997E+02  0.45594000000E+02  0.51100000000E-03 0.  1.
         23    2    1    2    0    0 -0.88817841970E-15 -0.71054273576E-14 -0.17763568394E-14  0.91188000000E+02  0.91188000000E+02 0.  0.
    9900012    2    3    3    0    0 -0.58439566476E+01  0.42637183426E+02  0.56162161759E+01  0.47787272772E+02  0.20000007876E+02 0.  0.
        -12    1    3    3    0    0  0.58439566476E+01 -0.42637183426E+02 -0.56162161759E+01  0.43400727228E+02  0.00000000000E+00 0.  1.
         11    1    4    4    0    0 -0.16734158466E+01  0.92121474704E+01  0.10056832309E+02  0.13740591616E+02  0.51100000000E-03 0. -1.
        -11    1    4    4    0    0 -0.63233970093E+00  0.54614670828E+01  0.88131503728E-01  0.54986583470E+01  0.51100000000E-03 0.  1.
         12    1    4    4    0    0 -0.35382011001E+01  0.27963568873E+02 -0.45287476370E+01  0.28548022809E+02  0.00000000000E+00 0. -1.
</event>
<event>
 8    1  0.3776180E-010  0.9118800E+02  0.7816164E-02  0.1184000E+00
        -11   -1    0    0    0    0  0.00000000000E+00  0.00000000000E+00  0.45593999997E+02  0.45594000000E+02  0.51100000000E-03 0.  1.
         11   -1    0    0    0    0 -0.00000000000E+00 -0.00000000000E+00 -0.45593999997E+02  0.45594000000E+02  0.51100000000E-03 0. -1.
         23    2    1    2    0    0 -0.71054273576E-14  0.00000000000E+00  0.00000000000E+00  0.91188000000E+02  0.91188000000E+02 0.  0.
    9900012    2    3    3    0    0  0.37586112664E+02  0.20349972029E+02  0.75357122208E+01  0.47787260543E+02  0.19999952119E+02 0.  0.
         12    1    3    3    0    0 -0.37586112664E+02 -0.20349972029E+02 -0.75357122208E+01  0.43400739457E+02  0.00000000000E+00 0. -1.
         11    1    4    4    0    0  0.14268022085E+01  0.10819198242E+01 -0.34369469256E+01  0.38754250707E+01  0.51100000000E-03 0. -1.
        -11    1    4    4    0    0  0.96540151154E+01 -0.26142194298E-01  0.36418288432E+01  0.10318120413E+02  0.51100000000E-03 0.  1.
        -12    1    4    4    0    0  0.26505295340E+02  0.19294194399E+02  0.73308303032E+01  0.33593715060E+02  0.00000000000E+00 0.  1.
</event>
<event>
 8    1  0.3776180E-010  0.9118800E+02  0.7816164E-02  0.1184000E+00
        -11   -1    0    0    0    0  0.00000000000E+00  0.00000000000E+00  0.45593999997E+02  0.45594000000E+02  0.51100000000E-03 0. -1.
         11   -1    0    0    0    0 -0.00000000000E+00 -0.00000000000E+00 -0.45593999997E+02  0.45594000000E+02  0.51100000000E-03 0.  1.
         23    2    1    2    0    0 -0.71054273576E-14  0.00000000000E+00  0.00000000000E+00  0.91188000000E+02  0.91188000000E+02 0.  0.
    9900012    2    3    3    0    0  0.33913885017E+02 -0.64596216741E+01 -0.26301047620E+02  0.47787269419E+02  0.19999992587E+02 0.  0.
         12    1    3    3    0    0 -0.33913885017E+02  0.64596216741E+01  0.26301047620E+02  0.43400730581E+02  0.00000000000E+00 0. -1.
         11    1    4    4    0    0  0.51700406252E+01  0.11559096069E+01 -0.13759150075E+02  0.14743800668E+02  0.51100000000E-03 0.  1.
        -11    1    4    4    0    0  0.88678638429E+01 -0.49185816690E+01 -0.66921470080E+01  0.12149744302E+02  0.51100000000E-03 0. -1.
        -12    1    4    4    0    0  0.19875980549E+02 -0.26969496120E+01 -0.58497505367E+01  0.20893724448E+02  0.00000000000E+00 0.  1.
</event>
<event>
 8    1  0.3776180E-010  0.9118800E+02  0.7816164E-02  0.1184000E+00
        -11   -1    0    0    0    0  0.00000000000E+00  0.00000000000E+00  0.45593999997E+02  0.45594000000E+02  0.51100000000E-03 0. -1.
         11   -1    0    0    0    0 -0.00000000000E+00 -0.00000000000E+00 -0.45593999997E+02  0.45594000000E+02  0.51100000000E-03 0.  1.
         23    2    1    2    0    0  0.00000000000E+00  0.00000000000E+00  0.00000000000E+00  0.91188000000E+02  0.91188000000E+02 0.  0.
    9900012    2    3    3    0    0 -0.22202558300E+02  0.23802583019E+02 -0.28707263136E+02  0.47787268322E+02  0.19999987586E+02 0.  0.
         12    1    3    3    0    0  0.22202558300E+02 -0.23802583019E+02  0.28707263136E+02  0.43400731678E+02  0.00000000000E+00 0. -1.
         11    1    4    4    0    0 -0.19661751414E+01  0.59709541203E+01  0.36787379505E-01  0.62864530035E+01  0.51100000000E-03 0. -1.
        -11    1    4    4    0    0 -0.52769856192E+01  0.35960265366E+01 -0.35499427866E+00  0.63956239161E+01  0.51100000000E-03 0.  1.
        -12    1    4    4    0    0 -0.14959397540E+02  0.14235602363E+02 -0.28389056237E+02  0.35105191402E+02  0.00000000000E+00 0.  1.
</event>
<event>
 8    1  0.3776180E-010  0.9118800E+02  0.7816164E-02  0.1184000E+00
        -11   -1    0    0    0    0  0.00000000000E+00  0.00000000000E+00  0.45593999997E+02  0.45594000000E+02  0.51100000000E-03 0. -1.
         11   -1    0    0    0    0 -0.00000000000E+00 -0.00000000000E+00 -0.45593999997E+02  0.45594000000E+02  0.51100000000E-03 0.  1.
         23    2    1    2    0    0  0.00000000000E+00  0.00000000000E+00  0.00000000000E+00  0.91188000000E+02  0.91188000000E+02 0.  0.
    9900012    2    3    3    0    0 -0.17647732586E+02 -0.88101138557E+01 -0.38659572823E+02  0.47787272558E+02  0.20000006902E+02 0.  0.
         12    1    3    3    0    0  0.17647732586E+02  0.88101138557E+01  0.38659572823E+02  0.43400727442E+02  0.00000000000E+00 0. -1.
         11    1    4    4    0    0 -0.25288979084E+00  0.13622317844E+01 -0.53828490693E+01  0.55582994742E+01  0.51100000000E-03 0. -1.
        -11    1    4    4    0    0 -0.98547872482E+01 -0.26564988848E+01 -0.38040164663E+01  0.10892399165E+02  0.51100000000E-03 0.  1.
        -12    1    4    4    0    0 -0.75400555474E+01 -0.75158467552E+01 -0.29472707288E+02  0.31336573919E+02  0.00000000000E+00 0.  1.
</event>
<event>
 8    1  0.3776180E-010  0.9118800E+02  0.7816164E-02  0.1184000E+00
        -11   -1    0    0    0    0  0.00000000000E+00  0.00000000000E+00  0.45593999997E+02  0.45594000000E+02  0.51100000000E-03 0. -1.
         11   -1    0    0    0    0 -0.00000000000E+00 -0.00000000000E+00 -0.45593999997E+02  0.45594000000E+02  0.51100000000E-03 0.  1.
         23    2    1    2    0    0  0.14710455076E-14  0.17763568394E-14  0.71054273576E-14  0.91188000000E+02  0.91188000000E+02 0.  0.
    9900012    2    3    3    0    0  0.17483346716E+00  0.10996331410E+02  0.41984205520E+02  0.47787269771E+02  0.19999994196E+02 0.  0.
        -12    1    3    3    0    0 -0.17483346716E+00 -0.10996331410E+02 -0.41984205520E+02  0.43400730229E+02  0.00000000000E+00 0.  1.
         11    1    4    4    0    0  0.25776877873E+01  0.28036154886E+01  0.61730754200E+01  0.72533850400E+01  0.51100000000E-03 0. -1.
        -11    1    4    4    0    0 -0.89598406137E+01  0.85436294626E+01  0.22098070925E+02  0.25329766819E+02  0.51100000000E-03 0.  1.
        -12    1    4    4    0    0  0.65569862935E+01 -0.35091354134E+00  0.13713059175E+02  0.15204117912E+02  0.00000000000E+00 0.  1.
</event>
<event>
 8    1  0.3776180E-010  0.9118800E+02  0.7816164E-02  0.1184000E+00
        -11   -1    0    0    0    0  0.00000000000E+00  0.00000000000E+00  0.45593999997E+02  0.45594000000E+02  0.51100000000E-03 0. -1.
         11   -1    0    0    0    0 -0.00000000000E+00 -0.00000000000E+00 -0.45593999997E+02  0.45594000000E+02  0.51100000000E-03 0.  1.
         23    2    1    2    0    0  0.00000000000E+00  0.88817841970E-15  0.71054273576E-14  0.91188000000E+02  0.91188000000E+02 0.  0.
    9900012    2    3    3    0    0 -0.10510758311E+02 -0.41254405924E+01  0.41906181641E+02  0.47787270051E+02  0.19999995472E+02 0.  0.
        -12    1    3    3    0    0  0.10510758311E+02  0.41254405924E+01 -0.41906181641E+02  0.43400729949E+02  0.00000000000E+00 0.  1.
         11    1    4    4    0    0 -0.44204153896E+01 -0.70255683757E+01  0.14684096828E+02  0.16867761652E+02  0.51100000000E-03 0. -1.
        -11    1    4    4    0    0  0.32157259387E+01 -0.48961676081E+00  0.14150344129E+02  0.14519395894E+02  0.51100000000E-03 0.  1.
        -12    1    4    4    0    0 -0.93060688604E+01  0.33897445441E+01  0.13071740683E+02  0.16400112506E+02  0.00000000000E+00 0.  1.
</event>
<event>
 8    1  0.3776180E-010  0.9118800E+02  0.7816164E-02  0.1184000E+00
        -11   -1    0    0    0    0  0.00000000000E+00  0.00000000000E+00  0.45593999997E+02  0.45594000000E+02  0.51100000000E-03 0. -1.
         11   -1    0    0    0    0 -0.00000000000E+00 -0.00000000000E+00 -0.45593999997E+02  0.45594000000E+02  0.51100000000E-03 0.  1.
         23    2    1    2    0    0  0.71054273576E-14  0.88817841970E-15  0.00000000000E+00  0.91188000000E+02  0.91188000000E+02 0.  0.
    9900012    2    3    3    0    0 -0.19884000013E+02 -0.50782681534E+01 -0.38242136230E+02  0.47787271350E+02  0.20000001391E+02 0.  0.
         12    1    3    3    0    0  0.19884000013E+02  0.50782681534E+01  0.38242136230E+02  0.43400728650E+02  0.00000000000E+00 0. -1.
         11    1    4    4    0    0 -0.19100878066E+02  0.18827957643E+01 -0.29678306956E+02  0.35343887263E+02  0.51100000000E-03 0.  1.
        -11    1    4    4    0    0 -0.32236710294E+01 -0.32923385878E+01 -0.40366442734E+01  0.61258505967E+01  0.51100000000E-03 0. -1.
         12    1    4    4    0    0  0.24405490827E+01 -0.36687253299E+01 -0.45271850007E+01  0.63175334903E+01  0.00000000000E+00 0. -1.
</event>
<event>
 8    1  0.3776180E-010  0.9118800E+02  0.7816164E-02  0.1184000E+00
        -11   -1    0    0    0    0  0.00000000000E+00  0.00000000000E+00  0.45593999997E+02  0.45594000000E+02  0.51100000000E-03 0.  1.
         11   -1    0    0    0    0 -0.00000000000E+00 -0.00000000000E+00 -0.45593999997E+02  0.45594000000E+02  0.51100000000E-03 0. -1.
         23    2    1    2    0    0  0.00000000000E+00  0.00000000000E+00  0.00000000000E+00  0.91188000000E+02  0.91188000000E+02 0.  0.
    9900012    2    3    3    0    0  0.32068668750E+02 -0.27439848241E+02 -0.10113418275E+02  0.47787239452E+02  0.19999855959E+02 0.  0.
         12    1    3    3    0    0 -0.32068668750E+02  0.27439848241E+02  0.10113418275E+02  0.43400760548E+02  0.00000000000E+00 0. -1.
         11    1    4    4    0    0  0.12761591601E+02 -0.53259285910E+01 -0.93055372171E+01  0.16667836054E+02  0.51100000000E-03 0. -1.
        -11    1    4    4    0    0  0.47208839159E+01 -0.70876365480E+01 -0.48370919347E+01  0.97938141410E+01  0.51100000000E-03 0.  1.
        -12    1    4    4    0    0  0.14586193233E+02 -0.15026283102E+02  0.40292108764E+01  0.21325589257E+02  0.00000000000E+00 0.  1.
</event>
<event>
 8    1  0.3776180E-010  0.9118800E+02  0.7816164E-02  0.1184000E+00
        -11   -1    0    0    0    0  0.00000000000E+00  0.00000000000E+00  0.45593999997E+02  0.45594000000E+02  0.51100000000E-03 0. -1.
         11   -1    0    0    0    0 -0.00000000000E+00 -0.00000000000E+00 -0.45593999997E+02  0.45594000000E+02  0.51100000000E-03 0.  1.
         23    2    1    2    0    0  0.00000000000E+00 -0.88817841970E-15  0.00000000000E+00  0.91188000000E+02  0.91188000000E+02 0.  0.
    9900012    2    3    3    0    0 -0.34482313949E+02  0.62034248812E+01 -0.25614657872E+02  0.47787272432E+02  0.20000006325E+02 0.  0.
         12    1    3    3    0    0  0.34482313949E+02 -0.62034248812E+01  0.25614657872E+02  0.43400727568E+02  0.00000000000E+00 0. -1.
         11    1    4    4    0    0 -0.23689289024E+02  0.25283270659E+01 -0.88993058503E+01  0.25431722260E+02  0.51100000000E-03 0. -1.
        -11    1    4    4    0    0 -0.17755035087E+01 -0.26166497272E+01 -0.12963713040E+01  0.34175791612E+01  0.51100000000E-03 0.  1.
        -12    1    4    4    0    0 -0.90175214166E+01  0.62917475425E+01 -0.15418980718E+02  0.18937971011E+02  0.00000000000E+00 0.  1.
</event>
<event>
 8    1  0.3776180E-010  0.9118800E+02  0.7816164E-02  0.1184000E+00
        -11   -1    0    0    0    0  0.00000000000E+00  0.00000000000E+00  0.45593999997E+02  0.45594000000E+02  0.51100000000E-03 0. -1.
         11   -1    0    0    0    0 -0.00000000000E+00 -0.00000000000E+00 -0.45593999997E+02  0.45594000000E+02  0.51100000000E-03 0.  1.
         23    2    1    2    0    0  0.00000000000E+00  0.88817841970E-15  0.00000000000E+00  0.91188000000E+02  0.91188000000E+02 0.  0.
    9900012    2    3    3    0    0 -0.16140143725E+01 -0.57061636095E+01 -0.42993661529E+02  0.47787305568E+02  0.20000157407E+02 0.  0.
         12    1    3    3    0    0  0.16140143725E+01  0.57061636095E+01  0.42993661529E+02  0.43400694432E+02  0.00000000000E+00 0. -1.
         11    1    4    4    0    0 -0.44363194544E+01  0.39380310221E+00 -0.13849926693E+02  0.14548418500E+02  0.51100000000E-03 0. -1.
        -11    1    4    4    0    0 -0.44129950296E-01  0.21382036415E+01 -0.21603108526E+02  0.21708711627E+02  0.51100000000E-03 0.  1.
        -12    1    4    4    0    0  0.28664350322E+01 -0.82381703532E+01 -0.75406263097E+01  0.11530175441E+02  0.00000000000E+00 0.  1.
</event>
<event>
 8    1  0.3776180E-010  0.9118800E+02  0.7816164E-02  0.1184000E+00
        -11   -1    0    0    0    0  0.00000000000E+00  0.00000000000E+00  0.45593999997E+02  0.45594000000E+02  0.51100000000E-03 0. -1.
         11   -1    0    0    0    0 -0.00000000000E+00 -0.00000000000E+00 -0.45593999997E+02  0.45594000000E+02  0.51100000000E-03 0.  1.
         23    2    1    2    0    0  0.00000000000E+00  0.00000000000E+00  0.00000000000E+00  0.91188000000E+02  0.91188000000E+02 0.  0.
    9900012    2    3    3    0    0 -0.11107889451E+02 -0.19644653435E+02 -0.37071884677E+02  0.47787282838E+02  0.20000053772E+02 0.  0.
         12    1    3    3    0    0  0.11107889451E+02  0.19644653435E+02  0.37071884677E+02  0.43400717162E+02  0.00000000000E+00 0. -1.
         11    1    4    4    0    0 -0.61762560075E+01 -0.36007505441E+01 -0.39093786200E+01  0.81482994671E+01  0.51100000000E-03 0. -1.
        -11    1    4    4    0    0 -0.41668276390E+01 -0.10373714194E+01 -0.17153984215E+02  0.17683262334E+02  0.51100000000E-03 0.  1.
         12    1    4    4    0    0 -0.76480580491E+00 -0.15006531471E+02 -0.16008521842E+02  0.21955721037E+02  0.00000000000E+00 0. -1.
</event>
<event>
 8    1  0.3776180E-010  0.9118800E+02  0.7816164E-02  0.1184000E+00
        -11   -1    0    0    0    0  0.00000000000E+00  0.00000000000E+00  0.45593999997E+02  0.45594000000E+02  0.51100000000E-03 0. -1.
         11   -1    0    0    0    0 -0.00000000000E+00 -0.00000000000E+00 -0.45593999997E+02  0.45594000000E+02  0.51100000000E-03 0.  1.
         23    2    1    2    0    0 -0.88817841970E-15  0.17763568394E-14  0.71054273576E-14  0.91188000000E+02  0.91188000000E+02 0.  0.
    9900012    2    3    3    0    0  0.60497115612E+01 -0.77921361064E+01 -0.42264718140E+02  0.47787276567E+02  0.20000025177E+02 0.  0.
         12    1    3    3    0    0 -0.60497115612E+01  0.77921361064E+01  0.42264718140E+02  0.43400723433E+02  0.00000000000E+00 0. -1.
         11    1    4    4    0    0  0.21499247981E+01  0.25822269544E+01 -0.18938097316E+02  0.19233866041E+02  0.51100000000E-03 0. -1.
        -11    1    4    4    0    0 -0.25658952556E+00 -0.68126343720E+01 -0.21843034636E+02  0.22882219902E+02  0.51100000000E-03 0.  1.
        -12    1    4    4    0    0  0.41563762887E+01 -0.35617286888E+01 -0.14835861880E+01  0.56711906231E+01  0.00000000000E+00 0.  1.
</event>
<event>
 8    1  0.3776180E-010  0.9118800E+02  0.7816164E-02  0.1184000E+00
        -11   -1    0    0    0    0  0.00000000000E+00  0.00000000000E+00  0.45593999997E+02  0.45594000000E+02  0.51100000000E-03 0. -1.
         11   -1    0    0    0    0 -0.00000000000E+00 -0.00000000000E+00 -0.45593999997E+02  0.45594000000E+02  0.51100000000E-03 0.  1.
         23    2    1    2    0    0  0.17763568394E-14  0.44408920985E-15  0.00000000000E+00  0.91188000000E+02  0.91188000000E+02 0.  0.
    9900012    2    3    3    0    0 -0.96950456655E+01 -0.21005110254E+01 -0.42251828765E+02  0.47787273151E+02  0.20000009604E+02 0.  0.
         12    1    3    3    0    0  0.96950456655E+01  0.21005110254E+01  0.42251828765E+02  0.43400726849E+02  0.00000000000E+00 0. -1.
         11    1    4    4    0    0 -0.52025043586E+01  0.84896810529E+00 -0.24255247089E+01  0.58025829438E+01  0.51100000000E-03 0. -1.
        -11    1    4    4    0    0  0.99597443081E+00 -0.28990034132E+01 -0.17803034638E+01  0.35448083927E+01  0.51100000000E-03 0.  1.
        -12    1    4    4    0    0 -0.54885157377E+01 -0.50475717513E-01 -0.38046000593E+02  0.38439881814E+02  0.00000000000E+00 0.  1.
</event>
<event>
 8    1  0.3776180E-010  0.9118800E+02  0.7816164E-02  0.1184000E+00
        -11   -1    0    0    0    0  0.00000000000E+00  0.00000000000E+00  0.45593999997E+02  0.45594000000E+02  0.51100000000E-03 0. -1.
         11   -1    0    0    0    0 -0.00000000000E+00 -0.00000000000E+00 -0.45593999997E+02  0.45594000000E+02  0.51100000000E-03 0.  1.
         23    2    1    2    0    0  0.00000000000E+00 -0.17763568394E-14  0.00000000000E+00  0.91188000000E+02  0.91188000000E+02 0.  0.
    9900012    2    3    3    0    0 -0.33303082784E+02  0.15634057168E+02 -0.23023980318E+02  0.47787277239E+02  0.20000028245E+02 0.  0.
         12    1    3    3    0    0  0.33303082784E+02 -0.15634057168E+02  0.23023980318E+02  0.43400722761E+02  0.00000000000E+00 0. -1.
         11    1    4    4    0    0 -0.46155884515E+01 -0.32830112191E+01 -0.42519533690E+01  0.70824379370E+01  0.51100000000E-03 0. -1.
        -11    1    4    4    0    0 -0.20674777311E+01 -0.13611857444E+01 -0.33450456281E+00  0.24978359359E+01  0.51100000000E-03 0.  1.
        -12    1    4    4    0    0 -0.26620016602E+02  0.20278254132E+02 -0.18437522386E+02  0.38207003366E+02  0.00000000000E+00 0.  1.
</event>
<event>
 8    1  0.4510451E-010  0.9118800E+02  0.7816164E-02  0.1184000E+00
        -11   -1    0    0    0    0  0.00000000000E+00  0.00000000000E+00  0.45593999997E+02  0.45594000000E+02  0.51100000000E-03 0. -1.
         11   -1    0    0    0    0 -0.00000000000E+00 -0.00000000000E+00 -0.45593999997E+02  0.45594000000E+02  0.51100000000E-03 0.  1.
         23    2    1    2    0    0  0.71054273576E-14  0.00000000000E+00  0.00000000000E+00  0.91188000000E+02  0.91188000000E+02 0.  0.
    9900012    2    3    3    0    0  0.34104041699E+02  0.89563190352E+01  0.25304581365E+02  0.47787272484E+02  0.20000006565E+02 0.  0.
        -12    1    3    3    0    0 -0.34104041699E+02 -0.89563190352E+01 -0.25304581365E+02  0.43400727516E+02  0.00000000000E+00 0.  1.
         11    1    4    4    0    0  0.17051260350E+02  0.31106393631E+01  0.17488564771E+02  0.24622580181E+02  0.51100000000E-03 0. -1.
        -11    1    4    4    0    0  0.80026274411E+00  0.31802946268E+01  0.56778105853E+01  0.65568458634E+01  0.51100000000E-03 0.  1.
        -12    1    4    4    0    0  0.16252518604E+02  0.26653850454E+01  0.21382060086E+01  0.16607846439E+02  0.00000000000E+00 0.  1.
</event>
<event>
 8    1  0.3776180E-010  0.9118800E+02  0.7816164E-02  0.1184000E+00
        -11   -1    0    0    0    0  0.00000000000E+00  0.00000000000E+00  0.45593999997E+02  0.45594000000E+02  0.51100000000E-03 0. -1.
         11   -1    0    0    0    0 -0.00000000000E+00 -0.00000000000E+00 -0.45593999997E+02  0.45594000000E+02  0.51100000000E-03 0.  1.
         23    2    1    2    0    0 -0.17763568394E-14  0.00000000000E+00  0.00000000000E+00  0.91188000000E+02  0.91188000000E+02 0.  0.
    9900012    2    3    3    0    0  0.47350971821E+01 -0.22226347797E+02  0.36975557372E+02  0.47787268155E+02  0.19999986825E+02 0.  0.
        -12    1    3    3    0    0 -0.47350971821E+01  0.22226347797E+02 -0.36975557372E+02  0.43400731845E+02  0.00000000000E+00 0.  1.
         11    1    4    4    0    0  0.56903995368E+01 -0.12892716433E+02  0.21632819990E+02  0.25818243257E+02  0.51100000000E-03 0. -1.
        -11    1    4    4    0    0  0.47070477053E+01 -0.87909218117E+01  0.10703344773E+02  0.14628677110E+02  0.51100000000E-03 0.  1.
         12    1    4    4    0    0 -0.56623500601E+01 -0.54270955243E+00  0.46393926093E+01  0.73403477877E+01  0.00000000000E+00 0. -1.
</event>
<event>
 8    1  0.3776180E-010  0.9118800E+02  0.7816164E-02  0.1184000E+00
        -11   -1    0    0    0    0  0.00000000000E+00  0.00000000000E+00  0.45593999997E+02  0.45594000000E+02  0.51100000000E-03 0. -1.
         11   -1    0    0    0    0 -0.00000000000E+00 -0.00000000000E+00 -0.45593999997E+02  0.45594000000E+02  0.51100000000E-03 0.  1.
         23    2    1    2    0    0 -0.17763568394E-14 -0.35527136788E-14 -0.35527136788E-14  0.91188000000E+02  0.91188000000E+02 0.  0.
    9900012    2    3    3    0    0  0.75085132979E+01  0.28423408930E+02  0.31927339229E+02  0.47787274921E+02  0.20000017674E+02 0.  0.
        -12    1    3    3    0    0 -0.75085132979E+01 -0.28423408930E+02 -0.31927339229E+02  0.43400725079E+02  0.00000000000E+00 0.  1.
         11    1    4    4    0    0  0.48542137613E+00  0.19070947376E+01 -0.35348460961E+00  0.19993988799E+01  0.51100000000E-03 0. -1.
        -11    1    4    4    0    0 -0.34382952602E+01  0.80298641081E+01  0.22782341426E+01  0.90272334056E+01  0.51100000000E-03 0.  1.
         12    1    4    4    0    0  0.10461387182E+02  0.18486450085E+02  0.30002589696E+02  0.36760642635E+02  0.00000000000E+00 0. -1.
</event>
<event>
 8    1  0.3776180E-010  0.9118800E+02  0.7816164E-02  0.1184000E+00
        -11   -1    0    0    0    0  0.00000000000E+00  0.00000000000E+00  0.45593999997E+02  0.45594000000E+02  0.51100000000E-03 0. -1.
         11   -1    0    0    0    0 -0.00000000000E+00 -0.00000000000E+00 -0.45593999997E+02  0.45594000000E+02  0.51100000000E-03 0.  1.
         23    2    1    2    0    0  0.35527136788E-14  0.00000000000E+00  0.35527136788E-14  0.91188000000E+02  0.91188000000E+02 0.  0.
    9900012    2    3    3    0    0  0.24692059655E+02  0.17592800105E+02  0.31055081736E+02  0.47787279646E+02  0.20000039220E+02 0.  0.
        -12    1    3    3    0    0 -0.24692059655E+02 -0.17592800105E+02 -0.31055081736E+02  0.43400720354E+02  0.00000000000E+00 0.  1.
         11    1    4    4    0    0  0.16104687069E+02 -0.53895471856E-02  0.17573398476E+02  0.23836637952E+02  0.51100000000E-03 0. -1.
        -11    1    4    4    0    0 -0.34498864008E-01  0.77728766551E+00  0.84824952469E-01  0.78266328664E+00  0.51100000000E-03 0.  1.
         12    1    4    4    0    0  0.86218714505E+01  0.16820901987E+02  0.13396858308E+02  0.23167978407E+02  0.00000000000E+00 0. -1.
</event>
<event>
 8    1  0.3776180E-010  0.9118800E+02  0.7816164E-02  0.1184000E+00
        -11   -1    0    0    0    0  0.00000000000E+00  0.00000000000E+00  0.45593999997E+02  0.45594000000E+02  0.51100000000E-03 0. -1.
         11   -1    0    0    0    0 -0.00000000000E+00 -0.00000000000E+00 -0.45593999997E+02  0.45594000000E+02  0.51100000000E-03 0.  1.
         23    2    1    2    0    0  0.00000000000E+00  0.00000000000E+00  0.00000000000E+00  0.91188000000E+02  0.91188000000E+02 0.  0.
    9900012    2    3    3    0    0 -0.24282886980E+02 -0.16204299194E+02  0.32115201086E+02  0.47787262065E+02  0.19999959059E+02 0.  0.
        -12    1    3    3    0    0  0.24282886980E+02  0.16204299194E+02 -0.32115201086E+02  0.43400737935E+02  0.00000000000E+00 0.  1.
         11    1    4    4    0    0 -0.37509778792E+01 -0.73627142848E+00 -0.39822849781E-01  0.38227629781E+01  0.51100000000E-03 0. -1.
        -11    1    4    4    0    0 -0.21901156300E+01  0.25188367106E+01  0.80531404795E+00  0.34336097368E+01  0.51100000000E-03 0.  1.
        -12    1    4    4    0    0 -0.18341793471E+02 -0.17986864477E+02  0.31349709888E+02  0.40530889350E+02  0.00000000000E+00 0.  1.
</event>
<event>
 8    1  0.3776180E-010  0.9118800E+02  0.7816164E-02  0.1184000E+00
        -11   -1    0    0    0    0  0.00000000000E+00  0.00000000000E+00  0.45593999997E+02  0.45594000000E+02  0.51100000000E-03 0. -1.
         11   -1    0    0    0    0 -0.00000000000E+00 -0.00000000000E+00 -0.45593999997E+02  0.45594000000E+02  0.51100000000E-03 0.  1.
         23    2    1    2    0    0  0.71054273576E-14  0.35527136788E-14 -0.35527136788E-14  0.91188000000E+02  0.91188000000E+02 0.  0.
    9900012    2    3    3    0    0 -0.32376788601E+02 -0.21459706939E+02  0.19360981084E+02  0.47787273618E+02  0.20000011733E+02 0.  0.
        -12    1    3    3    0    0  0.32376788601E+02  0.21459706939E+02 -0.19360981084E+02  0.43400726382E+02  0.00000000000E+00 0.  1.
         11    1    4    4    0    0 -0.85703758123E+01 -0.25173750636E+01  0.68585920515E+01  0.11261829512E+02  0.51100000000E-03 0. -1.
        -11    1    4    4    0    0 -0.76002468608E+01 -0.19511054296E+01  0.10290506304E+02  0.12940830151E+02  0.51100000000E-03 0.  1.
         12    1    4    4    0    0 -0.16206165928E+02 -0.16991226445E+02  0.22118827285E+01  0.23584613955E+02  0.00000000000E+00 0. -1.
</event>
<event>
 8    1  0.3776180E-010  0.9118800E+02  0.7816164E-02  0.1184000E+00
        -11   -1    0    0    0    0  0.00000000000E+00  0.00000000000E+00  0.45593999997E+02  0.45594000000E+02  0.51100000000E-03 0. -1.
         11   -1    0    0    0    0 -0.00000000000E+00 -0.00000000000E+00 -0.45593999997E+02  0.45594000000E+02  0.51100000000E-03 0.  1.
         23    2    1    2    0    0  0.00000000000E+00 -0.35527136788E-14 -0.35527136788E-14  0.91188000000E+02  0.91188000000E+02 0.  0.
    9900012    2    3    3    0    0  0.21041522003E+02 -0.23245733894E+02 -0.30008546200E+02  0.47787278375E+02  0.20000033424E+02 0.  0.
         12    1    3    3    0    0 -0.21041522003E+02  0.23245733894E+02  0.30008546200E+02  0.43400721625E+02  0.00000000000E+00 0. -1.
         11    1    4    4    0    0  0.31994257953E+00 -0.62855215864E+01 -0.29915506193E+00  0.63007649440E+01  0.51100000000E-03 0. -1.
        -11    1    4    4    0    0  0.90280968675E+01 -0.44036156412E+01 -0.45355559832E+01  0.11021326241E+02  0.51100000000E-03 0.  1.
        -12    1    4    4    0    0  0.11693482556E+02 -0.12556596667E+02 -0.25173835155E+02  0.30465187191E+02  0.00000000000E+00 0.  1.
</event>
<event>
 8    1  0.3776180E-010  0.9118800E+02  0.7816164E-02  0.1184000E+00
        -11   -1    0    0    0    0  0.00000000000E+00  0.00000000000E+00  0.45593999997E+02  0.45594000000E+02  0.51100000000E-03 0.  1.
         11   -1    0    0    0    0 -0.00000000000E+00 -0.00000000000E+00 -0.45593999997E+02  0.45594000000E+02  0.51100000000E-03 0. -1.
         23    2    1    2    0    0  0.00000000000E+00  0.44408920985E-15  0.00000000000E+00  0.91188000000E+02  0.91188000000E+02 0.  0.
    9900012    2    3    3    0    0  0.40908905720E+02  0.32504598105E+01  0.14125127427E+02  0.47787270963E+02  0.19999999627E+02 0.  0.
        -12    1    3    3    0    0 -0.40908905720E+02 -0.32504598105E+01 -0.14125127427E+02  0.43400729037E+02  0.00000000000E+00 0.  1.
         11    1    4    4    0    0  0.11019666577E+02  0.40770220484E+00  0.98564332486E+01  0.14790150412E+02  0.51100000000E-03 0. -1.
        -11    1    4    4    0    0  0.93426406513E+01 -0.47297014058E+01  0.36541851703E+01  0.11090900741E+02  0.51100000000E-03 0.  1.
        -12    1    4    4    0    0  0.20546598491E+02  0.75724590114E+01  0.61450900770E+00  0.21906219810E+02  0.00000000000E+00 0.  1.
</event>
<event>
 8    1  0.3776180E-010  0.9118800E+02  0.7816164E-02  0.1184000E+00
        -11   -1    0    0    0    0  0.00000000000E+00  0.00000000000E+00  0.45593999997E+02  0.45594000000E+02  0.51100000000E-03 0. -1.
         11   -1    0    0    0    0 -0.00000000000E+00 -0.00000000000E+00 -0.45593999997E+02  0.45594000000E+02  0.51100000000E-03 0.  1.
         23    2    1    2    0    0  0.00000000000E+00  0.35527136788E-14  0.35527136788E-14  0.91188000000E+02  0.91188000000E+02 0.  0.
    9900012    2    3    3    0    0 -0.32624027331E+02 -0.19656419003E+02 -0.20806758393E+02  0.47787272332E+02  0.20000005871E+02 0.  0.
         12    1    3    3    0    0  0.32624027331E+02  0.19656419003E+02  0.20806758393E+02  0.43400727668E+02  0.00000000000E+00 0. -1.
         11    1    4    4    0    0 -0.74198398956E+01 -0.60672597660E+01 -0.74925873585E+01  0.12165711271E+02  0.51100000000E-03 0. -1.
        -11    1    4    4    0    0 -0.21414569760E+02 -0.14162277316E+02 -0.16600058976E+02  0.30573123083E+02  0.51100000000E-03 0.  1.
         12    1    4    4    0    0 -0.37896176750E+01  0.57311807941E+00  0.32858879412E+01  0.50484379780E+01  0.00000000000E+00 0. -1.
</event>
<event>
 8    1  0.3776180E-010  0.9118800E+02  0.7816164E-02  0.1184000E+00
        -11   -1    0    0    0    0  0.00000000000E+00  0.00000000000E+00  0.45593999997E+02  0.45594000000E+02  0.51100000000E-03 0. -1.
         11   -1    0    0    0    0 -0.00000000000E+00 -0.00000000000E+00 -0.45593999997E+02  0.45594000000E+02  0.51100000000E-03 0.  1.
         23    2    1    2    0    0  0.00000000000E+00 -0.35527136788E-14  0.00000000000E+00  0.91188000000E+02  0.91188000000E+02 0.  0.
    9900012    2    3    3    0    0  0.22394527997E+02  0.28929605895E+02 -0.23349226197E+02  0.47787270220E+02  0.19999996242E+02 0.  0.
         12    1    3    3    0    0 -0.22394527997E+02 -0.28929605895E+02  0.23349226197E+02  0.43400729780E+02  0.00000000000E+00 0. -1.
         11    1    4    4    0    0 -0.14961597823E+01  0.67292522676E+01 -0.12335057053E+01  0.70030612421E+01  0.51100000000E-03 0. -1.
        -11    1    4    4    0    0  0.67120381435E+01  0.12250037631E+01 -0.22914781305E+01  0.71974274948E+01  0.51100000000E-03 0.  1.
        -12    1    4    4    0    0  0.17178649636E+02  0.20975349864E+02 -0.19824242361E+02  0.33586781483E+02  0.00000000000E+00 0.  1.
</event>
<event>
 8    1  0.3776180E-010  0.9118800E+02  0.7816164E-02  0.1184000E+00
        -11   -1    0    0    0    0  0.00000000000E+00  0.00000000000E+00  0.45593999997E+02  0.45594000000E+02  0.51100000000E-03 0. -1.
         11   -1    0    0    0    0 -0.00000000000E+00 -0.00000000000E+00 -0.45593999997E+02  0.45594000000E+02  0.51100000000E-03 0.  1.
         23    2    1    2    0    0  0.00000000000E+00  0.00000000000E+00  0.00000000000E+00  0.91188000000E+02  0.91188000000E+02 0.  0.
    9900012    2    3    3    0    0  0.35992184600E+02 -0.42721168785E+01  0.23873306570E+02  0.47787273030E+02  0.20000009053E+02 0.  0.
        -12    1    3    3    0    0 -0.35992184600E+02  0.42721168785E+01 -0.23873306570E+02  0.43400726970E+02  0.00000000000E+00 0.  1.
         11    1    4    4    0    0  0.83061508410E+01  0.19676888837E+01 -0.73514179451E-01  0.85363543701E+01  0.51100000000E-03 0.  1.
        -11    1    4    4    0    0  0.13137042131E+02 -0.16704141461E+01  0.34162135977E+01  0.13676354594E+02  0.51100000000E-03 0. -1.
        -12    1    4    4    0    0  0.14548991628E+02 -0.45693916160E+01  0.20530607152E+02  0.25574564066E+02  0.00000000000E+00 0.  1.
</event>
<event>
 8    1  0.3776180E-010  0.9118800E+02  0.7816164E-02  0.1184000E+00
        -11   -1    0    0    0    0  0.00000000000E+00  0.00000000000E+00  0.45593999997E+02  0.45594000000E+02  0.51100000000E-03 0. -1.
         11   -1    0    0    0    0 -0.00000000000E+00 -0.00000000000E+00 -0.45593999997E+02  0.45594000000E+02  0.51100000000E-03 0.  1.
         23    2    1    2    0    0  0.00000000000E+00  0.00000000000E+00  0.00000000000E+00  0.91188000000E+02  0.91188000000E+02 0.  0.
    9900012    2    3    3    0    0 -0.13186723908E+02 -0.33471339784E+02  0.24277580180E+02  0.47787295239E+02  0.20000110311E+02 0.  0.
        -12    1    3    3    0    0  0.13186723908E+02  0.33471339784E+02 -0.24277580180E+02  0.43400704761E+02  0.00000000000E+00 0.  1.
         11    1    4    4    0    0 -0.14118065395E+01 -0.88261334813E+00  0.82317592699E-01  0.16670274366E+01  0.51100000000E-03 0. -1.
        -11    1    4    4    0    0  0.33695621671E+00  0.22601001358E+01  0.73965495636E+00  0.24018080338E+01  0.51100000000E-03 0.  1.
         12    1    4    4    0    0 -0.12111873585E+02 -0.34848826572E+02  0.23455607631E+02  0.43718459768E+02  0.00000000000E+00 0. -1.
</event>
<event>
 8    1  0.3776180E-010  0.9118800E+02  0.7816164E-02  0.1184000E+00
        -11   -1    0    0    0    0  0.00000000000E+00  0.00000000000E+00  0.45593999997E+02  0.45594000000E+02  0.51100000000E-03 0. -1.
         11   -1    0    0    0    0 -0.00000000000E+00 -0.00000000000E+00 -0.45593999997E+02  0.45594000000E+02  0.51100000000E-03 0.  1.
         23    2    1    2    0    0 -0.88817841970E-15  0.00000000000E+00  0.00000000000E+00  0.91188000000E+02  0.91188000000E+02 0.  0.
    9900012    2    3    3    0    0  0.47806604941E+01  0.25179157991E+02  0.35025400168E+02  0.47787269950E+02  0.19999995012E+02 0.  0.
        -12    1    3    3    0    0 -0.47806604941E+01 -0.25179157991E+02 -0.35025400168E+02  0.43400730050E+02  0.00000000000E+00 0.  1.
         11    1    4    4    0    0  0.35924297588E+01  0.12997082601E+02  0.14525764018E+02  0.19819877101E+02  0.51100000000E-03 0. -1.
        -11    1    4    4    0    0 -0.44081364170E+01  0.12011389559E+02  0.17304348619E+02  0.21520818460E+02  0.51100000000E-03 0.  1.
         12    1    4    4    0    0  0.55963671524E+01  0.17068583134E+00  0.31952875310E+01  0.64465743898E+01  0.00000000000E+00 0. -1.
</event>
<event>
 8    1  0.3776180E-010  0.9118800E+02  0.7816164E-02  0.1184000E+00
        -11   -1    0    0    0    0  0.00000000000E+00  0.00000000000E+00  0.45593999997E+02  0.45594000000E+02  0.51100000000E-03 0. -1.
         11   -1    0    0    0    0 -0.00000000000E+00 -0.00000000000E+00 -0.45593999997E+02  0.45594000000E+02  0.51100000000E-03 0.  1.
         23    2    1    2    0    0  0.17763568394E-14  0.00000000000E+00  0.00000000000E+00  0.91188000000E+02  0.91188000000E+02 0.  0.
    9900012    2    3    3    0    0  0.11476945554E+02 -0.37798041655E+02 -0.17978071763E+02  0.47787270784E+02  0.19999998811E+02 0.  0.
         12    1    3    3    0    0 -0.11476945554E+02  0.37798041655E+02  0.17978071763E+02  0.43400729216E+02  0.00000000000E+00 0. -1.
         11    1    4    4    0    0  0.27788671730E+00  0.20640204030E+01 -0.15227829628E+01  0.25799747023E+01  0.51100000000E-03 0. -1.
        -11    1    4    4    0    0  0.29483332841E+01 -0.12229466251E+02 -0.13483748772E+01  0.12651902189E+02  0.51100000000E-03 0.  1.
        -12    1    4    4    0    0  0.82507255525E+01 -0.27632595807E+02 -0.15106913923E+02  0.32555393892E+02  0.00000000000E+00 0.  1.
</event>
<event>
 8    1  0.3776180E-010  0.9118800E+02  0.7816164E-02  0.1184000E+00
        -11   -1    0    0    0    0  0.00000000000E+00  0.00000000000E+00  0.45593999997E+02  0.45594000000E+02  0.51100000000E-03 0. -1.
         11   -1    0    0    0    0 -0.00000000000E+00 -0.00000000000E+00 -0.45593999997E+02  0.45594000000E+02  0.51100000000E-03 0.  1.
         23    2    1    2    0    0  0.00000000000E+00  0.35527136788E-14  0.00000000000E+00  0.91188000000E+02  0.91188000000E+02 0.  0.
    9900012    2    3    3    0    0 -0.41042984474E+01 -0.29794859099E+02 -0.31289716062E+02  0.47787248558E+02  0.19999897477E+02 0.  0.
         12    1    3    3    0    0  0.41042984474E+01  0.29794859099E+02  0.31289716062E+02  0.43400751442E+02  0.00000000000E+00 0. -1.
         11    1    4    4    0    0 -0.64081321855E+01 -0.54593575826E+01 -0.41312759087E+01  0.93774295101E+01  0.51100000000E-03 0. -1.
        -11    1    4    4    0    0 -0.36134714819E+00  0.12838168108E+01 -0.20027161556E+01  0.24061649208E+01  0.51100000000E-03 0.  1.
        -12    1    4    4    0    0  0.26651808863E+01 -0.25619318327E+02 -0.25155723997E+02  0.36003654128E+02  0.00000000000E+00 0.  1.
</event>
<event>
 8    1  0.3776180E-010  0.9118800E+02  0.7816164E-02  0.1184000E+00
        -11   -1    0    0    0    0  0.00000000000E+00  0.00000000000E+00  0.45593999997E+02  0.45594000000E+02  0.51100000000E-03 0. -1.
         11   -1    0    0    0    0 -0.00000000000E+00 -0.00000000000E+00 -0.45593999997E+02  0.45594000000E+02  0.51100000000E-03 0.  1.
         23    2    1    2    0    0 -0.35527136788E-14  0.00000000000E+00  0.71054273576E-14  0.91188000000E+02  0.91188000000E+02 0.  0.
    9900012    2    3    3    0    0 -0.22311119107E+02 -0.63381456897E+01  0.36683308640E+02  0.47787271212E+02  0.20000000762E+02 0.  0.
        -12    1    3    3    0    0  0.22311119107E+02  0.63381456897E+01 -0.36683308640E+02  0.43400728788E+02  0.00000000000E+00 0.  1.
         11    1    4    4    0    0 -0.78081243248E+01 -0.24426141868E+00  0.44411892638E+01  0.89861355125E+01  0.51100000000E-03 0. -1.
        -11    1    4    4    0    0  0.15233544097E+01  0.10464851700E+01 -0.25947328494E+00  0.18662975420E+01  0.51100000000E-03 0.  1.
         12    1    4    4    0    0 -0.16026349192E+02 -0.71403694411E+01  0.32501592661E+02  0.36934838157E+02  0.00000000000E+00 0. -1.
</event>
<event>
 8    1  0.3776180E-010  0.9118800E+02  0.7816164E-02  0.1184000E+00
        -11   -1    0    0    0    0  0.00000000000E+00  0.00000000000E+00  0.45593999997E+02  0.45594000000E+02  0.51100000000E-03 0. -1.
         11   -1    0    0    0    0 -0.00000000000E+00 -0.00000000000E+00 -0.45593999997E+02  0.45594000000E+02  0.51100000000E-03 0.  1.
         23    2    1    2    0    0  0.00000000000E+00 -0.17763568394E-14  0.00000000000E+00  0.91188000000E+02  0.91188000000E+02 0.  0.
    9900012    2    3    3    0    0  0.21143352616E+02 -0.89135263044E+01 -0.36839253687E+02  0.47787275084E+02  0.20000018419E+02 0.  0.
         12    1    3    3    0    0 -0.21143352616E+02  0.89135263044E+01  0.36839253687E+02  0.43400724916E+02  0.00000000000E+00 0. -1.
         11    1    4    4    0    0  0.21767425842E+01 -0.42664754734E+01 -0.21970985745E+01  0.52695601002E+01  0.51100000000E-03 0. -1.
        -11    1    4    4    0    0  0.70096219971E+01 -0.92908165178E+01 -0.19092601930E+02  0.22360266564E+02  0.51100000000E-03 0.  1.
        -12    1    4    4    0    0  0.11956988035E+02  0.46437656868E+01 -0.15549553183E+02  0.20157448420E+02  0.00000000000E+00 0.  1.
</event>
<event>
 8    1  0.3776180E-010  0.9118800E+02  0.7816164E-02  0.1184000E+00
        -11   -1    0    0    0    0  0.00000000000E+00  0.00000000000E+00  0.45593999997E+02  0.45594000000E+02  0.51100000000E-03 0. -1.
         11   -1    0    0    0    0 -0.00000000000E+00 -0.00000000000E+00 -0.45593999997E+02  0.45594000000E+02  0.51100000000E-03 0.  1.
         23    2    1    2    0    0  0.00000000000E+00  0.00000000000E+00  0.00000000000E+00  0.91188000000E+02  0.91188000000E+02 0.  0.
    9900012    2    3    3    0    0 -0.19880674781E+02 -0.31404598621E+02 -0.22408322973E+02  0.47787274399E+02  0.20000015294E+02 0.  0.
         12    1    3    3    0    0  0.19880674781E+02  0.31404598621E+02  0.22408322973E+02  0.43400725601E+02  0.00000000000E+00 0. -1.
         11    1    4    4    0    0 -0.90664855261E+00  0.24408653038E+00 -0.49257771386E+01  0.50144661244E+01  0.51100000000E-03 0. -1.
        -11    1    4    4    0    0 -0.39495313817E+01 -0.29082339946E+01 -0.72744216900E+01  0.87734733308E+01  0.51100000000E-03 0.  1.
        -12    1    4    4    0    0 -0.15024494847E+02 -0.28740451156E+02 -0.10208124144E+02  0.33999334944E+02  0.00000000000E+00 0.  1.
</event>
<event>
 8    1  0.3776180E-010  0.9118800E+02  0.7816164E-02  0.1184000E+00
        -11   -1    0    0    0    0  0.00000000000E+00  0.00000000000E+00  0.45593999997E+02  0.45594000000E+02  0.51100000000E-03 0. -1.
         11   -1    0    0    0    0 -0.00000000000E+00 -0.00000000000E+00 -0.45593999997E+02  0.45594000000E+02  0.51100000000E-03 0.  1.
         23    2    1    2    0    0  0.00000000000E+00  0.00000000000E+00  0.00000000000E+00  0.91188000000E+02  0.91188000000E+02 0.  0.
    9900012    2    3    3    0    0  0.11001293819E+02  0.25645658782E+02  0.33239961996E+02  0.47787270126E+02  0.19999995814E+02 0.  0.
        -12    1    3    3    0    0 -0.11001293819E+02 -0.25645658782E+02 -0.33239961996E+02  0.43400729874E+02  0.00000000000E+00 0.  1.
         11    1    4    4    0    0  0.12782841406E+01  0.82459967520E+01  0.90971150575E+01  0.12344552459E+02  0.51100000000E-03 0. -1.
        -11    1    4    4    0    0  0.11441235394E+02  0.37627243300E+01  0.13241902308E+02  0.17899942423E+02  0.51100000000E-03 0.  1.
        -12    1    4    4    0    0 -0.17182257164E+01  0.13636937700E+02  0.10900944630E+02  0.17542775245E+02  0.00000000000E+00 0.  1.
</event>
<event>
 8    1  0.3776180E-010  0.9118800E+02  0.7816164E-02  0.1184000E+00
        -11   -1    0    0    0    0  0.00000000000E+00  0.00000000000E+00  0.45593999997E+02  0.45594000000E+02  0.51100000000E-03 0.  1.
         11   -1    0    0    0    0 -0.00000000000E+00 -0.00000000000E+00 -0.45593999997E+02  0.45594000000E+02  0.51100000000E-03 0. -1.
         23    2    1    2    0    0  0.00000000000E+00  0.00000000000E+00 -0.35527136788E-14  0.91188000000E+02  0.91188000000E+02 0.  0.
    9900012    2    3    3    0    0  0.68400750911E+01  0.35245459558E+02 -0.24384313207E+02  0.47787265245E+02  0.19999973557E+02 0.  0.
        -12    1    3    3    0    0 -0.68400750911E+01 -0.35245459558E+02  0.24384313207E+02  0.43400734755E+02  0.00000000000E+00 0.  1.
         11    1    4    4    0    0 -0.77706375766E+00  0.14992484276E+02 -0.14562499713E+02  0.20915181352E+02  0.51100000000E-03 0. -1.
        -11    1    4    4    0    0  0.35026188768E+01  0.10394375312E+02 -0.11686671838E+02  0.16027778262E+02  0.51100000000E-03 0.  1.
        -12    1    4    4    0    0  0.41145199719E+01  0.98585999702E+01  0.18648583432E+01  0.10844305631E+02  0.00000000000E+00 0.  1.
</event>
<event>
 8    1  0.3776180E-010  0.9118800E+02  0.7816164E-02  0.1184000E+00
        -11   -1    0    0    0    0  0.00000000000E+00  0.00000000000E+00  0.45593999997E+02  0.45594000000E+02  0.51100000000E-03 0.  1.
         11   -1    0    0    0    0 -0.00000000000E+00 -0.00000000000E+00 -0.45593999997E+02  0.45594000000E+02  0.51100000000E-03 0. -1.
         23    2    1    2    0    0 -0.35527136788E-14  0.00000000000E+00  0.35527136788E-14  0.91188000000E+02  0.91188000000E+02 0.  0.
    9900012    2    3    3    0    0 -0.24928220513E+02 -0.17762334925E+02 -0.30768592542E+02  0.47787274119E+02  0.20000014018E+02 0.  0.
         12    1    3    3    0    0  0.24928220513E+02  0.17762334925E+02  0.30768592542E+02  0.43400725881E+02  0.00000000000E+00 0. -1.
         11    1    4    4    0    0 -0.23135500479E+01 -0.17878380250E+01  0.12308488798E+01  0.31723599817E+01  0.51100000000E-03 0. -1.
        -11    1    4    4    0    0 -0.20156549769E+02 -0.15044805965E+02 -0.19455342312E+02  0.31798475276E+02  0.51100000000E-03 0.  1.
        -12    1    4    4    0    0 -0.24581206961E+01 -0.92969093481E+00 -0.12544099111E+02  0.12816438861E+02  0.00000000000E+00 0.  1.
</event>
<event>
 8    1  0.3776180E-010  0.9118800E+02  0.7816164E-02  0.1184000E+00
        -11   -1    0    0    0    0  0.00000000000E+00  0.00000000000E+00  0.45593999997E+02  0.45594000000E+02  0.51100000000E-03 0. -1.
         11   -1    0    0    0    0 -0.00000000000E+00 -0.00000000000E+00 -0.45593999997E+02  0.45594000000E+02  0.51100000000E-03 0.  1.
         23    2    1    2    0    0  0.44408920985E-15 -0.35527136788E-14  0.71054273576E-14  0.91188000000E+02  0.91188000000E+02 0.  0.
    9900012    2    3    3    0    0 -0.31682099555E+01  0.27335930659E+02  0.33560871528E+02  0.47787276999E+02  0.20000027150E+02 0.  0.
        -12    1    3    3    0    0  0.31682099555E+01 -0.27335930659E+02 -0.33560871528E+02  0.43400723001E+02  0.00000000000E+00 0.  1.
         11    1    4    4    0    0  0.20199438649E+01  0.82617525031E+01  0.93209664925E+01  0.12618127605E+02  0.51100000000E-03 0. -1.
        -11    1    4    4    0    0 -0.84589793313E+01  0.18999478205E+02  0.15803558355E+02  0.26120623276E+02  0.51100000000E-03 0.  1.
        -12    1    4    4    0    0  0.32708255110E+01  0.74699950933E-01  0.84363466807E+01  0.90485261188E+01  0.00000000000E+00 0.  1.
</event>
<event>
 8    1  0.3776180E-010  0.9118800E+02  0.7816164E-02  0.1184000E+00
        -11   -1    0    0    0    0  0.00000000000E+00  0.00000000000E+00  0.45593999997E+02  0.45594000000E+02  0.51100000000E-03 0. -1.
         11   -1    0    0    0    0 -0.00000000000E+00 -0.00000000000E+00 -0.45593999997E+02  0.45594000000E+02  0.51100000000E-03 0.  1.
         23    2    1    2    0    0 -0.22204460493E-15  0.00000000000E+00  0.71054273576E-14  0.91188000000E+02  0.91188000000E+02 0.  0.
    9900012    2    3    3    0    0  0.13131522750E+01  0.45794418563E+01 -0.43138467599E+02  0.47787273700E+02  0.20000012107E+02 0.  0.
         12    1    3    3    0    0 -0.13131522750E+01 -0.45794418563E+01  0.43138467599E+02  0.43400726300E+02  0.00000000000E+00 0. -1.
         11    1    4    4    0    0  0.13155277898E+01  0.39332478124E+00  0.16581496647E+01  0.21528535298E+01  0.51100000000E-03 0. -1.
        -11    1    4    4    0    0 -0.24580260381E+01 -0.54675519602E+00 -0.65401731747E+01  0.70081879730E+01  0.51100000000E-03 0.  1.
        -12    1    4    4    0    0  0.24556505233E+01  0.47328722711E+01 -0.38256444089E+02  0.38626232197E+02  0.00000000000E+00 0.  1.
</event>
<event>
 8    1  0.3776180E-010  0.9118800E+02  0.7816164E-02  0.1184000E+00
        -11   -1    0    0    0    0  0.00000000000E+00  0.00000000000E+00  0.45593999997E+02  0.45594000000E+02  0.51100000000E-03 0. -1.
         11   -1    0    0    0    0 -0.00000000000E+00 -0.00000000000E+00 -0.45593999997E+02  0.45594000000E+02  0.51100000000E-03 0.  1.
         23    2    1    2    0    0  0.00000000000E+00  0.88817841970E-15  0.71054273576E-14  0.91188000000E+02  0.91188000000E+02 0.  0.
    9900012    2    3    3    0    0 -0.17635882543E+02  0.67282506274E+01  0.39081066509E+02  0.47787268796E+02  0.19999989749E+02 0.  0.
        -12    1    3    3    0    0  0.17635882543E+02 -0.67282506274E+01 -0.39081066509E+02  0.43400731204E+02  0.00000000000E+00 0.  1.
         11    1    4    4    0    0 -0.21629394592E+01  0.39558937240E+01  0.13756673812E+02  0.14476652821E+02  0.51100000000E-03 0. -1.
        -11    1    4    4    0    0 -0.12556589177E+01 -0.22872782741E+01  0.14515616395E+02  0.14748269078E+02  0.51100000000E-03 0.  1.
        -12    1    4    4    0    0 -0.14217284166E+02  0.50596351774E+01  0.10808776302E+02  0.18562346897E+02  0.00000000000E+00 0.  1.
</event>
<event>
 8    1  0.3776180E-010  0.9118800E+02  0.7816164E-02  0.1184000E+00
        -11   -1    0    0    0    0  0.00000000000E+00  0.00000000000E+00  0.45593999997E+02  0.45594000000E+02  0.51100000000E-03 0. -1.
         11   -1    0    0    0    0 -0.00000000000E+00 -0.00000000000E+00 -0.45593999997E+02  0.45594000000E+02  0.51100000000E-03 0.  1.
         23    2    1    2    0    0  0.88817841970E-15  0.00000000000E+00  0.00000000000E+00  0.91188000000E+02  0.91188000000E+02 0.  0.
    9900012    2    3    3    0    0 -0.76995353277E+01 -0.18405137821E+02 -0.38543367769E+02  0.47787272571E+02  0.20000006958E+02 0.  0.
         12    1    3    3    0    0  0.76995353277E+01  0.18405137821E+02  0.38543367769E+02  0.43400727429E+02  0.00000000000E+00 0. -1.
         11    1    4    4    0    0  0.38695777275E+01 -0.11185518274E+01 -0.30028630877E+01  0.50241394253E+01  0.51100000000E-03 0. -1.
        -11    1    4    4    0    0  0.36829762844E+00 -0.29248375216E+01 -0.13761228469E+02  0.14073440478E+02  0.51100000000E-03 0.  1.
        -12    1    4    4    0    0 -0.11937410684E+02 -0.14361748472E+02 -0.21779276212E+02  0.28689692667E+02  0.00000000000E+00 0.  1.
</event>
<event>
 8    1  0.3776180E-010  0.9118800E+02  0.7816164E-02  0.1184000E+00
        -11   -1    0    0    0    0  0.00000000000E+00  0.00000000000E+00  0.45593999997E+02  0.45594000000E+02  0.51100000000E-03 0. -1.
         11   -1    0    0    0    0 -0.00000000000E+00 -0.00000000000E+00 -0.45593999997E+02  0.45594000000E+02  0.51100000000E-03 0.  1.
         23    2    1    2    0    0  0.00000000000E+00  0.35527136788E-14  0.35527136788E-14  0.91188000000E+02  0.91188000000E+02 0.  0.
    9900012    2    3    3    0    0  0.27430890418E+02  0.19399812455E+02 -0.27473932437E+02  0.47787269177E+02  0.19999991484E+02 0.  0.
         12    1    3    3    0    0 -0.27430890418E+02 -0.19399812455E+02  0.27473932437E+02  0.43400730823E+02  0.00000000000E+00 0. -1.
         11    1    4    4    0    0  0.69974034861E+01  0.11271225983E+02 -0.13484735532E+02  0.18916719677E+02  0.51100000000E-03 0. -1.
        -11    1    4    4    0    0  0.10578214832E+02  0.83086129218E+01 -0.13414560562E+02  0.18996897459E+02  0.51100000000E-03 0.  1.
         12    1    4    4    0    0  0.98552721004E+01 -0.18002644957E+00 -0.57463634261E+00  0.98736520408E+01  0.00000000000E+00 0. -1.
</event>
<event>
 8    1  0.3776180E-010  0.9118800E+02  0.7816164E-02  0.1184000E+00
        -11   -1    0    0    0    0  0.00000000000E+00  0.00000000000E+00  0.45593999997E+02  0.45594000000E+02  0.51100000000E-03 0. -1.
         11   -1    0    0    0    0 -0.00000000000E+00 -0.00000000000E+00 -0.45593999997E+02  0.45594000000E+02  0.51100000000E-03 0.  1.
         23    2    1    2    0    0  0.00000000000E+00 -0.35527136788E-14  0.00000000000E+00  0.91188000000E+02  0.91188000000E+02 0.  0.
    9900012    2    3    3    0    0 -0.21451954885E+02 -0.28429673012E+02  0.24803037178E+02  0.47787270407E+02  0.19999997093E+02 0.  0.
        -12    1    3    3    0    0  0.21451954885E+02  0.28429673012E+02 -0.24803037178E+02  0.43400729593E+02  0.00000000000E+00 0.  1.
         11    1    4    4    0    0 -0.89068876923E+00 -0.26079605982E+01 -0.89656022164E+00  0.28980347578E+01  0.51100000000E-03 0. -1.
        -11    1    4    4    0    0  0.24553197833E+01 -0.69924546233E+00  0.75561824796E+00  0.26624234547E+01  0.51100000000E-03 0.  1.
        -12    1    4    4    0    0 -0.23016585899E+02 -0.25122466951E+02  0.24943979152E+02  0.42226812194E+02  0.00000000000E+00 0.  1.
</event>
<event>
 8    1  0.3776180E-010  0.9118800E+02  0.7816164E-02  0.1184000E+00
        -11   -1    0    0    0    0  0.00000000000E+00  0.00000000000E+00  0.45593999997E+02  0.45594000000E+02  0.51100000000E-03 0. -1.
         11   -1    0    0    0    0 -0.00000000000E+00 -0.00000000000E+00 -0.45593999997E+02  0.45594000000E+02  0.51100000000E-03 0.  1.
         23    2    1    2    0    0  0.00000000000E+00  0.00000000000E+00  0.00000000000E+00  0.91188000000E+02  0.91188000000E+02 0.  0.
    9900012    2    3    3    0    0 -0.42011104529E+02  0.43512783221E+01  0.99878464902E+01  0.47787267238E+02  0.19999982644E+02 0.  0.
        -12    1    3    3    0    0  0.42011104529E+02 -0.43512783221E+01 -0.99878464902E+01  0.43400732762E+02  0.00000000000E+00 0.  1.
         11    1    4    4    0    0 -0.18300439918E+02  0.23070802106E+01  0.17409085360E+01  0.18527263238E+02  0.51100000000E-03 0. -1.
        -11    1    4    4    0    0 -0.29783049593E+01 -0.23565138063E+01 -0.33816725579E+01  0.50851909797E+01  0.51100000000E-03 0.  1.
         12    1    4    4    0    0 -0.20732359651E+02  0.44007119178E+01  0.11628610512E+02  0.24174813020E+02  0.00000000000E+00 0. -1.
</event>
<event>
 8    1  0.6287358E-010  0.9118800E+02  0.7816164E-02  0.1184000E+00
        -11   -1    0    0    0    0  0.00000000000E+00  0.00000000000E+00  0.45593999997E+02  0.45594000000E+02  0.51100000000E-03 0. -1.
         11   -1    0    0    0    0 -0.00000000000E+00 -0.00000000000E+00 -0.45593999997E+02  0.45594000000E+02  0.51100000000E-03 0.  1.
         23    2    1    2    0    0  0.35527136788E-14  0.17763568394E-14  0.00000000000E+00  0.91188000000E+02  0.91188000000E+02 0.  0.
    9900012    2    3    3    0    0  0.26930752416E+02  0.81818918293E+01  0.33036562484E+02  0.47787271431E+02  0.20000001760E+02 0.  0.
        -12    1    3    3    0    0 -0.26930752416E+02 -0.81818918293E+01 -0.33036562484E+02  0.43400728569E+02  0.00000000000E+00 0.  1.
         11    1    4    4    0    0  0.19728003175E+02  0.27083113628E+01  0.16803524961E+02  0.26055469888E+02  0.51100000000E-03 0. -1.
        -11    1    4    4    0    0  0.92987015028E+01  0.41050316899E+01  0.16320648505E+02  0.19227082532E+02  0.51100000000E-03 0.  1.
        -12    1    4    4    0    0 -0.20959522616E+01  0.13685487765E+01 -0.87610982058E-01  0.25047190103E+01  0.00000000000E+00 0.  1.
</event>
<event>
 8    1  0.3776180E-010  0.9118800E+02  0.7816164E-02  0.1184000E+00
        -11   -1    0    0    0    0  0.00000000000E+00  0.00000000000E+00  0.45593999997E+02  0.45594000000E+02  0.51100000000E-03 0. -1.
         11   -1    0    0    0    0 -0.00000000000E+00 -0.00000000000E+00 -0.45593999997E+02  0.45594000000E+02  0.51100000000E-03 0.  1.
         23    2    1    2    0    0  0.35527136788E-14 -0.17763568394E-14  0.71054273576E-14  0.91188000000E+02  0.91188000000E+02 0.  0.
    9900012    2    3    3    0    0 -0.25856518659E+02 -0.11500783165E+02 -0.32905859642E+02  0.47787272249E+02  0.20000005490E+02 0.  0.
         12    1    3    3    0    0  0.25856518659E+02  0.11500783165E+02  0.32905859642E+02  0.43400727751E+02  0.00000000000E+00 0. -1.
         11    1    4    4    0    0 -0.46816415866E+01 -0.90916419840E+01 -0.91811696706E+01  0.13742983617E+02  0.51100000000E-03 0. -1.
        -11    1    4    4    0    0 -0.17472219536E+02 -0.67306184681E+01 -0.18024136079E+02  0.25989404805E+02  0.51100000000E-03 0.  1.
         12    1    4    4    0    0 -0.37026575369E+01  0.43214772873E+01 -0.57005538923E+01  0.80548838265E+01  0.00000000000E+00 0. -1.
</event>
<event>
 8    1  0.3776180E-010  0.9118800E+02  0.7816164E-02  0.1184000E+00
        -11   -1    0    0    0    0  0.00000000000E+00  0.00000000000E+00  0.45593999997E+02  0.45594000000E+02  0.51100000000E-03 0. -1.
         11   -1    0    0    0    0 -0.00000000000E+00 -0.00000000000E+00 -0.45593999997E+02  0.45594000000E+02  0.51100000000E-03 0.  1.
         23    2    1    2    0    0 -0.22204460493E-14  0.00000000000E+00  0.00000000000E+00  0.91188000000E+02  0.91188000000E+02 0.  0.
    9900012    2    3    3    0    0 -0.22609476844E+01  0.16152632106E+02 -0.40219446219E+02  0.47787271175E+02  0.20000000596E+02 0.  0.
         12    1    3    3    0    0  0.22609476844E+01 -0.16152632106E+02  0.40219446219E+02  0.43400728825E+02  0.00000000000E+00 0. -1.
         11    1    4    4    0    0  0.59718925365E-01  0.77817305652E+01 -0.12791086235E+02  0.14972333962E+02  0.51100000000E-03 0. -1.
        -11    1    4    4    0    0 -0.62303669846E+01  0.37771370762E+01 -0.25440984613E+02  0.26463709785E+02  0.51100000000E-03 0.  1.
         12    1    4    4    0    0  0.39097003748E+01  0.45937644645E+01 -0.19873753707E+01  0.63512274279E+01  0.00000000000E+00 0. -1.
</event>
<event>
 8    1  0.3776180E-010  0.9118800E+02  0.7816164E-02  0.1184000E+00
        -11   -1    0    0    0    0  0.00000000000E+00  0.00000000000E+00  0.45593999997E+02  0.45594000000E+02  0.51100000000E-03 0. -1.
         11   -1    0    0    0    0 -0.00000000000E+00 -0.00000000000E+00 -0.45593999997E+02  0.45594000000E+02  0.51100000000E-03 0.  1.
         23    2    1    2    0    0 -0.88817841970E-15  0.00000000000E+00  0.00000000000E+00  0.91188000000E+02  0.91188000000E+02 0.  0.
    9900012    2    3    3    0    0 -0.68567184459E+01 -0.20469995413E+02 -0.37650871973E+02  0.47787268896E+02  0.19999990202E+02 0.  0.
         12    1    3    3    0    0  0.68567184459E+01  0.20469995413E+02  0.37650871973E+02  0.43400731104E+02  0.00000000000E+00 0. -1.
         11    1    4    4    0    0 -0.32815050833E+00  0.26741219554E+01 -0.27314952220E+01  0.38366231764E+01  0.51100000000E-03 0. -1.
        -11    1    4    4    0    0 -0.44700336649E+01 -0.26747856990E+01 -0.12395662778E+02  0.13445747858E+02  0.51100000000E-03 0.  1.
        -12    1    4    4    0    0 -0.20585342727E+01 -0.20469331670E+02 -0.22523713973E+02  0.30504897861E+02  0.00000000000E+00 0.  1.
</event>
<event>
 8    1  0.3776180E-010  0.9118800E+02  0.7816164E-02  0.1184000E+00
        -11   -1    0    0    0    0  0.00000000000E+00  0.00000000000E+00  0.45593999997E+02  0.45594000000E+02  0.51100000000E-03 0. -1.
         11   -1    0    0    0    0 -0.00000000000E+00 -0.00000000000E+00 -0.45593999997E+02  0.45594000000E+02  0.51100000000E-03 0.  1.
         23    2    1    2    0    0 -0.35527136788E-14  0.00000000000E+00  0.00000000000E+00  0.91188000000E+02  0.91188000000E+02 0.  0.
    9900012    2    3    3    0    0 -0.21964754961E+02  0.10469507701E+02  0.35938313182E+02  0.47787269518E+02  0.19999993040E+02 0.  0.
        -12    1    3    3    0    0  0.21964754961E+02 -0.10469507701E+02 -0.35938313182E+02  0.43400730482E+02  0.00000000000E+00 0.  1.
         11    1    4    4    0    0 -0.99000322850E+00  0.22492371332E+01  0.49789902604E+01  0.55524335519E+01  0.51100000000E-03 0. -1.
        -11    1    4    4    0    0 -0.94222496337E+01  0.60697928653E+01  0.25547869225E+01  0.11495569149E+02  0.51100000000E-03 0.  1.
        -12    1    4    4    0    0 -0.11552502098E+02  0.21504777020E+01  0.28404536000E+02  0.30739266817E+02  0.00000000000E+00 0.  1.
</event>
<event>
 8    1  0.3776180E-010  0.9118800E+02  0.7816164E-02  0.1184000E+00
        -11   -1    0    0    0    0  0.00000000000E+00  0.00000000000E+00  0.45593999997E+02  0.45594000000E+02  0.51100000000E-03 0.  1.
         11   -1    0    0    0    0 -0.00000000000E+00 -0.00000000000E+00 -0.45593999997E+02  0.45594000000E+02  0.51100000000E-03 0. -1.
         23    2    1    2    0    0  0.00000000000E+00  0.00000000000E+00  0.00000000000E+00  0.91188000000E+02  0.91188000000E+02 0.  0.
    9900012    2    3    3    0    0 -0.18335320815E+02  0.36390304168E+02  0.14939370435E+02  0.47787274018E+02  0.20000013557E+02 0.  0.
        -12    1    3    3    0    0  0.18335320815E+02 -0.36390304168E+02 -0.14939370435E+02  0.43400725982E+02  0.00000000000E+00 0.  1.
         11    1    4    4    0    0 -0.13872354087E+01  0.32292022035E+00 -0.10500041611E+01  0.17695221240E+01  0.51100000000E-03 0. -1.
        -11    1    4    4    0    0 -0.43080961556E+01  0.20393509387E+02  0.91313581910E+00  0.20863574356E+02  0.51100000000E-03 0.  1.
         12    1    4    4    0    0 -0.12639989250E+02  0.15673874560E+02  0.15076238777E+02  0.25154177538E+02  0.00000000000E+00 0. -1.
</event>
<event>
 8    1  0.3776180E-010  0.9118800E+02  0.7816164E-02  0.1184000E+00
        -11   -1    0    0    0    0  0.00000000000E+00  0.00000000000E+00  0.45593999997E+02  0.45594000000E+02  0.51100000000E-03 0. -1.
         11   -1    0    0    0    0 -0.00000000000E+00 -0.00000000000E+00 -0.45593999997E+02  0.45594000000E+02  0.51100000000E-03 0.  1.
         23    2    1    2    0    0  0.00000000000E+00  0.00000000000E+00  0.71054273576E-14  0.91188000000E+02  0.91188000000E+02 0.  0.
    9900012    2    3    3    0    0 -0.22783912137E+02  0.16169712340E+02 -0.33212302741E+02  0.47787270711E+02  0.19999998482E+02 0.  0.
         12    1    3    3    0    0  0.22783912137E+02 -0.16169712340E+02  0.33212302741E+02  0.43400729289E+02  0.00000000000E+00 0. -1.
         11    1    4    4    0    0 -0.47995481549E+01  0.52071336279E+00 -0.58856065754E+01  0.76123038509E+01  0.51100000000E-03 0. -1.
        -11    1    4    4    0    0 -0.55570091386E+00  0.38213850517E+01  0.17755046345E+01  0.42502004879E+01  0.51100000000E-03 0.  1.
        -12    1    4    4    0    0 -0.17428663068E+02  0.11827613926E+02 -0.29102200800E+02  0.35924766373E+02  0.00000000000E+00 0.  1.
</event>
<event>
 8    1  0.3776180E-010  0.9118800E+02  0.7816164E-02  0.1184000E+00
        -11   -1    0    0    0    0  0.00000000000E+00  0.00000000000E+00  0.45593999997E+02  0.45594000000E+02  0.51100000000E-03 0. -1.
         11   -1    0    0    0    0 -0.00000000000E+00 -0.00000000000E+00 -0.45593999997E+02  0.45594000000E+02  0.51100000000E-03 0.  1.
         23    2    1    2    0    0  0.00000000000E+00  0.00000000000E+00  0.00000000000E+00  0.91188000000E+02  0.91188000000E+02 0.  0.
    9900012    2    3    3    0    0 -0.22011562061E+02  0.10213118360E+02 -0.35983407555E+02  0.47787282606E+02  0.20000052715E+02 0.  0.
         12    1    3    3    0    0  0.22011562061E+02 -0.10213118360E+02  0.35983407555E+02  0.43400717394E+02  0.00000000000E+00 0. -1.
         11    1    4    4    0    0 -0.13386649182E+00  0.44022550579E+01 -0.15153960729E+01  0.46577027977E+01  0.51100000000E-03 0. -1.
        -11    1    4    4    0    0 -0.39113974373E+01  0.35119354443E+01 -0.17637933909E+02  0.18404603590E+02  0.51100000000E-03 0.  1.
         12    1    4    4    0    0 -0.17966298132E+02  0.22989278577E+01 -0.16830077573E+02  0.24724976218E+02  0.00000000000E+00 0. -1.
</event>
<event>
 8    1  0.3776180E-010  0.9118800E+02  0.7816164E-02  0.1184000E+00
        -11   -1    0    0    0    0  0.00000000000E+00  0.00000000000E+00  0.45593999997E+02  0.45594000000E+02  0.51100000000E-03 0.  1.
         11   -1    0    0    0    0 -0.00000000000E+00 -0.00000000000E+00 -0.45593999997E+02  0.45594000000E+02  0.51100000000E-03 0. -1.
         23    2    1    2    0    0  0.00000000000E+00  0.35527136788E-14  0.00000000000E+00  0.91188000000E+02  0.91188000000E+02 0.  0.
    9900012    2    3    3    0    0  0.25236283798E+02  0.30594561444E+02  0.17627422240E+02  0.47787271611E+02  0.20000002584E+02 0.  0.
        -12    1    3    3    0    0 -0.25236283798E+02 -0.30594561444E+02 -0.17627422240E+02  0.43400728389E+02  0.00000000000E+00 0.  1.
         11    1    4    4    0    0  0.93084789663E+01  0.14200931338E+02  0.58473249208E+01  0.17958436472E+02  0.51100000000E-03 0. -1.
        -11    1    4    4    0    0 -0.20672407373E+01  0.65146304918E+01  0.36575702467E+01  0.77518846149E+01  0.51100000000E-03 0.  1.
         12    1    4    4    0    0  0.17995045569E+02  0.98789996135E+01  0.81225270725E+01  0.22076950524E+02  0.00000000000E+00 0. -1.
</event>
<event>
 8    1  0.3776180E-010  0.9118800E+02  0.7816164E-02  0.1184000E+00
        -11   -1    0    0    0    0  0.00000000000E+00  0.00000000000E+00  0.45593999997E+02  0.45594000000E+02  0.51100000000E-03 0. -1.
         11   -1    0    0    0    0 -0.00000000000E+00 -0.00000000000E+00 -0.45593999997E+02  0.45594000000E+02  0.51100000000E-03 0.  1.
         23    2    1    2    0    0 -0.17763568394E-14  0.00000000000E+00 -0.71054273576E-14  0.91188000000E+02  0.91188000000E+02 0.  0.
    9900012    2    3    3    0    0 -0.13873157122E+02  0.62303626102E+01 -0.40649003691E+02  0.47787269501E+02  0.19999992962E+02 0.  0.
         12    1    3    3    0    0  0.13873157122E+02 -0.62303626102E+01  0.40649003691E+02  0.43400730499E+02  0.00000000000E+00 0. -1.
         11    1    4    4    0    0 -0.62357681363E+01  0.35015183501E+00 -0.27558188882E+01  0.68265619870E+01  0.51100000000E-03 0. -1.
        -11    1    4    4    0    0 -0.78728955229E+01  0.11584300630E+00 -0.11453166679E+02  0.13898594560E+02  0.51100000000E-03 0.  1.
         12    1    4    4    0    0  0.23550653734E+00  0.57643677689E+01 -0.26440018124E+02  0.27062112954E+02  0.00000000000E+00 0. -1.
</event>
<event>
 8    1  0.3776180E-010  0.9118800E+02  0.7816164E-02  0.1184000E+00
        -11   -1    0    0    0    0  0.00000000000E+00  0.00000000000E+00  0.45593999997E+02  0.45594000000E+02  0.51100000000E-03 0. -1.
         11   -1    0    0    0    0 -0.00000000000E+00 -0.00000000000E+00 -0.45593999997E+02  0.45594000000E+02  0.51100000000E-03 0.  1.
         23    2    1    2    0    0  0.00000000000E+00 -0.17763568394E-14  0.00000000000E+00  0.91188000000E+02  0.91188000000E+02 0.  0.
    9900012    2    3    3    0    0  0.41708923909E+02  0.92054206237E+01  0.76973166434E+01  0.47787276665E+02  0.20000025626E+02 0.  0.
        -12    1    3    3    0    0 -0.41708923909E+02 -0.92054206237E+01 -0.76973166434E+01  0.43400723335E+02  0.00000000000E+00 0.  1.
         11    1    4    4    0    0  0.10203918572E+02  0.10346183878E+02  0.39104550751E+01  0.15048426304E+02  0.51100000000E-03 0. -1.
        -11    1    4    4    0    0  0.17625838559E+01 -0.21069808553E+01  0.54140593530E-01  0.27475446563E+01  0.51100000000E-03 0.  1.
         12    1    4    4    0    0  0.29742421481E+02  0.96621760098E+00  0.37327209747E+01  0.29991305705E+02  0.00000000000E+00 0. -1.
</event>
<event>
 8    1  0.3776180E-010  0.9118800E+02  0.7816164E-02  0.1184000E+00
        -11   -1    0    0    0    0  0.00000000000E+00  0.00000000000E+00  0.45593999997E+02  0.45594000000E+02  0.51100000000E-03 0. -1.
         11   -1    0    0    0    0 -0.00000000000E+00 -0.00000000000E+00 -0.45593999997E+02  0.45594000000E+02  0.51100000000E-03 0.  1.
         23    2    1    2    0    0  0.00000000000E+00 -0.88817841970E-15  0.00000000000E+00  0.91188000000E+02  0.91188000000E+02 0.  0.
    9900012    2    3    3    0    0 -0.41047984891E+02  0.66424346240E+01  0.12432420275E+02  0.47787261812E+02  0.19999957906E+02 0.  0.
        -12    1    3    3    0    0  0.41047984891E+02 -0.66424346240E+01 -0.12432420275E+02  0.43400738188E+02  0.00000000000E+00 0.  1.
         11    1    4    4    0    0 -0.38911336490E+01 -0.22699522284E+01  0.69491929485E+00  0.45581265100E+01  0.51100000000E-03 0. -1.
        -11    1    4    4    0    0  0.83869534082E+00 -0.17042822718E+00  0.31048099619E+01  0.32206056598E+01  0.51100000000E-03 0.  1.
         12    1    4    4    0    0 -0.37995546583E+02  0.90828150796E+01  0.86326910184E+01  0.40008529642E+02  0.00000000000E+00 0. -1.
</event>
<event>
 8    1  0.3776180E-010  0.9118800E+02  0.7816164E-02  0.1184000E+00
        -11   -1    0    0    0    0  0.00000000000E+00  0.00000000000E+00  0.45593999997E+02  0.45594000000E+02  0.51100000000E-03 0. -1.
         11   -1    0    0    0    0 -0.00000000000E+00 -0.00000000000E+00 -0.45593999997E+02  0.45594000000E+02  0.51100000000E-03 0.  1.
         23    2    1    2    0    0  0.00000000000E+00 -0.44408920985E-15 -0.71054273576E-14  0.91188000000E+02  0.91188000000E+02 0.  0.
    9900012    2    3    3    0    0  0.10439545086E+02 -0.30671542861E+01 -0.42014664892E+02  0.47787267252E+02  0.19999982710E+02 0.  0.
         12    1    3    3    0    0 -0.10439545086E+02  0.30671542861E+01  0.42014664892E+02  0.43400732748E+02  0.00000000000E+00 0. -1.
         11    1    4    4    0    0 -0.17920270018E+01 -0.10231425839E+01 -0.29978319352E+01  0.36393925448E+01  0.51100000000E-03 0. -1.
        -11    1    4    4    0    0  0.12411599290E+02  0.38410848254E+01 -0.34051170450E+02  0.36445629900E+02  0.51100000000E-03 0.  1.
         12    1    4    4    0    0 -0.18002720223E+00 -0.58850965276E+01 -0.49656625073E+01  0.77022448072E+01  0.00000000000E+00 0. -1.
</event>
<event>
 8    1  0.3776180E-010  0.9118800E+02  0.7816164E-02  0.1184000E+00
        -11   -1    0    0    0    0  0.00000000000E+00  0.00000000000E+00  0.45593999997E+02  0.45594000000E+02  0.51100000000E-03 0.  1.
         11   -1    0    0    0    0 -0.00000000000E+00 -0.00000000000E+00 -0.45593999997E+02  0.45594000000E+02  0.51100000000E-03 0. -1.
         23    2    1    2    0    0 -0.71054273576E-14  0.44408920985E-15  0.17763568394E-14  0.91188000000E+02  0.91188000000E+02 0.  0.
    9900012    2    3    3    0    0  0.41054634568E+02  0.10216433721E+01 -0.14039101439E+02  0.47787272542E+02  0.20000006826E+02 0.  0.
         12    1    3    3    0    0 -0.41054634568E+02 -0.10216433721E+01  0.14039101439E+02  0.43400727458E+02  0.00000000000E+00 0. -1.
         11    1    4    4    0    0  0.22211389524E+02  0.13163903301E+01 -0.11173996457E+02  0.24898532189E+02  0.51100000000E-03 0. -1.
        -11    1    4    4    0    0  0.17799782097E+02 -0.42796273329E+01 -0.37214096442E+01  0.18681443810E+02  0.51100000000E-03 0.  1.
         12    1    4    4    0    0  0.10434629468E+01  0.39848803749E+01  0.85630466180E+00  0.42072965426E+01  0.00000000000E+00 0. -1.
</event>
<event>
 8    1  0.3776180E-010  0.9118800E+02  0.7816164E-02  0.1184000E+00
        -11   -1    0    0    0    0  0.00000000000E+00  0.00000000000E+00  0.45593999997E+02  0.45594000000E+02  0.51100000000E-03 0. -1.
         11   -1    0    0    0    0 -0.00000000000E+00 -0.00000000000E+00 -0.45593999997E+02  0.45594000000E+02  0.51100000000E-03 0.  1.
         23    2    1    2    0    0  0.88817841970E-15  0.00000000000E+00  0.00000000000E+00  0.91188000000E+02  0.91188000000E+02 0.  0.
    9900012    2    3    3    0    0 -0.75793908524E+01 -0.33963063011E+02  0.25936193099E+02  0.47787275038E+02  0.20000018209E+02 0.  0.
        -12    1    3    3    0    0  0.75793908524E+01  0.33963063011E+02 -0.25936193099E+02  0.43400724962E+02  0.00000000000E+00 0.  1.
         11    1    4    4    0    0 -0.41082888382E+01 -0.10478085842E+02  0.29356818786E+01  0.11631274583E+02  0.51100000000E-03 0. -1.
        -11    1    4    4    0    0 -0.74624026288E+01 -0.20290849303E+02  0.13853256251E+02  0.25677202485E+02  0.51100000000E-03 0.  1.
        -12    1    4    4    0    0  0.39913006147E+01 -0.31941278661E+01  0.91472549691E+01  0.10478797970E+02  0.00000000000E+00 0.  1.
</event>
<event>
 8    1  0.3776180E-010  0.9118800E+02  0.7816164E-02  0.1184000E+00
        -11   -1    0    0    0    0  0.00000000000E+00  0.00000000000E+00  0.45593999997E+02  0.45594000000E+02  0.51100000000E-03 0. -1.
         11   -1    0    0    0    0 -0.00000000000E+00 -0.00000000000E+00 -0.45593999997E+02  0.45594000000E+02  0.51100000000E-03 0.  1.
         23    2    1    2    0    0  0.17763568394E-14  0.00000000000E+00 -0.71054273576E-14  0.91188000000E+02  0.91188000000E+02 0.  0.
    9900012    2    3    3    0    0  0.14291909533E+02  0.14251491452E+02 -0.38422119730E+02  0.47787274531E+02  0.20000015897E+02 0.  0.
         12    1    3    3    0    0 -0.14291909533E+02 -0.14251491452E+02  0.38422119730E+02  0.43400725469E+02  0.00000000000E+00 0. -1.
         11    1    4    4    0    0  0.13425257289E+02  0.87976420665E+01 -0.15237611376E+02  0.22131896437E+02  0.51100000000E-03 0. -1.
        -11    1    4    4    0    0  0.46611554802E+01  0.45068516425E+01 -0.18195670504E+02  0.19316327485E+02  0.51100000000E-03 0.  1.
         12    1    4    4    0    0 -0.37945032363E+01  0.94699774333E+00 -0.49888378502E+01  0.63390506096E+01  0.00000000000E+00 0. -1.
</event>
<event>
 8    1  0.3776180E-010  0.9118800E+02  0.7816164E-02  0.1184000E+00
        -11   -1    0    0    0    0  0.00000000000E+00  0.00000000000E+00  0.45593999997E+02  0.45594000000E+02  0.51100000000E-03 0. -1.
         11   -1    0    0    0    0 -0.00000000000E+00 -0.00000000000E+00 -0.45593999997E+02  0.45594000000E+02  0.51100000000E-03 0.  1.
         23    2    1    2    0    0  0.17763568394E-14  0.00000000000E+00  0.71054273576E-14  0.91188000000E+02  0.91188000000E+02 0.  0.
    9900012    2    3    3    0    0  0.13093722109E+02 -0.15511787471E+02  0.38360948658E+02  0.47787268541E+02  0.19999988585E+02 0.  0.
        -12    1    3    3    0    0 -0.13093722109E+02  0.15511787471E+02 -0.38360948658E+02  0.43400731459E+02  0.00000000000E+00 0.  1.
         11    1    4    4    0    0  0.84105425283E-01  0.11736822070E+01  0.60144619676E+01  0.61284873066E+01  0.51100000000E-03 0. -1.
        -11    1    4    4    0    0  0.43922661709E+01 -0.98097670898E+00  0.18439393338E+02  0.18980662380E+02  0.51100000000E-03 0.  1.
         12    1    4    4    0    0  0.86173505132E+01 -0.15704492969E+02  0.13907093352E+02  0.22678118855E+02  0.00000000000E+00 0. -1.
</event>
<event>
 8    1  0.3776180E-010  0.9118800E+02  0.7816164E-02  0.1184000E+00
        -11   -1    0    0    0    0  0.00000000000E+00  0.00000000000E+00  0.45593999997E+02  0.45594000000E+02  0.51100000000E-03 0. -1.
         11   -1    0    0    0    0 -0.00000000000E+00 -0.00000000000E+00 -0.45593999997E+02  0.45594000000E+02  0.51100000000E-03 0.  1.
         23    2    1    2    0    0  0.22204460493E-15  0.00000000000E+00 -0.35527136788E-14  0.91188000000E+02  0.91188000000E+02 0.  0.
    9900012    2    3    3    0    0  0.12289343148E+01  0.30015100936E+02 -0.31324224866E+02  0.47787266974E+02  0.19999981440E+02 0.  0.
         12    1    3    3    0    0 -0.12289343148E+01 -0.30015100936E+02  0.31324224866E+02  0.43400733026E+02  0.00000000000E+00 0. -1.
         11    1    4    4    0    0  0.15595699434E+01 -0.90512075038E+00 -0.99636581012E+00  0.20601570498E+01  0.51100000000E-03 0. -1.
        -11    1    4    4    0    0 -0.44644196670E+01  0.18575298176E+01 -0.36198738437E+01  0.60402770542E+01  0.51100000000E-03 0.  1.
        -12    1    4    4    0    0  0.41337840384E+01  0.29062691869E+02 -0.26707985212E+02  0.39686832870E+02  0.00000000000E+00 0.  1.
</event>
<event>
 8    1  0.3776180E-010  0.9118800E+02  0.7816164E-02  0.1184000E+00
        -11   -1    0    0    0    0  0.00000000000E+00  0.00000000000E+00  0.45593999997E+02  0.45594000000E+02  0.51100000000E-03 0.  1.
         11   -1    0    0    0    0 -0.00000000000E+00 -0.00000000000E+00 -0.45593999997E+02  0.45594000000E+02  0.51100000000E-03 0. -1.
         23    2    1    2    0    0  0.35527136788E-14 -0.17763568394E-14  0.71054273576E-14  0.91188000000E+02  0.91188000000E+02 0.  0.
    9900012    2    3    3    0    0 -0.25449953169E+02  0.95054975409E+01 -0.33846253100E+02  0.47787269030E+02  0.19999990816E+02 0.  0.
         12    1    3    3    0    0  0.25449953169E+02 -0.95054975409E+01  0.33846253100E+02  0.43400730970E+02  0.00000000000E+00 0. -1.
         11    1    4    4    0    0 -0.53528920968E+01  0.24111835519E+01  0.15911621787E+01  0.60826850372E+01  0.51100000000E-03 0. -1.
        -11    1    4    4    0    0 -0.16441632467E+01 -0.48063743980E-01 -0.83613036343E+00  0.18451821458E+01  0.51100000000E-03 0.  1.
        -12    1    4    4    0    0 -0.18452897826E+02  0.71423777329E+01 -0.34601284915E+02  0.39859401847E+02  0.00000000000E+00 0.  1.
</event>
<event>
 8    1  0.3776180E-010  0.9118800E+02  0.7816164E-02  0.1184000E+00
        -11   -1    0    0    0    0  0.00000000000E+00  0.00000000000E+00  0.45593999997E+02  0.45594000000E+02  0.51100000000E-03 0. -1.
         11   -1    0    0    0    0 -0.00000000000E+00 -0.00000000000E+00 -0.45593999997E+02  0.45594000000E+02  0.51100000000E-03 0.  1.
         23    2    1    2    0    0  0.00000000000E+00 -0.17763568394E-14  0.00000000000E+00  0.91188000000E+02  0.91188000000E+02 0.  0.
    9900012    2    3    3    0    0  0.19544276355E+02 -0.14459831968E+02 -0.35952162078E+02  0.47787269166E+02  0.19999991436E+02 0.  0.
         12    1    3    3    0    0 -0.19544276355E+02  0.14459831968E+02  0.35952162078E+02  0.43400730834E+02  0.00000000000E+00 0. -1.
         11    1    4    4    0    0 -0.21652724074E+01 -0.22009809710E+01 -0.40381747236E+01  0.50832644229E+01  0.51100000000E-03 0. -1.
        -11    1    4    4    0    0  0.10603219262E+01  0.23456524225E+01 -0.99878622099E+00  0.27611486832E+01  0.51100000000E-03 0.  1.
        -12    1    4    4    0    0  0.20649226837E+02 -0.14604503420E+02 -0.30915201134E+02  0.39942856060E+02  0.00000000000E+00 0.  1.
</event>
<event>
 8    1  0.3776180E-010  0.9118800E+02  0.7816164E-02  0.1184000E+00
        -11   -1    0    0    0    0  0.00000000000E+00  0.00000000000E+00  0.45593999997E+02  0.45594000000E+02  0.51100000000E-03 0. -1.
         11   -1    0    0    0    0 -0.00000000000E+00 -0.00000000000E+00 -0.45593999997E+02  0.45594000000E+02  0.51100000000E-03 0.  1.
         23    2    1    2    0    0  0.17763568394E-14 -0.35527136788E-14  0.00000000000E+00  0.91188000000E+02  0.91188000000E+02 0.  0.
    9900012    2    3    3    0    0  0.11118383742E+02  0.30330387894E+02 -0.28984007133E+02  0.47787267791E+02  0.19999985164E+02 0.  0.
         12    1    3    3    0    0 -0.11118383742E+02 -0.30330387894E+02  0.28984007133E+02  0.43400732209E+02  0.00000000000E+00 0. -1.
         11    1    4    4    0    0 -0.21943220953E+01  0.57790886079E+01 -0.41921872755E+01  0.74690929175E+01  0.51100000000E-03 0. -1.
        -11    1    4    4    0    0  0.88561203725E+01  0.13582884821E+02 -0.45045909811E+01  0.16829051319E+02  0.51100000000E-03 0.  1.
        -12    1    4    4    0    0  0.44565854650E+01  0.10968414465E+02 -0.20287228876E+02  0.23489123554E+02  0.00000000000E+00 0.  1.
</event>
<event>
 8    1  0.3776180E-010  0.9118800E+02  0.7816164E-02  0.1184000E+00
        -11   -1    0    0    0    0  0.00000000000E+00  0.00000000000E+00  0.45593999997E+02  0.45594000000E+02  0.51100000000E-03 0. -1.
         11   -1    0    0    0    0 -0.00000000000E+00 -0.00000000000E+00 -0.45593999997E+02  0.45594000000E+02  0.51100000000E-03 0.  1.
         23    2    1    2    0    0  0.00000000000E+00  0.71054273576E-14  0.00000000000E+00  0.91188000000E+02  0.91188000000E+02 0.  0.
    9900012    2    3    3    0    0  0.50818918994E+01 -0.26375600157E+02 -0.34089923357E+02  0.47787299736E+02  0.20000130817E+02 0.  0.
         12    1    3    3    0    0 -0.50818918994E+01  0.26375600157E+02  0.34089923357E+02  0.43400700264E+02  0.00000000000E+00 0. -1.
         11    1    4    4    0    0  0.66513718452E+01 -0.92000023213E+01 -0.20194459008E+02  0.23166721068E+02  0.51100000000E-03 0. -1.
        -11    1    4    4    0    0  0.37321758358E+01 -0.60258270608E+01 -0.17477376282E+01  0.73002955634E+01  0.51100000000E-03 0.  1.
         12    1    4    4    0    0 -0.53016557816E+01 -0.11149770775E+02 -0.12147726720E+02  0.17320283105E+02  0.00000000000E+00 0. -1.
</event>
<event>
 8    1  0.3776180E-010  0.9118800E+02  0.7816164E-02  0.1184000E+00
        -11   -1    0    0    0    0  0.00000000000E+00  0.00000000000E+00  0.45593999997E+02  0.45594000000E+02  0.51100000000E-03 0. -1.
         11   -1    0    0    0    0 -0.00000000000E+00 -0.00000000000E+00 -0.45593999997E+02  0.45594000000E+02  0.51100000000E-03 0.  1.
         23    2    1    2    0    0  0.00000000000E+00  0.00000000000E+00  0.00000000000E+00  0.91188000000E+02  0.91188000000E+02 0.  0.
    9900012    2    3    3    0    0  0.36491705361E+02 -0.18608116835E+02  0.14342828045E+02  0.47787270875E+02  0.19999999226E+02 0.  0.
        -12    1    3    3    0    0 -0.36491705361E+02  0.18608116835E+02 -0.14342828045E+02  0.43400729125E+02  0.00000000000E+00 0.  1.
         11    1    4    4    0    0  0.56871086591E-01  0.91853764356E+00  0.25153790115E+01  0.26784468552E+01  0.51100000000E-03 0. -1.
        -11    1    4    4    0    0  0.11034713128E+02 -0.13192759936E+02  0.65498331299E+01  0.18404187644E+02  0.51100000000E-03 0.  1.
         12    1    4    4    0    0  0.25400121147E+02 -0.63338945425E+01  0.52776159036E+01  0.26704636376E+02  0.00000000000E+00 0. -1.
</event>
<event>
 8    1  0.3776180E-010  0.9118800E+02  0.7816164E-02  0.1184000E+00
        -11   -1    0    0    0    0  0.00000000000E+00  0.00000000000E+00  0.45593999997E+02  0.45594000000E+02  0.51100000000E-03 0. -1.
         11   -1    0    0    0    0 -0.00000000000E+00 -0.00000000000E+00 -0.45593999997E+02  0.45594000000E+02  0.51100000000E-03 0.  1.
         23    2    1    2    0    0  0.00000000000E+00  0.00000000000E+00  0.00000000000E+00  0.91188000000E+02  0.91188000000E+02 0.  0.
    9900012    2    3    3    0    0  0.36087380960E+02  0.15450781997E+02 -0.18509428042E+02  0.47787255129E+02  0.19999927437E+02 0.  0.
        -12    1    3    3    0    0 -0.36087380960E+02 -0.15450781997E+02  0.18509428042E+02  0.43400744871E+02  0.00000000000E+00 0.  1.
         11    1    4    4    0    0  0.44381269086E+01 -0.21215902215E+01 -0.83126841621E+01  0.96591321435E+01  0.51100000000E-03 0. -1.
        -11    1    4    4    0    0  0.48010869718E+01  0.54437360301E+01 -0.25241069288E+01  0.76847780791E+01  0.51100000000E-03 0.  1.
         12    1    4    4    0    0  0.26848167080E+02  0.12128636189E+02 -0.76726369508E+01  0.30443344907E+02  0.00000000000E+00 0. -1.
</event>
<event>
 8    1  0.3776180E-010  0.9118800E+02  0.7816164E-02  0.1184000E+00
        -11   -1    0    0    0    0  0.00000000000E+00  0.00000000000E+00  0.45593999997E+02  0.45594000000E+02  0.51100000000E-03 0. -1.
         11   -1    0    0    0    0 -0.00000000000E+00 -0.00000000000E+00 -0.45593999997E+02  0.45594000000E+02  0.51100000000E-03 0.  1.
         23    2    1    2    0    0 -0.35527136788E-14  0.00000000000E+00  0.00000000000E+00  0.91188000000E+02  0.91188000000E+02 0.  0.
    9900012    2    3    3    0    0 -0.22574312441E+02 -0.51758238540E+01  0.36704687530E+02  0.47787276257E+02  0.20000023768E+02 0.  0.
        -12    1    3    3    0    0  0.22574312441E+02  0.51758238540E+01 -0.36704687530E+02  0.43400723743E+02  0.00000000000E+00 0.  1.
         11    1    4    4    0    0 -0.45487130910E+01  0.38787837794E+01  0.14479832295E+02  0.15665289590E+02  0.51100000000E-03 0. -1.
        -11    1    4    4    0    0 -0.73365760923E+01 -0.65396550401E+01  0.17699585611E+02  0.20245191228E+02  0.51100000000E-03 0.  1.
        -12    1    4    4    0    0 -0.10689023257E+02 -0.25149525933E+01  0.45252696244E+01  0.11876795440E+02  0.00000000000E+00 0.  1.
</event>
<event>
 8    1  0.3776180E-010  0.9118800E+02  0.7816164E-02  0.1184000E+00
        -11   -1    0    0    0    0  0.00000000000E+00  0.00000000000E+00  0.45593999997E+02  0.45594000000E+02  0.51100000000E-03 0. -1.
         11   -1    0    0    0    0 -0.00000000000E+00 -0.00000000000E+00 -0.45593999997E+02  0.45594000000E+02  0.51100000000E-03 0.  1.
         23    2    1    2    0    0  0.00000000000E+00  0.00000000000E+00  0.00000000000E+00  0.91188000000E+02  0.91188000000E+02 0.  0.
    9900012    2    3    3    0    0 -0.63757177874E+01  0.54478151247E+01  0.42582798559E+02  0.47787271895E+02  0.20000003876E+02 0.  0.
        -12    1    3    3    0    0  0.63757177874E+01 -0.54478151247E+01 -0.42582798559E+02  0.43400728105E+02  0.00000000000E+00 0.  1.
         11    1    4    4    0    0 -0.24341573102E+00  0.22161153917E+01  0.18564749584E+02  0.18698137501E+02  0.51100000000E-03 0. -1.
        -11    1    4    4    0    0  0.38784562551E+01  0.42469912762E+01  0.12720575184E+02  0.13960386496E+02  0.51100000000E-03 0.  1.
         12    1    4    4    0    0 -0.10010758311E+02 -0.10152915432E+01  0.11297473791E+02  0.15128747898E+02  0.00000000000E+00 0. -1.
</event>
<event>
 8    1  0.3776180E-010  0.9118800E+02  0.7816164E-02  0.1184000E+00
        -11   -1    0    0    0    0  0.00000000000E+00  0.00000000000E+00  0.45593999997E+02  0.45594000000E+02  0.51100000000E-03 0. -1.
         11   -1    0    0    0    0 -0.00000000000E+00 -0.00000000000E+00 -0.45593999997E+02  0.45594000000E+02  0.51100000000E-03 0.  1.
         23    2    1    2    0    0 -0.44408920985E-15  0.35527136788E-14  0.00000000000E+00  0.91188000000E+02  0.91188000000E+02 0.  0.
    9900012    2    3    3    0    0  0.24273357607E+01 -0.14940748446E+02 -0.40675609604E+02  0.47787272591E+02  0.20000007051E+02 0.  0.
         12    1    3    3    0    0 -0.24273357607E+01  0.14940748446E+02  0.40675609604E+02  0.43400727409E+02  0.00000000000E+00 0. -1.
         11    1    4    4    0    0 -0.92143292143E+00 -0.69526525963E+01 -0.12230248757E+02  0.14098489340E+02  0.51100000000E-03 0. -1.
        -11    1    4    4    0    0  0.50491191935E+01 -0.12285351905E+02 -0.22867550517E+02  0.26445195083E+02  0.51100000000E-03 0.  1.
         12    1    4    4    0    0 -0.17003505113E+01  0.42972560560E+01 -0.55778103297E+01  0.72435881679E+01  0.00000000000E+00 0. -1.
</event>
<event>
 8    1  0.3776180E-010  0.9118800E+02  0.7816164E-02  0.1184000E+00
        -11   -1    0    0    0    0  0.00000000000E+00  0.00000000000E+00  0.45593999997E+02  0.45594000000E+02  0.51100000000E-03 0. -1.
         11   -1    0    0    0    0 -0.00000000000E+00 -0.00000000000E+00 -0.45593999997E+02  0.45594000000E+02  0.51100000000E-03 0.  1.
         23    2    1    2    0    0  0.35527136788E-14  0.00000000000E+00  0.00000000000E+00  0.91188000000E+02  0.91188000000E+02 0.  0.
    9900012    2    3    3    0    0  0.28348239169E+02 -0.11557002486E+02 -0.30764203627E+02  0.47787271950E+02  0.20000004129E+02 0.  0.
         12    1    3    3    0    0 -0.28348239169E+02  0.11557002486E+02  0.30764203627E+02  0.43400728050E+02  0.00000000000E+00 0. -1.
         11    1    4    4    0    0  0.13821090098E+02 -0.30975401232E+01 -0.89640580642E+01  0.16762208194E+02  0.51100000000E-03 0. -1.
        -11    1    4    4    0    0  0.15723922873E+02 -0.73508507684E+01 -0.12027593343E+02  0.21117285797E+02  0.51100000000E-03 0.  1.
        -12    1    4    4    0    0 -0.11967738014E+01 -0.11086115945E+01 -0.97725522195E+01  0.99077779588E+01  0.00000000000E+00 0.  1.
</event>
<event>
 8    1  0.4184858E-010  0.9118800E+02  0.7816164E-02  0.1184000E+00
        -11   -1    0    0    0    0  0.00000000000E+00  0.00000000000E+00  0.45593999997E+02  0.45594000000E+02  0.51100000000E-03 0. -1.
         11   -1    0    0    0    0 -0.00000000000E+00 -0.00000000000E+00 -0.45593999997E+02  0.45594000000E+02  0.51100000000E-03 0.  1.
         23    2    1    2    0    0  0.17763568394E-14  0.00000000000E+00  0.35527136788E-14  0.91188000000E+02  0.91188000000E+02 0.  0.
    9900012    2    3    3    0    0  0.84114398906E+01  0.32290206134E+02  0.27752726255E+02  0.47787267888E+02  0.19999985610E+02 0.  0.
        -12    1    3    3    0    0 -0.84114398906E+01 -0.32290206134E+02 -0.27752726255E+02  0.43400732112E+02  0.00000000000E+00 0.  1.
         11    1    4    4    0    0  0.66808726484E+01  0.22553038662E+02  0.18953103762E+02  0.30207511561E+02  0.51100000000E-03 0. -1.
        -11    1    4    4    0    0  0.42236426678E+01  0.31912214871E+01  0.91449649851E+01  0.10566618986E+02  0.51100000000E-03 0.  1.
        -12    1    4    4    0    0 -0.24930754255E+01  0.65459459857E+01 -0.34534249219E+00  0.70131373409E+01  0.00000000000E+00 0.  1.
</event>
<event>
 8    1  0.3776180E-010  0.9118800E+02  0.7816164E-02  0.1184000E+00
        -11   -1    0    0    0    0  0.00000000000E+00  0.00000000000E+00  0.45593999997E+02  0.45594000000E+02  0.51100000000E-03 0.  1.
         11   -1    0    0    0    0 -0.00000000000E+00 -0.00000000000E+00 -0.45593999997E+02  0.45594000000E+02  0.51100000000E-03 0. -1.
         23    2    1    2    0    0  0.00000000000E+00  0.00000000000E+00  0.00000000000E+00  0.91188000000E+02  0.91188000000E+02 0.  0.
    9900012    2    3    3    0    0 -0.22646638496E+02 -0.33262134317E+02  0.16259872878E+02  0.47787270968E+02  0.19999999653E+02 0.  0.
        -12    1    3    3    0    0  0.22646638496E+02  0.33262134317E+02 -0.16259872878E+02  0.43400729032E+02  0.00000000000E+00 0.  1.
         11    1    4    4    0    0  0.55437857264E-01 -0.98820158268E+01  0.62239923214E+00  0.99017519269E+01  0.51100000000E-03 0. -1.
        -11    1    4    4    0    0 -0.60451307375E+01 -0.66020495228E+01 -0.95420139139E+00  0.90022866035E+01  0.51100000000E-03 0.  1.
        -12    1    4    4    0    0 -0.16656945616E+02 -0.16778068967E+02  0.16591675038E+02  0.28883232438E+02  0.00000000000E+00 0.  1.
</event>
<event>
 8    1  0.3776180E-010  0.9118800E+02  0.7816164E-02  0.1184000E+00
        -11   -1    0    0    0    0  0.00000000000E+00  0.00000000000E+00  0.45593999997E+02  0.45594000000E+02  0.51100000000E-03 0. -1.
         11   -1    0    0    0    0 -0.00000000000E+00 -0.00000000000E+00 -0.45593999997E+02  0.45594000000E+02  0.51100000000E-03 0.  1.
         23    2    1    2    0    0  0.00000000000E+00  0.00000000000E+00  0.35527136788E-14  0.91188000000E+02  0.91188000000E+02 0.  0.
    9900012    2    3    3    0    0 -0.25799172145E+02  0.16932790832E+02  0.30517319201E+02  0.47787268901E+02  0.19999990225E+02 0.  0.
        -12    1    3    3    0    0  0.25799172145E+02 -0.16932790832E+02 -0.30517319201E+02  0.43400731099E+02  0.00000000000E+00 0.  1.
         11    1    4    4    0    0 -0.17601106791E+02  0.15671539993E+02  0.25662186190E+02  0.34841698097E+02  0.51100000000E-03 0. -1.
        -11    1    4    4    0    0 -0.95922586064E+01  0.19926464860E+01  0.55102393967E+01  0.11240320443E+02  0.51100000000E-03 0.  1.
        -12    1    4    4    0    0  0.13941932517E+01 -0.73139564686E+00 -0.65510638536E+00  0.17052503603E+01  0.00000000000E+00 0.  1.
</event>
<event>
 8    1  0.3776180E-010  0.9118800E+02  0.7816164E-02  0.1184000E+00
        -11   -1    0    0    0    0  0.00000000000E+00  0.00000000000E+00  0.45593999997E+02  0.45594000000E+02  0.51100000000E-03 0. -1.
         11   -1    0    0    0    0 -0.00000000000E+00 -0.00000000000E+00 -0.45593999997E+02  0.45594000000E+02  0.51100000000E-03 0.  1.
         23    2    1    2    0    0  0.00000000000E+00 -0.35527136788E-14  0.35527136788E-14  0.91188000000E+02  0.91188000000E+02 0.  0.
    9900012    2    3    3    0    0 -0.24606671930E+02  0.29251526828E+02 -0.20554397602E+02  0.47787269752E+02  0.19999994110E+02 0.  0.
         12    1    3    3    0    0  0.24606671930E+02 -0.29251526828E+02  0.20554397602E+02  0.43400730248E+02  0.00000000000E+00 0. -1.
         11    1    4    4    0    0 -0.10875081988E+02  0.11836106108E+02 -0.11811595617E+02  0.19946794412E+02  0.51100000000E-03 0.  1.
        -11    1    4    4    0    0 -0.21292775034E+01 -0.12737796492E+01 -0.49239013719E+01  0.55137230854E+01  0.51100000000E-03 0. -1.
         12    1    4    4    0    0 -0.11602312439E+02  0.18689200369E+02 -0.38189006134E+01  0.22326752255E+02  0.00000000000E+00 0. -1.
</event>
<event>
 8    1  0.3776180E-010  0.9118800E+02  0.7816164E-02  0.1184000E+00
        -11   -1    0    0    0    0  0.00000000000E+00  0.00000000000E+00  0.45593999997E+02  0.45594000000E+02  0.51100000000E-03 0. -1.
         11   -1    0    0    0    0 -0.00000000000E+00 -0.00000000000E+00 -0.45593999997E+02  0.45594000000E+02  0.51100000000E-03 0.  1.
         23    2    1    2    0    0 -0.35527136788E-14  0.35527136788E-14  0.35527136788E-14  0.91188000000E+02  0.91188000000E+02 0.  0.
    9900012    2    3    3    0    0  0.16817530843E+02 -0.31234319330E+02 -0.25004237025E+02  0.47787263636E+02  0.19999966223E+02 0.  0.
         12    1    3    3    0    0 -0.16817530843E+02  0.31234319330E+02  0.25004237025E+02  0.43400736364E+02  0.00000000000E+00 0. -1.
         11    1    4    4    0    0  0.12105008011E+02 -0.69432342285E+01 -0.10595652144E+02  0.17521631349E+02  0.51100000000E-03 0. -1.
        -11    1    4    4    0    0  0.63908011749E+01 -0.15539634786E+02 -0.12999373041E+02  0.21243970643E+02  0.51100000000E-03 0.  1.
        -12    1    4    4    0    0 -0.16782783426E+01 -0.87514503159E+01 -0.14092118398E+01  0.90216616450E+01  0.00000000000E+00 0.  1.
</event>
<event>
 8    1  0.3776180E-010  0.9118800E+02  0.7816164E-02  0.1184000E+00
        -11   -1    0    0    0    0  0.00000000000E+00  0.00000000000E+00  0.45593999997E+02  0.45594000000E+02  0.51100000000E-03 0. -1.
         11   -1    0    0    0    0 -0.00000000000E+00 -0.00000000000E+00 -0.45593999997E+02  0.45594000000E+02  0.51100000000E-03 0.  1.
         23    2    1    2    0    0  0.00000000000E+00  0.00000000000E+00  0.00000000000E+00  0.91188000000E+02  0.91188000000E+02 0.  0.
    9900012    2    3    3    0    0 -0.95700789075E+01  0.11550681592E+02 -0.40726143372E+02  0.47787269482E+02  0.19999992877E+02 0.  0.
         12    1    3    3    0    0  0.95700789075E+01 -0.11550681592E+02  0.40726143372E+02  0.43400730518E+02  0.00000000000E+00 0. -1.
         11    1    4    4    0    0 -0.57456298834E+01  0.77762829844E+01 -0.21756270589E+02  0.23807943003E+02  0.51100000000E-03 0.  1.
        -11    1    4    4    0    0 -0.68327827679E+01  0.72299259311E+01 -0.11391282673E+02  0.15123493992E+02  0.51100000000E-03 0. -1.
         12    1    4    4    0    0  0.30083337438E+01 -0.34555273235E+01 -0.75785901090E+01  0.88558324870E+01  0.00000000000E+00 0. -1.
</event>
<event>
 8    1  0.3776180E-010  0.9118800E+02  0.7816164E-02  0.1184000E+00
        -11   -1    0    0    0    0  0.00000000000E+00  0.00000000000E+00  0.45593999997E+02  0.45594000000E+02  0.51100000000E-03 0. -1.
         11   -1    0    0    0    0 -0.00000000000E+00 -0.00000000000E+00 -0.45593999997E+02  0.45594000000E+02  0.51100000000E-03 0.  1.
         23    2    1    2    0    0  0.00000000000E+00  0.00000000000E+00  0.00000000000E+00  0.91188000000E+02  0.91188000000E+02 0.  0.
    9900012    2    3    3    0    0 -0.36090390909E+01 -0.38519095461E+01 -0.43078543779E+02  0.47787270692E+02  0.19999998395E+02 0.  0.
         12    1    3    3    0    0  0.36090390909E+01  0.38519095461E+01  0.43078543779E+02  0.43400729308E+02  0.00000000000E+00 0. -1.
         11    1    4    4    0    0 -0.27619175296E+01 -0.60839424119E+01 -0.18474856575E+02  0.19645937734E+02  0.51100000000E-03 0. -1.
        -11    1    4    4    0    0 -0.67878694750E+01  0.10798311828E+01 -0.17547860175E+02  0.18845917446E+02  0.51100000000E-03 0.  1.
        -12    1    4    4    0    0  0.59407479137E+01  0.11522016831E+01 -0.70558270289E+01  0.92954155128E+01  0.00000000000E+00 0.  1.
</event>
<event>
 8    1  0.3776180E-010  0.9118800E+02  0.7816164E-02  0.1184000E+00
        -11   -1    0    0    0    0  0.00000000000E+00  0.00000000000E+00  0.45593999997E+02  0.45594000000E+02  0.51100000000E-03 0. -1.
         11   -1    0    0    0    0 -0.00000000000E+00 -0.00000000000E+00 -0.45593999997E+02  0.45594000000E+02  0.51100000000E-03 0.  1.
         23    2    1    2    0    0  0.00000000000E+00  0.00000000000E+00  0.00000000000E+00  0.91188000000E+02  0.91188000000E+02 0.  0.
    9900012    2    3    3    0    0 -0.13763096618E+02  0.17655774244E+02  0.37181636150E+02  0.47787271211E+02  0.20000000759E+02 0.  0.
        -12    1    3    3    0    0  0.13763096618E+02 -0.17655774244E+02 -0.37181636150E+02  0.43400728789E+02  0.00000000000E+00 0.  1.
         11    1    4    4    0    0 -0.69550409485E+01  0.10942879491E+02  0.22930603418E+02  0.26342584906E+02  0.51100000000E-03 0. -1.
        -11    1    4    4    0    0 -0.47954999576E+01  0.50798175178E+00  0.14119423887E+02  0.14920221059E+02  0.51100000000E-03 0.  1.
        -12    1    4    4    0    0 -0.20125557116E+01  0.62049130015E+01  0.13160884440E+00  0.65244652453E+01  0.00000000000E+00 0.  1.
</event>
<event>
 8    1  0.3776180E-010  0.9118800E+02  0.7816164E-02  0.1184000E+00
        -11   -1    0    0    0    0  0.00000000000E+00  0.00000000000E+00  0.45593999997E+02  0.45594000000E+02  0.51100000000E-03 0.  1.
         11   -1    0    0    0    0 -0.00000000000E+00 -0.00000000000E+00 -0.45593999997E+02  0.45594000000E+02  0.51100000000E-03 0. -1.
         23    2    1    2    0    0  0.00000000000E+00  0.00000000000E+00 -0.17763568394E-14  0.91188000000E+02  0.91188000000E+02 0.  0.
    9900012    2    3    3    0    0  0.29798117430E+02 -0.30133345095E+02 -0.93635731308E+01  0.47787276610E+02  0.20000025374E+02 0.  0.
        -12    1    3    3    0    0 -0.29798117430E+02  0.30133345095E+02  0.93635731308E+01  0.43400723390E+02  0.00000000000E+00 0.  1.
         11    1    4    4    0    0  0.92619358516E+01 -0.16945958935E+02 -0.97617898126E+01  0.21638889078E+02  0.51100000000E-03 0. -1.
        -11    1    4    4    0    0  0.85615606532E+01 -0.10888205658E+02 -0.93347739980E+00  0.13882533039E+02  0.51100000000E-03 0.  1.
        -12    1    4    4    0    0  0.11974620926E+02 -0.22991805025E+01  0.13316940816E+01  0.12265854492E+02  0.00000000000E+00 0.  1.
</event>
<event>
 8    1  0.3776180E-010  0.9118800E+02  0.7816164E-02  0.1184000E+00
        -11   -1    0    0    0    0  0.00000000000E+00  0.00000000000E+00  0.45593999997E+02  0.45594000000E+02  0.51100000000E-03 0. -1.
         11   -1    0    0    0    0 -0.00000000000E+00 -0.00000000000E+00 -0.45593999997E+02  0.45594000000E+02  0.51100000000E-03 0.  1.
         23    2    1    2    0    0  0.00000000000E+00  0.00000000000E+00  0.71054273576E-14  0.91188000000E+02  0.91188000000E+02 0.  0.
    9900012    2    3    3    0    0 -0.15670531976E+02  0.89890663595E+01 -0.39462068219E+02  0.47787265968E+02  0.19999976854E+02 0.  0.
         12    1    3    3    0    0  0.15670531976E+02 -0.89890663595E+01  0.39462068219E+02  0.43400734032E+02  0.00000000000E+00 0. -1.
         11    1    4    4    0    0 -0.49983386302E+01  0.36772614686E+01 -0.12454939218E+02  0.13915141111E+02  0.51100000000E-03 0. -1.
        -11    1    4    4    0    0  0.39320095488E+01  0.23436261391E+01 -0.25707930894E+01  0.52499771372E+01  0.51100000000E-03 0.  1.
        -12    1    4    4    0    0 -0.14604202894E+02  0.29681787518E+01 -0.24436335912E+02  0.28622147720E+02  0.00000000000E+00 0.  1.
</event>
<event>
 8    1  0.3776180E-010  0.9118800E+02  0.7816164E-02  0.1184000E+00
        -11   -1    0    0    0    0  0.00000000000E+00  0.00000000000E+00  0.45593999997E+02  0.45594000000E+02  0.51100000000E-03 0. -1.
         11   -1    0    0    0    0 -0.00000000000E+00 -0.00000000000E+00 -0.45593999997E+02  0.45594000000E+02  0.51100000000E-03 0.  1.
         23    2    1    2    0    0  0.00000000000E+00  0.00000000000E+00  0.00000000000E+00  0.91188000000E+02  0.91188000000E+02 0.  0.
    9900012    2    3    3    0    0 -0.96566850395E+01  0.18733758635E+02 -0.37939662179E+02  0.47787271379E+02  0.20000001527E+02 0.  0.
         12    1    3    3    0    0  0.96566850395E+01 -0.18733758635E+02  0.37939662179E+02  0.43400728621E+02  0.00000000000E+00 0. -1.
         11    1    4    4    0    0 -0.75792671069E+01  0.63200366006E+01 -0.93299928961E+01  0.13580755510E+02  0.51100000000E-03 0. -1.
        -11    1    4    4    0    0  0.19831235334E+01  0.61506358566E+01 -0.23016077544E+01  0.68600655176E+01  0.51100000000E-03 0.  1.
        -12    1    4    4    0    0 -0.40605414659E+01  0.62630861774E+01 -0.26308061529E+02  0.27346450352E+02  0.00000000000E+00 0.  1.
</event>
<event>
 8    1  0.3776180E-010  0.9118800E+02  0.7816164E-02  0.1184000E+00
        -11   -1    0    0    0    0  0.00000000000E+00  0.00000000000E+00  0.45593999997E+02  0.45594000000E+02  0.51100000000E-03 0. -1.
         11   -1    0    0    0    0 -0.00000000000E+00 -0.00000000000E+00 -0.45593999997E+02  0.45594000000E+02  0.51100000000E-03 0.  1.
         23    2    1    2    0    0  0.35527136788E-14 -0.17763568394E-14  0.00000000000E+00  0.91188000000E+02  0.91188000000E+02 0.  0.
    9900012    2    3    3    0    0  0.18657800836E+02  0.38180903712E+01 -0.38999128293E+02  0.47787270124E+02  0.19999995803E+02 0.  0.
         12    1    3    3    0    0 -0.18657800836E+02 -0.38180903712E+01  0.38999128293E+02  0.43400729876E+02  0.00000000000E+00 0. -1.
         11    1    4    4    0    0  0.64080161804E+01 -0.72525321262E+01 -0.15716976437E+02  0.18457660799E+02  0.51100000000E-03 0. -1.
        -11    1    4    4    0    0  0.51718764496E+00 -0.47223873539E+00  0.12876265450E+00  0.71209027911E+00  0.51100000000E-03 0.  1.
        -12    1    4    4    0    0  0.11732597011E+02  0.11542861233E+02 -0.23410914511E+02  0.28617519045E+02  0.00000000000E+00 0.  1.
</event>
<event>
 8    1  0.3776180E-010  0.9118800E+02  0.7816164E-02  0.1184000E+00
        -11   -1    0    0    0    0  0.00000000000E+00  0.00000000000E+00  0.45593999997E+02  0.45594000000E+02  0.51100000000E-03 0. -1.
         11   -1    0    0    0    0 -0.00000000000E+00 -0.00000000000E+00 -0.45593999997E+02  0.45594000000E+02  0.51100000000E-03 0.  1.
         23    2    1    2    0    0  0.00000000000E+00  0.00000000000E+00  0.00000000000E+00  0.91188000000E+02  0.91188000000E+02 0.  0.
    9900012    2    3    3    0    0 -0.40457760552E+01 -0.24937477666E+02  0.35289903144E+02  0.47787270050E+02  0.19999995466E+02 0.  0.
        -12    1    3    3    0    0  0.40457760552E+01  0.24937477666E+02 -0.35289903144E+02  0.43400729950E+02  0.00000000000E+00 0.  1.
         11    1    4    4    0    0 -0.58129833122E+01 -0.10629765882E+02  0.36632904203E+01  0.12657108463E+02  0.51100000000E-03 0. -1.
        -11    1    4    4    0    0  0.21651354669E+01 -0.19430513279E+01  0.54672571819E+01  0.61930736639E+01  0.51100000000E-03 0.  1.
         12    1    4    4    0    0 -0.39792820991E+00 -0.12364660456E+02  0.26159355542E+02  0.28937087923E+02  0.00000000000E+00 0. -1.
</event>
<event>
 8    1  0.3776180E-010  0.9118800E+02  0.7816164E-02  0.1184000E+00
        -11   -1    0    0    0    0  0.00000000000E+00  0.00000000000E+00  0.45593999997E+02  0.45594000000E+02  0.51100000000E-03 0. -1.
         11   -1    0    0    0    0 -0.00000000000E+00 -0.00000000000E+00 -0.45593999997E+02  0.45594000000E+02  0.51100000000E-03 0.  1.
         23    2    1    2    0    0  0.88817841970E-15 -0.55511151231E-15  0.71054273576E-14  0.91188000000E+02  0.91188000000E+02 0.  0.
    9900012    2    3    3    0    0  0.61914091239E+01 -0.66060888840E+00  0.42951762511E+02  0.47787264362E+02  0.19999969534E+02 0.  0.
        -12    1    3    3    0    0 -0.61914091239E+01  0.66060888840E+00 -0.42951762511E+02  0.43400735638E+02  0.00000000000E+00 0.  1.
         11    1    4    4    0    0  0.13484225354E+00 -0.10249753261E+01 -0.44267804032E+00  0.11245981331E+01  0.51100000000E-03 0. -1.
        -11    1    4    4    0    0  0.85275215233E+00 -0.53563987070E+01  0.46207692691E+01  0.71252861164E+01  0.51100000000E-03 0.  1.
         12    1    4    4    0    0  0.52038147181E+01  0.57207651447E+01  0.38773671283E+02  0.39537380113E+02  0.00000000000E+00 0. -1.
</event>
<event>
 8    1  0.3776180E-010  0.9118800E+02  0.7816164E-02  0.1184000E+00
        -11   -1    0    0    0    0  0.00000000000E+00  0.00000000000E+00  0.45593999997E+02  0.45594000000E+02  0.51100000000E-03 0. -1.
         11   -1    0    0    0    0 -0.00000000000E+00 -0.00000000000E+00 -0.45593999997E+02  0.45594000000E+02  0.51100000000E-03 0.  1.
         23    2    1    2    0    0  0.00000000000E+00  0.00000000000E+00  0.00000000000E+00  0.91188000000E+02  0.91188000000E+02 0.  0.
    9900012    2    3    3    0    0 -0.85173653773E+01 -0.24873638268E+02 -0.34530855169E+02  0.47787270140E+02  0.19999995877E+02 0.  0.
         12    1    3    3    0    0  0.85173653773E+01  0.24873638268E+02  0.34530855169E+02  0.43400729860E+02  0.00000000000E+00 0. -1.
         11    1    4    4    0    0 -0.79616704873E+01 -0.10687548457E+02 -0.17194347136E+02  0.21754481438E+02  0.51100000000E-03 0. -1.
        -11    1    4    4    0    0 -0.37032999986E+01 -0.52039252251E+01 -0.14895369000E+02  0.16207013499E+02  0.51100000000E-03 0.  1.
        -12    1    4    4    0    0  0.31476051086E+01 -0.89821645855E+01 -0.24411390334E+01  0.98257752031E+01  0.00000000000E+00 0.  1.
</event>
<event>
 8    1  0.3776180E-010  0.9118800E+02  0.7816164E-02  0.1184000E+00
        -11   -1    0    0    0    0  0.00000000000E+00  0.00000000000E+00  0.45593999997E+02  0.45594000000E+02  0.51100000000E-03 0. -1.
         11   -1    0    0    0    0 -0.00000000000E+00 -0.00000000000E+00 -0.45593999997E+02  0.45594000000E+02  0.51100000000E-03 0.  1.
         23    2    1    2    0    0  0.00000000000E+00  0.00000000000E+00  0.17763568394E-14  0.91188000000E+02  0.91188000000E+02 0.  0.
    9900012    2    3    3    0    0 -0.28710471947E+01 -0.40253529757E+02 -0.15969710683E+02  0.47787294600E+02  0.20000107400E+02 0.  0.
         12    1    3    3    0    0  0.28710471947E+01  0.40253529757E+02  0.15969710683E+02  0.43400705400E+02  0.00000000000E+00 0. -1.
         11    1    4    4    0    0 -0.38373532886E+01 -0.12145991981E+02 -0.77211305396E+01  0.14895175680E+02  0.51100000000E-03 0. -1.
        -11    1    4    4    0    0  0.80490508714E+00  0.15678587537E+01 -0.18091150183E+01  0.25256584650E+01  0.51100000000E-03 0.  1.
        -12    1    4    4    0    0  0.16140100677E+00 -0.29675396530E+02 -0.64394651252E+01  0.30366460456E+02  0.00000000000E+00 0.  1.
</event>
<event>
 8    1  0.3776180E-010  0.9118800E+02  0.7816164E-02  0.1184000E+00
        -11   -1    0    0    0    0  0.00000000000E+00  0.00000000000E+00  0.45593999997E+02  0.45594000000E+02  0.51100000000E-03 0. -1.
         11   -1    0    0    0    0 -0.00000000000E+00 -0.00000000000E+00 -0.45593999997E+02  0.45594000000E+02  0.51100000000E-03 0.  1.
         23    2    1    2    0    0  0.00000000000E+00  0.00000000000E+00  0.00000000000E+00  0.91188000000E+02  0.91188000000E+02 0.  0.
    9900012    2    3    3    0    0 -0.11390257667E+02 -0.97298892132E+01  0.40733455033E+02  0.47787273361E+02  0.20000010563E+02 0.  0.
        -12    1    3    3    0    0  0.11390257667E+02  0.97298892132E+01 -0.40733455033E+02  0.43400726639E+02  0.00000000000E+00 0.  1.
         11    1    4    4    0    0  0.62988900912E+00 -0.56527400520E+01  0.29446977460E+02  0.29991243923E+02  0.51100000000E-03 0. -1.
        -11    1    4    4    0    0 -0.40905603132E+01 -0.26121069123E+01  0.73873047796E+01  0.88390077704E+01  0.51100000000E-03 0.  1.
        -12    1    4    4    0    0 -0.79295863632E+01 -0.14650422488E+01  0.38991727936E+01  0.89570216678E+01  0.00000000000E+00 0.  1.
</event>
<event>
 8    1  0.3776180E-010  0.9118800E+02  0.7816164E-02  0.1184000E+00
        -11   -1    0    0    0    0  0.00000000000E+00  0.00000000000E+00  0.45593999997E+02  0.45594000000E+02  0.51100000000E-03 0. -1.
         11   -1    0    0    0    0 -0.00000000000E+00 -0.00000000000E+00 -0.45593999997E+02  0.45594000000E+02  0.51100000000E-03 0.  1.
         23    2    1    2    0    0 -0.71054273576E-14  0.88817841970E-15  0.00000000000E+00  0.91188000000E+02  0.91188000000E+02 0.  0.
    9900012    2    3    3    0    0 -0.39703410306E+02  0.43454848113E+01 -0.16981749727E+02  0.47787264384E+02  0.19999969634E+02 0.  0.
         12    1    3    3    0    0  0.39703410306E+02 -0.43454848113E+01  0.16981749727E+02  0.43400735616E+02  0.00000000000E+00 0. -1.
         11    1    4    4    0    0 -0.11298176489E+02 -0.19834527625E+00 -0.97229940206E+01  0.14907204494E+02  0.51100000000E-03 0. -1.
        -11    1    4    4    0    0 -0.26021317079E+02  0.65967662978E+01 -0.10060052751E+02  0.28667593721E+02  0.51100000000E-03 0.  1.
         12    1    4    4    0    0 -0.23839167379E+01 -0.20529362102E+01  0.28012970453E+01  0.42124661699E+01  0.00000000000E+00 0. -1.
</event>
<event>
 8    1  0.3776180E-010  0.9118800E+02  0.7816164E-02  0.1184000E+00
        -11   -1    0    0    0    0  0.00000000000E+00  0.00000000000E+00  0.45593999997E+02  0.45594000000E+02  0.51100000000E-03 0. -1.
         11   -1    0    0    0    0 -0.00000000000E+00 -0.00000000000E+00 -0.45593999997E+02  0.45594000000E+02  0.51100000000E-03 0.  1.
         23    2    1    2    0    0 -0.44408920985E-15  0.17763568394E-14  0.00000000000E+00  0.91188000000E+02  0.91188000000E+02 0.  0.
    9900012    2    3    3    0    0 -0.13942227534E+01 -0.15819581885E+02  0.40390836741E+02  0.47787277417E+02  0.20000029056E+02 0.  0.
        -12    1    3    3    0    0  0.13942227534E+01  0.15819581885E+02 -0.40390836741E+02  0.43400722583E+02  0.00000000000E+00 0.  1.
         11    1    4    4    0    0  0.26805187868E+01  0.36996887117E+01  0.45694193397E+01  0.64616151923E+01  0.51100000000E-03 0. -1.
        -11    1    4    4    0    0  0.83642010259E-01 -0.10483052650E+02  0.15677464926E+02  0.18859594259E+02  0.51100000000E-03 0.  1.
        -12    1    4    4    0    0 -0.41583835504E+01 -0.90362179463E+01  0.20143952475E+02  0.22466067966E+02  0.00000000000E+00 0.  1.
</event>
<event>
 8    1  0.3776180E-010  0.9118800E+02  0.7816164E-02  0.1184000E+00
        -11   -1    0    0    0    0  0.00000000000E+00  0.00000000000E+00  0.45593999997E+02  0.45594000000E+02  0.51100000000E-03 0. -1.
         11   -1    0    0    0    0 -0.00000000000E+00 -0.00000000000E+00 -0.45593999997E+02  0.45594000000E+02  0.51100000000E-03 0.  1.
         23    2    1    2    0    0  0.00000000000E+00  0.00000000000E+00  0.35527136788E-14  0.91188000000E+02  0.91188000000E+02 0.  0.
    9900012    2    3    3    0    0 -0.37448839398E+02 -0.40305016901E+01  0.21563003225E+02  0.47787267008E+02  0.19999981598E+02 0.  0.
        -12    1    3    3    0    0  0.37448839398E+02  0.40305016901E+01 -0.21563003225E+02  0.43400732992E+02  0.00000000000E+00 0.  1.
         11    1    4    4    0    0 -0.18480841137E+02  0.19589666949E-02  0.15359032656E+02  0.24030009933E+02  0.51100000000E-03 0. -1.
        -11    1    4    4    0    0 -0.48454643305E+01 -0.42192506425E+01  0.71366484080E+01  0.96027262443E+01  0.51100000000E-03 0.  1.
        -12    1    4    4    0    0 -0.14122533930E+02  0.18678998567E+00 -0.93267783914E+00  0.14154530831E+02  0.00000000000E+00 0.  1.
</event>
<event>
 8    1  0.3776180E-010  0.9118800E+02  0.7816164E-02  0.1184000E+00
        -11   -1    0    0    0    0  0.00000000000E+00  0.00000000000E+00  0.45593999997E+02  0.45594000000E+02  0.51100000000E-03 0. -1.
         11   -1    0    0    0    0 -0.00000000000E+00 -0.00000000000E+00 -0.45593999997E+02  0.45594000000E+02  0.51100000000E-03 0.  1.
         23    2    1    2    0    0 -0.22204460493E-15 -0.35527136788E-14 -0.71054273576E-14  0.91188000000E+02  0.91188000000E+02 0.  0.
    9900012    2    3    3    0    0  0.11394617088E+01 -0.21868172054E+02 -0.37471426864E+02  0.47787272435E+02  0.20000006339E+02 0.  0.
         12    1    3    3    0    0 -0.11394617088E+01  0.21868172054E+02  0.37471426864E+02  0.43400727565E+02  0.00000000000E+00 0. -1.
         11    1    4    4    0    0 -0.44622398785E+01 -0.30294412857E+01 -0.54637180350E+00  0.54210351083E+01  0.51100000000E-03 0. -1.
        -11    1    4    4    0    0 -0.29174623596E-01 -0.73867266186E+01 -0.18801627133E+02  0.20200637723E+02  0.51100000000E-03 0.  1.
        -12    1    4    4    0    0  0.56308762109E+01 -0.11452004150E+02 -0.18123427928E+02  0.22165599604E+02  0.00000000000E+00 0.  1.
</event>
<event>
 8    1  0.3776180E-010  0.9118800E+02  0.7816164E-02  0.1184000E+00
        -11   -1    0    0    0    0  0.00000000000E+00  0.00000000000E+00  0.45593999997E+02  0.45594000000E+02  0.51100000000E-03 0.  1.
         11   -1    0    0    0    0 -0.00000000000E+00 -0.00000000000E+00 -0.45593999997E+02  0.45594000000E+02  0.51100000000E-03 0. -1.
         23    2    1    2    0    0  0.00000000000E+00  0.00000000000E+00 -0.44408920985E-15  0.91188000000E+02  0.91188000000E+02 0.  0.
    9900012    2    3    3    0    0 -0.42363547913E+02  0.89829207858E+01  0.28740687563E+01  0.47787270411E+02  0.19999997112E+02 0.  0.
        -12    1    3    3    0    0  0.42363547913E+02 -0.89829207858E+01 -0.28740687563E+01  0.43400729589E+02  0.00000000000E+00 0.  1.
         11    1    4    4    0    0 -0.10001629172E+02 -0.35843112503E+00  0.72684522155E+01  0.12368971535E+02  0.51100000000E-03 0.  1.
        -11    1    4    4    0    0 -0.54332445809E+01  0.57690036277E+01 -0.16522795292E+00  0.79264651686E+01  0.51100000000E-03 0. -1.
        -12    1    4    4    0    0 -0.26928674160E+02  0.35723482831E+01 -0.42291555063E+01  0.27491833707E+02  0.00000000000E+00 0.  1.
</event>
<event>
 8    1  0.3776180E-010  0.9118800E+02  0.7816164E-02  0.1184000E+00
        -11   -1    0    0    0    0  0.00000000000E+00  0.00000000000E+00  0.45593999997E+02  0.45594000000E+02  0.51100000000E-03 0. -1.
         11   -1    0    0    0    0 -0.00000000000E+00 -0.00000000000E+00 -0.45593999997E+02  0.45594000000E+02  0.51100000000E-03 0.  1.
         23    2    1    2    0    0  0.88817841970E-15  0.00000000000E+00  0.00000000000E+00  0.91188000000E+02  0.91188000000E+02 0.  0.
    9900012    2    3    3    0    0 -0.58842826249E+01 -0.48709256839E+01  0.42723208862E+02  0.47787271037E+02  0.19999999966E+02 0.  0.
        -12    1    3    3    0    0  0.58842826249E+01  0.48709256839E+01 -0.42723208862E+02  0.43400728963E+02  0.00000000000E+00 0.  1.
         11    1    4    4    0    0 -0.84057810041E+00  0.34127233526E+01  0.55919617686E+01  0.66047928739E+01  0.51100000000E-03 0. -1.
        -11    1    4    4    0    0 -0.12117077412E+01 -0.46634085256E+01  0.13345081556E+01  0.49996526885E+01  0.51100000000E-03 0.  1.
         12    1    4    4    0    0 -0.38319967832E+01 -0.36202405109E+01  0.35796738938E+02  0.36182825474E+02  0.00000000000E+00 0. -1.
</event>
<event>
 8    1  0.3776180E-010  0.9118800E+02  0.7816164E-02  0.1184000E+00
        -11   -1    0    0    0    0  0.00000000000E+00  0.00000000000E+00  0.45593999997E+02  0.45594000000E+02  0.51100000000E-03 0. -1.
         11   -1    0    0    0    0 -0.00000000000E+00 -0.00000000000E+00 -0.45593999997E+02  0.45594000000E+02  0.51100000000E-03 0.  1.
         23    2    1    2    0    0 -0.99920072216E-15  0.00000000000E+00 -0.35527136788E-14  0.91188000000E+02  0.91188000000E+02 0.  0.
    9900012    2    3    3    0    0 -0.74255001384E+00 -0.37521938648E+02 -0.21798527966E+02  0.47787273256E+02  0.20000010084E+02 0.  0.
         12    1    3    3    0    0  0.74255001384E+00  0.37521938648E+02  0.21798527966E+02  0.43400726744E+02  0.00000000000E+00 0. -1.
         11    1    4    4    0    0 -0.37118312823E+01 -0.13676310146E+02 -0.99380819879E+01  0.17308513065E+02  0.51100000000E-03 0. -1.
        -11    1    4    4    0    0 -0.10164474968E+01 -0.17972168726E+01 -0.73356244748E+01  0.76206653711E+01  0.51100000000E-03 0.  1.
         12    1    4    4    0    0  0.39857287653E+01 -0.22048411629E+02 -0.45248215036E+01  0.22858094820E+02  0.00000000000E+00 0. -1.
</event>
<event>
 8    1  0.3776180E-010  0.9118800E+02  0.7816164E-02  0.1184000E+00
        -11   -1    0    0    0    0  0.00000000000E+00  0.00000000000E+00  0.45593999997E+02  0.45594000000E+02  0.51100000000E-03 0. -1.
         11   -1    0    0    0    0 -0.00000000000E+00 -0.00000000000E+00 -0.45593999997E+02  0.45594000000E+02  0.51100000000E-03 0.  1.
         23    2    1    2    0    0 -0.88817841970E-15  0.00000000000E+00  0.71054273576E-14  0.91188000000E+02  0.91188000000E+02 0.  0.
    9900012    2    3    3    0    0  0.46033735722E+01  0.14521096502E+02 -0.40639510410E+02  0.47787273067E+02  0.20000009224E+02 0.  0.
         12    1    3    3    0    0 -0.46033735722E+01 -0.14521096502E+02  0.40639510410E+02  0.43400726933E+02  0.00000000000E+00 0. -1.
         11    1    4    4    0    0 -0.39030850027E+01  0.30515384589E+01 -0.29525413188E+01  0.57674483097E+01  0.51100000000E-03 0. -1.
        -11    1    4    4    0    0  0.41366377081E+01 -0.17922335352E+01 -0.11300961208E+02  0.12166988003E+02  0.51100000000E-03 0.  1.
        -12    1    4    4    0    0  0.43698208668E+01  0.13261791579E+02 -0.26386007883E+02  0.29852836754E+02  0.00000000000E+00 0.  1.
</event>
<event>
 8    1  0.3776180E-010  0.9118800E+02  0.7816164E-02  0.1184000E+00
        -11   -1    0    0    0    0  0.00000000000E+00  0.00000000000E+00  0.45593999997E+02  0.45594000000E+02  0.51100000000E-03 0. -1.
         11   -1    0    0    0    0 -0.00000000000E+00 -0.00000000000E+00 -0.45593999997E+02  0.45594000000E+02  0.51100000000E-03 0.  1.
         23    2    1    2    0    0  0.00000000000E+00 -0.11102230246E-15  0.00000000000E+00  0.91188000000E+02  0.91188000000E+02 0.  0.
    9900012    2    3    3    0    0 -0.35462198952E+02  0.64243522721E+00 -0.25012841864E+02  0.47787279550E+02  0.20000038779E+02 0.  0.
         12    1    3    3    0    0  0.35462198952E+02 -0.64243522721E+00  0.25012841864E+02  0.43400720450E+02  0.00000000000E+00 0. -1.
         11    1    4    4    0    0  0.15360896945E+01 -0.26374787497E-01  0.14316940334E+00  0.15429727535E+01  0.51100000000E-03 0.  1.
        -11    1    4    4    0    0 -0.80150817646E+01 -0.20646834300E+01 -0.85117877845E+00  0.83203941573E+01  0.51100000000E-03 0. -1.
        -12    1    4    4    0    0 -0.28983206882E+02  0.27334934447E+01 -0.24304832488E+02  0.37923912639E+02  0.00000000000E+00 0.  1.
</event>
<event>
 8    1  0.3776180E-010  0.9118800E+02  0.7816164E-02  0.1184000E+00
        -11   -1    0    0    0    0  0.00000000000E+00  0.00000000000E+00  0.45593999997E+02  0.45594000000E+02  0.51100000000E-03 0. -1.
         11   -1    0    0    0    0 -0.00000000000E+00 -0.00000000000E+00 -0.45593999997E+02  0.45594000000E+02  0.51100000000E-03 0.  1.
         23    2    1    2    0    0  0.00000000000E+00  0.00000000000E+00  0.71054273576E-14  0.91188000000E+02  0.91188000000E+02 0.  0.
    9900012    2    3    3    0    0 -0.22230550557E+02 -0.14274361555E+02  0.34433538040E+02  0.47787270538E+02  0.19999997693E+02 0.  0.
        -12    1    3    3    0    0  0.22230550557E+02  0.14274361555E+02 -0.34433538040E+02  0.43400729462E+02  0.00000000000E+00 0.  1.
         11    1    4    4    0    0 -0.39123045330E+01 -0.25392882996E+01  0.16615655207E+02  0.17257870959E+02  0.51100000000E-03 0. -1.
        -11    1    4    4    0    0 -0.18156473865E+01  0.18011893784E+01 -0.24349954187E+00  0.25690758839E+01  0.51100000000E-03 0.  1.
         12    1    4    4    0    0 -0.16502598637E+02 -0.13536262633E+02  0.18061382375E+02  0.27960323695E+02  0.00000000000E+00 0. -1.
</event>
<event>
 8    1  0.3776180E-010  0.9118800E+02  0.7816164E-02  0.1184000E+00
        -11   -1    0    0    0    0  0.00000000000E+00  0.00000000000E+00  0.45593999997E+02  0.45594000000E+02  0.51100000000E-03 0.  1.
         11   -1    0    0    0    0 -0.00000000000E+00 -0.00000000000E+00 -0.45593999997E+02  0.45594000000E+02  0.51100000000E-03 0. -1.
         23    2    1    2    0    0  0.88817841970E-15  0.00000000000E+00  0.00000000000E+00  0.91188000000E+02  0.91188000000E+02 0.  0.
    9900012    2    3    3    0    0  0.68975944056E+01 -0.35251271553E+02 -0.24359683072E+02  0.47787272885E+02  0.20000008394E+02 0.  0.
         12    1    3    3    0    0 -0.68975944056E+01  0.35251271553E+02  0.24359683072E+02  0.43400727115E+02  0.00000000000E+00 0. -1.
         11    1    4    4    0    0  0.12084435232E+01 -0.13161478991E+01  0.25988662643E+01  0.31538368953E+01  0.51100000000E-03 0. -1.
        -11    1    4    4    0    0  0.44211665914E+01 -0.13506712019E+02 -0.16058665247E+02  0.21444316575E+02  0.51100000000E-03 0.  1.
        -12    1    4    4    0    0  0.12679842910E+01 -0.20428411635E+02 -0.10899884090E+02  0.23189119415E+02  0.00000000000E+00 0.  1.
</event>
<event>
 8    1  0.3776180E-010  0.9118800E+02  0.7816164E-02  0.1184000E+00
        -11   -1    0    0    0    0  0.00000000000E+00  0.00000000000E+00  0.45593999997E+02  0.45594000000E+02  0.51100000000E-03 0. -1.
         11   -1    0    0    0    0 -0.00000000000E+00 -0.00000000000E+00 -0.45593999997E+02  0.45594000000E+02  0.51100000000E-03 0.  1.
         23    2    1    2    0    0  0.00000000000E+00  0.35527136788E-14  0.71054273576E-14  0.91188000000E+02  0.91188000000E+02 0.  0.
    9900012    2    3    3    0    0  0.44613355249E+01 -0.20872140132E+02 -0.37789879950E+02  0.47787253750E+02  0.19999921149E+02 0.  0.
         12    1    3    3    0    0 -0.44613355249E+01  0.20872140132E+02  0.37789879950E+02  0.43400746250E+02  0.00000000000E+00 0. -1.
         11    1    4    4    0    0  0.14179126012E+00  0.49320101885E+00 -0.75924746195E+01  0.76097978367E+01  0.51100000000E-03 0. -1.
        -11    1    4    4    0    0 -0.31787708212E+01 -0.13751993781E+02 -0.23948923509E+02  0.27798792319E+02  0.51100000000E-03 0.  1.
        -12    1    4    4    0    0  0.74983150860E+01 -0.76133473702E+01 -0.62484818217E+01  0.12378663594E+02  0.00000000000E+00 0.  1.
</event>
<event>
 8    1  0.3776180E-010  0.9118800E+02  0.7816164E-02  0.1184000E+00
        -11   -1    0    0    0    0  0.00000000000E+00  0.00000000000E+00  0.45593999997E+02  0.45594000000E+02  0.51100000000E-03 0.  1.
         11   -1    0    0    0    0 -0.00000000000E+00 -0.00000000000E+00 -0.45593999997E+02  0.45594000000E+02  0.51100000000E-03 0. -1.
         23    2    1    2    0    0  0.00000000000E+00  0.00000000000E+00  0.00000000000E+00  0.91188000000E+02  0.91188000000E+02 0.  0.
    9900012    2    3    3    0    0 -0.19327393120E+02  0.38854345575E+02  0.64408947496E+00  0.47787272517E+02  0.20000006712E+02 0.  0.
         12    1    3    3    0    0  0.19327393120E+02 -0.38854345575E+02 -0.64408947496E+00  0.43400727483E+02  0.00000000000E+00 0. -1.
         11    1    4    4    0    0 -0.72133855268E+01  0.62566196620E+01  0.21646125672E+01  0.97910044520E+01  0.51100000000E-03 0. -1.
        -11    1    4    4    0    0 -0.15477729874E+01  0.16060203041E+02  0.56606602857E+01  0.17098795222E+02  0.51100000000E-03 0.  1.
        -12    1    4    4    0    0 -0.10566234605E+02  0.16537522872E+02 -0.71811833779E+01  0.20897472842E+02  0.00000000000E+00 0.  1.
</event>
<event>
 8    1  0.3776180E-010  0.9118800E+02  0.7816164E-02  0.1184000E+00
        -11   -1    0    0    0    0  0.00000000000E+00  0.00000000000E+00  0.45593999997E+02  0.45594000000E+02  0.51100000000E-03 0. -1.
         11   -1    0    0    0    0 -0.00000000000E+00 -0.00000000000E+00 -0.45593999997E+02  0.45594000000E+02  0.51100000000E-03 0.  1.
         23    2    1    2    0    0  0.00000000000E+00  0.00000000000E+00  0.00000000000E+00  0.91188000000E+02  0.91188000000E+02 0.  0.
    9900012    2    3    3    0    0  0.14346371574E+02 -0.10074556047E+02  0.39702748326E+02  0.47787270956E+02  0.19999999596E+02 0.  0.
        -12    1    3    3    0    0 -0.14346371574E+02  0.10074556047E+02 -0.39702748326E+02  0.43400729044E+02  0.00000000000E+00 0.  1.
         11    1    4    4    0    0  0.57403263876E+01  0.11691469452E+01  0.56420659515E+01  0.81333363436E+01  0.51100000000E-03 0.  1.
        -11    1    4    4    0    0 -0.88452551643E+00 -0.28222620608E+01 -0.35023562749E+00  0.29782904132E+01  0.51100000000E-03 0. -1.
         12    1    4    4    0    0  0.94905707031E+01 -0.84214409317E+01  0.34410918002E+02  0.36675644199E+02  0.00000000000E+00 0. -1.
</event>
<event>
 8    1  0.3776180E-010  0.9118800E+02  0.7816164E-02  0.1184000E+00
        -11   -1    0    0    0    0  0.00000000000E+00  0.00000000000E+00  0.45593999997E+02  0.45594000000E+02  0.51100000000E-03 0. -1.
         11   -1    0    0    0    0 -0.00000000000E+00 -0.00000000000E+00 -0.45593999997E+02  0.45594000000E+02  0.51100000000E-03 0.  1.
         23    2    1    2    0    0 -0.13322676296E-14  0.00000000000E+00  0.00000000000E+00  0.91188000000E+02  0.91188000000E+02 0.  0.
    9900012    2    3    3    0    0 -0.13876482083E+01  0.16792966732E+02 -0.39996186633E+02  0.47787259864E+02  0.19999949023E+02 0.  0.
         12    1    3    3    0    0  0.13876482083E+01 -0.16792966732E+02  0.39996186633E+02  0.43400740136E+02  0.00000000000E+00 0. -1.
         11    1    4    4    0    0 -0.65012757714E+01  0.10554579094E+02 -0.88214087757E+01  0.15214564718E+02  0.51100000000E-03 0. -1.
        -11    1    4    4    0    0  0.78761569131E+00  0.45806401948E+01 -0.12631807720E+02  0.13459761128E+02  0.51100000000E-03 0.  1.
         12    1    4    4    0    0  0.43260118718E+01  0.16577474433E+01 -0.18542970137E+02  0.19112934018E+02  0.00000000000E+00 0. -1.
</event>
<event>
 8    1  0.3776180E-010  0.9118800E+02  0.7816164E-02  0.1184000E+00
        -11   -1    0    0    0    0  0.00000000000E+00  0.00000000000E+00  0.45593999997E+02  0.45594000000E+02  0.51100000000E-03 0. -1.
         11   -1    0    0    0    0 -0.00000000000E+00 -0.00000000000E+00 -0.45593999997E+02  0.45594000000E+02  0.51100000000E-03 0.  1.
         23    2    1    2    0    0  0.00000000000E+00  0.00000000000E+00  0.00000000000E+00  0.91188000000E+02  0.91188000000E+02 0.  0.
    9900012    2    3    3    0    0  0.24235620954E+02 -0.58981537744E+01 -0.35517174394E+02  0.47787271689E+02  0.20000002937E+02 0.  0.
         12    1    3    3    0    0 -0.24235620954E+02  0.58981537744E+01  0.35517174394E+02  0.43400728311E+02  0.00000000000E+00 0. -1.
         11    1    4    4    0    0  0.13460264695E+02  0.17904838551E+01 -0.11358097879E+02  0.17702851346E+02  0.51100000000E-03 0. -1.
        -11    1    4    4    0    0  0.81268282729E+01 -0.43367481083E+01 -0.50527510295E+01  0.10506332146E+02  0.51100000000E-03 0.  1.
        -12    1    4    4    0    0  0.26485279869E+01 -0.33518895212E+01 -0.19106325486E+02  0.19578088197E+02  0.00000000000E+00 0.  1.
</event>
<event>
 8    1  0.3776180E-010  0.9118800E+02  0.7816164E-02  0.1184000E+00
        -11   -1    0    0    0    0  0.00000000000E+00  0.00000000000E+00  0.45593999997E+02  0.45594000000E+02  0.51100000000E-03 0. -1.
         11   -1    0    0    0    0 -0.00000000000E+00 -0.00000000000E+00 -0.45593999997E+02  0.45594000000E+02  0.51100000000E-03 0.  1.
         23    2    1    2    0    0  0.55511151231E-15  0.00000000000E+00  0.00000000000E+00  0.91188000000E+02  0.91188000000E+02 0.  0.
    9900012    2    3    3    0    0 -0.11861544063E+00 -0.24182357817E+02  0.36039192972E+02  0.47787263493E+02  0.19999965572E+02 0.  0.
        -12    1    3    3    0    0  0.11861544063E+00  0.24182357817E+02 -0.36039192972E+02  0.43400736507E+02  0.00000000000E+00 0.  1.
         11    1    4    4    0    0 -0.31660605346E+01 -0.85003382241E+01  0.13970271068E+02  0.16656775295E+02  0.51100000000E-03 0. -1.
        -11    1    4    4    0    0 -0.19105285791E+00 -0.87248292334E+01  0.10932782973E+01  0.87951352487E+01  0.51100000000E-03 0.  1.
         12    1    4    4    0    0  0.32384979519E+01 -0.69571903596E+01  0.20975643607E+02  0.22335352950E+02  0.00000000000E+00 0. -1.
</event>
<event>
 8    1  0.3776180E-010  0.9118800E+02  0.7816164E-02  0.1184000E+00
        -11   -1    0    0    0    0  0.00000000000E+00  0.00000000000E+00  0.45593999997E+02  0.45594000000E+02  0.51100000000E-03 0. -1.
         11   -1    0    0    0    0 -0.00000000000E+00 -0.00000000000E+00 -0.45593999997E+02  0.45594000000E+02  0.51100000000E-03 0.  1.
         23    2    1    2    0    0  0.00000000000E+00  0.00000000000E+00  0.00000000000E+00  0.91188000000E+02  0.91188000000E+02 0.  0.
    9900012    2    3    3    0    0 -0.20626174998E+02 -0.27426742665E+01  0.38087558668E+02  0.47787268641E+02  0.19999989043E+02 0.  0.
        -12    1    3    3    0    0  0.20626174998E+02  0.27426742665E+01 -0.38087558668E+02  0.43400731359E+02  0.00000000000E+00 0.  1.
         11    1    4    4    0    0  0.18448896326E+01 -0.81953030277E+00  0.11139090940E+01  0.23056542248E+01  0.51100000000E-03 0.  1.
        -11    1    4    4    0    0  0.42898031465E+00  0.16635201027E-01  0.10149930657E+02  0.10159005534E+02  0.51100000000E-03 0. -1.
        -12    1    4    4    0    0 -0.22900044945E+02 -0.19397791647E+01  0.26823718917E+02  0.35322608882E+02  0.00000000000E+00 0.  1.
</event>
<event>
 8    1  0.3776180E-010  0.9118800E+02  0.7816164E-02  0.1184000E+00
        -11   -1    0    0    0    0  0.00000000000E+00  0.00000000000E+00  0.45593999997E+02  0.45594000000E+02  0.51100000000E-03 0. -1.
         11   -1    0    0    0    0 -0.00000000000E+00 -0.00000000000E+00 -0.45593999997E+02  0.45594000000E+02  0.51100000000E-03 0.  1.
         23    2    1    2    0    0 -0.71054273576E-14  0.00000000000E+00  0.00000000000E+00  0.91188000000E+02  0.91188000000E+02 0.  0.
    9900012    2    3    3    0    0  0.34572318075E+02 -0.25689794976E+02  0.53303116648E+01  0.47787274598E+02  0.20000016200E+02 0.  0.
        -12    1    3    3    0    0 -0.34572318075E+02  0.25689794976E+02 -0.53303116648E+01  0.43400725402E+02  0.00000000000E+00 0.  1.
         11    1    4    4    0    0  0.65606866181E+01 -0.24924975851E+01 -0.73284371840E+00  0.70563597761E+01  0.51100000000E-03 0. -1.
        -11    1    4    4    0    0  0.13538026117E+02 -0.20135594630E+02 -0.11115914304E+01  0.24289008996E+02  0.51100000000E-03 0.  1.
         12    1    4    4    0    0  0.14473605340E+02 -0.30617027614E+01  0.71747468137E+01  0.16441905826E+02  0.00000000000E+00 0. -1.
</event>
<event>
 8    1  0.3776180E-010  0.9118800E+02  0.7816164E-02  0.1184000E+00
        -11   -1    0    0    0    0  0.00000000000E+00  0.00000000000E+00  0.45593999997E+02  0.45594000000E+02  0.51100000000E-03 0. -1.
         11   -1    0    0    0    0 -0.00000000000E+00 -0.00000000000E+00 -0.45593999997E+02  0.45594000000E+02  0.51100000000E-03 0.  1.
         23    2    1    2    0    0  0.00000000000E+00 -0.71054273576E-14 -0.88817841970E-15  0.91188000000E+02  0.91188000000E+02 0.  0.
    9900012    2    3    3    0    0  0.20780146269E+02  0.37679440860E+02  0.56629074920E+01  0.47787271161E+02  0.20000000531E+02 0.  0.
        -12    1    3    3    0    0 -0.20780146269E+02 -0.37679440860E+02 -0.56629074920E+01  0.43400728839E+02  0.00000000000E+00 0.  1.
         11    1    4    4    0    0  0.70323564656E+01  0.23669977406E+01 -0.32809800563E+01  0.81130478955E+01  0.51100000000E-03 0.  1.
        -11    1    4    4    0    0 -0.85787741510E+00  0.23981494563E+01 -0.91316427818E-01  0.25486100967E+01  0.51100000000E-03 0. -1.
        -12    1    4    4    0    0  0.14605667218E+02  0.32914293663E+02  0.90352039762E+01  0.37125613169E+02  0.00000000000E+00 0.  1.
</event>
<event>
 8    1  0.3776180E-010  0.9118800E+02  0.7816164E-02  0.1184000E+00
        -11   -1    0    0    0    0  0.00000000000E+00  0.00000000000E+00  0.45593999997E+02  0.45594000000E+02  0.51100000000E-03 0. -1.
         11   -1    0    0    0    0 -0.00000000000E+00 -0.00000000000E+00 -0.45593999997E+02  0.45594000000E+02  0.51100000000E-03 0.  1.
         23    2    1    2    0    0  0.00000000000E+00 -0.71054273576E-14  0.00000000000E+00  0.91188000000E+02  0.91188000000E+02 0.  0.
    9900012    2    3    3    0    0 -0.12494166484E+02  0.39604355536E+02 -0.12610086386E+02  0.47787268990E+02  0.19999990633E+02 0.  0.
         12    1    3    3    0    0  0.12494166484E+02 -0.39604355536E+02  0.12610086386E+02  0.43400731010E+02  0.00000000000E+00 0. -1.
         11    1    4    4    0    0 -0.82227172699E+01  0.24697939060E+02 -0.28325799044E+01  0.26184437788E+02  0.51100000000E-03 0. -1.
        -11    1    4    4    0    0 -0.70323635006E+00  0.13401342263E+02 -0.29297482921E+01  0.13735863320E+02  0.51100000000E-03 0.  1.
         12    1    4    4    0    0 -0.35682128643E+01  0.15050742125E+01 -0.68477581900E+01  0.78669678822E+01  0.00000000000E+00 0. -1.
</event>
<event>
 8    1  0.3776180E-010  0.9118800E+02  0.7816164E-02  0.1184000E+00
        -11   -1    0    0    0    0  0.00000000000E+00  0.00000000000E+00  0.45593999997E+02  0.45594000000E+02  0.51100000000E-03 0. -1.
         11   -1    0    0    0    0 -0.00000000000E+00 -0.00000000000E+00 -0.45593999997E+02  0.45594000000E+02  0.51100000000E-03 0.  1.
         23    2    1    2    0    0  0.00000000000E+00 -0.17763568394E-14  0.71054273576E-14  0.91188000000E+02  0.91188000000E+02 0.  0.
    9900012    2    3    3    0    0 -0.38799966767E+01  0.89299298814E+01  0.42294502821E+02  0.47787274306E+02  0.20000014869E+02 0.  0.
        -12    1    3    3    0    0  0.38799966767E+01 -0.89299298814E+01 -0.42294502821E+02  0.43400725694E+02  0.00000000000E+00 0.  1.
         11    1    4    4    0    0 -0.20373582818E+01  0.33036095738E+01  0.22900913218E+02  0.23227494301E+02  0.51100000000E-03 0. -1.
        -11    1    4    4    0    0 -0.50143573301E+01  0.67352368741E+01  0.19465143886E+02  0.21199033515E+02  0.51100000000E-03 0.  1.
         12    1    4    4    0    0  0.31717189352E+01 -0.11089165665E+01 -0.71554283559E-01  0.33607464902E+01  0.00000000000E+00 0. -1.
</event>
<event>
 8    1  0.3776180E-010  0.9118800E+02  0.7816164E-02  0.1184000E+00
        -11   -1    0    0    0    0  0.00000000000E+00  0.00000000000E+00  0.45593999997E+02  0.45594000000E+02  0.51100000000E-03 0. -1.
         11   -1    0    0    0    0 -0.00000000000E+00 -0.00000000000E+00 -0.45593999997E+02  0.45594000000E+02  0.51100000000E-03 0.  1.
         23    2    1    2    0    0  0.00000000000E+00  0.00000000000E+00  0.00000000000E+00  0.91188000000E+02  0.91188000000E+02 0.  0.
    9900012    2    3    3    0    0 -0.87276956442E+01  0.26561316243E+02 -0.33195588574E+02  0.47787270829E+02  0.19999999017E+02 0.  0.
         12    1    3    3    0    0  0.87276956442E+01 -0.26561316243E+02  0.33195588574E+02  0.43400729171E+02  0.00000000000E+00 0. -1.
         11    1    4    4    0    0 -0.25803061381E+01  0.52529482989E+01 -0.36193758737E+01  0.68812300916E+01  0.51100000000E-03 0. -1.
        -11    1    4    4    0    0 -0.12197097289E+02  0.11871468312E+02 -0.16927240173E+02  0.24004841226E+02  0.51100000000E-03 0.  1.
         12    1    4    4    0    0  0.60497077826E+01  0.94368996320E+01 -0.12648972527E+02  0.16901199511E+02  0.00000000000E+00 0. -1.
</event>
<event>
 8    1  0.3776180E-010  0.9118800E+02  0.7816164E-02  0.1184000E+00
        -11   -1    0    0    0    0  0.00000000000E+00  0.00000000000E+00  0.45593999997E+02  0.45594000000E+02  0.51100000000E-03 0. -1.
         11   -1    0    0    0    0 -0.00000000000E+00 -0.00000000000E+00 -0.45593999997E+02  0.45594000000E+02  0.51100000000E-03 0.  1.
         23    2    1    2    0    0 -0.35527136788E-14  0.00000000000E+00 -0.71054273576E-14  0.91188000000E+02  0.91188000000E+02 0.  0.
    9900012    2    3    3    0    0  0.14220852676E+02  0.16793961288E+02  0.37407934484E+02  0.47787270179E+02  0.19999996056E+02 0.  0.
        -12    1    3    3    0    0 -0.14220852676E+02 -0.16793961288E+02 -0.37407934484E+02  0.43400729821E+02  0.00000000000E+00 0.  1.
         11    1    4    4    0    0  0.92812046914E+01  0.64787082298E+01  0.26478512418E+02  0.28796285194E+02  0.51100000000E-03 0. -1.
        -11    1    4    4    0    0  0.77639917904E+01  0.68079313614E+01  0.10036929714E+02  0.14400258897E+02  0.51100000000E-03 0.  1.
        -12    1    4    4    0    0 -0.28243438056E+01  0.35073216973E+01  0.89249235139E+00  0.45907260883E+01  0.00000000000E+00 0.  1.
</event>
<event>
 8    1  0.3776180E-010  0.9118800E+02  0.7816164E-02  0.1184000E+00
        -11   -1    0    0    0    0  0.00000000000E+00  0.00000000000E+00  0.45593999997E+02  0.45594000000E+02  0.51100000000E-03 0. -1.
         11   -1    0    0    0    0 -0.00000000000E+00 -0.00000000000E+00 -0.45593999997E+02  0.45594000000E+02  0.51100000000E-03 0.  1.
         23    2    1    2    0    0  0.00000000000E+00 -0.35527136788E-14  0.00000000000E+00  0.91188000000E+02  0.91188000000E+02 0.  0.
    9900012    2    3    3    0    0  0.96631816104E+01  0.22353102906E+02  0.35924730511E+02  0.47787256335E+02  0.19999932935E+02 0.  0.
        -12    1    3    3    0    0 -0.96631816104E+01 -0.22353102906E+02 -0.35924730511E+02  0.43400743665E+02  0.00000000000E+00 0.  1.
         11    1    4    4    0    0  0.10800725548E+02  0.23077851965E+02  0.33567939546E+02  0.42143202172E+02  0.51100000000E-03 0. -1.
        -11    1    4    4    0    0  0.18861330151E+01 -0.43224049418E+00  0.16064702263E+01  0.25149704659E+01  0.51100000000E-03 0.  1.
         12    1    4    4    0    0 -0.30236769524E+01 -0.29250856532E+00  0.75032073850E+00  0.31290836971E+01  0.00000000000E+00 0. -1.
</event>
<event>
 8    1  0.3776180E-010  0.9118800E+02  0.7816164E-02  0.1184000E+00
        -11   -1    0    0    0    0  0.00000000000E+00  0.00000000000E+00  0.45593999997E+02  0.45594000000E+02  0.51100000000E-03 0.  1.
         11   -1    0    0    0    0 -0.00000000000E+00 -0.00000000000E+00 -0.45593999997E+02  0.45594000000E+02  0.51100000000E-03 0. -1.
         23    2    1    2    0    0  0.00000000000E+00  0.00000000000E+00  0.00000000000E+00  0.91188000000E+02  0.91188000000E+02 0.  0.
    9900012    2    3    3    0    0 -0.26948285108E+02  0.30825256406E+02  0.14395032196E+02  0.47787268961E+02  0.19999990500E+02 0.  0.
        -12    1    3    3    0    0  0.26948285108E+02 -0.30825256406E+02 -0.14395032196E+02  0.43400731039E+02  0.00000000000E+00 0.  1.
         11    1    4    4    0    0 -0.84990270888E+01  0.17947369285E+01  0.54121196441E+01  0.10234528880E+02  0.51100000000E-03 0. -1.
        -11    1    4    4    0    0 -0.10360707734E-01  0.42144116679E+01 -0.21013841239E+01  0.47092662431E+01  0.51100000000E-03 0.  1.
         12    1    4    4    0    0 -0.18438897312E+02  0.24816107810E+02  0.11084296676E+02  0.32843473837E+02  0.00000000000E+00 0. -1.
</event>
<event>
 8    1  0.3776180E-010  0.9118800E+02  0.7816164E-02  0.1184000E+00
        -11   -1    0    0    0    0  0.00000000000E+00  0.00000000000E+00  0.45593999997E+02  0.45594000000E+02  0.51100000000E-03 0. -1.
         11   -1    0    0    0    0 -0.00000000000E+00 -0.00000000000E+00 -0.45593999997E+02  0.45594000000E+02  0.51100000000E-03 0.  1.
         23    2    1    2    0    0  0.22204460493E-15  0.88817841970E-15 -0.71054273576E-14  0.91188000000E+02  0.91188000000E+02 0.  0.
    9900012    2    3    3    0    0  0.19788151772E+01  0.69725731057E+01  0.42791213307E+02  0.47787303905E+02  0.20000149824E+02 0.  0.
        -12    1    3    3    0    0 -0.19788151772E+01 -0.69725731057E+01 -0.42791213307E+02  0.43400696095E+02  0.00000000000E+00 0.  1.
         11    1    4    4    0    0 -0.24190415374E+01 -0.72549635822E+00  0.95959847981E+01  0.99227532183E+01  0.51100000000E-03 0. -1.
        -11    1    4    4    0    0 -0.28294694371E+01  0.18946809225E+01  0.59285759761E-02  0.34052530747E+01  0.51100000000E-03 0.  1.
         12    1    4    4    0    0  0.72273261516E+01  0.58033885414E+01  0.33189299933E+02  0.34459297612E+02  0.00000000000E+00 0. -1.
</event>
<event>
 8    1  0.3776180E-010  0.9118800E+02  0.7816164E-02  0.1184000E+00
        -11   -1    0    0    0    0  0.00000000000E+00  0.00000000000E+00  0.45593999997E+02  0.45594000000E+02  0.51100000000E-03 0. -1.
         11   -1    0    0    0    0 -0.00000000000E+00 -0.00000000000E+00 -0.45593999997E+02  0.45594000000E+02  0.51100000000E-03 0.  1.
         23    2    1    2    0    0  0.00000000000E+00  0.88817841970E-15  0.00000000000E+00  0.91188000000E+02  0.91188000000E+02 0.  0.
    9900012    2    3    3    0    0 -0.13418845377E+02 -0.53341103457E+01 -0.40928053217E+02  0.47787266313E+02  0.19999978427E+02 0.  0.
         12    1    3    3    0    0  0.13418845377E+02  0.53341103457E+01  0.40928053217E+02  0.43400733687E+02  0.00000000000E+00 0. -1.
         11    1    4    4    0    0 -0.92829187055E+01 -0.66127403713E+01 -0.66274376801E+01  0.13184227144E+02  0.51100000000E-03 0. -1.
        -11    1    4    4    0    0 -0.42015836977E+00 -0.63201703004E-01 -0.75859652806E+01  0.75978547637E+01  0.51100000000E-03 0.  1.
         12    1    4    4    0    0 -0.37157683019E+01  0.13418317286E+01 -0.26714650256E+02  0.27005184406E+02  0.00000000000E+00 0. -1.
</event>
<event>
 8    1  0.3776180E-010  0.9118800E+02  0.7816164E-02  0.1184000E+00
        -11   -1    0    0    0    0  0.00000000000E+00  0.00000000000E+00  0.45593999997E+02  0.45594000000E+02  0.51100000000E-03 0. -1.
         11   -1    0    0    0    0 -0.00000000000E+00 -0.00000000000E+00 -0.45593999997E+02  0.45594000000E+02  0.51100000000E-03 0.  1.
         23    2    1    2    0    0  0.00000000000E+00  0.00000000000E+00  0.00000000000E+00  0.91188000000E+02  0.91188000000E+02 0.  0.
    9900012    2    3    3    0    0  0.69161593866E+01 -0.96701217589E+01  0.41740611662E+02  0.47787272156E+02  0.20000005066E+02 0.  0.
        -12    1    3    3    0    0 -0.69161593866E+01  0.96701217589E+01 -0.41740611662E+02  0.43400727844E+02  0.00000000000E+00 0.  1.
         11    1    4    4    0    0  0.40571490559E+01  0.99824884130E+00  0.57404892780E+01  0.71000124382E+01  0.51100000000E-03 0. -1.
        -11    1    4    4    0    0  0.89677498068E+01 -0.39794270876E+01  0.16739758949E+02  0.19402987050E+02  0.51100000000E-03 0.  1.
        -12    1    4    4    0    0 -0.61087394762E+01 -0.66889435127E+01  0.19260363435E+02  0.21284272667E+02  0.00000000000E+00 0.  1.
</event>
<event>
 8    1  0.3776180E-010  0.9118800E+02  0.7816164E-02  0.1184000E+00
        -11   -1    0    0    0    0  0.00000000000E+00  0.00000000000E+00  0.45593999997E+02  0.45594000000E+02  0.51100000000E-03 0.  1.
         11   -1    0    0    0    0 -0.00000000000E+00 -0.00000000000E+00 -0.45593999997E+02  0.45594000000E+02  0.51100000000E-03 0. -1.
         23    2    1    2    0    0  0.35527136788E-14  0.35527136788E-14  0.44408920985E-15  0.91188000000E+02  0.91188000000E+02 0.  0.
    9900012    2    3    3    0    0 -0.30681856443E+02 -0.30677518568E+02 -0.10660551679E+01  0.47787274961E+02  0.20000017859E+02 0.  0.
        -12    1    3    3    0    0  0.30681856443E+02  0.30677518568E+02  0.10660551679E+01  0.43400725039E+02  0.00000000000E+00 0.  1.
         11    1    4    4    0    0 -0.38807007055E+01 -0.43182306922E+01 -0.58059639558E+01  0.82107351677E+01  0.51100000000E-03 0. -1.
        -11    1    4    4    0    0 -0.42353846206E+01 -0.11540540492E+02  0.16690189244E+01  0.12405973648E+02  0.51100000000E-03 0.  1.
        -12    1    4    4    0    0 -0.22565771116E+02 -0.14818747384E+02  0.30708898635E+01  0.27170566145E+02  0.00000000000E+00 0.  1.
</event>
<event>
 8    1  0.3776180E-010  0.9118800E+02  0.7816164E-02  0.1184000E+00
        -11   -1    0    0    0    0  0.00000000000E+00  0.00000000000E+00  0.45593999997E+02  0.45594000000E+02  0.51100000000E-03 0. -1.
         11   -1    0    0    0    0 -0.00000000000E+00 -0.00000000000E+00 -0.45593999997E+02  0.45594000000E+02  0.51100000000E-03 0.  1.
         23    2    1    2    0    0 -0.88817841970E-15  0.00000000000E+00  0.00000000000E+00  0.91188000000E+02  0.91188000000E+02 0.  0.
    9900012    2    3    3    0    0 -0.77287960760E+01  0.44483094608E+01  0.42474719435E+02  0.47787268014E+02  0.19999986183E+02 0.  0.
        -12    1    3    3    0    0  0.77287960760E+01 -0.44483094608E+01 -0.42474719435E+02  0.43400731986E+02  0.00000000000E+00 0.  1.
         11    1    4    4    0    0 -0.30954242780E+01  0.47135241687E+00  0.27962348029E+01  0.41979463903E+01  0.51100000000E-03 0.  1.
        -11    1    4    4    0    0  0.15352538353E+01  0.35415234698E+01  0.46115105914E+00  0.38874224605E+01  0.51100000000E-03 0. -1.
         12    1    4    4    0    0 -0.61686256333E+01  0.43543357414E+00  0.39217333573E+02  0.39701899163E+02  0.00000000000E+00 0. -1.
</event>
<event>
 8    1  0.3776180E-010  0.9118800E+02  0.7816164E-02  0.1184000E+00
        -11   -1    0    0    0    0  0.00000000000E+00  0.00000000000E+00  0.45593999997E+02  0.45594000000E+02  0.51100000000E-03 0. -1.
         11   -1    0    0    0    0 -0.00000000000E+00 -0.00000000000E+00 -0.45593999997E+02  0.45594000000E+02  0.51100000000E-03 0.  1.
         23    2    1    2    0    0  0.00000000000E+00 -0.71054273576E-14  0.00000000000E+00  0.91188000000E+02  0.91188000000E+02 0.  0.
    9900012    2    3    3    0    0 -0.15150708028E+02 -0.40651522864E+02 -0.12382448829E+01  0.47787268263E+02  0.19999987319E+02 0.  0.
         12    1    3    3    0    0  0.15150708028E+02  0.40651522864E+02  0.12382448829E+01  0.43400731737E+02  0.00000000000E+00 0. -1.
         11    1    4    4    0    0 -0.10614580540E+02 -0.96019022239E+01 -0.38870547901E+01  0.14831555601E+02  0.51100000000E-03 0. -1.
        -11    1    4    4    0    0 -0.71618613987E+01 -0.16491756947E+02  0.25719922154E+01  0.18162748969E+02  0.51100000000E-03 0.  1.
         12    1    4    4    0    0  0.26257339102E+01 -0.14557863693E+02  0.76817691813E-01  0.14792963693E+02  0.00000000000E+00 0. -1.
</event>
<event>
 8    1  0.3776180E-010  0.9118800E+02  0.7816164E-02  0.1184000E+00
        -11   -1    0    0    0    0  0.00000000000E+00  0.00000000000E+00  0.45593999997E+02  0.45594000000E+02  0.51100000000E-03 0. -1.
         11   -1    0    0    0    0 -0.00000000000E+00 -0.00000000000E+00 -0.45593999997E+02  0.45594000000E+02  0.51100000000E-03 0.  1.
         23    2    1    2    0    0  0.35527136788E-14  0.00000000000E+00  0.00000000000E+00  0.91188000000E+02  0.91188000000E+02 0.  0.
    9900012    2    3    3    0    0  0.20123331870E+02 -0.15304077837E+02 -0.35276903446E+02  0.47787271888E+02  0.20000003844E+02 0.  0.
         12    1    3    3    0    0 -0.20123331870E+02  0.15304077837E+02  0.35276903446E+02  0.43400728112E+02  0.00000000000E+00 0. -1.
         11    1    4    4    0    0  0.10008627250E+02 -0.42792999015E+01 -0.79889858076E+01  0.13502182104E+02  0.51100000000E-03 0. -1.
        -11    1    4    4    0    0  0.11694102607E+02 -0.24594267708E+01 -0.14129392010E+02  0.18505148869E+02  0.51100000000E-03 0.  1.
         12    1    4    4    0    0 -0.15793979870E+01 -0.85653511650E+01 -0.13158525628E+02  0.15779940915E+02  0.00000000000E+00 0. -1.
</event>
<event>
 8    1  0.3776180E-010  0.9118800E+02  0.7816164E-02  0.1184000E+00
        -11   -1    0    0    0    0  0.00000000000E+00  0.00000000000E+00  0.45593999997E+02  0.45594000000E+02  0.51100000000E-03 0. -1.
         11   -1    0    0    0    0 -0.00000000000E+00 -0.00000000000E+00 -0.45593999997E+02  0.45594000000E+02  0.51100000000E-03 0.  1.
         23    2    1    2    0    0  0.00000000000E+00 -0.88817841970E-15  0.00000000000E+00  0.91188000000E+02  0.91188000000E+02 0.  0.
    9900012    2    3    3    0    0  0.28394663548E+02 -0.64720868922E+01  0.32178846972E+02  0.47787273978E+02  0.20000013377E+02 0.  0.
        -12    1    3    3    0    0 -0.28394663548E+02  0.64720868922E+01 -0.32178846972E+02  0.43400726022E+02  0.00000000000E+00 0.  1.
         11    1    4    4    0    0  0.38209470826E+01  0.15841413422E+01 -0.86309415508E+00  0.42254079308E+01  0.51100000000E-03 0. -1.
        -11    1    4    4    0    0 -0.55717921464E+00 -0.22958569709E+01  0.14015969330E+01  0.27469769077E+01  0.51100000000E-03 0.  1.
         12    1    4    4    0    0  0.25130895680E+02 -0.57603712635E+01  0.31640344194E+02  0.40814889140E+02  0.00000000000E+00 0. -1.
</event>
<event>
 8    1  0.3776180E-010  0.9118800E+02  0.7816164E-02  0.1184000E+00
        -11   -1    0    0    0    0  0.00000000000E+00  0.00000000000E+00  0.45593999997E+02  0.45594000000E+02  0.51100000000E-03 0. -1.
         11   -1    0    0    0    0 -0.00000000000E+00 -0.00000000000E+00 -0.45593999997E+02  0.45594000000E+02  0.51100000000E-03 0.  1.
         23    2    1    2    0    0  0.00000000000E+00  0.00000000000E+00  0.00000000000E+00  0.91188000000E+02  0.91188000000E+02 0.  0.
    9900012    2    3    3    0    0  0.29312779807E+02 -0.69710246544E+01  0.31237620833E+02  0.47787271895E+02  0.20000003879E+02 0.  0.
        -12    1    3    3    0    0 -0.29312779807E+02  0.69710246544E+01 -0.31237620833E+02  0.43400728105E+02  0.00000000000E+00 0.  1.
         11    1    4    4    0    0  0.26082535761E+02 -0.98699955313E+01  0.25097862788E+02  0.37518238236E+02  0.51100000000E-03 0. -1.
        -11    1    4    4    0    0  0.23988929922E+01 -0.57284659466E+00 -0.69128324554E+00  0.25613889973E+01  0.51100000000E-03 0.  1.
         12    1    4    4    0    0  0.83135105311E+00  0.34718174715E+01  0.68310412900E+01  0.77076446620E+01  0.00000000000E+00 0. -1.
</event>
<event>
 8    1  0.3776180E-010  0.9118800E+02  0.7816164E-02  0.1184000E+00
        -11   -1    0    0    0    0  0.00000000000E+00  0.00000000000E+00  0.45593999997E+02  0.45594000000E+02  0.51100000000E-03 0. -1.
         11   -1    0    0    0    0 -0.00000000000E+00 -0.00000000000E+00 -0.45593999997E+02  0.45594000000E+02  0.51100000000E-03 0.  1.
         23    2    1    2    0    0  0.00000000000E+00  0.00000000000E+00  0.00000000000E+00  0.91188000000E+02  0.91188000000E+02 0.  0.
    9900012    2    3    3    0    0  0.20775622135E+02 -0.81771001123E+01  0.37217360221E+02  0.47787270246E+02  0.19999996361E+02 0.  0.
        -12    1    3    3    0    0 -0.20775622135E+02  0.81771001123E+01 -0.37217360221E+02  0.43400729754E+02  0.00000000000E+00 0.  1.
         11    1    4    4    0    0  0.11701303324E+02  0.36289299023E+01  0.88305375806E+01  0.15101921267E+02  0.51100000000E-03 0. -1.
        -11    1    4    4    0    0  0.95482222066E+00 -0.12616277646E+01  0.30737519370E+00  0.16117908861E+01  0.51100000000E-03 0.  1.
        -12    1    4    4    0    0  0.81194965903E+01 -0.10544402250E+02  0.28079447447E+02  0.31073558094E+02  0.00000000000E+00 0.  1.
</event>
<event>
 8    1  0.3776180E-010  0.9118800E+02  0.7816164E-02  0.1184000E+00
        -11   -1    0    0    0    0  0.00000000000E+00  0.00000000000E+00  0.45593999997E+02  0.45594000000E+02  0.51100000000E-03 0.  1.
         11   -1    0    0    0    0 -0.00000000000E+00 -0.00000000000E+00 -0.45593999997E+02  0.45594000000E+02  0.51100000000E-03 0. -1.
         23    2    1    2    0    0  0.00000000000E+00  0.00000000000E+00  0.00000000000E+00  0.91188000000E+02  0.91188000000E+02 0.  0.
    9900012    2    3    3    0    0 -0.16650151054E+02  0.37066480691E+02 -0.15247023706E+02  0.47787271287E+02  0.20000001105E+02 0.  0.
         12    1    3    3    0    0  0.16650151054E+02 -0.37066480691E+02  0.15247023706E+02  0.43400728713E+02  0.00000000000E+00 0. -1.
         11    1    4    4    0    0  0.30281555816E+00  0.12800908203E+02 -0.10417513752E+02  0.16506954325E+02  0.51100000000E-03 0. -1.
        -11    1    4    4    0    0 -0.65438025971E+01  0.29682225988E+01 -0.71689240640E+00  0.72211933092E+01  0.51100000000E-03 0.  1.
        -12    1    4    4    0    0 -0.10409164015E+02  0.21297349890E+02 -0.41126175478E+01  0.24059123652E+02  0.00000000000E+00 0.  1.
</event>
<event>
 8    1  0.3776180E-010  0.9118800E+02  0.7816164E-02  0.1184000E+00
        -11   -1    0    0    0    0  0.00000000000E+00  0.00000000000E+00  0.45593999997E+02  0.45594000000E+02  0.51100000000E-03 0. -1.
         11   -1    0    0    0    0 -0.00000000000E+00 -0.00000000000E+00 -0.45593999997E+02  0.45594000000E+02  0.51100000000E-03 0.  1.
         23    2    1    2    0    0  0.71054273576E-14  0.00000000000E+00  0.35527136788E-14  0.91188000000E+02  0.91188000000E+02 0.  0.
    9900012    2    3    3    0    0 -0.37170903836E+02  0.49209276409E+01 -0.21857077375E+02  0.47787268990E+02  0.19999990632E+02 0.  0.
         12    1    3    3    0    0  0.37170903836E+02 -0.49209276409E+01  0.21857077375E+02  0.43400731010E+02  0.00000000000E+00 0. -1.
         11    1    4    4    0    0 -0.33929548922E+01 -0.37821143062E+01 -0.10075480822E+01  0.51799309768E+01  0.51100000000E-03 0. -1.
        -11    1    4    4    0    0 -0.16836282224E+01 -0.17838970102E+01 -0.44268655432E+01  0.50610306591E+01  0.51100000000E-03 0.  1.
        -12    1    4    4    0    0 -0.32094320721E+02  0.10486938957E+02 -0.16422663750E+02  0.37546307354E+02  0.00000000000E+00 0.  1.
</event>
<event>
 8    1  0.3776180E-010  0.9118800E+02  0.7816164E-02  0.1184000E+00
        -11   -1    0    0    0    0  0.00000000000E+00  0.00000000000E+00  0.45593999997E+02  0.45594000000E+02  0.51100000000E-03 0. -1.
         11   -1    0    0    0    0 -0.00000000000E+00 -0.00000000000E+00 -0.45593999997E+02  0.45594000000E+02  0.51100000000E-03 0.  1.
         23    2    1    2    0    0  0.00000000000E+00  0.00000000000E+00  0.71054273576E-14  0.91188000000E+02  0.91188000000E+02 0.  0.
    9900012    2    3    3    0    0 -0.66871849645E+01 -0.59448093716E+01  0.42468381475E+02  0.47787278505E+02  0.20000034015E+02 0.  0.
        -12    1    3    3    0    0  0.66871849645E+01  0.59448093716E+01 -0.42468381475E+02  0.43400721495E+02  0.00000000000E+00 0.  1.
         11    1    4    4    0    0 -0.23623418233E+01 -0.22078115233E+00  0.55488930105E+01  0.60348667848E+01  0.51100000000E-03 0. -1.
        -11    1    4    4    0    0 -0.97346286235E+01 -0.89293956512E+01  0.25235398445E+02  0.28483722300E+02  0.51100000000E-03 0.  1.
        -12    1    4    4    0    0  0.54097854823E+01  0.32053674320E+01  0.11684090020E+02  0.13268689420E+02  0.00000000000E+00 0.  1.
</event>
<event>
 8    1  0.3776180E-010  0.9118800E+02  0.7816164E-02  0.1184000E+00
        -11   -1    0    0    0    0  0.00000000000E+00  0.00000000000E+00  0.45593999997E+02  0.45594000000E+02  0.51100000000E-03 0. -1.
         11   -1    0    0    0    0 -0.00000000000E+00 -0.00000000000E+00 -0.45593999997E+02  0.45594000000E+02  0.51100000000E-03 0.  1.
         23    2    1    2    0    0 -0.35527136788E-14  0.17763568394E-14  0.00000000000E+00  0.91188000000E+02  0.91188000000E+02 0.  0.
    9900012    2    3    3    0    0  0.29510822390E+02 -0.12826548826E+02  0.29124096550E+02  0.47787285804E+02  0.20000067293E+02 0.  0.
        -12    1    3    3    0    0 -0.29510822390E+02  0.12826548826E+02 -0.29124096550E+02  0.43400714196E+02  0.00000000000E+00 0.  1.
         11    1    4    4    0    0  0.12181636986E+02 -0.78972515674E+01  0.10196948066E+02  0.17740817684E+02  0.51100000000E-03 0. -1.
        -11    1    4    4    0    0  0.14889515684E+02 -0.43204406384E+01  0.55997924349E+01  0.16483978895E+02  0.51100000000E-03 0.  1.
        -12    1    4    4    0    0  0.24396697198E+01 -0.60885662010E+00  0.13327356049E+02  0.13562489225E+02  0.00000000000E+00 0.  1.
</event>
<event>
 8    1  0.3776180E-010  0.9118800E+02  0.7816164E-02  0.1184000E+00
        -11   -1    0    0    0    0  0.00000000000E+00  0.00000000000E+00  0.45593999997E+02  0.45594000000E+02  0.51100000000E-03 0. -1.
         11   -1    0    0    0    0 -0.00000000000E+00 -0.00000000000E+00 -0.45593999997E+02  0.45594000000E+02  0.51100000000E-03 0.  1.
         23    2    1    2    0    0 -0.22204460493E-15  0.00000000000E+00  0.00000000000E+00  0.91188000000E+02  0.91188000000E+02 0.  0.
    9900012    2    3    3    0    0 -0.16669010485E+01 -0.66997349027E+01  0.42848085848E+02  0.47787268811E+02  0.19999989818E+02 0.  0.
        -12    1    3    3    0    0  0.16669010485E+01  0.66997349027E+01 -0.42848085848E+02  0.43400731189E+02  0.00000000000E+00 0.  1.
         11    1    4    4    0    0  0.31084403874E+01  0.49958222592E+01  0.24052046475E+02  0.24761292001E+02  0.51100000000E-03 0. -1.
        -11    1    4    4    0    0 -0.40243319694E+01 -0.43957277189E+01  0.86467294411E+01  0.10501599891E+02  0.51100000000E-03 0.  1.
         12    1    4    4    0    0 -0.75100946648E+00 -0.72998294430E+01  0.10149309932E+02  0.12524376919E+02  0.00000000000E+00 0. -1.
</event>
<event>
 8    1  0.3776180E-010  0.9118800E+02  0.7816164E-02  0.1184000E+00
        -11   -1    0    0    0    0  0.00000000000E+00  0.00000000000E+00  0.45593999997E+02  0.45594000000E+02  0.51100000000E-03 0. -1.
         11   -1    0    0    0    0 -0.00000000000E+00 -0.00000000000E+00 -0.45593999997E+02  0.45594000000E+02  0.51100000000E-03 0.  1.
         23    2    1    2    0    0  0.35527136788E-14  0.00000000000E+00  0.71054273576E-14  0.91188000000E+02  0.91188000000E+02 0.  0.
    9900012    2    3    3    0    0 -0.14770899915E+02 -0.19508725503E+02 -0.35844876897E+02  0.47787250527E+02  0.19999906454E+02 0.  0.
         12    1    3    3    0    0  0.14770899915E+02  0.19508725503E+02  0.35844876897E+02  0.43400749473E+02  0.00000000000E+00 0. -1.
         11    1    4    4    0    0 -0.23399179833E+01 -0.13154011382E+02 -0.96988445131E+01  0.16509718857E+02  0.51100000000E-03 0. -1.
        -11    1    4    4    0    0 -0.58064604155E+01 -0.80173402433E+01 -0.11901857555E+02  0.15480534250E+02  0.51100000000E-03 0.  1.
         12    1    4    4    0    0 -0.66245215164E+01  0.16626261223E+01 -0.14244174828E+02  0.15796997420E+02  0.00000000000E+00 0. -1.
</event>
<event>
 8    1  0.3776180E-010  0.9118800E+02  0.7816164E-02  0.1184000E+00
        -11   -1    0    0    0    0  0.00000000000E+00  0.00000000000E+00  0.45593999997E+02  0.45594000000E+02  0.51100000000E-03 0. -1.
         11   -1    0    0    0    0 -0.00000000000E+00 -0.00000000000E+00 -0.45593999997E+02  0.45594000000E+02  0.51100000000E-03 0.  1.
         23    2    1    2    0    0  0.00000000000E+00  0.00000000000E+00  0.00000000000E+00  0.91188000000E+02  0.91188000000E+02 0.  0.
    9900012    2    3    3    0    0 -0.20149730745E+02 -0.16590442366E+02  0.34675181851E+02  0.47787278078E+02  0.20000032067E+02 0.  0.
        -12    1    3    3    0    0  0.20149730745E+02  0.16590442366E+02 -0.34675181851E+02  0.43400721922E+02  0.00000000000E+00 0.  1.
         11    1    4    4    0    0 -0.11651379226E+01  0.21851172095E+01  0.25625869380E+01  0.35635846663E+01  0.51100000000E-03 0. -1.
        -11    1    4    4    0    0 -0.91271116070E+01 -0.18022696186E+02  0.18448063175E+02  0.27357865035E+02  0.51100000000E-03 0.  1.
         12    1    4    4    0    0 -0.98574812159E+01 -0.75286338943E+00  0.13664531738E+02  0.16865828376E+02  0.00000000000E+00 0. -1.
</event>
<event>
 8    1  0.3776180E-010  0.9118800E+02  0.7816164E-02  0.1184000E+00
        -11   -1    0    0    0    0  0.00000000000E+00  0.00000000000E+00  0.45593999997E+02  0.45594000000E+02  0.51100000000E-03 0. -1.
         11   -1    0    0    0    0 -0.00000000000E+00 -0.00000000000E+00 -0.45593999997E+02  0.45594000000E+02  0.51100000000E-03 0.  1.
         23    2    1    2    0    0  0.00000000000E+00 -0.22204460493E-15  0.00000000000E+00  0.91188000000E+02  0.91188000000E+02 0.  0.
    9900012    2    3    3    0    0  0.80236247405E+01  0.12912484733E+01 -0.42633049239E+02  0.47787276919E+02  0.20000026782E+02 0.  0.
         12    1    3    3    0    0 -0.80236247405E+01 -0.12912484733E+01  0.42633049239E+02  0.43400723081E+02  0.00000000000E+00 0. -1.
         11    1    4    4    0    0 -0.15956768501E+01  0.71689639597E+01 -0.10907174277E+02  0.13149398459E+02  0.51100000000E-03 0. -1.
        -11    1    4    4    0    0  0.31977492938E+01 -0.61343268202E+00 -0.21099535462E+01  0.38799232505E+01  0.51100000000E-03 0.  1.
        -12    1    4    4    0    0  0.64215522968E+01 -0.52642828044E+01 -0.29615921415E+02  0.30757955209E+02  0.00000000000E+00 0.  1.
</event>
<event>
 8    1  0.3776180E-010  0.9118800E+02  0.7816164E-02  0.1184000E+00
        -11   -1    0    0    0    0  0.00000000000E+00  0.00000000000E+00  0.45593999997E+02  0.45594000000E+02  0.51100000000E-03 0. -1.
         11   -1    0    0    0    0 -0.00000000000E+00 -0.00000000000E+00 -0.45593999997E+02  0.45594000000E+02  0.51100000000E-03 0.  1.
         23    2    1    2    0    0  0.13322676296E-14  0.00000000000E+00  0.00000000000E+00  0.91188000000E+02  0.91188000000E+02 0.  0.
    9900012    2    3    3    0    0  0.24607942764E+01 -0.77319394534E+01 -0.42635490298E+02  0.47787269255E+02  0.19999991843E+02 0.  0.
         12    1    3    3    0    0 -0.24607942764E+01  0.77319394534E+01  0.42635490298E+02  0.43400730745E+02  0.00000000000E+00 0. -1.
         11    1    4    4    0    0  0.49650544062E+01 -0.62348932793E+01 -0.13755755220E+02  0.15898001805E+02  0.51100000000E-03 0. -1.
        -11    1    4    4    0    0  0.48899938404E+01 -0.15205566851E+01 -0.18148798145E+02  0.18857439029E+02  0.51100000000E-03 0.  1.
        -12    1    4    4    0    0 -0.73942539702E+01  0.23510510961E-01 -0.10730936933E+02  0.13031828421E+02  0.00000000000E+00 0.  1.
</event>
<event>
 8    1  0.3776180E-010  0.9118800E+02  0.7816164E-02  0.1184000E+00
        -11   -1    0    0    0    0  0.00000000000E+00  0.00000000000E+00  0.45593999997E+02  0.45594000000E+02  0.51100000000E-03 0.  1.
         11   -1    0    0    0    0 -0.00000000000E+00 -0.00000000000E+00 -0.45593999997E+02  0.45594000000E+02  0.51100000000E-03 0. -1.
         23    2    1    2    0    0 -0.71054273576E-14 -0.35527136788E-14  0.00000000000E+00  0.91188000000E+02  0.91188000000E+02 0.  0.
    9900012    2    3    3    0    0 -0.38299761764E+02 -0.17958342709E+02 -0.97080972694E+01  0.47787297509E+02  0.20000120664E+02 0.  0.
         12    1    3    3    0    0  0.38299761764E+02  0.17958342709E+02  0.97080972694E+01  0.43400702491E+02  0.00000000000E+00 0. -1.
         11    1    4    4    0    0 -0.69271385419E+01 -0.23126473287E+01 -0.35669510330E+01  0.81275288975E+01  0.51100000000E-03 0. -1.
        -11    1    4    4    0    0 -0.26828505005E+02 -0.81026978883E+01  0.14081319850E+01  0.28060741791E+02  0.51100000000E-03 0.  1.
         12    1    4    4    0    0 -0.45441182172E+01 -0.75429974924E+01 -0.75492782214E+01  0.11599026822E+02  0.00000000000E+00 0. -1.
</event>
<event>
 8    1  0.3776180E-010  0.9118800E+02  0.7816164E-02  0.1184000E+00
        -11   -1    0    0    0    0  0.00000000000E+00  0.00000000000E+00  0.45593999997E+02  0.45594000000E+02  0.51100000000E-03 0. -1.
         11   -1    0    0    0    0 -0.00000000000E+00 -0.00000000000E+00 -0.45593999997E+02  0.45594000000E+02  0.51100000000E-03 0.  1.
         23    2    1    2    0    0  0.00000000000E+00 -0.44408920985E-15  0.00000000000E+00  0.91188000000E+02  0.91188000000E+02 0.  0.
    9900012    2    3    3    0    0 -0.96843032528E+01 -0.22852908954E+01 -0.42244702874E+02  0.47787271840E+02  0.20000003626E+02 0.  0.
         12    1    3    3    0    0  0.96843032528E+01  0.22852908954E+01  0.42244702874E+02  0.43400728160E+02  0.00000000000E+00 0. -1.
         11    1    4    4    0    0 -0.19182350272E+01  0.33782482287E+00 -0.10308036993E+00  0.19504812366E+01  0.51100000000E-03 0. -1.
        -11    1    4    4    0    0 -0.12651774110E+02 -0.30084410078E+01 -0.28069025486E+02  0.30935227450E+02  0.51100000000E-03 0.  1.
         12    1    4    4    0    0  0.48857058841E+01  0.38532528956E+00 -0.14072597018E+02  0.14901563153E+02  0.00000000000E+00 0. -1.
</event>
<event>
 8    1  0.3776180E-010  0.9118800E+02  0.7816164E-02  0.1184000E+00
        -11   -1    0    0    0    0  0.00000000000E+00  0.00000000000E+00  0.45593999997E+02  0.45594000000E+02  0.51100000000E-03 0.  1.
         11   -1    0    0    0    0 -0.00000000000E+00 -0.00000000000E+00 -0.45593999997E+02  0.45594000000E+02  0.51100000000E-03 0. -1.
         23    2    1    2    0    0  0.00000000000E+00  0.00000000000E+00 -0.17763568394E-14  0.91188000000E+02  0.91188000000E+02 0.  0.
    9900012    2    3    3    0    0 -0.35977655065E+02  0.20539578737E+02 -0.12936663982E+02  0.47787271508E+02  0.20000002114E+02 0.  0.
        -12    1    3    3    0    0  0.35977655065E+02 -0.20539578737E+02  0.12936663982E+02  0.43400728492E+02  0.00000000000E+00 0.  1.
         11    1    4    4    0    0 -0.21471016574E+01  0.20347987747E+01  0.33508862985E+01  0.44697752546E+01  0.51100000000E-03 0. -1.
        -11    1    4    4    0    0 -0.15068331847E+02  0.63963532328E+01 -0.12943411099E+01  0.16420818448E+02  0.51100000000E-03 0.  1.
         12    1    4    4    0    0 -0.18762221560E+02  0.12108426730E+02 -0.14993209170E+02  0.26896677805E+02  0.00000000000E+00 0. -1.
</event>
<event>
 8    1  0.3776180E-010  0.9118800E+02  0.7816164E-02  0.1184000E+00
        -11   -1    0    0    0    0  0.00000000000E+00  0.00000000000E+00  0.45593999997E+02  0.45594000000E+02  0.51100000000E-03 0. -1.
         11   -1    0    0    0    0 -0.00000000000E+00 -0.00000000000E+00 -0.45593999997E+02  0.45594000000E+02  0.51100000000E-03 0.  1.
         23    2    1    2    0    0  0.00000000000E+00  0.35527136788E-14  0.35527136788E-14  0.91188000000E+02  0.91188000000E+02 0.  0.
    9900012    2    3    3    0    0 -0.21469088874E+02 -0.30027786222E+02 -0.22826163659E+02  0.47787268787E+02  0.19999989707E+02 0.  0.
         12    1    3    3    0    0  0.21469088874E+02  0.30027786222E+02  0.22826163659E+02  0.43400731213E+02  0.00000000000E+00 0. -1.
         11    1    4    4    0    0  0.23673542808E+00 -0.10880358713E+02 -0.56101334485E+01  0.12243849352E+02  0.51100000000E-03 0. -1.
        -11    1    4    4    0    0 -0.14925062689E+02 -0.15959378018E+02 -0.17575371872E+02  0.28041985303E+02  0.51100000000E-03 0.  1.
         12    1    4    4    0    0 -0.67807616129E+01 -0.31880494909E+01  0.35934166230E+00  0.75014341321E+01  0.00000000000E+00 0. -1.
</event>
<event>
 8    1  0.3776180E-010  0.9118800E+02  0.7816164E-02  0.1184000E+00
        -11   -1    0    0    0    0  0.00000000000E+00  0.00000000000E+00  0.45593999997E+02  0.45594000000E+02  0.51100000000E-03 0.  1.
         11   -1    0    0    0    0 -0.00000000000E+00 -0.00000000000E+00 -0.45593999997E+02  0.45594000000E+02  0.51100000000E-03 0. -1.
         23    2    1    2    0    0  0.00000000000E+00  0.00000000000E+00  0.00000000000E+00  0.91188000000E+02  0.91188000000E+02 0.  0.
    9900012    2    3    3    0    0 -0.21020251303E+01 -0.42486604500E+02 -0.86077555304E+01  0.47787268130E+02  0.19999986711E+02 0.  0.
        -12    1    3    3    0    0  0.21020251303E+01  0.42486604500E+02  0.86077555304E+01  0.43400731870E+02  0.00000000000E+00 0.  1.
         11    1    4    4    0    0  0.18032063340E+01 -0.18446413205E+02  0.22728064699E+01  0.18673172273E+02  0.51100000000E-03 0. -1.
        -11    1    4    4    0    0 -0.80014792793E+00  0.87952260988E+00  0.78460483789E+00  0.14245707215E+01  0.51100000000E-03 0.  1.
         12    1    4    4    0    0 -0.31050835364E+01 -0.24919713905E+02 -0.11665166838E+02  0.27689525135E+02  0.00000000000E+00 0. -1.
</event>
<event>
 8    1  0.3776180E-010  0.9118800E+02  0.7816164E-02  0.1184000E+00
        -11   -1    0    0    0    0  0.00000000000E+00  0.00000000000E+00  0.45593999997E+02  0.45594000000E+02  0.51100000000E-03 0. -1.
         11   -1    0    0    0    0 -0.00000000000E+00 -0.00000000000E+00 -0.45593999997E+02  0.45594000000E+02  0.51100000000E-03 0.  1.
         23    2    1    2    0    0  0.00000000000E+00  0.71054273576E-14  0.00000000000E+00  0.91188000000E+02  0.91188000000E+02 0.  0.
    9900012    2    3    3    0    0 -0.52506663895E+01  0.38103558460E+02  0.20104021749E+02  0.47787281627E+02  0.20000048249E+02 0.  0.
        -12    1    3    3    0    0  0.52506663895E+01 -0.38103558460E+02 -0.20104021749E+02  0.43400718373E+02  0.00000000000E+00 0.  1.
         11    1    4    4    0    0 -0.56838588729E+01  0.21284737656E+02  0.67330434134E+01  0.23036496752E+02  0.51100000000E-03 0.  1.
        -11    1    4    4    0    0 -0.34717791649E+01  0.12642505932E+02  0.13777796752E+02  0.19018777311E+02  0.51100000000E-03 0. -1.
         12    1    4    4    0    0  0.39049716484E+01  0.41763148721E+01 -0.40681841585E+00  0.57320075636E+01  0.00000000000E+00 0. -1.
</event>
<event>
 8    1  0.3776180E-010  0.9118800E+02  0.7816164E-02  0.1184000E+00
        -11   -1    0    0    0    0  0.00000000000E+00  0.00000000000E+00  0.45593999997E+02  0.45594000000E+02  0.51100000000E-03 0.  1.
         11   -1    0    0    0    0 -0.00000000000E+00 -0.00000000000E+00 -0.45593999997E+02  0.45594000000E+02  0.51100000000E-03 0. -1.
         23    2    1    2    0    0  0.00000000000E+00  0.00000000000E+00  0.88817841970E-15  0.91188000000E+02  0.91188000000E+02 0.  0.
    9900012    2    3    3    0    0  0.34928471834E+02  0.24965848334E+02  0.63507110679E+01  0.47787271219E+02  0.20000000795E+02 0.  0.
        -12    1    3    3    0    0 -0.34928471834E+02 -0.24965848334E+02 -0.63507110679E+01  0.43400728781E+02  0.00000000000E+00 0.  1.
         11    1    4    4    0    0  0.35112177988E+01 -0.11125987945E+01  0.26369247792E+01  0.45298895197E+01  0.51100000000E-03 0. -1.
        -11    1    4    4    0    0  0.85203204895E+01  0.14488442458E+02  0.50768368332E+01  0.17558049396E+02  0.51100000000E-03 0.  1.
         12    1    4    4    0    0  0.22896933545E+02  0.11590004670E+02 -0.13630505445E+01  0.25699332303E+02  0.00000000000E+00 0. -1.
</event>
<event>
 8    1  0.3776180E-010  0.9118800E+02  0.7816164E-02  0.1184000E+00
        -11   -1    0    0    0    0  0.00000000000E+00  0.00000000000E+00  0.45593999997E+02  0.45594000000E+02  0.51100000000E-03 0. -1.
         11   -1    0    0    0    0 -0.00000000000E+00 -0.00000000000E+00 -0.45593999997E+02  0.45594000000E+02  0.51100000000E-03 0.  1.
         23    2    1    2    0    0 -0.88817841970E-15 -0.17763568394E-14  0.00000000000E+00  0.91188000000E+02  0.91188000000E+02 0.  0.
    9900012    2    3    3    0    0  0.77346663028E+01  0.15299061784E+02 -0.39871506482E+02  0.47787269782E+02  0.19999994245E+02 0.  0.
         12    1    3    3    0    0 -0.77346663028E+01 -0.15299061784E+02  0.39871506482E+02  0.43400730218E+02  0.00000000000E+00 0. -1.
         11    1    4    4    0    0 -0.44637440709E+00  0.20040691206E+01 -0.29961328658E+00  0.20749244647E+01  0.51100000000E-03 0. -1.
        -11    1    4    4    0    0  0.97121401845E+01  0.10957393682E+02 -0.40255389922E+02  0.42835575884E+02  0.51100000000E-03 0.  1.
        -12    1    4    4    0    0 -0.15310994746E+01  0.23375989814E+01  0.68349672640E+00  0.28767694336E+01  0.00000000000E+00 0.  1.
</event>
<event>
 8    1  0.3776180E-010  0.9118800E+02  0.7816164E-02  0.1184000E+00
        -11   -1    0    0    0    0  0.00000000000E+00  0.00000000000E+00  0.45593999997E+02  0.45594000000E+02  0.51100000000E-03 0. -1.
         11   -1    0    0    0    0 -0.00000000000E+00 -0.00000000000E+00 -0.45593999997E+02  0.45594000000E+02  0.51100000000E-03 0.  1.
         23    2    1    2    0    0  0.00000000000E+00  0.00000000000E+00  0.00000000000E+00  0.91188000000E+02  0.91188000000E+02 0.  0.
    9900012    2    3    3    0    0 -0.11583563683E+02 -0.27994508467E+02 -0.31076578688E+02  0.47787248913E+02  0.19999899095E+02 0.  0.
         12    1    3    3    0    0  0.11583563683E+02  0.27994508467E+02  0.31076578688E+02  0.43400751087E+02  0.00000000000E+00 0. -1.
         11    1    4    4    0    0 -0.44891694269E+01 -0.18535550663E+01 -0.49748229547E+01  0.69524939568E+01  0.51100000000E-03 0. -1.
        -11    1    4    4    0    0  0.38015237338E+01 -0.66787148848E+01 -0.18876291161E+01  0.79132773964E+01  0.51100000000E-03 0.  1.
        -12    1    4    4    0    0 -0.10895917990E+02 -0.19462238516E+02 -0.24214126618E+02  0.32921477560E+02  0.00000000000E+00 0.  1.
</event>
<event>
 8    1  0.3776180E-010  0.9118800E+02  0.7816164E-02  0.1184000E+00
        -11   -1    0    0    0    0  0.00000000000E+00  0.00000000000E+00  0.45593999997E+02  0.45594000000E+02  0.51100000000E-03 0. -1.
         11   -1    0    0    0    0 -0.00000000000E+00 -0.00000000000E+00 -0.45593999997E+02  0.45594000000E+02  0.51100000000E-03 0.  1.
         23    2    1    2    0    0  0.00000000000E+00  0.00000000000E+00  0.00000000000E+00  0.91188000000E+02  0.91188000000E+02 0.  0.
    9900012    2    3    3    0    0 -0.39136358134E+01 -0.26679476633E+02 -0.34007537479E+02  0.47787267010E+02  0.19999981603E+02 0.  0.
         12    1    3    3    0    0  0.39136358134E+01  0.26679476633E+02  0.34007537479E+02  0.43400732990E+02  0.00000000000E+00 0. -1.
         11    1    4    4    0    0  0.28337482831E+01 -0.12141649986E+01 -0.90784219076E+01  0.95875998336E+01  0.51100000000E-03 0. -1.
        -11    1    4    4    0    0  0.90063015545E+00  0.94105472561E+00 -0.41844884963E+00  0.13681441351E+01  0.51100000000E-03 0.  1.
        -12    1    4    4    0    0 -0.76480142519E+01 -0.26406366360E+02 -0.24510666722E+02  0.36831523041E+02  0.00000000000E+00 0.  1.
</event>
<event>
 8    1  0.3776180E-010  0.9118800E+02  0.7816164E-02  0.1184000E+00
        -11   -1    0    0    0    0  0.00000000000E+00  0.00000000000E+00  0.45593999997E+02  0.45594000000E+02  0.51100000000E-03 0. -1.
         11   -1    0    0    0    0 -0.00000000000E+00 -0.00000000000E+00 -0.45593999997E+02  0.45594000000E+02  0.51100000000E-03 0.  1.
         23    2    1    2    0    0  0.00000000000E+00  0.00000000000E+00  0.00000000000E+00  0.91188000000E+02  0.91188000000E+02 0.  0.
    9900012    2    3    3    0    0  0.16099326833E+02 -0.79227286626E+01  0.39517911373E+02  0.47787271052E+02  0.20000000035E+02 0.  0.
        -12    1    3    3    0    0 -0.16099326833E+02  0.79227286626E+01 -0.39517911373E+02  0.43400728948E+02  0.00000000000E+00 0.  1.
         11    1    4    4    0    0  0.19802317010E+01 -0.18544948953E+01 -0.48248481673E+00  0.27555871907E+01  0.51100000000E-03 0. -1.
        -11    1    4    4    0    0  0.91699487205E+01  0.27780045931E+01  0.12691254466E+02  0.15901987588E+02  0.51100000000E-03 0.  1.
         12    1    4    4    0    0  0.49491464118E+01 -0.88462383605E+01  0.27309141724E+02  0.29129696274E+02  0.00000000000E+00 0. -1.
</event>
<event>
 8    1  0.3776180E-010  0.9118800E+02  0.7816164E-02  0.1184000E+00
        -11   -1    0    0    0    0  0.00000000000E+00  0.00000000000E+00  0.45593999997E+02  0.45594000000E+02  0.51100000000E-03 0. -1.
         11   -1    0    0    0    0 -0.00000000000E+00 -0.00000000000E+00 -0.45593999997E+02  0.45594000000E+02  0.51100000000E-03 0.  1.
         23    2    1    2    0    0  0.00000000000E+00  0.00000000000E+00  0.71054273576E-14  0.91188000000E+02  0.91188000000E+02 0.  0.
    9900012    2    3    3    0    0 -0.24938989939E+02  0.13550828592E+02  0.32833599289E+02  0.47787269396E+02  0.19999992483E+02 0.  0.
        -12    1    3    3    0    0  0.24938989939E+02 -0.13550828592E+02 -0.32833599289E+02  0.43400730604E+02  0.00000000000E+00 0.  1.
         11    1    4    4    0    0 -0.66423109040E+01  0.29964612619E+01  0.17502030281E+02  0.18958379109E+02  0.51100000000E-03 0. -1.
        -11    1    4    4    0    0 -0.21031307506E+00 -0.22018603684E+01  0.79860642501E+00  0.23516362718E+01  0.51100000000E-03 0.  1.
         12    1    4    4    0    0 -0.18086365960E+02  0.12756227698E+02  0.14532962584E+02  0.26477254015E+02  0.00000000000E+00 0. -1.
</event>
<event>
 8    1  0.3776180E-010  0.9118800E+02  0.7816164E-02  0.1184000E+00
        -11   -1    0    0    0    0  0.00000000000E+00  0.00000000000E+00  0.45593999997E+02  0.45594000000E+02  0.51100000000E-03 0. -1.
         11   -1    0    0    0    0 -0.00000000000E+00 -0.00000000000E+00 -0.45593999997E+02  0.45594000000E+02  0.51100000000E-03 0.  1.
         23    2    1    2    0    0  0.00000000000E+00  0.00000000000E+00  0.35527136788E-14  0.91188000000E+02  0.91188000000E+02 0.  0.
    9900012    2    3    3    0    0 -0.33578666562E+02  0.10027403882E+02 -0.25603665858E+02  0.47787269798E+02  0.19999994319E+02 0.  0.
         12    1    3    3    0    0  0.33578666562E+02 -0.10027403882E+02  0.25603665858E+02  0.43400730202E+02  0.00000000000E+00 0. -1.
         11    1    4    4    0    0 -0.30618668646E+01  0.61651524136E+01 -0.42283640788E+01  0.80785639828E+01  0.51100000000E-03 0.  1.
        -11    1    4    4    0    0 -0.31553382296E+01  0.51012792385E+01 -0.28376912351E+01  0.66356387047E+01  0.51100000000E-03 0. -1.
        -12    1    4    4    0    0 -0.27361461468E+02 -0.12390277704E+01 -0.18537610544E+02  0.33073067111E+02  0.00000000000E+00 0.  1.
</event>
<event>
 8    1  0.3776180E-010  0.9118800E+02  0.7816164E-02  0.1184000E+00
        -11   -1    0    0    0    0  0.00000000000E+00  0.00000000000E+00  0.45593999997E+02  0.45594000000E+02  0.51100000000E-03 0. -1.
         11   -1    0    0    0    0 -0.00000000000E+00 -0.00000000000E+00 -0.45593999997E+02  0.45594000000E+02  0.51100000000E-03 0.  1.
         23    2    1    2    0    0  0.00000000000E+00 -0.35527136788E-14 -0.71054273576E-14  0.91188000000E+02  0.91188000000E+02 0.  0.
    9900012    2    3    3    0    0 -0.83683639225E+01  0.27639585820E+02 -0.32398249304E+02  0.47787276768E+02  0.20000026098E+02 0.  0.
         12    1    3    3    0    0  0.83683639225E+01 -0.27639585820E+02  0.32398249304E+02  0.43400723232E+02  0.00000000000E+00 0. -1.
         11    1    4    4    0    0  0.35044040218E+01  0.80456725310E+01 -0.35825175608E+01  0.94788251570E+01  0.51100000000E-03 0. -1.
        -11    1    4    4    0    0 -0.31096970093E+01  0.13994284252E+02 -0.12834142068E+02  0.19241242426E+02  0.51100000000E-03 0.  1.
         12    1    4    4    0    0 -0.87630709350E+01  0.55996290379E+01 -0.15981589675E+02  0.19067209186E+02  0.00000000000E+00 0. -1.
</event>
<event>
 8    1  0.3776180E-010  0.9118800E+02  0.7816164E-02  0.1184000E+00
        -11   -1    0    0    0    0  0.00000000000E+00  0.00000000000E+00  0.45593999997E+02  0.45594000000E+02  0.51100000000E-03 0. -1.
         11   -1    0    0    0    0 -0.00000000000E+00 -0.00000000000E+00 -0.45593999997E+02  0.45594000000E+02  0.51100000000E-03 0.  1.
         23    2    1    2    0    0  0.00000000000E+00  0.00000000000E+00  0.00000000000E+00  0.91188000000E+02  0.91188000000E+02 0.  0.
    9900012    2    3    3    0    0  0.36821027991E+02 -0.14261638999E+02 -0.18012247499E+02  0.47787268333E+02  0.19999987638E+02 0.  0.
         12    1    3    3    0    0 -0.36821027991E+02  0.14261638999E+02  0.18012247499E+02  0.43400731667E+02  0.00000000000E+00 0. -1.
         11    1    4    4    0    0  0.51529499780E+01 -0.17479609939E+01 -0.53232194218E+01  0.76121564872E+01  0.51100000000E-03 0. -1.
        -11    1    4    4    0    0  0.22987679222E+02 -0.96701632196E+00 -0.41044243842E+01  0.23371239085E+02  0.51100000000E-03 0.  1.
        -12    1    4    4    0    0  0.86803987910E+01 -0.11546661683E+02 -0.85846036932E+01  0.16803872761E+02  0.00000000000E+00 0.  1.
</event>
<event>
 8    1  0.3776180E-010  0.9118800E+02  0.7816164E-02  0.1184000E+00
        -11   -1    0    0    0    0  0.00000000000E+00  0.00000000000E+00  0.45593999997E+02  0.45594000000E+02  0.51100000000E-03 0. -1.
         11   -1    0    0    0    0 -0.00000000000E+00 -0.00000000000E+00 -0.45593999997E+02  0.45594000000E+02  0.51100000000E-03 0.  1.
         23    2    1    2    0    0  0.00000000000E+00  0.00000000000E+00  0.00000000000E+00  0.91188000000E+02  0.91188000000E+02 0.  0.
    9900012    2    3    3    0    0  0.21506672206E+02  0.23699689861E+02  0.29315692003E+02  0.47787285185E+02  0.20000064470E+02 0.  0.
        -12    1    3    3    0    0 -0.21506672206E+02 -0.23699689861E+02 -0.29315692003E+02  0.43400714815E+02  0.00000000000E+00 0.  1.
         11    1    4    4    0    0  0.85321791803E+01  0.16247659038E+01  0.72021037834E+01  0.11283095541E+02  0.51100000000E-03 0. -1.
        -11    1    4    4    0    0  0.15448612795E+02  0.14946895411E+02  0.16142960005E+02  0.26882419492E+02  0.51100000000E-03 0.  1.
        -12    1    4    4    0    0 -0.24741197702E+01  0.71280285457E+01  0.59706282147E+01  0.96217701523E+01  0.00000000000E+00 0.  1.
</event>
<event>
 8    1  0.3776180E-010  0.9118800E+02  0.7816164E-02  0.1184000E+00
        -11   -1    0    0    0    0  0.00000000000E+00  0.00000000000E+00  0.45593999997E+02  0.45594000000E+02  0.51100000000E-03 0. -1.
         11   -1    0    0    0    0 -0.00000000000E+00 -0.00000000000E+00 -0.45593999997E+02  0.45594000000E+02  0.51100000000E-03 0.  1.
         23    2    1    2    0    0  0.35527136788E-14 -0.35527136788E-14  0.35527136788E-14  0.91188000000E+02  0.91188000000E+02 0.  0.
    9900012    2    3    3    0    0  0.27115925935E+02 -0.23371897958E+02  0.24537813676E+02  0.47787270128E+02  0.19999995820E+02 0.  0.
        -12    1    3    3    0    0 -0.27115925935E+02  0.23371897958E+02 -0.24537813676E+02  0.43400729872E+02  0.00000000000E+00 0.  1.
         11    1    4    4    0    0  0.96785190069E+01 -0.50056954151E+01  0.17570769017E+02  0.20675169670E+02  0.51100000000E-03 0. -1.
        -11    1    4    4    0    0  0.10195910249E+02 -0.77730793086E+01  0.62424275973E+01  0.14259917613E+02  0.51100000000E-03 0.  1.
         12    1    4    4    0    0  0.72414966784E+01 -0.10593123234E+02  0.72461706150E+00  0.12852182845E+02  0.00000000000E+00 0. -1.
</event>
<event>
 8    1  0.3776180E-010  0.9118800E+02  0.7816164E-02  0.1184000E+00
        -11   -1    0    0    0    0  0.00000000000E+00  0.00000000000E+00  0.45593999997E+02  0.45594000000E+02  0.51100000000E-03 0. -1.
         11   -1    0    0    0    0 -0.00000000000E+00 -0.00000000000E+00 -0.45593999997E+02  0.45594000000E+02  0.51100000000E-03 0.  1.
         23    2    1    2    0    0 -0.71054273576E-14  0.00000000000E+00  0.00000000000E+00  0.91188000000E+02  0.91188000000E+02 0.  0.
    9900012    2    3    3    0    0  0.35799080059E+02  0.22855395681E+02 -0.89262913250E+01  0.47787286623E+02  0.20000071031E+02 0.  0.
         12    1    3    3    0    0 -0.35799080059E+02 -0.22855395681E+02  0.89262913250E+01  0.43400713377E+02  0.00000000000E+00 0. -1.
         11    1    4    4    0    0  0.28320893719E+00  0.34455761667E+01 -0.27190628121E+01  0.43983525620E+01  0.51100000000E-03 0. -1.
        -11    1    4    4    0    0  0.18335391085E+02  0.44214611432E+01 -0.80668737938E+01  0.20513662227E+02  0.51100000000E-03 0.  1.
         12    1    4    4    0    0  0.17180480036E+02  0.14988358371E+02  0.18596452809E+01  0.22875271835E+02  0.00000000000E+00 0. -1.
</event>
<event>
 8    1  0.3776180E-010  0.9118800E+02  0.7816164E-02  0.1184000E+00
        -11   -1    0    0    0    0  0.00000000000E+00  0.00000000000E+00  0.45593999997E+02  0.45594000000E+02  0.51100000000E-03 0.  1.
         11   -1    0    0    0    0 -0.00000000000E+00 -0.00000000000E+00 -0.45593999997E+02  0.45594000000E+02  0.51100000000E-03 0. -1.
         23    2    1    2    0    0  0.00000000000E+00  0.00000000000E+00  0.00000000000E+00  0.91188000000E+02  0.91188000000E+02 0.  0.
    9900012    2    3    3    0    0  0.16468851277E+02 -0.39702373019E+02  0.60101280951E+01  0.47787272754E+02  0.20000007795E+02 0.  0.
        -12    1    3    3    0    0 -0.16468851277E+02  0.39702373019E+02 -0.60101280951E+01  0.43400727246E+02  0.00000000000E+00 0.  1.
         11    1    4    4    0    0  0.14666786298E+02 -0.13775690184E+02  0.17764676740E+00  0.20122520195E+02  0.51100000000E-03 0. -1.
        -11    1    4    4    0    0 -0.18413737864E+01 -0.15923685516E+01  0.64329977552E+00  0.25179614547E+01  0.51100000000E-03 0.  1.
         12    1    4    4    0    0  0.36434387659E+01 -0.24334314283E+02  0.51891815522E+01  0.25146791105E+02  0.00000000000E+00 0. -1.
</event>
<event>
 8    1  0.3776180E-010  0.9118800E+02  0.7816164E-02  0.1184000E+00
        -11   -1    0    0    0    0  0.00000000000E+00  0.00000000000E+00  0.45593999997E+02  0.45594000000E+02  0.51100000000E-03 0. -1.
         11   -1    0    0    0    0 -0.00000000000E+00 -0.00000000000E+00 -0.45593999997E+02  0.45594000000E+02  0.51100000000E-03 0.  1.
         23    2    1    2    0    0  0.00000000000E+00  0.00000000000E+00  0.00000000000E+00  0.91188000000E+02  0.91188000000E+02 0.  0.
    9900012    2    3    3    0    0  0.39362574063E+02 -0.72878269911E+01 -0.16766002957E+02  0.47787268275E+02  0.19999987375E+02 0.  0.
         12    1    3    3    0    0 -0.39362574063E+02  0.72878269911E+01  0.16766002957E+02  0.43400731725E+02  0.00000000000E+00 0. -1.
         11    1    4    4    0    0  0.15905102091E+02  0.31905951951E+00  0.22040630066E+01  0.16060260444E+02  0.51100000000E-03 0. -1.
        -11    1    4    4    0    0  0.71207192480E+01 -0.22906237129E+01 -0.23934656389E+01  0.78536792415E+01  0.51100000000E-03 0.  1.
        -12    1    4    4    0    0  0.16336752723E+02 -0.53162627977E+01 -0.16576600324E+02  0.23873328590E+02  0.00000000000E+00 0.  1.
</event>
<event>
 8    1  0.3776180E-010  0.9118800E+02  0.7816164E-02  0.1184000E+00
        -11   -1    0    0    0    0  0.00000000000E+00  0.00000000000E+00  0.45593999997E+02  0.45594000000E+02  0.51100000000E-03 0. -1.
         11   -1    0    0    0    0 -0.00000000000E+00 -0.00000000000E+00 -0.45593999997E+02  0.45594000000E+02  0.51100000000E-03 0.  1.
         23    2    1    2    0    0  0.00000000000E+00  0.00000000000E+00  0.00000000000E+00  0.91188000000E+02  0.91188000000E+02 0.  0.
    9900012    2    3    3    0    0  0.30153470462E+02 -0.11410372441E+02  0.29055034633E+02  0.47787269388E+02  0.19999992447E+02 0.  0.
        -12    1    3    3    0    0 -0.30153470462E+02  0.11410372441E+02 -0.29055034633E+02  0.43400730612E+02  0.00000000000E+00 0.  1.
         11    1    4    4    0    0  0.10066089108E+01  0.96810613513E+00  0.10797810613E+01  0.17653380383E+01  0.51100000000E-03 0. -1.
        -11    1    4    4    0    0  0.12204713045E+02 -0.14794692630E+02  0.12087458030E+02  0.22670346103E+02  0.51100000000E-03 0.  1.
        -12    1    4    4    0    0  0.16942148506E+02  0.24162140541E+01  0.15887795542E+02  0.23351585247E+02  0.00000000000E+00 0.  1.
</event>
<event>
 8    1  0.3776180E-010  0.9118800E+02  0.7816164E-02  0.1184000E+00
        -11   -1    0    0    0    0  0.00000000000E+00  0.00000000000E+00  0.45593999997E+02  0.45594000000E+02  0.51100000000E-03 0.  1.
         11   -1    0    0    0    0 -0.00000000000E+00 -0.00000000000E+00 -0.45593999997E+02  0.45594000000E+02  0.51100000000E-03 0. -1.
         23    2    1    2    0    0  0.00000000000E+00  0.35527136788E-14  0.00000000000E+00  0.91188000000E+02  0.91188000000E+02 0.  0.
    9900012    2    3    3    0    0 -0.32844731237E+02 -0.27611587127E+02 -0.65151590130E+01  0.47787269469E+02  0.19999992815E+02 0.  0.
         12    1    3    3    0    0  0.32844731237E+02  0.27611587127E+02  0.65151590130E+01  0.43400730531E+02  0.00000000000E+00 0. -1.
         11    1    4    4    0    0 -0.61290963073E+01 -0.97276829883E+01 -0.90186883530E+01  0.14612678664E+02  0.51100000000E-03 0.  1.
        -11    1    4    4    0    0 -0.15431867377E+01 -0.28994840089E+01 -0.14938482257E+01  0.36083258733E+01  0.51100000000E-03 0. -1.
        -12    1    4    4    0    0 -0.25172448191E+02 -0.14984420130E+02  0.39973775657E+01  0.29566264931E+02  0.00000000000E+00 0.  1.
</event>
<event>
 8    1  0.3776180E-010  0.9118800E+02  0.7816164E-02  0.1184000E+00
        -11   -1    0    0    0    0  0.00000000000E+00  0.00000000000E+00  0.45593999997E+02  0.45594000000E+02  0.51100000000E-03 0. -1.
         11   -1    0    0    0    0 -0.00000000000E+00 -0.00000000000E+00 -0.45593999997E+02  0.45594000000E+02  0.51100000000E-03 0.  1.
         23    2    1    2    0    0  0.00000000000E+00 -0.17763568394E-14 -0.17763568394E-14  0.91188000000E+02  0.91188000000E+02 0.  0.
    9900012    2    3    3    0    0  0.39169390530E+02 -0.12456706380E+02 -0.13936043231E+02  0.47787262803E+02  0.19999962424E+02 0.  0.
         12    1    3    3    0    0 -0.39169390530E+02  0.12456706380E+02  0.13936043231E+02  0.43400737197E+02  0.00000000000E+00 0. -1.
         11    1    4    4    0    0  0.12515528608E+02 -0.91443202087E+01 -0.20603434021E+01  0.15636561758E+02  0.51100000000E-03 0. -1.
        -11    1    4    4    0    0  0.20113384752E+02 -0.41022914534E+01 -0.24818152691E+01  0.20676954530E+02  0.51100000000E-03 0.  1.
         12    1    4    4    0    0  0.65404771702E+01  0.78990528253E+00 -0.93938845595E+01  0.11473746515E+02  0.00000000000E+00 0. -1.
</event>
<event>
 8    1  0.3776180E-010  0.9118800E+02  0.7816164E-02  0.1184000E+00
        -11   -1    0    0    0    0  0.00000000000E+00  0.00000000000E+00  0.45593999997E+02  0.45594000000E+02  0.51100000000E-03 0. -1.
         11   -1    0    0    0    0 -0.00000000000E+00 -0.00000000000E+00 -0.45593999997E+02  0.45594000000E+02  0.51100000000E-03 0.  1.
         23    2    1    2    0    0  0.71054273576E-14  0.00000000000E+00  0.35527136788E-14  0.91188000000E+02  0.91188000000E+02 0.  0.
    9900012    2    3    3    0    0 -0.38490555172E+02 -0.53183905957E+01 -0.19334296642E+02  0.47787272556E+02  0.20000006894E+02 0.  0.
         12    1    3    3    0    0  0.38490555172E+02  0.53183905957E+01  0.19334296642E+02  0.43400727444E+02  0.00000000000E+00 0. -1.
         11    1    4    4    0    0 -0.33187288350E+02 -0.65184729114E+01 -0.13511905321E+02  0.36420573620E+02  0.51100000000E-03 0. -1.
        -11    1    4    4    0    0 -0.66324779672E+01  0.16434757960E+01 -0.68141288456E+01  0.96500325836E+01  0.51100000000E-03 0.  1.
         12    1    4    4    0    0  0.13292111457E+01 -0.44339348032E+00  0.99173752480E+00  0.17166663527E+01  0.00000000000E+00 0. -1.
</event>
<event>
 8    1  0.3776180E-010  0.9118800E+02  0.7816164E-02  0.1184000E+00
        -11   -1    0    0    0    0  0.00000000000E+00  0.00000000000E+00  0.45593999997E+02  0.45594000000E+02  0.51100000000E-03 0. -1.
         11   -1    0    0    0    0 -0.00000000000E+00 -0.00000000000E+00 -0.45593999997E+02  0.45594000000E+02  0.51100000000E-03 0.  1.
         23    2    1    2    0    0  0.00000000000E+00  0.00000000000E+00  0.71054273576E-14  0.91188000000E+02  0.91188000000E+02 0.  0.
    9900012    2    3    3    0    0  0.57886037141E+01 -0.33529689065E+02 -0.26942077479E+02  0.47787268202E+02  0.19999987040E+02 0.  0.
         12    1    3    3    0    0 -0.57886037141E+01  0.33529689065E+02  0.26942077479E+02  0.43400731798E+02  0.00000000000E+00 0. -1.
         11    1    4    4    0    0  0.79164654821E+01 -0.10917866209E+02 -0.69711775434E+01  0.15181157561E+02  0.51100000000E-03 0. -1.
        -11    1    4    4    0    0  0.44218567949E+01 -0.14803502931E+02 -0.10392571439E+02  0.18619937108E+02  0.51100000000E-03 0.  1.
         12    1    4    4    0    0 -0.65497185629E+01 -0.78083199250E+01 -0.95783284960E+01  0.13986173533E+02  0.00000000000E+00 0. -1.
</event>
<event>
 8    1  0.3776180E-010  0.9118800E+02  0.7816164E-02  0.1184000E+00
        -11   -1    0    0    0    0  0.00000000000E+00  0.00000000000E+00  0.45593999997E+02  0.45594000000E+02  0.51100000000E-03 0. -1.
         11   -1    0    0    0    0 -0.00000000000E+00 -0.00000000000E+00 -0.45593999997E+02  0.45594000000E+02  0.51100000000E-03 0.  1.
         23    2    1    2    0    0  0.00000000000E+00  0.00000000000E+00  0.35527136788E-14  0.91188000000E+02  0.91188000000E+02 0.  0.
    9900012    2    3    3    0    0  0.98685830566E+01 -0.30968032120E+02  0.28761344042E+02  0.47787275858E+02  0.20000021946E+02 0.  0.
        -12    1    3    3    0    0 -0.98685830566E+01  0.30968032120E+02 -0.28761344042E+02  0.43400724142E+02  0.00000000000E+00 0.  1.
         11    1    4    4    0    0  0.88631424178E+01 -0.61492843504E+01  0.66106042039E+01  0.12651840963E+02  0.51100000000E-03 0. -1.
        -11    1    4    4    0    0  0.10159996678E+01 -0.28683414096E+01  0.91070089396E+01  0.96019399005E+01  0.51100000000E-03 0.  1.
        -12    1    4    4    0    0 -0.10559028977E-01 -0.21950406360E+02  0.13043730899E+02  0.25533494995E+02  0.00000000000E+00 0.  1.
</event>
<event>
 8    1  0.3776180E-010  0.9118800E+02  0.7816164E-02  0.1184000E+00
        -11   -1    0    0    0    0  0.00000000000E+00  0.00000000000E+00  0.45593999997E+02  0.45594000000E+02  0.51100000000E-03 0. -1.
         11   -1    0    0    0    0 -0.00000000000E+00 -0.00000000000E+00 -0.45593999997E+02  0.45594000000E+02  0.51100000000E-03 0.  1.
         23    2    1    2    0    0  0.44408920985E-15 -0.88817841970E-15  0.00000000000E+00  0.91188000000E+02  0.91188000000E+02 0.  0.
    9900012    2    3    3    0    0  0.25564078806E+01  0.61295608558E+01 -0.42889581785E+02  0.47787274623E+02  0.20000016316E+02 0.  0.
         12    1    3    3    0    0 -0.25564078806E+01 -0.61295608558E+01  0.42889581785E+02  0.43400725377E+02  0.00000000000E+00 0. -1.
         11    1    4    4    0    0  0.31297694388E+01 -0.15122141060E+01 -0.18757216514E+01  0.39497569820E+01  0.51100000000E-03 0. -1.
        -11    1    4    4    0    0 -0.60891607818E+01  0.31301069888E+01 -0.10742936856E+02  0.12739157795E+02  0.51100000000E-03 0.  1.
        -12    1    4    4    0    0  0.55157992236E+01  0.45116679730E+01 -0.30270923278E+02  0.31098359846E+02  0.00000000000E+00 0.  1.
</event>
<event>
 8    1  0.3776180E-010  0.9118800E+02  0.7816164E-02  0.1184000E+00
        -11   -1    0    0    0    0  0.00000000000E+00  0.00000000000E+00  0.45593999997E+02  0.45594000000E+02  0.51100000000E-03 0. -1.
         11   -1    0    0    0    0 -0.00000000000E+00 -0.00000000000E+00 -0.45593999997E+02  0.45594000000E+02  0.51100000000E-03 0.  1.
         23    2    1    2    0    0  0.00000000000E+00 -0.71054273576E-14 -0.17763568394E-14  0.91188000000E+02  0.91188000000E+02 0.  0.
    9900012    2    3    3    0    0 -0.50511672183E+01  0.41199622555E+02  0.12676768897E+02  0.47787266612E+02  0.19999979791E+02 0.  0.
        -12    1    3    3    0    0  0.50511672183E+01 -0.41199622555E+02 -0.12676768897E+02  0.43400733388E+02  0.00000000000E+00 0.  1.
         11    1    4    4    0    0  0.65544829931E+00  0.60122654460E+01 -0.31710513091E+01  0.68288004021E+01  0.51100000000E-03 0. -1.
        -11    1    4    4    0    0  0.24117013254E+01  0.98784897141E+00  0.13627836892E+01  0.29409740763E+01  0.51100000000E-03 0.  1.
         12    1    4    4    0    0 -0.81183168430E+01  0.34199508138E+02  0.14485036517E+02  0.38017492133E+02  0.00000000000E+00 0. -1.
</event>
<event>
 8    1  0.3776180E-010  0.9118800E+02  0.7816164E-02  0.1184000E+00
        -11   -1    0    0    0    0  0.00000000000E+00  0.00000000000E+00  0.45593999997E+02  0.45594000000E+02  0.51100000000E-03 0. -1.
         11   -1    0    0    0    0 -0.00000000000E+00 -0.00000000000E+00 -0.45593999997E+02  0.45594000000E+02  0.51100000000E-03 0.  1.
         23    2    1    2    0    0  0.00000000000E+00  0.00000000000E+00  0.00000000000E+00  0.91188000000E+02  0.91188000000E+02 0.  0.
    9900012    2    3    3    0    0  0.34073791268E+02 -0.10893455876E+02  0.24575042720E+02  0.47787270087E+02  0.19999995635E+02 0.  0.
        -12    1    3    3    0    0 -0.34073791268E+02  0.10893455876E+02 -0.24575042720E+02  0.43400729913E+02  0.00000000000E+00 0.  1.
         11    1    4    4    0    0  0.70697027318E+01  0.93409611744E+00  0.12985716239E+02  0.14814926890E+02  0.51100000000E-03 0. -1.
        -11    1    4    4    0    0 -0.24251036408E+00  0.19270378934E+00 -0.69270478927E+00  0.75880578102E+00  0.51100000000E-03 0.  1.
        -12    1    4    4    0    0  0.27246598900E+02 -0.12020255783E+02  0.12282031270E+02  0.32213537416E+02  0.00000000000E+00 0.  1.
</event>
<event>
 8    1  0.3776180E-010  0.9118800E+02  0.7816164E-02  0.1184000E+00
        -11   -1    0    0    0    0  0.00000000000E+00  0.00000000000E+00  0.45593999997E+02  0.45594000000E+02  0.51100000000E-03 0. -1.
         11   -1    0    0    0    0 -0.00000000000E+00 -0.00000000000E+00 -0.45593999997E+02  0.45594000000E+02  0.51100000000E-03 0.  1.
         23    2    1    2    0    0  0.15543122345E-14 -0.35527136788E-14  0.00000000000E+00  0.91188000000E+02  0.91188000000E+02 0.  0.
    9900012    2    3    3    0    0  0.10368712130E+01 -0.26300292784E+02 -0.34508587538E+02  0.47787272860E+02  0.20000008277E+02 0.  0.
         12    1    3    3    0    0 -0.10368712130E+01  0.26300292784E+02  0.34508587538E+02  0.43400727140E+02  0.00000000000E+00 0. -1.
         11    1    4    4    0    0  0.29959793264E+00 -0.70180792256E+00  0.23219793688E+00  0.79762737191E+00  0.51100000000E-03 0. -1.
        -11    1    4    4    0    0  0.52116975549E+01 -0.14090443441E+02 -0.30385720595E+02  0.33896819970E+02  0.51100000000E-03 0.  1.
         12    1    4    4    0    0 -0.44744242745E+01 -0.11508041421E+02 -0.43550648800E+01  0.13092825518E+02  0.00000000000E+00 0. -1.
</event>
<event>
 8    1  0.3776180E-010  0.9118800E+02  0.7816164E-02  0.1184000E+00
        -11   -1    0    0    0    0  0.00000000000E+00  0.00000000000E+00  0.45593999997E+02  0.45594000000E+02  0.51100000000E-03 0. -1.
         11   -1    0    0    0    0 -0.00000000000E+00 -0.00000000000E+00 -0.45593999997E+02  0.45594000000E+02  0.51100000000E-03 0.  1.
         23    2    1    2    0    0 -0.17763568394E-14  0.00000000000E+00  0.00000000000E+00  0.91188000000E+02  0.91188000000E+02 0.  0.
    9900012    2    3    3    0    0 -0.13458744775E+02 -0.19127822577E+02 -0.36559704347E+02  0.47787269714E+02  0.19999993933E+02 0.  0.
         12    1    3    3    0    0  0.13458744775E+02  0.19127822577E+02  0.36559704347E+02  0.43400730286E+02  0.00000000000E+00 0. -1.
         11    1    4    4    0    0 -0.91656809934E+01 -0.12086963162E+02 -0.23940695511E+02  0.28341864589E+02  0.51100000000E-03 0. -1.
        -11    1    4    4    0    0 -0.13364659017E+01 -0.10284710560E+02 -0.94614825879E+01  0.14038556387E+02  0.51100000000E-03 0.  1.
         12    1    4    4    0    0 -0.29565978798E+01  0.32438511449E+01 -0.31575262478E+01  0.54068487383E+01  0.00000000000E+00 0. -1.
</event>
<event>
 8    1  0.3776180E-010  0.9118800E+02  0.7816164E-02  0.1184000E+00
        -11   -1    0    0    0    0  0.00000000000E+00  0.00000000000E+00  0.45593999997E+02  0.45594000000E+02  0.51100000000E-03 0. -1.
         11   -1    0    0    0    0 -0.00000000000E+00 -0.00000000000E+00 -0.45593999997E+02  0.45594000000E+02  0.51100000000E-03 0.  1.
         23    2    1    2    0    0  0.00000000000E+00  0.00000000000E+00  0.71054273576E-14  0.91188000000E+02  0.91188000000E+02 0.  0.
    9900012    2    3    3    0    0 -0.18561406996E+02 -0.20909829090E+02  0.33194529500E+02  0.47787267622E+02  0.19999984396E+02 0.  0.
        -12    1    3    3    0    0  0.18561406996E+02  0.20909829090E+02 -0.33194529500E+02  0.43400732378E+02  0.00000000000E+00 0.  1.
         11    1    4    4    0    0 -0.12494304832E+02 -0.14873374671E+02  0.17980655051E+02  0.26469395227E+02  0.51100000000E-03 0. -1.
        -11    1    4    4    0    0 -0.31681459899E+01 -0.72065188346E+01  0.25515587271E+01  0.82753558791E+01  0.51100000000E-03 0.  1.
        -12    1    4    4    0    0 -0.28989561733E+01  0.11700644155E+01  0.12662315722E+02  0.13042516516E+02  0.00000000000E+00 0.  1.
</event>
<event>
 8    1  0.3776180E-010  0.9118800E+02  0.7816164E-02  0.1184000E+00
        -11   -1    0    0    0    0  0.00000000000E+00  0.00000000000E+00  0.45593999997E+02  0.45594000000E+02  0.51100000000E-03 0. -1.
         11   -1    0    0    0    0 -0.00000000000E+00 -0.00000000000E+00 -0.45593999997E+02  0.45594000000E+02  0.51100000000E-03 0.  1.
         23    2    1    2    0    0  0.00000000000E+00 -0.71054273576E-14  0.00000000000E+00  0.91188000000E+02  0.91188000000E+02 0.  0.
    9900012    2    3    3    0    0 -0.87371082017E+01  0.36959792997E+02 -0.21006190470E+02  0.47787269636E+02  0.19999993577E+02 0.  0.
         12    1    3    3    0    0  0.87371082017E+01 -0.36959792997E+02  0.21006190470E+02  0.43400730364E+02  0.00000000000E+00 0. -1.
         11    1    4    4    0    0 -0.46445381963E+01  0.24602258533E+02 -0.13052147311E+02  0.28234755350E+02  0.51100000000E-03 0. -1.
        -11    1    4    4    0    0 -0.44431620087E+01  0.12131167278E+02 -0.14108804653E+01  0.12996056791E+02  0.51100000000E-03 0.  1.
        -12    1    4    4    0    0  0.35059200335E+00  0.22636718658E+00 -0.65431626936E+01  0.65564574955E+01  0.00000000000E+00 0.  1.
</event>
<event>
 8    1  0.3776180E-010  0.9118800E+02  0.7816164E-02  0.1184000E+00
        -11   -1    0    0    0    0  0.00000000000E+00  0.00000000000E+00  0.45593999997E+02  0.45594000000E+02  0.51100000000E-03 0. -1.
         11   -1    0    0    0    0 -0.00000000000E+00 -0.00000000000E+00 -0.45593999997E+02  0.45594000000E+02  0.51100000000E-03 0.  1.
         23    2    1    2    0    0 -0.44408920985E-15  0.88817841970E-15 -0.71054273576E-14  0.91188000000E+02  0.91188000000E+02 0.  0.
    9900012    2    3    3    0    0 -0.21758022753E+01 -0.62157060616E+01 -0.42898192175E+02  0.47787262572E+02  0.19999961370E+02 0.  0.
         12    1    3    3    0    0  0.21758022753E+01  0.62157060616E+01  0.42898192175E+02  0.43400737428E+02  0.00000000000E+00 0. -1.
         11    1    4    4    0    0  0.44028974017E+01  0.32845286062E-01 -0.56766367709E+01  0.71840649797E+01  0.51100000000E-03 0. -1.
        -11    1    4    4    0    0  0.57987055735E+00  0.27695521803E+01 -0.17812934400E+02  0.18036277370E+02  0.51100000000E-03 0.  1.
        -12    1    4    4    0    0 -0.71585702344E+01 -0.90181035279E+01 -0.19408621004E+02  0.22566920222E+02  0.00000000000E+00 0.  1.
</event>
<event>
 8    1  0.3776180E-010  0.9118800E+02  0.7816164E-02  0.1184000E+00
        -11   -1    0    0    0    0  0.00000000000E+00  0.00000000000E+00  0.45593999997E+02  0.45594000000E+02  0.51100000000E-03 0. -1.
         11   -1    0    0    0    0 -0.00000000000E+00 -0.00000000000E+00 -0.45593999997E+02  0.45594000000E+02  0.51100000000E-03 0.  1.
         23    2    1    2    0    0  0.00000000000E+00  0.00000000000E+00  0.71054273576E-14  0.91188000000E+02  0.91188000000E+02 0.  0.
    9900012    2    3    3    0    0  0.91254738308E+01 -0.16159142345E+02  0.39233035815E+02  0.47787271283E+02  0.20000001086E+02 0.  0.
        -12    1    3    3    0    0 -0.91254738308E+01  0.16159142345E+02 -0.39233035815E+02  0.43400728717E+02  0.00000000000E+00 0.  1.
         11    1    4    4    0    0  0.48025494884E+01 -0.83757143853E+00 -0.10331795097E+00  0.48761339567E+01  0.51100000000E-03 0. -1.
        -11    1    4    4    0    0  0.29246871371E+01 -0.15884771304E+01  0.83632561650E+01  0.90011726117E+01  0.51100000000E-03 0.  1.
        -12    1    4    4    0    0  0.13982372053E+01 -0.13733093776E+02  0.30973097601E+02  0.33909964714E+02  0.00000000000E+00 0.  1.
</event>
<event>
 8    1  0.3776180E-010  0.9118800E+02  0.7816164E-02  0.1184000E+00
        -11   -1    0    0    0    0  0.00000000000E+00  0.00000000000E+00  0.45593999997E+02  0.45594000000E+02  0.51100000000E-03 0. -1.
         11   -1    0    0    0    0 -0.00000000000E+00 -0.00000000000E+00 -0.45593999997E+02  0.45594000000E+02  0.51100000000E-03 0.  1.
         23    2    1    2    0    0  0.00000000000E+00  0.00000000000E+00  0.00000000000E+00  0.91188000000E+02  0.91188000000E+02 0.  0.
    9900012    2    3    3    0    0 -0.28409210663E+02  0.42691555567E+01 -0.32531740571E+02  0.47787273229E+02  0.20000009962E+02 0.  0.
         12    1    3    3    0    0  0.28409210663E+02 -0.42691555567E+01  0.32531740571E+02  0.43400726771E+02  0.00000000000E+00 0. -1.
         11    1    4    4    0    0 -0.10838966631E+02  0.31086453363E+01 -0.63791972456E+01  0.12955347591E+02  0.51100000000E-03 0.  1.
        -11    1    4    4    0    0 -0.13619327631E+02  0.40867960891E+00 -0.71093405905E+01  0.15368663834E+02  0.51100000000E-03 0. -1.
        -12    1    4    4    0    0 -0.39509164015E+01  0.75183061150E+00 -0.19043202734E+02  0.19463261804E+02  0.00000000000E+00 0.  1.
</event>
<event>
 8    1  0.3776180E-010  0.9118800E+02  0.7816164E-02  0.1184000E+00
        -11   -1    0    0    0    0  0.00000000000E+00  0.00000000000E+00  0.45593999997E+02  0.45594000000E+02  0.51100000000E-03 0. -1.
         11   -1    0    0    0    0 -0.00000000000E+00 -0.00000000000E+00 -0.45593999997E+02  0.45594000000E+02  0.51100000000E-03 0.  1.
         23    2    1    2    0    0  0.17763568394E-14  0.00000000000E+00 -0.17763568394E-14  0.91188000000E+02  0.91188000000E+02 0.  0.
    9900012    2    3    3    0    0 -0.14467939212E+02 -0.39078230296E+02  0.12132362526E+02  0.47787267650E+02  0.19999984523E+02 0.  0.
        -12    1    3    3    0    0  0.14467939212E+02  0.39078230296E+02 -0.12132362526E+02  0.43400732350E+02  0.00000000000E+00 0.  1.
         11    1    4    4    0    0 -0.95521835843E+01 -0.24905648428E+02  0.12065243214E+02  0.29276366389E+02  0.51100000000E-03 0.  1.
        -11    1    4    4    0    0 -0.90581959163E-01 -0.12427515312E+02  0.27386799398E+01  0.12726024910E+02  0.51100000000E-03 0. -1.
        -12    1    4    4    0    0 -0.48251736683E+01 -0.17450665552E+01 -0.26715606279E+01  0.57848763513E+01  0.00000000000E+00 0.  1.
</event>
<event>
 8    1  0.3776180E-010  0.9118800E+02  0.7816164E-02  0.1184000E+00
        -11   -1    0    0    0    0  0.00000000000E+00  0.00000000000E+00  0.45593999997E+02  0.45594000000E+02  0.51100000000E-03 0. -1.
         11   -1    0    0    0    0 -0.00000000000E+00 -0.00000000000E+00 -0.45593999997E+02  0.45594000000E+02  0.51100000000E-03 0.  1.
         23    2    1    2    0    0  0.00000000000E+00  0.00000000000E+00  0.00000000000E+00  0.91188000000E+02  0.91188000000E+02 0.  0.
    9900012    2    3    3    0    0 -0.25536654307E+02  0.18468713623E+02  0.29839724195E+02  0.47787271480E+02  0.20000001985E+02 0.  0.
        -12    1    3    3    0    0  0.25536654307E+02 -0.18468713623E+02 -0.29839724195E+02  0.43400728520E+02  0.00000000000E+00 0.  1.
         11    1    4    4    0    0 -0.44721215913E+01  0.66045594493E+01  0.50802395625E+01  0.94566860643E+01  0.51100000000E-03 0. -1.
        -11    1    4    4    0    0 -0.25627849645E+01  0.55199485117E+01 -0.80835711671E+00  0.61393110228E+01  0.51100000000E-03 0.  1.
         12    1    4    4    0    0 -0.18501747751E+02  0.63442056618E+01  0.25567841749E+02  0.32191274393E+02  0.00000000000E+00 0. -1.
</event>
<event>
 8    1  0.3776180E-010  0.9118800E+02  0.7816164E-02  0.1184000E+00
        -11   -1    0    0    0    0  0.00000000000E+00  0.00000000000E+00  0.45593999997E+02  0.45594000000E+02  0.51100000000E-03 0. -1.
         11   -1    0    0    0    0 -0.00000000000E+00 -0.00000000000E+00 -0.45593999997E+02  0.45594000000E+02  0.51100000000E-03 0.  1.
         23    2    1    2    0    0  0.00000000000E+00  0.88817841970E-15  0.00000000000E+00  0.91188000000E+02  0.91188000000E+02 0.  0.
    9900012    2    3    3    0    0 -0.14179497000E+02  0.45641843352E+01 -0.40764361444E+02  0.47787273304E+02  0.20000010300E+02 0.  0.
         12    1    3    3    0    0  0.14179497000E+02 -0.45641843352E+01  0.40764361444E+02  0.43400726696E+02  0.00000000000E+00 0. -1.
         11    1    4    4    0    0 -0.11042597647E-01  0.24919503692E+01  0.36321740405E-02  0.24919775351E+01  0.51100000000E-03 0. -1.
        -11    1    4    4    0    0 -0.65636377326E+01  0.77841637664E+01 -0.22621033914E+02  0.24806969210E+02  0.51100000000E-03 0.  1.
        -12    1    4    4    0    0 -0.76048166695E+01 -0.57119298004E+01 -0.18146959705E+02  0.20488326558E+02  0.00000000000E+00 0.  1.
</event>
<event>
 8    1  0.3997854E-010  0.9118800E+02  0.7816164E-02  0.1184000E+00
        -11   -1    0    0    0    0  0.00000000000E+00  0.00000000000E+00  0.45593999997E+02  0.45594000000E+02  0.51100000000E-03 0. -1.
         11   -1    0    0    0    0 -0.00000000000E+00 -0.00000000000E+00 -0.45593999997E+02  0.45594000000E+02  0.51100000000E-03 0.  1.
         23    2    1    2    0    0  0.88817841970E-15 -0.17763568394E-14  0.71054273576E-14  0.91188000000E+02  0.91188000000E+02 0.  0.
    9900012    2    3    3    0    0  0.47128037065E+01 -0.13774765023E+02  0.40886043827E+02  0.47787271319E+02  0.20000001251E+02 0.  0.
        -12    1    3    3    0    0 -0.47128037065E+01  0.13774765023E+02 -0.40886043827E+02  0.43400728681E+02  0.00000000000E+00 0.  1.
         11    1    4    4    0    0 -0.43911435288E+01 -0.73429345885E+01  0.17633287139E+02  0.19599327679E+02  0.51100000000E-03 0. -1.
        -11    1    4    4    0    0  0.35090053793E+01 -0.45243753359E+01  0.21154140625E+02  0.21915308731E+02  0.51100000000E-03 0.  1.
        -12    1    4    4    0    0  0.55949418560E+01 -0.19074550982E+01  0.20986160630E+01  0.62726349092E+01  0.00000000000E+00 0.  1.
</event>
<event>
 8    1  0.3776180E-010  0.9118800E+02  0.7816164E-02  0.1184000E+00
        -11   -1    0    0    0    0  0.00000000000E+00  0.00000000000E+00  0.45593999997E+02  0.45594000000E+02  0.51100000000E-03 0. -1.
         11   -1    0    0    0    0 -0.00000000000E+00 -0.00000000000E+00 -0.45593999997E+02  0.45594000000E+02  0.51100000000E-03 0.  1.
         23    2    1    2    0    0  0.71054273576E-14 -0.88817841970E-15 -0.17763568394E-14  0.91188000000E+02  0.91188000000E+02 0.  0.
    9900012    2    3    3    0    0 -0.41084495499E+02  0.67755532119E+01  0.12238493809E+02  0.47787255509E+02  0.19999929166E+02 0.  0.
        -12    1    3    3    0    0  0.41084495499E+02 -0.67755532119E+01 -0.12238493809E+02  0.43400744491E+02  0.00000000000E+00 0.  1.
         11    1    4    4    0    0 -0.10760713962E+01  0.31214150876E+01 -0.32881351136E+01  0.46597204407E+01  0.51100000000E-03 0.  1.
        -11    1    4    4    0    0 -0.15059273734E+02  0.13711384542E+01  0.69973362637E+01  0.16662066532E+02  0.51100000000E-03 0. -1.
        -12    1    4    4    0    0 -0.24949150368E+02  0.22829996700E+01  0.85292926586E+01  0.26465468536E+02  0.00000000000E+00 0.  1.
</event>
<event>
 8    1  0.3776180E-010  0.9118800E+02  0.7816164E-02  0.1184000E+00
        -11   -1    0    0    0    0  0.00000000000E+00  0.00000000000E+00  0.45593999997E+02  0.45594000000E+02  0.51100000000E-03 0. -1.
         11   -1    0    0    0    0 -0.00000000000E+00 -0.00000000000E+00 -0.45593999997E+02  0.45594000000E+02  0.51100000000E-03 0.  1.
         23    2    1    2    0    0  0.17763568394E-14  0.00000000000E+00 -0.35527136788E-14  0.91188000000E+02  0.91188000000E+02 0.  0.
    9900012    2    3    3    0    0  0.14082216384E+02 -0.27928517250E+02 -0.30088416056E+02  0.47787266425E+02  0.19999978939E+02 0.  0.
         12    1    3    3    0    0 -0.14082216384E+02  0.27928517250E+02  0.30088416056E+02  0.43400733575E+02  0.00000000000E+00 0. -1.
         11    1    4    4    0    0  0.17495618239E+01 -0.43501552093E+01 -0.84304530097E+01  0.96466240277E+01  0.51100000000E-03 0.  1.
        -11    1    4    4    0    0  0.14852506835E+02 -0.10972001546E+02 -0.14042609297E+02  0.23198634730E+02  0.51100000000E-03 0. -1.
         12    1    4    4    0    0 -0.25198522747E+01 -0.12606360494E+02 -0.76153537502E+01  0.14942007668E+02  0.00000000000E+00 0. -1.
</event>
<event>
 8    1  0.3776180E-010  0.9118800E+02  0.7816164E-02  0.1184000E+00
        -11   -1    0    0    0    0  0.00000000000E+00  0.00000000000E+00  0.45593999997E+02  0.45594000000E+02  0.51100000000E-03 0. -1.
         11   -1    0    0    0    0 -0.00000000000E+00 -0.00000000000E+00 -0.45593999997E+02  0.45594000000E+02  0.51100000000E-03 0.  1.
         23    2    1    2    0    0 -0.17763568394E-14  0.00000000000E+00 -0.71054273576E-14  0.91188000000E+02  0.91188000000E+02 0.  0.
    9900012    2    3    3    0    0  0.11329164071E+02 -0.14001359295E+02  0.39487154002E+02  0.47787270146E+02  0.19999995906E+02 0.  0.
        -12    1    3    3    0    0 -0.11329164071E+02  0.14001359295E+02 -0.39487154002E+02  0.43400729854E+02  0.00000000000E+00 0.  1.
         11    1    4    4    0    0  0.54549995060E+01 -0.28548242455E+01  0.20469406981E+02  0.21375304992E+02  0.51100000000E-03 0. -1.
        -11    1    4    4    0    0 -0.79929460591E+00 -0.11780083400E+01  0.12839842834E+02  0.12918519257E+02  0.51100000000E-03 0.  1.
        -12    1    4    4    0    0  0.66734591706E+01 -0.99685267095E+01  0.61779041868E+01  0.13493445898E+02  0.00000000000E+00 0.  1.
</event>
<event>
 8    1  0.3776180E-010  0.9118800E+02  0.7816164E-02  0.1184000E+00
        -11   -1    0    0    0    0  0.00000000000E+00  0.00000000000E+00  0.45593999997E+02  0.45594000000E+02  0.51100000000E-03 0. -1.
         11   -1    0    0    0    0 -0.00000000000E+00 -0.00000000000E+00 -0.45593999997E+02  0.45594000000E+02  0.51100000000E-03 0.  1.
         23    2    1    2    0    0 -0.17763568394E-14  0.00000000000E+00  0.35527136788E-14  0.91188000000E+02  0.91188000000E+02 0.  0.
    9900012    2    3    3    0    0  0.10745799821E+02 -0.35509372234E+02 -0.22521891632E+02  0.47787270365E+02  0.19999996900E+02 0.  0.
         12    1    3    3    0    0 -0.10745799821E+02  0.35509372234E+02  0.22521891632E+02  0.43400729635E+02  0.00000000000E+00 0. -1.
         11    1    4    4    0    0  0.32955802766E+01  0.13300525725E+01  0.22329137831E-01  0.35539257247E+01  0.51100000000E-03 0. -1.
        -11    1    4    4    0    0  0.47465224536E+01 -0.11851490609E+02 -0.95204800174E+01  0.15925666236E+02  0.51100000000E-03 0.  1.
         12    1    4    4    0    0  0.27036970907E+01 -0.24987934198E+02 -0.13023740752E+02  0.28307678404E+02  0.00000000000E+00 0. -1.
</event>
<event>
 8    1  0.3776180E-010  0.9118800E+02  0.7816164E-02  0.1184000E+00
        -11   -1    0    0    0    0  0.00000000000E+00  0.00000000000E+00  0.45593999997E+02  0.45594000000E+02  0.51100000000E-03 0. -1.
         11   -1    0    0    0    0 -0.00000000000E+00 -0.00000000000E+00 -0.45593999997E+02  0.45594000000E+02  0.51100000000E-03 0.  1.
         23    2    1    2    0    0  0.71054273576E-14  0.00000000000E+00 -0.35527136788E-14  0.91188000000E+02  0.91188000000E+02 0.  0.
    9900012    2    3    3    0    0  0.35230032439E+02 -0.95969880153E+01 -0.23459894017E+02  0.47787262772E+02  0.19999962284E+02 0.  0.
         12    1    3    3    0    0 -0.35230032439E+02  0.95969880153E+01  0.23459894017E+02  0.43400737228E+02  0.00000000000E+00 0. -1.
         11    1    4    4    0    0  0.25741360233E+01  0.97703117045E+00  0.14539914195E+01  0.31136566097E+01  0.51100000000E-03 0. -1.
        -11    1    4    4    0    0  0.77355364652E+01 -0.89918692938E+01 -0.56630915715E+01  0.13143928036E+02  0.51100000000E-03 0.  1.
         12    1    4    4    0    0  0.24920359950E+02 -0.15821498920E+01 -0.19250793865E+02  0.31529678127E+02  0.00000000000E+00 0. -1.
</event>
<event>
 8    1  0.4243189E-010  0.9118800E+02  0.7816164E-02  0.1184000E+00
        -11   -1    0    0    0    0  0.00000000000E+00  0.00000000000E+00  0.45593999997E+02  0.45594000000E+02  0.51100000000E-03 0. -1.
         11   -1    0    0    0    0 -0.00000000000E+00 -0.00000000000E+00 -0.45593999997E+02  0.45594000000E+02  0.51100000000E-03 0.  1.
         23    2    1    2    0    0  0.00000000000E+00  0.00000000000E+00  0.35527136788E-14  0.91188000000E+02  0.91188000000E+02 0.  0.
    9900012    2    3    3    0    0 -0.14263210482E+02 -0.35615386749E+02  0.20291104847E+02  0.47787264034E+02  0.19999968035E+02 0.  0.
        -12    1    3    3    0    0  0.14263210482E+02  0.35615386749E+02 -0.20291104847E+02  0.43400735966E+02  0.00000000000E+00 0.  1.
         11    1    4    4    0    0  0.57258173257E+00 -0.12078864003E+02  0.18372057248E+01  0.12231194977E+02  0.51100000000E-03 0. -1.
        -11    1    4    4    0    0 -0.27522579356E+01 -0.15174090563E+02  0.70575465109E+01  0.16959861768E+02  0.51100000000E-03 0.  1.
        -12    1    4    4    0    0 -0.12083534279E+02 -0.83624321828E+01  0.11396352611E+02  0.18596207289E+02  0.00000000000E+00 0.  1.
</event>
<event>
 8    1  0.4566539E-010  0.9118800E+02  0.7816164E-02  0.1184000E+00
        -11   -1    0    0    0    0  0.00000000000E+00  0.00000000000E+00  0.45593999997E+02  0.45594000000E+02  0.51100000000E-03 0. -1.
         11   -1    0    0    0    0 -0.00000000000E+00 -0.00000000000E+00 -0.45593999997E+02  0.45594000000E+02  0.51100000000E-03 0.  1.
         23    2    1    2    0    0  0.00000000000E+00 -0.71054273576E-14  0.00000000000E+00  0.91188000000E+02  0.91188000000E+02 0.  0.
    9900012    2    3    3    0    0 -0.54436536355E+01 -0.37566163556E+02  0.21042180480E+02  0.47787269954E+02  0.19999995027E+02 0.  0.
        -12    1    3    3    0    0  0.54436536355E+01  0.37566163556E+02 -0.21042180480E+02  0.43400730046E+02  0.00000000000E+00 0.  1.
         11    1    4    4    0    0 -0.35575020069E+01 -0.16928825185E+02  0.14539082073E+02  0.22597031895E+02  0.51100000000E-03 0. -1.
        -11    1    4    4    0    0  0.24840859895E+01 -0.53739769487E+01  0.71714835993E+01  0.92994886270E+01  0.51100000000E-03 0.  1.
        -12    1    4    4    0    0 -0.43702376181E+01 -0.15263361422E+02 -0.66838519234E+00  0.15890749432E+02  0.00000000000E+00 0.  1.
</event>
<event>
 8    1  0.3776180E-010  0.9118800E+02  0.7816164E-02  0.1184000E+00
        -11   -1    0    0    0    0  0.00000000000E+00  0.00000000000E+00  0.45593999997E+02  0.45594000000E+02  0.51100000000E-03 0. -1.
         11   -1    0    0    0    0 -0.00000000000E+00 -0.00000000000E+00 -0.45593999997E+02  0.45594000000E+02  0.51100000000E-03 0.  1.
         23    2    1    2    0    0  0.44408920985E-15 -0.35527136788E-14  0.00000000000E+00  0.91188000000E+02  0.91188000000E+02 0.  0.
    9900012    2    3    3    0    0 -0.33159242877E+01 -0.26933100649E+02  0.33870871716E+02  0.47787271720E+02  0.20000003079E+02 0.  0.
        -12    1    3    3    0    0  0.33159242877E+01  0.26933100649E+02 -0.33870871716E+02  0.43400728280E+02  0.00000000000E+00 0.  1.
         11    1    4    4    0    0 -0.73986573027E+00 -0.81003398813E+01  0.36046087345E+01  0.88969720625E+01  0.51100000000E-03 0. -1.
        -11    1    4    4    0    0  0.22469688334E+01  0.19595833196E+01  0.26652174112E+01  0.39990273611E+01  0.51100000000E-03 0.  1.
        -12    1    4    4    0    0 -0.48230273908E+01 -0.20792344087E+02  0.27601045570E+02  0.34891272296E+02  0.00000000000E+00 0.  1.
</event>
<event>
 8    1  0.3776180E-010  0.9118800E+02  0.7816164E-02  0.1184000E+00
        -11   -1    0    0    0    0  0.00000000000E+00  0.00000000000E+00  0.45593999997E+02  0.45594000000E+02  0.51100000000E-03 0. -1.
         11   -1    0    0    0    0 -0.00000000000E+00 -0.00000000000E+00 -0.45593999997E+02  0.45594000000E+02  0.51100000000E-03 0.  1.
         23    2    1    2    0    0  0.00000000000E+00  0.00000000000E+00 -0.71054273576E-14  0.91188000000E+02  0.91188000000E+02 0.  0.
    9900012    2    3    3    0    0  0.14443414186E+02  0.13530667846E+02  0.38625541580E+02  0.47787266734E+02  0.19999980347E+02 0.  0.
        -12    1    3    3    0    0 -0.14443414186E+02 -0.13530667846E+02 -0.38625541580E+02  0.43400733266E+02  0.00000000000E+00 0.  1.
         11    1    4    4    0    0  0.15583214598E+01 -0.11508117854E+01  0.71364671425E+01  0.73947208923E+01  0.51100000000E-03 0. -1.
        -11    1    4    4    0    0 -0.29189340951E+01  0.73656204075E+00  0.71733179114E+00  0.30947156656E+01  0.51100000000E-03 0.  1.
         12    1    4    4    0    0  0.15804026821E+02  0.13944917591E+02  0.30771742646E+02  0.37297830176E+02  0.00000000000E+00 0. -1.
</event>
<event>
 8    1  0.3776180E-010  0.9118800E+02  0.7816164E-02  0.1184000E+00
        -11   -1    0    0    0    0  0.00000000000E+00  0.00000000000E+00  0.45593999997E+02  0.45594000000E+02  0.51100000000E-03 0. -1.
         11   -1    0    0    0    0 -0.00000000000E+00 -0.00000000000E+00 -0.45593999997E+02  0.45594000000E+02  0.51100000000E-03 0.  1.
         23    2    1    2    0    0  0.00000000000E+00  0.00000000000E+00  0.00000000000E+00  0.91188000000E+02  0.91188000000E+02 0.  0.
    9900012    2    3    3    0    0  0.32005149336E+02  0.17511745932E+02  0.23508147290E+02  0.47787264768E+02  0.19999971385E+02 0.  0.
        -12    1    3    3    0    0 -0.32005149336E+02 -0.17511745932E+02 -0.23508147290E+02  0.43400735232E+02  0.00000000000E+00 0.  1.
         11    1    4    4    0    0  0.28052737179E+02  0.56790639846E+01  0.15578045243E+02  0.32586551288E+02  0.51100000000E-03 0. -1.
        -11    1    4    4    0    0 -0.64450096114E+00  0.95951610249E+00  0.56454374916E+00  0.12863757405E+01  0.51100000000E-03 0.  1.
         12    1    4    4    0    0  0.45969131183E+01  0.10873165845E+02  0.73655582978E+01  0.13914337740E+02  0.00000000000E+00 0. -1.
</event>
<event>
 8    1  0.3776180E-010  0.9118800E+02  0.7816164E-02  0.1184000E+00
        -11   -1    0    0    0    0  0.00000000000E+00  0.00000000000E+00  0.45593999997E+02  0.45594000000E+02  0.51100000000E-03 0. -1.
         11   -1    0    0    0    0 -0.00000000000E+00 -0.00000000000E+00 -0.45593999997E+02  0.45594000000E+02  0.51100000000E-03 0.  1.
         23    2    1    2    0    0 -0.44408920985E-15  0.00000000000E+00  0.00000000000E+00  0.91188000000E+02  0.91188000000E+02 0.  0.
    9900012    2    3    3    0    0 -0.23459121744E+01 -0.72353138252E+01 -0.42729031528E+02  0.47787271833E+02  0.20000003595E+02 0.  0.
         12    1    3    3    0    0  0.23459121744E+01  0.72353138252E+01  0.42729031528E+02  0.43400728167E+02  0.00000000000E+00 0. -1.
         11    1    4    4    0    0 -0.61458415142E+01 -0.46844697365E+01 -0.84263050248E+01  0.11433207829E+02  0.51100000000E-03 0. -1.
        -11    1    4    4    0    0 -0.12609211600E+01  0.28043492480E+01 -0.33959466639E+01  0.45811298695E+01  0.51100000000E-03 0.  1.
        -12    1    4    4    0    0  0.50608504998E+01 -0.53551933366E+01 -0.30906779840E+02  0.31772934134E+02  0.00000000000E+00 0.  1.
</event>
<event>
 8    1  0.3776180E-010  0.9118800E+02  0.7816164E-02  0.1184000E+00
        -11   -1    0    0    0    0  0.00000000000E+00  0.00000000000E+00  0.45593999997E+02  0.45594000000E+02  0.51100000000E-03 0. -1.
         11   -1    0    0    0    0 -0.00000000000E+00 -0.00000000000E+00 -0.45593999997E+02  0.45594000000E+02  0.51100000000E-03 0.  1.
         23    2    1    2    0    0  0.00000000000E+00 -0.35527136788E-14  0.00000000000E+00  0.91188000000E+02  0.91188000000E+02 0.  0.
    9900012    2    3    3    0    0  0.51759750607E+01  0.25052855019E+02 -0.35059759567E+02  0.47787274161E+02  0.20000014211E+02 0.  0.
         12    1    3    3    0    0 -0.51759750607E+01 -0.25052855019E+02  0.35059759567E+02  0.43400725839E+02  0.00000000000E+00 0. -1.
         11    1    4    4    0    0  0.93563998416E+00  0.90416931053E+01 -0.21242407305E+01  0.93348827166E+01  0.51100000000E-03 0. -1.
        -11    1    4    4    0    0  0.51547893206E+01  0.10336241752E+02 -0.11653362109E+02  0.16407638319E+02  0.51100000000E-03 0.  1.
         12    1    4    4    0    0 -0.91445424408E+00  0.56749201611E+01 -0.21282156728E+02  0.22044753126E+02  0.00000000000E+00 0. -1.
</event>
<event>
 8    1  0.3776180E-010  0.9118800E+02  0.7816164E-02  0.1184000E+00
        -11   -1    0    0    0    0  0.00000000000E+00  0.00000000000E+00  0.45593999997E+02  0.45594000000E+02  0.51100000000E-03 0. -1.
         11   -1    0    0    0    0 -0.00000000000E+00 -0.00000000000E+00 -0.45593999997E+02  0.45594000000E+02  0.51100000000E-03 0.  1.
         23    2    1    2    0    0 -0.17763568394E-14 -0.17763568394E-14  0.00000000000E+00  0.91188000000E+02  0.91188000000E+02 0.  0.
    9900012    2    3    3    0    0  0.14117517980E+02 -0.11973555978E+02 -0.39254972502E+02  0.47787271633E+02  0.20000002682E+02 0.  0.
         12    1    3    3    0    0 -0.14117517980E+02  0.11973555978E+02  0.39254972502E+02  0.43400728367E+02  0.00000000000E+00 0. -1.
         11    1    4    4    0    0  0.35777911257E+00 -0.25331736036E+01 -0.17348053384E+02  0.17535675945E+02  0.51100000000E-03 0. -1.
        -11    1    4    4    0    0  0.53878197054E+01 -0.10901855885E+02 -0.14932018638E+02  0.19257316630E+02  0.51100000000E-03 0.  1.
        -12    1    4    4    0    0  0.83719191615E+01  0.14614735113E+01 -0.69749004807E+01  0.10994279057E+02  0.00000000000E+00 0.  1.
</event>
<event>
 8    1  0.3776180E-010  0.9118800E+02  0.7816164E-02  0.1184000E+00
        -11   -1    0    0    0    0  0.00000000000E+00  0.00000000000E+00  0.45593999997E+02  0.45594000000E+02  0.51100000000E-03 0. -1.
         11   -1    0    0    0    0 -0.00000000000E+00 -0.00000000000E+00 -0.45593999997E+02  0.45594000000E+02  0.51100000000E-03 0.  1.
         23    2    1    2    0    0  0.00000000000E+00  0.00000000000E+00  0.00000000000E+00  0.91188000000E+02  0.91188000000E+02 0.  0.
    9900012    2    3    3    0    0 -0.75075848065E+01  0.37754954046E+02  0.20045533365E+02  0.47787265069E+02  0.19999972755E+02 0.  0.
        -12    1    3    3    0    0  0.75075848065E+01 -0.37754954046E+02 -0.20045533365E+02  0.43400734931E+02  0.00000000000E+00 0.  1.
         11    1    4    4    0    0 -0.43822287251E+01  0.19050617958E+02  0.99116537333E+00  0.19573256812E+02  0.51100000000E-03 0. -1.
        -11    1    4    4    0    0 -0.27531822455E+01  0.76267688323E+00  0.24003538945E+01  0.37314055777E+01  0.51100000000E-03 0.  1.
         12    1    4    4    0    0 -0.37217383597E+00  0.17941659206E+02  0.16654014097E+02  0.24482602680E+02  0.00000000000E+00 0. -1.
</event>
<event>
 8    1  0.3776180E-010  0.9118800E+02  0.7816164E-02  0.1184000E+00
        -11   -1    0    0    0    0  0.00000000000E+00  0.00000000000E+00  0.45593999997E+02  0.45594000000E+02  0.51100000000E-03 0. -1.
         11   -1    0    0    0    0 -0.00000000000E+00 -0.00000000000E+00 -0.45593999997E+02  0.45594000000E+02  0.51100000000E-03 0.  1.
         23    2    1    2    0    0  0.00000000000E+00  0.00000000000E+00  0.00000000000E+00  0.91188000000E+02  0.91188000000E+02 0.  0.
    9900012    2    3    3    0    0 -0.63949150626E+01  0.64104573917E+01 -0.42445678478E+02  0.47787256641E+02  0.19999934330E+02 0.  0.
         12    1    3    3    0    0  0.63949150626E+01 -0.64104573917E+01  0.42445678478E+02  0.43400743359E+02  0.00000000000E+00 0. -1.
         11    1    4    4    0    0 -0.44771513128E+01  0.22317052355E+01 -0.59206722531E+01  0.77511129733E+01  0.51100000000E-03 0. -1.
        -11    1    4    4    0    0  0.39263631211E+01 -0.87346881856E+00 -0.17038342796E+01  0.43683322503E+01  0.51100000000E-03 0.  1.
         12    1    4    4    0    0 -0.58441268709E+01  0.50522209748E+01 -0.34821171945E+02  0.35667811418E+02  0.00000000000E+00 0. -1.
</event>
<event>
 8    1  0.3776180E-010  0.9118800E+02  0.7816164E-02  0.1184000E+00
        -11   -1    0    0    0    0  0.00000000000E+00  0.00000000000E+00  0.45593999997E+02  0.45594000000E+02  0.51100000000E-03 0. -1.
         11   -1    0    0    0    0 -0.00000000000E+00 -0.00000000000E+00 -0.45593999997E+02  0.45594000000E+02  0.51100000000E-03 0.  1.
         23    2    1    2    0    0  0.00000000000E+00  0.17763568394E-14  0.00000000000E+00  0.91188000000E+02  0.91188000000E+02 0.  0.
    9900012    2    3    3    0    0  0.17718469109E+02 -0.14397229636E+02 -0.36910695406E+02  0.47787264936E+02  0.19999972150E+02 0.  0.
         12    1    3    3    0    0 -0.17718469109E+02  0.14397229636E+02  0.36910695406E+02  0.43400735064E+02  0.00000000000E+00 0. -1.
         11    1    4    4    0    0  0.20491847020E+01 -0.13234826409E+02 -0.11579361558E+02  0.17704276387E+02  0.51100000000E-03 0. -1.
        -11    1    4    4    0    0  0.41386736651E+01 -0.14939139965E+01 -0.46475923363E+01  0.64000401187E+01  0.51100000000E-03 0.  1.
         12    1    4    4    0    0  0.11530610741E+02  0.33151076971E+00 -0.20683741511E+02  0.23682948431E+02  0.00000000000E+00 0. -1.
</event>
<event>
 8    1  0.3776180E-010  0.9118800E+02  0.7816164E-02  0.1184000E+00
        -11   -1    0    0    0    0  0.00000000000E+00  0.00000000000E+00  0.45593999997E+02  0.45594000000E+02  0.51100000000E-03 0. -1.
         11   -1    0    0    0    0 -0.00000000000E+00 -0.00000000000E+00 -0.45593999997E+02  0.45594000000E+02  0.51100000000E-03 0.  1.
         23    2    1    2    0    0 -0.35527136788E-14 -0.17763568394E-14  0.71054273576E-14  0.91188000000E+02  0.91188000000E+02 0.  0.
    9900012    2    3    3    0    0  0.22936876479E+02  0.13258130753E+02 -0.34376515164E+02  0.47787272719E+02  0.20000007636E+02 0.  0.
         12    1    3    3    0    0 -0.22936876479E+02 -0.13258130753E+02  0.34376515164E+02  0.43400727281E+02  0.00000000000E+00 0. -1.
         11    1    4    4    0    0 -0.71004563897E+00  0.43894795537E+01 -0.61348725064E+01  0.75768302405E+01  0.51100000000E-03 0. -1.
        -11    1    4    4    0    0  0.30633522355E+01 -0.77255280449E+00 -0.11646330544E+02  0.12067227525E+02  0.51100000000E-03 0.  1.
        -12    1    4    4    0    0  0.20583569882E+02  0.96412040040E+01 -0.16595312114E+02  0.28143214953E+02  0.00000000000E+00 0.  1.
</event>
<event>
 8    1  0.3776180E-010  0.9118800E+02  0.7816164E-02  0.1184000E+00
        -11   -1    0    0    0    0  0.00000000000E+00  0.00000000000E+00  0.45593999997E+02  0.45594000000E+02  0.51100000000E-03 0.  1.
         11   -1    0    0    0    0 -0.00000000000E+00 -0.00000000000E+00 -0.45593999997E+02  0.45594000000E+02  0.51100000000E-03 0. -1.
         23    2    1    2    0    0 -0.35527136788E-14 -0.35527136788E-14  0.00000000000E+00  0.91188000000E+02  0.91188000000E+02 0.  0.
    9900012    2    3    3    0    0  0.17808657687E+02 -0.27790273171E+02 -0.28181124177E+02  0.47787270382E+02  0.19999996978E+02 0.  0.
         12    1    3    3    0    0 -0.17808657687E+02  0.27790273171E+02  0.28181124177E+02  0.43400729618E+02  0.00000000000E+00 0. -1.
         11    1    4    4    0    0  0.42685371493E+01 -0.70048381517E+01 -0.12202062477E+02  0.14703009756E+02  0.51100000000E-03 0. -1.
        -11    1    4    4    0    0  0.13288373279E+02 -0.10345382562E+02 -0.15074699951E+02  0.22602088037E+02  0.51100000000E-03 0.  1.
         12    1    4    4    0    0  0.25174725867E+00 -0.10440052458E+02 -0.90436174827E+00  0.10482172588E+02  0.00000000000E+00 0. -1.
</event>
<event>
 8    1  0.3776180E-010  0.9118800E+02  0.7816164E-02  0.1184000E+00
        -11   -1    0    0    0    0  0.00000000000E+00  0.00000000000E+00  0.45593999997E+02  0.45594000000E+02  0.51100000000E-03 0. -1.
         11   -1    0    0    0    0 -0.00000000000E+00 -0.00000000000E+00 -0.45593999997E+02  0.45594000000E+02  0.51100000000E-03 0.  1.
         23    2    1    2    0    0  0.00000000000E+00 -0.35527136788E-14  0.71054273576E-14  0.91188000000E+02  0.91188000000E+02 0.  0.
    9900012    2    3    3    0    0 -0.10893720706E+02  0.20053035567E+02 -0.36916475275E+02  0.47787268059E+02  0.19999986388E+02 0.  0.
         12    1    3    3    0    0  0.10893720706E+02 -0.20053035567E+02  0.36916475275E+02  0.43400731941E+02  0.00000000000E+00 0. -1.
         11    1    4    4    0    0 -0.10845239588E+01  0.59234379220E+00 -0.40776465577E+01  0.42607822165E+01  0.51100000000E-03 0. -1.
        -11    1    4    4    0    0 -0.13241008791E+02  0.77284154272E+01 -0.23852819938E+02  0.28355065474E+02  0.51100000000E-03 0.  1.
         12    1    4    4    0    0  0.34318120432E+01  0.11732276348E+02 -0.89860087798E+01  0.15171420368E+02  0.00000000000E+00 0. -1.
</event>
<event>
 8    1  0.3776180E-010  0.9118800E+02  0.7816164E-02  0.1184000E+00
        -11   -1    0    0    0    0  0.00000000000E+00  0.00000000000E+00  0.45593999997E+02  0.45594000000E+02  0.51100000000E-03 0. -1.
         11   -1    0    0    0    0 -0.00000000000E+00 -0.00000000000E+00 -0.45593999997E+02  0.45594000000E+02  0.51100000000E-03 0.  1.
         23    2    1    2    0    0  0.00000000000E+00  0.00000000000E+00  0.00000000000E+00  0.91188000000E+02  0.91188000000E+02 0.  0.
    9900012    2    3    3    0    0  0.34243121819E+02  0.29453636926E+01 -0.26502013420E+02  0.47787271037E+02  0.19999999965E+02 0.  0.
         12    1    3    3    0    0 -0.34243121819E+02 -0.29453636926E+01  0.26502013420E+02  0.43400728963E+02  0.00000000000E+00 0. -1.
         11    1    4    4    0    0  0.99382488315E+01 -0.25487646441E+01 -0.36451484411E+01  0.10888163227E+02  0.51100000000E-03 0. -1.
        -11    1    4    4    0    0  0.16802864524E+01 -0.40415524241E+01 -0.41610017614E+01  0.60391592526E+01  0.51100000000E-03 0.  1.
         12    1    4    4    0    0  0.22624586535E+02  0.95356807608E+01 -0.18695863218E+02  0.30859948557E+02  0.00000000000E+00 0. -1.
</event>
<event>
 8    1  0.3776180E-010  0.9118800E+02  0.7816164E-02  0.1184000E+00
        -11   -1    0    0    0    0  0.00000000000E+00  0.00000000000E+00  0.45593999997E+02  0.45594000000E+02  0.51100000000E-03 0. -1.
         11   -1    0    0    0    0 -0.00000000000E+00 -0.00000000000E+00 -0.45593999997E+02  0.45594000000E+02  0.51100000000E-03 0.  1.
         23    2    1    2    0    0 -0.35527136788E-14 -0.71054273576E-14  0.00000000000E+00  0.91188000000E+02  0.91188000000E+02 0.  0.
    9900012    2    3    3    0    0  0.25883086243E+02  0.34412256927E+02 -0.54301062933E+01  0.47787266888E+02  0.19999981049E+02 0.  0.
         12    1    3    3    0    0 -0.25883086243E+02 -0.34412256927E+02  0.54301062933E+01  0.43400733112E+02  0.00000000000E+00 0. -1.
         11    1    4    4    0    0  0.50854297657E+01  0.19406010047E+01  0.17529603501E+01  0.57184262180E+01  0.51100000000E-03 0. -1.
        -11    1    4    4    0    0  0.14700936149E+02  0.91413133281E+01 -0.22680502226E+01  0.17459243543E+02  0.51100000000E-03 0.  1.
        -12    1    4    4    0    0  0.60967203288E+01  0.23330342594E+02 -0.49150164208E+01  0.24609597127E+02  0.00000000000E+00 0.  1.
</event>
<event>
 8    1  0.3776180E-010  0.9118800E+02  0.7816164E-02  0.1184000E+00
        -11   -1    0    0    0    0  0.00000000000E+00  0.00000000000E+00  0.45593999997E+02  0.45594000000E+02  0.51100000000E-03 0. -1.
         11   -1    0    0    0    0 -0.00000000000E+00 -0.00000000000E+00 -0.45593999997E+02  0.45594000000E+02  0.51100000000E-03 0.  1.
         23    2    1    2    0    0  0.35527136788E-14  0.88817841970E-15  0.71054273576E-14  0.91188000000E+02  0.91188000000E+02 0.  0.
    9900012    2    3    3    0    0  0.23318814694E+02  0.45100784784E+01  0.36325135998E+02  0.47787269224E+02  0.19999991699E+02 0.  0.
        -12    1    3    3    0    0 -0.23318814694E+02 -0.45100784784E+01 -0.36325135998E+02  0.43400730776E+02  0.00000000000E+00 0.  1.
         11    1    4    4    0    0 -0.11178334108E+01  0.38385954208E+00  0.64696232008E+01  0.65766955459E+01  0.51100000000E-03 0. -1.
        -11    1    4    4    0    0  0.77188764152E+01 -0.14710373700E+01  0.17771227568E+01  0.80562503444E+01  0.51100000000E-03 0.  1.
        -12    1    4    4    0    0  0.16717771690E+02  0.55972563064E+01  0.28078390041E+02  0.33154323333E+02  0.00000000000E+00 0.  1.
</event>
<event>
 8    1  0.3776180E-010  0.9118800E+02  0.7816164E-02  0.1184000E+00
        -11   -1    0    0    0    0  0.00000000000E+00  0.00000000000E+00  0.45593999997E+02  0.45594000000E+02  0.51100000000E-03 0. -1.
         11   -1    0    0    0    0 -0.00000000000E+00 -0.00000000000E+00 -0.45593999997E+02  0.45594000000E+02  0.51100000000E-03 0.  1.
         23    2    1    2    0    0  0.00000000000E+00  0.00000000000E+00  0.00000000000E+00  0.91188000000E+02  0.91188000000E+02 0.  0.
    9900012    2    3    3    0    0 -0.42364520954E+02 -0.80998747487E+01  0.48231268433E+01  0.47787272366E+02  0.20000006025E+02 0.  0.
        -12    1    3    3    0    0  0.42364520954E+02  0.80998747487E+01 -0.48231268433E+01  0.43400727634E+02  0.00000000000E+00 0.  1.
         11    1    4    4    0    0 -0.11155718045E+02 -0.33161854687E+01 -0.25404989704E+01  0.11912231799E+02  0.51100000000E-03 0. -1.
        -11    1    4    4    0    0 -0.17164950333E+02  0.48903502683E+01  0.18069930681E+01  0.17939238275E+02  0.51100000000E-03 0.  1.
         12    1    4    4    0    0 -0.14043852577E+02 -0.96740395483E+01  0.55566327455E+01  0.17935802292E+02  0.00000000000E+00 0. -1.
</event>
<event>
 8    1  0.3776180E-010  0.9118800E+02  0.7816164E-02  0.1184000E+00
        -11   -1    0    0    0    0  0.00000000000E+00  0.00000000000E+00  0.45593999997E+02  0.45594000000E+02  0.51100000000E-03 0. -1.
         11   -1    0    0    0    0 -0.00000000000E+00 -0.00000000000E+00 -0.45593999997E+02  0.45594000000E+02  0.51100000000E-03 0.  1.
         23    2    1    2    0    0  0.00000000000E+00 -0.35527136788E-14  0.00000000000E+00  0.91188000000E+02  0.91188000000E+02 0.  0.
    9900012    2    3    3    0    0  0.22052337548E+02  0.17103642816E+02  0.33238279781E+02  0.47787269226E+02  0.19999991711E+02 0.  0.
        -12    1    3    3    0    0 -0.22052337548E+02 -0.17103642816E+02 -0.33238279781E+02  0.43400730774E+02  0.00000000000E+00 0.  1.
         11    1    4    4    0    0 -0.11869935016E+01 -0.35437875720E+00  0.24948617363E+00  0.12636381952E+01  0.51100000000E-03 0. -1.
        -11    1    4    4    0    0  0.63598037684E+01 -0.22743840473E+01  0.55103811797E+01  0.87168932409E+01  0.51100000000E-03 0.  1.
         12    1    4    4    0    0  0.16879527281E+02  0.19732405621E+02  0.27478412427E+02  0.37806737790E+02  0.00000000000E+00 0. -1.
</event>
<event>
 8    1  0.3776180E-010  0.9118800E+02  0.7816164E-02  0.1184000E+00
        -11   -1    0    0    0    0  0.00000000000E+00  0.00000000000E+00  0.45593999997E+02  0.45594000000E+02  0.51100000000E-03 0. -1.
         11   -1    0    0    0    0 -0.00000000000E+00 -0.00000000000E+00 -0.45593999997E+02  0.45594000000E+02  0.51100000000E-03 0.  1.
         23    2    1    2    0    0  0.35527136788E-14  0.00000000000E+00  0.00000000000E+00  0.91188000000E+02  0.91188000000E+02 0.  0.
    9900012    2    3    3    0    0  0.18015276012E+02 -0.87149568033E+01 -0.38511330383E+02  0.47787271783E+02  0.20000003367E+02 0.  0.
         12    1    3    3    0    0 -0.18015276012E+02  0.87149568033E+01  0.38511330383E+02  0.43400728217E+02  0.00000000000E+00 0. -1.
         11    1    4    4    0    0  0.89934256129E+01 -0.23224830813E+01 -0.34928100322E+01  0.99234749004E+01  0.51100000000E-03 0. -1.
        -11    1    4    4    0    0  0.84421270525E+01 -0.73373702139E+00 -0.17476885050E+02  0.19422908909E+02  0.51100000000E-03 0.  1.
        -12    1    4    4    0    0  0.57972334710E+00 -0.56587367007E+01 -0.17541635301E+02  0.18440887974E+02  0.00000000000E+00 0.  1.
</event>
<event>
 8    1  0.3776180E-010  0.9118800E+02  0.7816164E-02  0.1184000E+00
        -11   -1    0    0    0    0  0.00000000000E+00  0.00000000000E+00  0.45593999997E+02  0.45594000000E+02  0.51100000000E-03 0.  1.
         11   -1    0    0    0    0 -0.00000000000E+00 -0.00000000000E+00 -0.45593999997E+02  0.45594000000E+02  0.51100000000E-03 0. -1.
         23    2    1    2    0    0  0.00000000000E+00  0.00000000000E+00  0.00000000000E+00  0.91188000000E+02  0.91188000000E+02 0.  0.
    9900012    2    3    3    0    0 -0.14025122626E+01 -0.22578490485E+02 -0.37038728815E+02  0.47787277593E+02  0.20000029857E+02 0.  0.
         12    1    3    3    0    0  0.14025122626E+01  0.22578490485E+02  0.37038728815E+02  0.43400722407E+02  0.00000000000E+00 0. -1.
         11    1    4    4    0    0  0.51352596956E+00 -0.33790243141E+01  0.61839530599E+00  0.34733164630E+01  0.51100000000E-03 0.  1.
        -11    1    4    4    0    0  0.25925331084E+01  0.50426910001E+00 -0.79920702060E+01  0.84171670817E+01  0.51100000000E-03 0. -1.
        -12    1    4    4    0    0 -0.45085713406E+01 -0.19703735270E+02 -0.29665053915E+02  0.35896794048E+02  0.00000000000E+00 0.  1.
</event>
<event>
 8    1  0.3776180E-010  0.9118800E+02  0.7816164E-02  0.1184000E+00
        -11   -1    0    0    0    0  0.00000000000E+00  0.00000000000E+00  0.45593999997E+02  0.45594000000E+02  0.51100000000E-03 0. -1.
         11   -1    0    0    0    0 -0.00000000000E+00 -0.00000000000E+00 -0.45593999997E+02  0.45594000000E+02  0.51100000000E-03 0.  1.
         23    2    1    2    0    0 -0.17763568394E-14  0.00000000000E+00 -0.71054273576E-14  0.91188000000E+02  0.91188000000E+02 0.  0.
    9900012    2    3    3    0    0 -0.75367881994E+01 -0.40864203845E+01 -0.42545520897E+02  0.47787270095E+02  0.19999995670E+02 0.  0.
         12    1    3    3    0    0  0.75367881994E+01  0.40864203845E+01  0.42545520897E+02  0.43400729905E+02  0.00000000000E+00 0. -1.
         11    1    4    4    0    0 -0.54564049989E+01  0.33620238777E+00 -0.38693346656E+01  0.66975472058E+01  0.51100000000E-03 0. -1.
        -11    1    4    4    0    0 -0.32915778880E+01  0.40599129643E+01 -0.16844085665E+02  0.17636343171E+02  0.51100000000E-03 0.  1.
        -12    1    4    4    0    0  0.12111946875E+01 -0.84825357366E+01 -0.21832100566E+02  0.23453379718E+02  0.00000000000E+00 0.  1.
</event>
<event>
 8    1  0.3776180E-010  0.9118800E+02  0.7816164E-02  0.1184000E+00
        -11   -1    0    0    0    0  0.00000000000E+00  0.00000000000E+00  0.45593999997E+02  0.45594000000E+02  0.51100000000E-03 0. -1.
         11   -1    0    0    0    0 -0.00000000000E+00 -0.00000000000E+00 -0.45593999997E+02  0.45594000000E+02  0.51100000000E-03 0.  1.
         23    2    1    2    0    0  0.71054273576E-14 -0.17763568394E-14 -0.35527136788E-14  0.91188000000E+02  0.91188000000E+02 0.  0.
    9900012    2    3    3    0    0 -0.35328770784E+02  0.61997187399E+01  0.24434908762E+02  0.47787270469E+02  0.19999997378E+02 0.  0.
        -12    1    3    3    0    0  0.35328770784E+02 -0.61997187399E+01 -0.24434908762E+02  0.43400729531E+02  0.00000000000E+00 0.  1.
         11    1    4    4    0    0 -0.18071252411E+02  0.84105519022E+01  0.14848611354E+02  0.24855357700E+02  0.51100000000E-03 0. -1.
        -11    1    4    4    0    0 -0.32947985617E+01  0.40472485289E+01  0.42388890523E+01  0.67233993542E+01  0.51100000000E-03 0.  1.
        -12    1    4    4    0    0 -0.13962719812E+02 -0.62580816912E+01  0.53474083555E+01  0.16208513415E+02  0.00000000000E+00 0.  1.
</event>
<event>
 8    1  0.3776180E-010  0.9118800E+02  0.7816164E-02  0.1184000E+00
        -11   -1    0    0    0    0  0.00000000000E+00  0.00000000000E+00  0.45593999997E+02  0.45594000000E+02  0.51100000000E-03 0. -1.
         11   -1    0    0    0    0 -0.00000000000E+00 -0.00000000000E+00 -0.45593999997E+02  0.45594000000E+02  0.51100000000E-03 0.  1.
         23    2    1    2    0    0  0.00000000000E+00 -0.35527136788E-14  0.00000000000E+00  0.91188000000E+02  0.91188000000E+02 0.  0.
    9900012    2    3    3    0    0 -0.29388114375E+02 -0.19665705428E+02 -0.25163916057E+02  0.47787263741E+02  0.19999966700E+02 0.  0.
         12    1    3    3    0    0  0.29388114375E+02  0.19665705428E+02  0.25163916057E+02  0.43400736259E+02  0.00000000000E+00 0. -1.
         11    1    4    4    0    0 -0.15019425973E+02 -0.71451437493E+01 -0.16997388390E+02  0.23781241517E+02  0.51100000000E-03 0. -1.
        -11    1    4    4    0    0 -0.15907423430E+02 -0.12065793081E+02 -0.93160534626E+01  0.22032211311E+02  0.51100000000E-03 0.  1.
         12    1    4    4    0    0  0.15387350280E+01 -0.45476859772E+00  0.11495257957E+01  0.19738109126E+01  0.00000000000E+00 0. -1.
</event>
<event>
 8    1  0.3776180E-010  0.9118800E+02  0.7816164E-02  0.1184000E+00
        -11   -1    0    0    0    0  0.00000000000E+00  0.00000000000E+00  0.45593999997E+02  0.45594000000E+02  0.51100000000E-03 0. -1.
         11   -1    0    0    0    0 -0.00000000000E+00 -0.00000000000E+00 -0.45593999997E+02  0.45594000000E+02  0.51100000000E-03 0.  1.
         23    2    1    2    0    0  0.00000000000E+00 -0.71054273576E-14 -0.17763568394E-14  0.91188000000E+02  0.91188000000E+02 0.  0.
    9900012    2    3    3    0    0 -0.20564148094E+02  0.35827834809E+02  0.13308097864E+02  0.47787269561E+02  0.19999993235E+02 0.  0.
        -12    1    3    3    0    0  0.20564148094E+02 -0.35827834809E+02 -0.13308097864E+02  0.43400730439E+02  0.00000000000E+00 0.  1.
         11    1    4    4    0    0  0.86691020181E+00  0.42743658124E+01 -0.14184248167E+01  0.45862474441E+01  0.51100000000E-03 0. -1.
        -11    1    4    4    0    0 -0.61634819730E+01  0.43389113107E+01 -0.19968947988E+01  0.77975797843E+01  0.51100000000E-03 0.  1.
         12    1    4    4    0    0 -0.15267576323E+02  0.27214557686E+02  0.16723417479E+02  0.35403442332E+02  0.00000000000E+00 0. -1.
</event>
<event>
 8    1  0.3776180E-010  0.9118800E+02  0.7816164E-02  0.1184000E+00
        -11   -1    0    0    0    0  0.00000000000E+00  0.00000000000E+00  0.45593999997E+02  0.45594000000E+02  0.51100000000E-03 0. -1.
         11   -1    0    0    0    0 -0.00000000000E+00 -0.00000000000E+00 -0.45593999997E+02  0.45594000000E+02  0.51100000000E-03 0.  1.
         23    2    1    2    0    0  0.35527136788E-14  0.00000000000E+00  0.00000000000E+00  0.91188000000E+02  0.91188000000E+02 0.  0.
    9900012    2    3    3    0    0 -0.24158488804E+02 -0.46425260443E+00 -0.36052396767E+02  0.47787269310E+02  0.19999992093E+02 0.  0.
         12    1    3    3    0    0  0.24158488804E+02  0.46425260443E+00  0.36052396767E+02  0.43400730690E+02  0.00000000000E+00 0. -1.
         11    1    4    4    0    0 -0.12467478461E+02 -0.29494024538E+01 -0.82766631613E+01  0.15252545603E+02  0.51100000000E-03 0. -1.
        -11    1    4    4    0    0 -0.10166610768E+02  0.19101988926E+01 -0.90685325187E+01  0.13756711694E+02  0.51100000000E-03 0.  1.
         12    1    4    4    0    0 -0.15243995740E+01  0.57495095682E+00 -0.18707201087E+02  0.18778012014E+02  0.00000000000E+00 0. -1.
</event>
<event>
 8    1  0.4446537E-010  0.9118800E+02  0.7816164E-02  0.1184000E+00
        -11   -1    0    0    0    0  0.00000000000E+00  0.00000000000E+00  0.45593999997E+02  0.45594000000E+02  0.51100000000E-03 0. -1.
         11   -1    0    0    0    0 -0.00000000000E+00 -0.00000000000E+00 -0.45593999997E+02  0.45594000000E+02  0.51100000000E-03 0.  1.
         23    2    1    2    0    0 -0.66613381478E-15 -0.66613381478E-15  0.14210854715E-13  0.91188000000E+02  0.91188000000E+02 0.  0.
    9900012    2    3    3    0    0  0.17650047002E+01  0.14793688003E+01  0.43339584126E+02  0.47787270446E+02  0.19999997272E+02 0.  0.
        -12    1    3    3    0    0 -0.17650047002E+01 -0.14793688003E+01 -0.43339584126E+02  0.43400729554E+02  0.00000000000E+00 0.  1.
         11    1    4    4    0    0  0.37044691480E+01  0.53948280667E+00  0.21164143636E+02  0.21492675717E+02  0.51100000000E-03 0. -1.
        -11    1    4    4    0    0  0.44259598332E+01  0.47840410149E+01  0.12442574611E+02  0.14046132282E+02  0.51100000000E-03 0.  1.
        -12    1    4    4    0    0 -0.63654242809E+01 -0.38441550213E+01  0.97328658787E+01  0.12248462447E+02  0.00000000000E+00 0.  1.
</event>
<event>
 8    1  0.3776180E-010  0.9118800E+02  0.7816164E-02  0.1184000E+00
        -11   -1    0    0    0    0  0.00000000000E+00  0.00000000000E+00  0.45593999997E+02  0.45594000000E+02  0.51100000000E-03 0. -1.
         11   -1    0    0    0    0 -0.00000000000E+00 -0.00000000000E+00 -0.45593999997E+02  0.45594000000E+02  0.51100000000E-03 0.  1.
         23    2    1    2    0    0  0.35527136788E-14  0.35527136788E-14  0.00000000000E+00  0.91188000000E+02  0.91188000000E+02 0.  0.
    9900012    2    3    3    0    0  0.30480859095E+02  0.26304507128E+02  0.16205344181E+02  0.47787273664E+02  0.20000011946E+02 0.  0.
        -12    1    3    3    0    0 -0.30480859095E+02 -0.26304507128E+02 -0.16205344181E+02  0.43400726336E+02  0.00000000000E+00 0.  1.
         11    1    4    4    0    0  0.46082343718E+01  0.24415097668E+01 -0.73822206299E+00  0.52670452858E+01  0.51100000000E-03 0. -1.
        -11    1    4    4    0    0  0.37559527101E+01  0.12493179616E+02  0.12295171189E+01  0.13103374767E+02  0.51100000000E-03 0.  1.
         12    1    4    4    0    0  0.22116672013E+02  0.11369817745E+02  0.15714049125E+02  0.29416853612E+02  0.00000000000E+00 0. -1.
</event>
<event>
 8    1  0.3776180E-010  0.9118800E+02  0.7816164E-02  0.1184000E+00
        -11   -1    0    0    0    0  0.00000000000E+00  0.00000000000E+00  0.45593999997E+02  0.45594000000E+02  0.51100000000E-03 0. -1.
         11   -1    0    0    0    0 -0.00000000000E+00 -0.00000000000E+00 -0.45593999997E+02  0.45594000000E+02  0.51100000000E-03 0.  1.
         23    2    1    2    0    0  0.35527136788E-14 -0.88817841970E-15 -0.71054273576E-14  0.91188000000E+02  0.91188000000E+02 0.  0.
    9900012    2    3    3    0    0 -0.27922217804E+02 -0.35383703716E+01  0.33037145144E+02  0.47787271075E+02  0.20000000137E+02 0.  0.
        -12    1    3    3    0    0  0.27922217804E+02  0.35383703716E+01 -0.33037145144E+02  0.43400728925E+02  0.00000000000E+00 0.  1.
         11    1    4    4    0    0 -0.37021521355E+01  0.19120407179E+01  0.47971595732E+01  0.63540987066E+01  0.51100000000E-03 0. -1.
        -11    1    4    4    0    0 -0.14048579209E+02 -0.11275637122E+02  0.13038823435E+02  0.22237659210E+02  0.51100000000E-03 0.  1.
        -12    1    4    4    0    0 -0.10171486460E+02  0.58252260325E+01  0.15201162136E+02  0.19195513158E+02  0.00000000000E+00 0.  1.
</event>
<event>
 8    1  0.3776180E-010  0.9118800E+02  0.7816164E-02  0.1184000E+00
        -11   -1    0    0    0    0  0.00000000000E+00  0.00000000000E+00  0.45593999997E+02  0.45594000000E+02  0.51100000000E-03 0. -1.
         11   -1    0    0    0    0 -0.00000000000E+00 -0.00000000000E+00 -0.45593999997E+02  0.45594000000E+02  0.51100000000E-03 0.  1.
         23    2    1    2    0    0 -0.35527136788E-14 -0.35527136788E-14  0.00000000000E+00  0.91188000000E+02  0.91188000000E+02 0.  0.
    9900012    2    3    3    0    0  0.18267951287E+02  0.21657338505E+02  0.32876510065E+02  0.47787271096E+02  0.20000000234E+02 0.  0.
        -12    1    3    3    0    0 -0.18267951287E+02 -0.21657338505E+02 -0.32876510065E+02  0.43400728904E+02  0.00000000000E+00 0.  1.
         11    1    4    4    0    0  0.11469059826E+01  0.12371180041E+01  0.12698040484E+02  0.12809609154E+02  0.51100000000E-03 0. -1.
        -11    1    4    4    0    0  0.79803111512E+01  0.24723390256E+01  0.47888734705E+01  0.96297007069E+01  0.51100000000E-03 0.  1.
         12    1    4    4    0    0  0.91407341534E+01  0.17947881475E+02  0.15389596111E+02  0.25347961235E+02  0.00000000000E+00 0. -1.
</event>
<event>
 8    1  0.3776180E-010  0.9118800E+02  0.7816164E-02  0.1184000E+00
        -11   -1    0    0    0    0  0.00000000000E+00  0.00000000000E+00  0.45593999997E+02  0.45594000000E+02  0.51100000000E-03 0. -1.
         11   -1    0    0    0    0 -0.00000000000E+00 -0.00000000000E+00 -0.45593999997E+02  0.45594000000E+02  0.51100000000E-03 0.  1.
         23    2    1    2    0    0  0.35527136788E-14  0.17763568394E-14  0.00000000000E+00  0.91188000000E+02  0.91188000000E+02 0.  0.
    9900012    2    3    3    0    0  0.26176669284E+02 -0.12830012968E+02  0.32152699949E+02  0.47787270034E+02  0.19999995392E+02 0.  0.
        -12    1    3    3    0    0 -0.26176669284E+02  0.12830012968E+02 -0.32152699949E+02  0.43400729966E+02  0.00000000000E+00 0.  1.
         11    1    4    4    0    0  0.21638233938E+01 -0.26509601545E+01  0.42592852112E+01  0.54636281161E+01  0.51100000000E-03 0. -1.
        -11    1    4    4    0    0 -0.28382297101E+01 -0.19927486924E+01  0.50816219322E+01  0.61521928579E+01  0.51100000000E-03 0.  1.
         12    1    4    4    0    0  0.26851075601E+02 -0.81863041210E+01  0.22811792806E+02  0.36171449060E+02  0.00000000000E+00 0. -1.
</event>
<event>
 8    1  0.3776180E-010  0.9118800E+02  0.7816164E-02  0.1184000E+00
        -11   -1    0    0    0    0  0.00000000000E+00  0.00000000000E+00  0.45593999997E+02  0.45594000000E+02  0.51100000000E-03 0.  1.
         11   -1    0    0    0    0 -0.00000000000E+00 -0.00000000000E+00 -0.45593999997E+02  0.45594000000E+02  0.51100000000E-03 0. -1.
         23    2    1    2    0    0  0.00000000000E+00  0.00000000000E+00  0.00000000000E+00  0.91188000000E+02  0.91188000000E+02 0.  0.
    9900012    2    3    3    0    0  0.38523530107E+02 -0.58762545578E+01 -0.19105772628E+02  0.47787270890E+02  0.19999999297E+02 0.  0.
         12    1    3    3    0    0 -0.38523530107E+02  0.58762545578E+01  0.19105772628E+02  0.43400729110E+02  0.00000000000E+00 0. -1.
         11    1    4    4    0    0 -0.13908927200E+01 -0.11176436680E+00 -0.57252043747E+00  0.15082618290E+01  0.51100000000E-03 0.  1.
        -11    1    4    4    0    0  0.36269574153E+01  0.11127514228E+01  0.17103766526E+01  0.41615411059E+01  0.51100000000E-03 0. -1.
        -12    1    4    4    0    0  0.36287465412E+02 -0.68772416138E+01 -0.20243628844E+02  0.42117467955E+02  0.00000000000E+00 0.  1.
</event>
<event>
 8    1  0.3776180E-010  0.9118800E+02  0.7816164E-02  0.1184000E+00
        -11   -1    0    0    0    0  0.00000000000E+00  0.00000000000E+00  0.45593999997E+02  0.45594000000E+02  0.51100000000E-03 0. -1.
         11   -1    0    0    0    0 -0.00000000000E+00 -0.00000000000E+00 -0.45593999997E+02  0.45594000000E+02  0.51100000000E-03 0.  1.
         23    2    1    2    0    0 -0.17763568394E-14  0.00000000000E+00  0.00000000000E+00  0.91188000000E+02  0.91188000000E+02 0.  0.
    9900012    2    3    3    0    0  0.11229159251E+02 -0.32351620361E+02 -0.26662739688E+02  0.47787273680E+02  0.20000012017E+02 0.  0.
         12    1    3    3    0    0 -0.11229159251E+02  0.32351620361E+02  0.26662739688E+02  0.43400726320E+02  0.00000000000E+00 0. -1.
         11    1    4    4    0    0  0.70813266839E+01 -0.12947187308E+02 -0.21261654430E+02  0.25881128186E+02  0.51100000000E-03 0. -1.
        -11    1    4    4    0    0  0.39902119730E+01 -0.46848687833E+01  0.19755246278E+00  0.61570134272E+01  0.51100000000E-03 0.  1.
        -12    1    4    4    0    0  0.15762059398E+00 -0.14719564270E+02 -0.55986377200E+01  0.15749132067E+02  0.00000000000E+00 0.  1.
</event>
<event>
 8    1  0.3776180E-010  0.9118800E+02  0.7816164E-02  0.1184000E+00
        -11   -1    0    0    0    0  0.00000000000E+00  0.00000000000E+00  0.45593999997E+02  0.45594000000E+02  0.51100000000E-03 0. -1.
         11   -1    0    0    0    0 -0.00000000000E+00 -0.00000000000E+00 -0.45593999997E+02  0.45594000000E+02  0.51100000000E-03 0.  1.
         23    2    1    2    0    0  0.35527136788E-14  0.00000000000E+00  0.00000000000E+00  0.91188000000E+02  0.91188000000E+02 0.  0.
    9900012    2    3    3    0    0  0.20817298822E+02 -0.16596881589E+02  0.34275456687E+02  0.47787270284E+02  0.19999996534E+02 0.  0.
        -12    1    3    3    0    0 -0.20817298822E+02  0.16596881589E+02 -0.34275456687E+02  0.43400729716E+02  0.00000000000E+00 0.  1.
         11    1    4    4    0    0  0.13148508942E+02 -0.98169123128E+01  0.24399661147E+02  0.29404056167E+02  0.51100000000E-03 0. -1.
        -11    1    4    4    0    0  0.10377699764E+02 -0.72480740220E+01  0.72805599648E+01  0.14602663561E+02  0.51100000000E-03 0.  1.
         12    1    4    4    0    0 -0.27089098836E+01  0.46810474603E+00  0.25952355761E+01  0.37805505560E+01  0.00000000000E+00 0. -1.
</event>
<event>
 8    1  0.3776180E-010  0.9118800E+02  0.7816164E-02  0.1184000E+00
        -11   -1    0    0    0    0  0.00000000000E+00  0.00000000000E+00  0.45593999997E+02  0.45594000000E+02  0.51100000000E-03 0. -1.
         11   -1    0    0    0    0 -0.00000000000E+00 -0.00000000000E+00 -0.45593999997E+02  0.45594000000E+02  0.51100000000E-03 0.  1.
         23    2    1    2    0    0  0.00000000000E+00  0.00000000000E+00  0.00000000000E+00  0.91188000000E+02  0.91188000000E+02 0.  0.
    9900012    2    3    3    0    0  0.10424023196E+02  0.18512422232E+02  0.37845110717E+02  0.47787280632E+02  0.20000043714E+02 0.  0.
        -12    1    3    3    0    0 -0.10424023196E+02 -0.18512422232E+02 -0.37845110717E+02  0.43400719368E+02  0.00000000000E+00 0.  1.
         11    1    4    4    0    0  0.11384234390E+02  0.30234831649E+01  0.15785703136E+02  0.19695955596E+02  0.51100000000E-03 0. -1.
        -11    1    4    4    0    0  0.34335382902E+01  0.59817138520E+01  0.80710985309E+01  0.10616624584E+02  0.51100000000E-03 0.  1.
        -12    1    4    4    0    0 -0.43937494841E+01  0.95072252149E+01  0.13988309050E+02  0.17474700452E+02  0.00000000000E+00 0.  1.
</event>
<event>
 8    1  0.3776180E-010  0.9118800E+02  0.7816164E-02  0.1184000E+00
        -11   -1    0    0    0    0  0.00000000000E+00  0.00000000000E+00  0.45593999997E+02  0.45594000000E+02  0.51100000000E-03 0. -1.
         11   -1    0    0    0    0 -0.00000000000E+00 -0.00000000000E+00 -0.45593999997E+02  0.45594000000E+02  0.51100000000E-03 0.  1.
         23    2    1    2    0    0  0.00000000000E+00  0.00000000000E+00  0.71054273576E-14  0.91188000000E+02  0.91188000000E+02 0.  0.
    9900012    2    3    3    0    0  0.85229247899E+01 -0.12674031302E+02 -0.40624536235E+02  0.47787259675E+02  0.19999948163E+02 0.  0.
         12    1    3    3    0    0 -0.85229247899E+01  0.12674031302E+02  0.40624536235E+02  0.43400740325E+02  0.00000000000E+00 0. -1.
         11    1    4    4    0    0  0.15449041470E+01  0.64092234474E-02  0.23723755262E+00  0.15630264933E+01  0.51100000000E-03 0. -1.
        -11    1    4    4    0    0  0.10786825622E+01 -0.18613027489E+01 -0.29131576686E+02  0.29210901467E+02  0.51100000000E-03 0.  1.
        -12    1    4    4    0    0  0.58993380807E+01 -0.10819137776E+02 -0.11730197101E+02  0.17013331715E+02  0.00000000000E+00 0.  1.
</event>
<event>
 8    1  0.3776180E-010  0.9118800E+02  0.7816164E-02  0.1184000E+00
        -11   -1    0    0    0    0  0.00000000000E+00  0.00000000000E+00  0.45593999997E+02  0.45594000000E+02  0.51100000000E-03 0. -1.
         11   -1    0    0    0    0 -0.00000000000E+00 -0.00000000000E+00 -0.45593999997E+02  0.45594000000E+02  0.51100000000E-03 0.  1.
         23    2    1    2    0    0  0.12212453271E-14  0.00000000000E+00  0.00000000000E+00  0.91188000000E+02  0.91188000000E+02 0.  0.
    9900012    2    3    3    0    0  0.64997948155E+00 -0.71179590404E+01  0.42808123360E+02  0.47787271436E+02  0.20000001787E+02 0.  0.
        -12    1    3    3    0    0 -0.64997948155E+00  0.71179590404E+01 -0.42808123360E+02  0.43400728564E+02  0.00000000000E+00 0.  1.
         11    1    4    4    0    0 -0.16416462769E+01 -0.54998577046E+01  0.65878013886E+01  0.87374232281E+01  0.51100000000E-03 0.  1.
        -11    1    4    4    0    0 -0.60536651912E+01 -0.10924271053E+01  0.17406923202E+02  0.18461886005E+02  0.51100000000E-03 0. -1.
         12    1    4    4    0    0  0.83452909497E+01 -0.52567423044E+00  0.18813398770E+02  0.20587962204E+02  0.00000000000E+00 0. -1.
</event>
<event>
 8    1  0.3776180E-010  0.9118800E+02  0.7816164E-02  0.1184000E+00
        -11   -1    0    0    0    0  0.00000000000E+00  0.00000000000E+00  0.45593999997E+02  0.45594000000E+02  0.51100000000E-03 0. -1.
         11   -1    0    0    0    0 -0.00000000000E+00 -0.00000000000E+00 -0.45593999997E+02  0.45594000000E+02  0.51100000000E-03 0.  1.
         23    2    1    2    0    0  0.00000000000E+00  0.71054273576E-14  0.00000000000E+00  0.91188000000E+02  0.91188000000E+02 0.  0.
    9900012    2    3    3    0    0 -0.15503629784E+02  0.34993582046E+02 -0.20462412023E+02  0.47787266980E+02  0.19999981468E+02 0.  0.
         12    1    3    3    0    0  0.15503629784E+02 -0.34993582046E+02  0.20462412023E+02  0.43400733020E+02  0.00000000000E+00 0. -1.
         11    1    4    4    0    0 -0.75294133115E+01  0.25907274670E+02 -0.11214571419E+02  0.29217213385E+02  0.51100000000E-03 0. -1.
        -11    1    4    4    0    0 -0.25229705939E+01  0.87935914940E+01 -0.93891710116E+01  0.13109125239E+02  0.51100000000E-03 0.  1.
         12    1    4    4    0    0 -0.54512458790E+01  0.29271588220E+00  0.14133040811E+00  0.54609283556E+01  0.00000000000E+00 0. -1.
</event>
<event>
 8    1  0.3776180E-010  0.9118800E+02  0.7816164E-02  0.1184000E+00
        -11   -1    0    0    0    0  0.00000000000E+00  0.00000000000E+00  0.45593999997E+02  0.45594000000E+02  0.51100000000E-03 0. -1.
         11   -1    0    0    0    0 -0.00000000000E+00 -0.00000000000E+00 -0.45593999997E+02  0.45594000000E+02  0.51100000000E-03 0.  1.
         23    2    1    2    0    0  0.17763568394E-14 -0.71054273576E-14  0.17763568394E-14  0.91188000000E+02  0.91188000000E+02 0.  0.
    9900012    2    3    3    0    0 -0.43131123079E+01  0.40828058110E+02 -0.14074443384E+02  0.47787271626E+02  0.20000002651E+02 0.  0.
         12    1    3    3    0    0  0.43131123079E+01 -0.40828058110E+02  0.14074443384E+02  0.43400728374E+02  0.00000000000E+00 0. -1.
         11    1    4    4    0    0 -0.86591611675E+00  0.84874603370E+01 -0.99006734871E+01  0.13069434932E+02  0.51100000000E-03 0. -1.
        -11    1    4    4    0    0 -0.69722674724E+01  0.15035751629E+02 -0.40318804164E+01  0.17057033760E+02  0.51100000000E-03 0.  1.
         12    1    4    4    0    0  0.35250712812E+01  0.17304846145E+02 -0.14188948076E+00  0.17660802933E+02  0.00000000000E+00 0. -1.
</event>
<event>
 8    1  0.3776180E-010  0.9118800E+02  0.7816164E-02  0.1184000E+00
        -11   -1    0    0    0    0  0.00000000000E+00  0.00000000000E+00  0.45593999997E+02  0.45594000000E+02  0.51100000000E-03 0.  1.
         11   -1    0    0    0    0 -0.00000000000E+00 -0.00000000000E+00 -0.45593999997E+02  0.45594000000E+02  0.51100000000E-03 0. -1.
         23    2    1    2    0    0 -0.88817841970E-15  0.00000000000E+00  0.00000000000E+00  0.91188000000E+02  0.91188000000E+02 0.  0.
    9900012    2    3    3    0    0 -0.52605352351E+01  0.18197752017E+02 -0.39048584906E+02  0.47787269677E+02  0.19999993767E+02 0.  0.
         12    1    3    3    0    0  0.52605352351E+01 -0.18197752017E+02  0.39048584906E+02  0.43400730323E+02  0.00000000000E+00 0. -1.
         11    1    4    4    0    0  0.24328156514E+01  0.82005564204E+01 -0.15851573359E+02  0.18012220735E+02  0.51100000000E-03 0. -1.
        -11    1    4    4    0    0  0.70666986991E+00  0.97826817809E+01 -0.15711442904E+02  0.18521600458E+02  0.51100000000E-03 0.  1.
        -12    1    4    4    0    0 -0.84000207563E+01  0.21451381519E+00 -0.74855686425E+01  0.11253448484E+02  0.00000000000E+00 0.  1.
</event>
<event>
 8    1  0.3776180E-010  0.9118800E+02  0.7816164E-02  0.1184000E+00
        -11   -1    0    0    0    0  0.00000000000E+00  0.00000000000E+00  0.45593999997E+02  0.45594000000E+02  0.51100000000E-03 0. -1.
         11   -1    0    0    0    0 -0.00000000000E+00 -0.00000000000E+00 -0.45593999997E+02  0.45594000000E+02  0.51100000000E-03 0.  1.
         23    2    1    2    0    0  0.00000000000E+00  0.88817841970E-15  0.00000000000E+00  0.91188000000E+02  0.91188000000E+02 0.  0.
    9900012    2    3    3    0    0 -0.31152893973E+02 -0.60644260226E+01 -0.29603093209E+02  0.47787271971E+02  0.20000004226E+02 0.  0.
         12    1    3    3    0    0  0.31152893973E+02  0.60644260226E+01  0.29603093209E+02  0.43400728029E+02  0.00000000000E+00 0. -1.
         11    1    4    4    0    0 -0.57658318369E+01  0.53629653241E+01 -0.78622695697E+01  0.11127510813E+02  0.51100000000E-03 0. -1.
        -11    1    4    4    0    0 -0.10774083283E+02 -0.10144257856E+01 -0.43244764511E+01  0.11653798827E+02  0.51100000000E-03 0.  1.
         12    1    4    4    0    0 -0.14612978853E+02 -0.10412965561E+02 -0.17416347189E+02  0.25005962331E+02  0.00000000000E+00 0. -1.
</event>
<event>
 8    1  0.3776180E-010  0.9118800E+02  0.7816164E-02  0.1184000E+00
        -11   -1    0    0    0    0  0.00000000000E+00  0.00000000000E+00  0.45593999997E+02  0.45594000000E+02  0.51100000000E-03 0. -1.
         11   -1    0    0    0    0 -0.00000000000E+00 -0.00000000000E+00 -0.45593999997E+02  0.45594000000E+02  0.51100000000E-03 0.  1.
         23    2    1    2    0    0  0.00000000000E+00  0.00000000000E+00  0.00000000000E+00  0.91188000000E+02  0.91188000000E+02 0.  0.
    9900012    2    3    3    0    0 -0.44281379348E+01 -0.16918288551E+02 -0.39721359809E+02  0.47787270534E+02  0.19999997674E+02 0.  0.
         12    1    3    3    0    0  0.44281379348E+01  0.16918288551E+02  0.39721359809E+02  0.43400729466E+02  0.00000000000E+00 0. -1.
         11    1    4    4    0    0 -0.34663308183E+01 -0.67695033887E+00 -0.45058687753E+01  0.57250820767E+01  0.51100000000E-03 0. -1.
        -11    1    4    4    0    0 -0.69993072390E+00 -0.14507908829E+02 -0.36884700220E+02  0.39641524091E+02  0.51100000000E-03 0.  1.
         12    1    4    4    0    0 -0.26187639257E+00 -0.17334293827E+01  0.16692091864E+01  0.24206643670E+01  0.00000000000E+00 0. -1.
</event>
<event>
 8    1  0.3776180E-010  0.9118800E+02  0.7816164E-02  0.1184000E+00
        -11   -1    0    0    0    0  0.00000000000E+00  0.00000000000E+00  0.45593999997E+02  0.45594000000E+02  0.51100000000E-03 0. -1.
         11   -1    0    0    0    0 -0.00000000000E+00 -0.00000000000E+00 -0.45593999997E+02  0.45594000000E+02  0.51100000000E-03 0.  1.
         23    2    1    2    0    0  0.17763568394E-14  0.00000000000E+00  0.00000000000E+00  0.91188000000E+02  0.91188000000E+02 0.  0.
    9900012    2    3    3    0    0  0.11488726357E+02 -0.33781372680E+01  0.41715951246E+02  0.47787271514E+02  0.20000002142E+02 0.  0.
        -12    1    3    3    0    0 -0.11488726357E+02  0.33781372680E+01 -0.41715951246E+02  0.43400728486E+02  0.00000000000E+00 0.  1.
         11    1    4    4    0    0  0.84070261047E+01  0.16820620194E+01  0.11683914427E+02  0.14492110860E+02  0.51100000000E-03 0. -1.
        -11    1    4    4    0    0  0.63414652223E+01 -0.58458642650E+01  0.11041232448E+02  0.14010607568E+02  0.51100000000E-03 0.  1.
        -12    1    4    4    0    0 -0.32597649702E+01  0.78566497760E+00  0.18990804371E+02  0.19284553087E+02  0.00000000000E+00 0.  1.
</event>
<event>
 8    1  0.3776180E-010  0.9118800E+02  0.7816164E-02  0.1184000E+00
        -11   -1    0    0    0    0  0.00000000000E+00  0.00000000000E+00  0.45593999997E+02  0.45594000000E+02  0.51100000000E-03 0. -1.
         11   -1    0    0    0    0 -0.00000000000E+00 -0.00000000000E+00 -0.45593999997E+02  0.45594000000E+02  0.51100000000E-03 0.  1.
         23    2    1    2    0    0  0.00000000000E+00  0.00000000000E+00  0.00000000000E+00  0.91188000000E+02  0.91188000000E+02 0.  0.
    9900012    2    3    3    0    0 -0.94607811230E+01 -0.46409910958E+01  0.42101991373E+02  0.47787275865E+02  0.20000021980E+02 0.  0.
        -12    1    3    3    0    0  0.94607811230E+01  0.46409910958E+01 -0.42101991373E+02  0.43400724135E+02  0.00000000000E+00 0.  1.
         11    1    4    4    0    0 -0.72771785114E+01 -0.19642677184E+01  0.12144467758E+02  0.14293487053E+02  0.51100000000E-03 0. -1.
        -11    1    4    4    0    0 -0.71752336366E+01  0.16265321977E+01  0.95934818162E+01  0.12089850220E+02  0.51100000000E-03 0.  1.
         12    1    4    4    0    0  0.49916310249E+01 -0.43032555751E+01  0.20364041799E+02  0.21403938592E+02  0.00000000000E+00 0. -1.
</event>
<event>
 8    1  0.3776180E-010  0.9118800E+02  0.7816164E-02  0.1184000E+00
        -11   -1    0    0    0    0  0.00000000000E+00  0.00000000000E+00  0.45593999997E+02  0.45594000000E+02  0.51100000000E-03 0. -1.
         11   -1    0    0    0    0 -0.00000000000E+00 -0.00000000000E+00 -0.45593999997E+02  0.45594000000E+02  0.51100000000E-03 0.  1.
         23    2    1    2    0    0  0.00000000000E+00  0.00000000000E+00  0.00000000000E+00  0.91188000000E+02  0.91188000000E+02 0.  0.
    9900012    2    3    3    0    0 -0.78336137500E+01 -0.79949051162E+01  0.41932566142E+02  0.47787261349E+02  0.19999955795E+02 0.  0.
        -12    1    3    3    0    0  0.78336137500E+01  0.79949051162E+01 -0.41932566142E+02  0.43400738651E+02  0.00000000000E+00 0.  1.
         11    1    4    4    0    0 -0.27797952960E+01 -0.35489819833E+01  0.16828671457E+02  0.17422018204E+02  0.51100000000E-03 0. -1.
        -11    1    4    4    0    0 -0.73614371090E+01 -0.90946503903E+01  0.15178370091E+02  0.19164716041E+02  0.51100000000E-03 0.  1.
        -12    1    4    4    0    0  0.23076186550E+01  0.46487272574E+01  0.99255245932E+01  0.11200527105E+02  0.00000000000E+00 0.  1.
</event>
<event>
 8    1  0.3776180E-010  0.9118800E+02  0.7816164E-02  0.1184000E+00
        -11   -1    0    0    0    0  0.00000000000E+00  0.00000000000E+00  0.45593999997E+02  0.45594000000E+02  0.51100000000E-03 0. -1.
         11   -1    0    0    0    0 -0.00000000000E+00 -0.00000000000E+00 -0.45593999997E+02  0.45594000000E+02  0.51100000000E-03 0.  1.
         23    2    1    2    0    0  0.00000000000E+00  0.00000000000E+00 -0.71054273576E-14  0.91188000000E+02  0.91188000000E+02 0.  0.
    9900012    2    3    3    0    0 -0.13183065588E+02 -0.95178214906E+01 -0.40239792807E+02  0.47787273401E+02  0.20000010743E+02 0.  0.
         12    1    3    3    0    0  0.13183065588E+02  0.95178214906E+01  0.40239792807E+02  0.43400726599E+02  0.00000000000E+00 0. -1.
         11    1    4    4    0    0 -0.51652095839E+01  0.12892921487E+01 -0.15067420489E+02  0.15980263601E+02  0.51100000000E-03 0. -1.
        -11    1    4    4    0    0 -0.57650338773E+00 -0.63665606097E+01 -0.21438379115E+02  0.22371176757E+02  0.51100000000E-03 0.  1.
         12    1    4    4    0    0 -0.74413526166E+01 -0.44405530296E+01 -0.37339932023E+01  0.94358330426E+01  0.00000000000E+00 0. -1.
</event>
<event>
 8    1  0.3776180E-010  0.9118800E+02  0.7816164E-02  0.1184000E+00
        -11   -1    0    0    0    0  0.00000000000E+00  0.00000000000E+00  0.45593999997E+02  0.45594000000E+02  0.51100000000E-03 0. -1.
         11   -1    0    0    0    0 -0.00000000000E+00 -0.00000000000E+00 -0.45593999997E+02  0.45594000000E+02  0.51100000000E-03 0.  1.
         23    2    1    2    0    0  0.00000000000E+00  0.00000000000E+00  0.00000000000E+00  0.91188000000E+02  0.91188000000E+02 0.  0.
    9900012    2    3    3    0    0  0.37074758983E+02  0.22006839916E+02 -0.49783472574E+01  0.47787277677E+02  0.20000030241E+02 0.  0.
         12    1    3    3    0    0 -0.37074758983E+02 -0.22006839916E+02  0.49783472574E+01  0.43400722323E+02  0.00000000000E+00 0. -1.
         11    1    4    4    0    0  0.11347563370E+02  0.59540451995E+01 -0.36069087547E+01  0.13312687170E+02  0.51100000000E-03 0.  1.
        -11    1    4    4    0    0  0.12831037043E+02  0.17132811063E+02  0.42564156011E+00  0.21409107817E+02  0.51100000000E-03 0. -1.
         12    1    4    4    0    0  0.12896158570E+02 -0.10800163460E+01 -0.17970800628E+01  0.13065482690E+02  0.00000000000E+00 0. -1.
</event>
<event>
 8    1  0.3776180E-010  0.9118800E+02  0.7816164E-02  0.1184000E+00
        -11   -1    0    0    0    0  0.00000000000E+00  0.00000000000E+00  0.45593999997E+02  0.45594000000E+02  0.51100000000E-03 0. -1.
         11   -1    0    0    0    0 -0.00000000000E+00 -0.00000000000E+00 -0.45593999997E+02  0.45594000000E+02  0.51100000000E-03 0.  1.
         23    2    1    2    0    0  0.35527136788E-14 -0.35527136788E-14 -0.35527136788E-14  0.91188000000E+02  0.91188000000E+02 0.  0.
    9900012    2    3    3    0    0  0.17642628552E+02 -0.29298451173E+02 -0.26720048550E+02  0.47787279062E+02  0.20000036557E+02 0.  0.
         12    1    3    3    0    0 -0.17642628552E+02  0.29298451173E+02  0.26720048550E+02  0.43400720938E+02  0.00000000000E+00 0. -1.
         11    1    4    4    0    0  0.20367521924E+01 -0.13994213027E+02 -0.45967794315E+01  0.14869994591E+02  0.51100000000E-03 0. -1.
        -11    1    4    4    0    0 -0.91667790291E+00 -0.12871880230E+01  0.43470862926E+00  0.16389396687E+01  0.51100000000E-03 0.  1.
        -12    1    4    4    0    0  0.16522554262E+02 -0.14017050124E+02 -0.22557977748E+02  0.31278344803E+02  0.00000000000E+00 0.  1.
</event>
<event>
 8    1  0.3776180E-010  0.9118800E+02  0.7816164E-02  0.1184000E+00
        -11   -1    0    0    0    0  0.00000000000E+00  0.00000000000E+00  0.45593999997E+02  0.45594000000E+02  0.51100000000E-03 0. -1.
         11   -1    0    0    0    0 -0.00000000000E+00 -0.00000000000E+00 -0.45593999997E+02  0.45594000000E+02  0.51100000000E-03 0.  1.
         23    2    1    2    0    0 -0.17763568394E-14  0.71054273576E-14  0.00000000000E+00  0.91188000000E+02  0.91188000000E+02 0.  0.
    9900012    2    3    3    0    0 -0.12496433906E+02  0.39276820295E+02  0.13594014564E+02  0.47787231518E+02  0.19999819783E+02 0.  0.
        -12    1    3    3    0    0  0.12496433906E+02 -0.39276820295E+02 -0.13594014564E+02  0.43400768482E+02  0.00000000000E+00 0.  1.
         11    1    4    4    0    0 -0.60529870205E+01  0.31947738110E+02  0.11149768225E+02  0.34374612055E+02  0.51100000000E-03 0. -1.
        -11    1    4    4    0    0  0.18654726750E+01  0.26837621998E+01  0.21043124062E+01  0.38872482311E+01  0.51100000000E-03 0.  1.
        -12    1    4    4    0    0 -0.83089195603E+01  0.46453199851E+01  0.33993393328E+00  0.95253712318E+01  0.00000000000E+00 0.  1.
</event>
<event>
 8    1  0.3776180E-010  0.9118800E+02  0.7816164E-02  0.1184000E+00
        -11   -1    0    0    0    0  0.00000000000E+00  0.00000000000E+00  0.45593999997E+02  0.45594000000E+02  0.51100000000E-03 0. -1.
         11   -1    0    0    0    0 -0.00000000000E+00 -0.00000000000E+00 -0.45593999997E+02  0.45594000000E+02  0.51100000000E-03 0.  1.
         23    2    1    2    0    0  0.00000000000E+00  0.44408920985E-15  0.00000000000E+00  0.91188000000E+02  0.91188000000E+02 0.  0.
    9900012    2    3    3    0    0  0.35924220875E+02 -0.19391731703E+01 -0.24275786305E+02  0.47787264536E+02  0.19999970327E+02 0.  0.
         12    1    3    3    0    0 -0.35924220875E+02  0.19391731703E+01  0.24275786305E+02  0.43400735464E+02  0.00000000000E+00 0. -1.
         11    1    4    4    0    0  0.19437001687E+02 -0.50834585240E+01 -0.33020313588E+01  0.20360304430E+02  0.51100000000E-03 0.  1.
        -11    1    4    4    0    0  0.63237463575E+01 -0.14952609822E+01 -0.79430609046E+01  0.10262445624E+02  0.51100000000E-03 0. -1.
        -12    1    4    4    0    0  0.10163472831E+02  0.46395463359E+01 -0.13030694041E+02  0.17164514482E+02  0.00000000000E+00 0.  1.
</event>
<event>
 8    1  0.3776180E-010  0.9118800E+02  0.7816164E-02  0.1184000E+00
        -11   -1    0    0    0    0  0.00000000000E+00  0.00000000000E+00  0.45593999997E+02  0.45594000000E+02  0.51100000000E-03 0. -1.
         11   -1    0    0    0    0 -0.00000000000E+00 -0.00000000000E+00 -0.45593999997E+02  0.45594000000E+02  0.51100000000E-03 0.  1.
         23    2    1    2    0    0  0.00000000000E+00  0.00000000000E+00  0.00000000000E+00  0.91188000000E+02  0.91188000000E+02 0.  0.
    9900012    2    3    3    0    0  0.22935388883E+02 -0.89645065099E+01  0.35738351444E+02  0.47787260327E+02  0.19999951136E+02 0.  0.
        -12    1    3    3    0    0 -0.22935388883E+02  0.89645065099E+01 -0.35738351444E+02  0.43400739673E+02  0.00000000000E+00 0.  1.
         11    1    4    4    0    0  0.13705247035E+02 -0.96342801493E-01  0.53839187386E+01  0.14725136993E+02  0.51100000000E-03 0. -1.
        -11    1    4    4    0    0  0.62131295708E+00 -0.19783052186E+01  0.51055950245E+01  0.55106099612E+01  0.51100000000E-03 0.  1.
         12    1    4    4    0    0  0.86088288909E+01 -0.68898584898E+01  0.25248837681E+02  0.27551513373E+02  0.00000000000E+00 0. -1.
</event>
<event>
 8    1  0.3776180E-010  0.9118800E+02  0.7816164E-02  0.1184000E+00
        -11   -1    0    0    0    0  0.00000000000E+00  0.00000000000E+00  0.45593999997E+02  0.45594000000E+02  0.51100000000E-03 0. -1.
         11   -1    0    0    0    0 -0.00000000000E+00 -0.00000000000E+00 -0.45593999997E+02  0.45594000000E+02  0.51100000000E-03 0.  1.
         23    2    1    2    0    0  0.00000000000E+00  0.00000000000E+00  0.00000000000E+00  0.91188000000E+02  0.91188000000E+02 0.  0.
    9900012    2    3    3    0    0  0.29220996705E+02 -0.24816388597E+02  0.20344616815E+02  0.47787271610E+02  0.20000002578E+02 0.  0.
        -12    1    3    3    0    0 -0.29220996705E+02  0.24816388597E+02 -0.20344616815E+02  0.43400728390E+02  0.00000000000E+00 0.  1.
         11    1    4    4    0    0  0.68113832979E+01 -0.61769874825E+01  0.23218562893E+01  0.94837299455E+01  0.51100000000E-03 0. -1.
        -11    1    4    4    0    0  0.11614910134E+02 -0.58875410646E+01 -0.90934346251E+00  0.13053588894E+02  0.51100000000E-03 0.  1.
         12    1    4    4    0    0  0.10794703273E+02 -0.12751860050E+02  0.18932103988E+02  0.25249952771E+02  0.00000000000E+00 0. -1.
</event>
<event>
 8    1  0.3776180E-010  0.9118800E+02  0.7816164E-02  0.1184000E+00
        -11   -1    0    0    0    0  0.00000000000E+00  0.00000000000E+00  0.45593999997E+02  0.45594000000E+02  0.51100000000E-03 0. -1.
         11   -1    0    0    0    0 -0.00000000000E+00 -0.00000000000E+00 -0.45593999997E+02  0.45594000000E+02  0.51100000000E-03 0.  1.
         23    2    1    2    0    0  0.35527136788E-14  0.44408920985E-15  0.00000000000E+00  0.91188000000E+02  0.91188000000E+02 0.  0.
    9900012    2    3    3    0    0 -0.23662404824E+02 -0.20177311516E+01 -0.36326883413E+02  0.47787273053E+02  0.20000009157E+02 0.  0.
         12    1    3    3    0    0  0.23662404824E+02  0.20177311516E+01  0.36326883413E+02  0.43400726947E+02  0.00000000000E+00 0. -1.
         11    1    4    4    0    0 -0.30274916759E+00 -0.22208223461E+01  0.91078077683E+00  0.24193451254E+01  0.51100000000E-03 0. -1.
        -11    1    4    4    0    0 -0.10917163533E+02 -0.27614124733E+01 -0.91669871803E+01  0.14520451531E+02  0.51100000000E-03 0.  1.
         12    1    4    4    0    0 -0.12442492124E+02  0.29645036678E+01 -0.28070677010E+02  0.30847476396E+02  0.00000000000E+00 0. -1.
</event>
<event>
 8    1  0.3776180E-010  0.9118800E+02  0.7816164E-02  0.1184000E+00
        -11   -1    0    0    0    0  0.00000000000E+00  0.00000000000E+00  0.45593999997E+02  0.45594000000E+02  0.51100000000E-03 0. -1.
         11   -1    0    0    0    0 -0.00000000000E+00 -0.00000000000E+00 -0.45593999997E+02  0.45594000000E+02  0.51100000000E-03 0.  1.
         23    2    1    2    0    0  0.71054273576E-14 -0.88817841970E-15  0.00000000000E+00  0.91188000000E+02  0.91188000000E+02 0.  0.
    9900012    2    3    3    0    0  0.43125821871E+02 -0.43598263292E+01  0.21860982534E+01  0.47787267020E+02  0.19999981650E+02 0.  0.
        -12    1    3    3    0    0 -0.43125821871E+02  0.43598263292E+01 -0.21860982534E+01  0.43400732980E+02  0.00000000000E+00 0.  1.
         11    1    4    4    0    0  0.20157917439E+02 -0.60428768294E+01 -0.33517688417E+01  0.21309442754E+02  0.51100000000E-03 0. -1.
        -11    1    4    4    0    0 -0.89937657574E+00 -0.15501069093E+01  0.15842938863E+00  0.17991136116E+01  0.51100000000E-03 0.  1.
        -12    1    4    4    0    0  0.23867281007E+02  0.32331574095E+01  0.53794377065E+01  0.24678710654E+02  0.00000000000E+00 0.  1.
</event>
<event>
 8    1  0.3776180E-010  0.9118800E+02  0.7816164E-02  0.1184000E+00
        -11   -1    0    0    0    0  0.00000000000E+00  0.00000000000E+00  0.45593999997E+02  0.45594000000E+02  0.51100000000E-03 0. -1.
         11   -1    0    0    0    0 -0.00000000000E+00 -0.00000000000E+00 -0.45593999997E+02  0.45594000000E+02  0.51100000000E-03 0.  1.
         23    2    1    2    0    0  0.00000000000E+00 -0.17763568394E-14 -0.17763568394E-14  0.91188000000E+02  0.91188000000E+02 0.  0.
    9900012    2    3    3    0    0  0.41786425338E+02 -0.79237730117E+01  0.86446183583E+01  0.47787297842E+02  0.20000122180E+02 0.  0.
         12    1    3    3    0    0 -0.41786425338E+02  0.79237730117E+01 -0.86446183583E+01  0.43400702158E+02  0.00000000000E+00 0. -1.
         11    1    4    4    0    0  0.26617344833E+02 -0.11797812372E+02  0.43713717793E+01  0.29441133032E+02  0.51100000000E-03 0. -1.
        -11    1    4    4    0    0  0.12239712490E+02  0.33297352302E+00  0.26343878397E+00  0.12247074485E+02  0.51100000000E-03 0.  1.
        -12    1    4    4    0    0  0.29293680156E+01  0.35410658373E+01  0.40098077950E+01  0.60990903246E+01  0.00000000000E+00 0.  1.
</event>
<event>
 8    1  0.3776180E-010  0.9118800E+02  0.7816164E-02  0.1184000E+00
        -11   -1    0    0    0    0  0.00000000000E+00  0.00000000000E+00  0.45593999997E+02  0.45594000000E+02  0.51100000000E-03 0. -1.
         11   -1    0    0    0    0 -0.00000000000E+00 -0.00000000000E+00 -0.45593999997E+02  0.45594000000E+02  0.51100000000E-03 0.  1.
         23    2    1    2    0    0  0.17763568394E-14  0.00000000000E+00  0.00000000000E+00  0.91188000000E+02  0.91188000000E+02 0.  0.
    9900012    2    3    3    0    0  0.15754585289E+02  0.33599934295E+02 -0.22504688684E+02  0.47787267806E+02  0.19999985233E+02 0.  0.
         12    1    3    3    0    0 -0.15754585289E+02 -0.33599934295E+02  0.22504688684E+02  0.43400732194E+02  0.00000000000E+00 0. -1.
         11    1    4    4    0    0  0.20596715895E+01  0.15576460289E+02 -0.82831228397E+01  0.17761714063E+02  0.51100000000E-03 0. -1.
        -11    1    4    4    0    0  0.14060719471E+02  0.17962144338E+02 -0.16222019077E+02  0.27991005064E+02  0.51100000000E-03 0.  1.
         12    1    4    4    0    0 -0.36580577139E+00  0.61329667087E-01  0.20004532330E+01  0.20345486791E+01  0.00000000000E+00 0. -1.
</event>
<event>
 8    1  0.3776180E-010  0.9118800E+02  0.7816164E-02  0.1184000E+00
        -11   -1    0    0    0    0  0.00000000000E+00  0.00000000000E+00  0.45593999997E+02  0.45594000000E+02  0.51100000000E-03 0. -1.
         11   -1    0    0    0    0 -0.00000000000E+00 -0.00000000000E+00 -0.45593999997E+02  0.45594000000E+02  0.51100000000E-03 0.  1.
         23    2    1    2    0    0 -0.11102230246E-14 -0.35527136788E-14  0.00000000000E+00  0.91188000000E+02  0.91188000000E+02 0.  0.
    9900012    2    3    3    0    0  0.16098511593E+01 -0.20265395675E+02 -0.38345082371E+02  0.47787271611E+02  0.20000002584E+02 0.  0.
         12    1    3    3    0    0 -0.16098511593E+01  0.20265395675E+02  0.38345082371E+02  0.43400728389E+02  0.00000000000E+00 0. -1.
         11    1    4    4    0    0  0.50406591619E+01 -0.15165338322E+01 -0.47030421668E+01  0.70588048234E+01  0.51100000000E-03 0. -1.
        -11    1    4    4    0    0  0.18748468110E+01 -0.10402762627E+02 -0.26497285421E+02  0.28527857539E+02  0.51100000000E-03 0.  1.
         12    1    4    4    0    0 -0.53056548136E+01 -0.83460992159E+01 -0.71447547836E+01  0.12200609249E+02  0.00000000000E+00 0. -1.
</event>
<event>
 8    1  0.3776180E-010  0.9118800E+02  0.7816164E-02  0.1184000E+00
        -11   -1    0    0    0    0  0.00000000000E+00  0.00000000000E+00  0.45593999997E+02  0.45594000000E+02  0.51100000000E-03 0.  1.
         11   -1    0    0    0    0 -0.00000000000E+00 -0.00000000000E+00 -0.45593999997E+02  0.45594000000E+02  0.51100000000E-03 0. -1.
         23    2    1    2    0    0  0.00000000000E+00  0.00000000000E+00  0.00000000000E+00  0.91188000000E+02  0.91188000000E+02 0.  0.
    9900012    2    3    3    0    0 -0.69351734300E+01  0.27412515866E+02  0.32925377349E+02  0.47787272700E+02  0.20000007548E+02 0.  0.
        -12    1    3    3    0    0  0.69351734300E+01 -0.27412515866E+02 -0.32925377349E+02  0.43400727300E+02  0.00000000000E+00 0.  1.
         11    1    4    4    0    0 -0.43319636349E+01  0.91584229476E+01  0.79170255834E+01  0.12857756965E+02  0.51100000000E-03 0. -1.
        -11    1    4    4    0    0 -0.67227747061E+01  0.12088033333E+02  0.71021808517E+01  0.15548544071E+02  0.51100000000E-03 0.  1.
         12    1    4    4    0    0  0.41195649110E+01  0.61660595858E+01  0.17906170914E+02  0.19380971664E+02  0.00000000000E+00 0. -1.
</event>
<event>
 8    1  0.3776180E-010  0.9118800E+02  0.7816164E-02  0.1184000E+00
        -11   -1    0    0    0    0  0.00000000000E+00  0.00000000000E+00  0.45593999997E+02  0.45594000000E+02  0.51100000000E-03 0. -1.
         11   -1    0    0    0    0 -0.00000000000E+00 -0.00000000000E+00 -0.45593999997E+02  0.45594000000E+02  0.51100000000E-03 0.  1.
         23    2    1    2    0    0  0.44408920985E-15 -0.44408920985E-15  0.00000000000E+00  0.91188000000E+02  0.91188000000E+02 0.  0.
    9900012    2    3    3    0    0  0.29386410766E+01 -0.27915227160E+01  0.43211053034E+02  0.47787270573E+02  0.19999997851E+02 0.  0.
        -12    1    3    3    0    0 -0.29386410766E+01  0.27915227160E+01 -0.43211053034E+02  0.43400729427E+02  0.00000000000E+00 0.  1.
         11    1    4    4    0    0  0.51622074075E+01 -0.12314480273E+01  0.11090718997E+02  0.12295076157E+02  0.51100000000E-03 0. -1.
        -11    1    4    4    0    0  0.22908142423E+01  0.36756852871E+01  0.23457129754E+01  0.49255316309E+01  0.51100000000E-03 0.  1.
         12    1    4    4    0    0 -0.45143805732E+01 -0.52357599757E+01  0.29774621061E+02  0.30566662785E+02  0.00000000000E+00 0. -1.
</event>
<event>
 8    1  0.3776180E-010  0.9118800E+02  0.7816164E-02  0.1184000E+00
        -11   -1    0    0    0    0  0.00000000000E+00  0.00000000000E+00  0.45593999997E+02  0.45594000000E+02  0.51100000000E-03 0. -1.
         11   -1    0    0    0    0 -0.00000000000E+00 -0.00000000000E+00 -0.45593999997E+02  0.45594000000E+02  0.51100000000E-03 0.  1.
         23    2    1    2    0    0  0.44408920985E-15  0.44408920985E-15  0.00000000000E+00  0.91188000000E+02  0.91188000000E+02 0.  0.
    9900012    2    3    3    0    0  0.29998407194E+01 -0.37341728172E+01  0.43135601274E+02  0.47787272031E+02  0.20000004498E+02 0.  0.
        -12    1    3    3    0    0 -0.29998407194E+01  0.37341728172E+01 -0.43135601274E+02  0.43400727969E+02  0.00000000000E+00 0.  1.
         11    1    4    4    0    0  0.44445974480E+00 -0.48001321213E+01  0.31688180735E+01  0.57689012031E+01  0.51100000000E-03 0. -1.
        -11    1    4    4    0    0 -0.77113238583E+00 -0.23206442850E+00 -0.77663585900E+00  0.11187772674E+01  0.51100000000E-03 0.  1.
         12    1    4    4    0    0  0.33265133604E+01  0.12980237326E+01  0.40743419060E+02  0.40899593560E+02  0.00000000000E+00 0. -1.
</event>
<event>
 8    1  0.3776180E-010  0.9118800E+02  0.7816164E-02  0.1184000E+00
        -11   -1    0    0    0    0  0.00000000000E+00  0.00000000000E+00  0.45593999997E+02  0.45594000000E+02  0.51100000000E-03 0. -1.
         11   -1    0    0    0    0 -0.00000000000E+00 -0.00000000000E+00 -0.45593999997E+02  0.45594000000E+02  0.51100000000E-03 0.  1.
         23    2    1    2    0    0  0.00000000000E+00  0.00000000000E+00 -0.71054273576E-14  0.91188000000E+02  0.91188000000E+02 0.  0.
    9900012    2    3    3    0    0  0.10450737271E+02  0.17564452525E+02 -0.38287006538E+02  0.47787276830E+02  0.20000026379E+02 0.  0.
         12    1    3    3    0    0 -0.10450737271E+02 -0.17564452525E+02  0.38287006538E+02  0.43400723170E+02  0.00000000000E+00 0. -1.
         11    1    4    4    0    0 -0.16371543780E+01 -0.12097010208E+01 -0.28019530635E+01  0.34633209855E+01  0.51100000000E-03 0. -1.
        -11    1    4    4    0    0 -0.42998302667E+00  0.12547214305E+02 -0.17733181043E+02  0.21727475288E+02  0.51100000000E-03 0.  1.
         12    1    4    4    0    0  0.12517874676E+02  0.62269392409E+01 -0.17751872431E+02  0.22596480556E+02  0.00000000000E+00 0. -1.
</event>
<event>
 8    1  0.3776180E-010  0.9118800E+02  0.7816164E-02  0.1184000E+00
        -11   -1    0    0    0    0  0.00000000000E+00  0.00000000000E+00  0.45593999997E+02  0.45594000000E+02  0.51100000000E-03 0.  1.
         11   -1    0    0    0    0 -0.00000000000E+00 -0.00000000000E+00 -0.45593999997E+02  0.45594000000E+02  0.51100000000E-03 0. -1.
         23    2    1    2    0    0  0.00000000000E+00  0.00000000000E+00  0.00000000000E+00  0.91188000000E+02  0.91188000000E+02 0.  0.
    9900012    2    3    3    0    0 -0.38390406089E+02 -0.20232388937E+02 -0.67106562921E+00  0.47787272232E+02  0.20000005413E+02 0.  0.
         12    1    3    3    0    0  0.38390406089E+02  0.20232388937E+02  0.67106562921E+00  0.43400727768E+02  0.00000000000E+00 0. -1.
         11    1    4    4    0    0 -0.10306796408E+02 -0.93906868330E+01 -0.29008062676E+00  0.13946296943E+02  0.51100000000E-03 0. -1.
        -11    1    4    4    0    0 -0.27793232912E+02 -0.13492150256E+02 -0.15406310760E+01  0.30933403605E+02  0.51100000000E-03 0.  1.
         12    1    4    4    0    0 -0.29037676854E+00  0.26504481525E+01  0.11596460735E+01  0.29075716832E+01  0.00000000000E+00 0. -1.
</event>
<event>
 8    1  0.3776180E-010  0.9118800E+02  0.7816164E-02  0.1184000E+00
        -11   -1    0    0    0    0  0.00000000000E+00  0.00000000000E+00  0.45593999997E+02  0.45594000000E+02  0.51100000000E-03 0. -1.
         11   -1    0    0    0    0 -0.00000000000E+00 -0.00000000000E+00 -0.45593999997E+02  0.45594000000E+02  0.51100000000E-03 0.  1.
         23    2    1    2    0    0 -0.22204460493E-15  0.00000000000E+00  0.00000000000E+00  0.91188000000E+02  0.91188000000E+02 0.  0.
    9900012    2    3    3    0    0  0.15670968556E+01 -0.13390458798E+02 -0.41253642196E+02  0.47787272198E+02  0.20000005258E+02 0.  0.
         12    1    3    3    0    0 -0.15670968556E+01  0.13390458798E+02  0.41253642196E+02  0.43400727802E+02  0.00000000000E+00 0. -1.
         11    1    4    4    0    0  0.18177984583E+01 -0.16554940596E+01 -0.17185516107E+02  0.17360501604E+02  0.51100000000E-03 0. -1.
        -11    1    4    4    0    0  0.83504794231E+00  0.19302707136E+01 -0.11939091880E+02  0.12122919008E+02  0.51100000000E-03 0.  1.
         12    1    4    4    0    0 -0.10857495451E+01 -0.13665235452E+02 -0.12129034209E+02  0.18303851586E+02  0.00000000000E+00 0. -1.
</event>
<event>
 8    1  0.3776180E-010  0.9118800E+02  0.7816164E-02  0.1184000E+00
        -11   -1    0    0    0    0  0.00000000000E+00  0.00000000000E+00  0.45593999997E+02  0.45594000000E+02  0.51100000000E-03 0. -1.
         11   -1    0    0    0    0 -0.00000000000E+00 -0.00000000000E+00 -0.45593999997E+02  0.45594000000E+02  0.51100000000E-03 0.  1.
         23    2    1    2    0    0  0.35527136788E-14  0.00000000000E+00  0.35527136788E-14  0.91188000000E+02  0.91188000000E+02 0.  0.
    9900012    2    3    3    0    0  0.28258843815E+02 -0.12676401184E+02  0.30403449339E+02  0.47787272674E+02  0.20000007431E+02 0.  0.
        -12    1    3    3    0    0 -0.28258843815E+02  0.12676401184E+02 -0.30403449339E+02  0.43400727326E+02  0.00000000000E+00 0.  1.
         11    1    4    4    0    0  0.46326115416E+01 -0.64778464473E+01  0.70426791457E+01  0.10631223547E+02  0.51100000000E-03 0. -1.
        -11    1    4    4    0    0  0.25816101664E+02 -0.66476774051E+01  0.21554412240E+02  0.34281998297E+02  0.51100000000E-03 0.  1.
        -12    1    4    4    0    0 -0.21898693906E+01  0.44912266868E+00  0.18063579530E+01  0.28740508300E+01  0.00000000000E+00 0.  1.
</event>
<event>
 8    1  0.3776180E-010  0.9118800E+02  0.7816164E-02  0.1184000E+00
        -11   -1    0    0    0    0  0.00000000000E+00  0.00000000000E+00  0.45593999997E+02  0.45594000000E+02  0.51100000000E-03 0. -1.
         11   -1    0    0    0    0 -0.00000000000E+00 -0.00000000000E+00 -0.45593999997E+02  0.45594000000E+02  0.51100000000E-03 0.  1.
         23    2    1    2    0    0  0.00000000000E+00 -0.35527136788E-14  0.00000000000E+00  0.91188000000E+02  0.91188000000E+02 0.  0.
    9900012    2    3    3    0    0  0.13494978058E+02  0.26413055610E+02  0.31683738352E+02  0.47787271718E+02  0.20000003071E+02 0.  0.
        -12    1    3    3    0    0 -0.13494978058E+02 -0.26413055610E+02 -0.31683738352E+02  0.43400728282E+02  0.00000000000E+00 0.  1.
         11    1    4    4    0    0  0.38425661155E+01  0.81772496407E+01  0.98078330469E+01  0.13335153369E+02  0.51100000000E-03 0. -1.
        -11    1    4    4    0    0 -0.30746968969E+01  0.24203978890E-01  0.71878989534E+01  0.78179433655E+01  0.51100000000E-03 0.  1.
        -12    1    4    4    0    0  0.12727108840E+02  0.18211601990E+02  0.14688006352E+02  0.26634174984E+02  0.00000000000E+00 0.  1.
</event>
<event>
 8    1  0.3776180E-010  0.9118800E+02  0.7816164E-02  0.1184000E+00
        -11   -1    0    0    0    0  0.00000000000E+00  0.00000000000E+00  0.45593999997E+02  0.45594000000E+02  0.51100000000E-03 0. -1.
         11   -1    0    0    0    0 -0.00000000000E+00 -0.00000000000E+00 -0.45593999997E+02  0.45594000000E+02  0.51100000000E-03 0.  1.
         23    2    1    2    0    0 -0.88817841970E-15  0.00000000000E+00  0.00000000000E+00  0.91188000000E+02  0.91188000000E+02 0.  0.
    9900012    2    3    3    0    0  0.23627733529E+01 -0.23193277010E+02  0.36607549039E+02  0.47787269096E+02  0.19999991117E+02 0.  0.
        -12    1    3    3    0    0 -0.23627733529E+01  0.23193277010E+02 -0.36607549039E+02  0.43400730904E+02  0.00000000000E+00 0.  1.
         11    1    4    4    0    0 -0.50429307187E+01 -0.79746015094E+00  0.12491121996E+02  0.13494266261E+02  0.51100000000E-03 0. -1.
        -11    1    4    4    0    0  0.11760149811E+01 -0.32802153344E+01  0.93562979581E+00  0.36080780551E+01  0.51100000000E-03 0.  1.
        -12    1    4    4    0    0  0.62296890904E+01 -0.19115601524E+02  0.23180797246E+02  0.30684924780E+02  0.00000000000E+00 0.  1.
</event>
<event>
 8    1  0.3776180E-010  0.9118800E+02  0.7816164E-02  0.1184000E+00
        -11   -1    0    0    0    0  0.00000000000E+00  0.00000000000E+00  0.45593999997E+02  0.45594000000E+02  0.51100000000E-03 0. -1.
         11   -1    0    0    0    0 -0.00000000000E+00 -0.00000000000E+00 -0.45593999997E+02  0.45594000000E+02  0.51100000000E-03 0.  1.
         23    2    1    2    0    0  0.35527136788E-14  0.35527136788E-14  0.00000000000E+00  0.91188000000E+02  0.91188000000E+02 0.  0.
    9900012    2    3    3    0    0  0.19846671275E+02  0.25472919060E+02 -0.28997637337E+02  0.47787274923E+02  0.20000017683E+02 0.  0.
         12    1    3    3    0    0 -0.19846671275E+02 -0.25472919060E+02  0.28997637337E+02  0.43400725077E+02  0.00000000000E+00 0. -1.
         11    1    4    4    0    0 -0.58837181292E+00 -0.14063808559E+00  0.57616353590E+00  0.83541914186E+00  0.51100000000E-03 0. -1.
        -11    1    4    4    0    0  0.56825301979E+01  0.90732261059E+01 -0.20252466341E+02  0.22908011144E+02  0.51100000000E-03 0.  1.
         12    1    4    4    0    0  0.14752512890E+02  0.16540331040E+02 -0.93213345312E+01  0.24043844637E+02  0.00000000000E+00 0. -1.
</event>
<event>
 8    1  0.3776180E-010  0.9118800E+02  0.7816164E-02  0.1184000E+00
        -11   -1    0    0    0    0  0.00000000000E+00  0.00000000000E+00  0.45593999997E+02  0.45594000000E+02  0.51100000000E-03 0. -1.
         11   -1    0    0    0    0 -0.00000000000E+00 -0.00000000000E+00 -0.45593999997E+02  0.45594000000E+02  0.51100000000E-03 0.  1.
         23    2    1    2    0    0  0.00000000000E+00  0.00000000000E+00  0.00000000000E+00  0.91188000000E+02  0.91188000000E+02 0.  0.
    9900012    2    3    3    0    0 -0.24895442688E+02 -0.37628036588E+01  0.35350827528E+02  0.47787276908E+02  0.20000026734E+02 0.  0.
        -12    1    3    3    0    0  0.24895442688E+02  0.37628036588E+01 -0.35350827528E+02  0.43400723092E+02  0.00000000000E+00 0.  1.
         11    1    4    4    0    0 -0.92024838797E+01  0.45119146472E+01  0.10458618075E+02  0.14643284319E+02  0.51100000000E-03 0. -1.
        -11    1    4    4    0    0  0.80215594665E+00  0.50027633159E+00 -0.89346795550E+00  0.13007750841E+01  0.51100000000E-03 0.  1.
        -12    1    4    4    0    0 -0.16495114755E+02 -0.87749946376E+01  0.25785677408E+02  0.31843217505E+02  0.00000000000E+00 0.  1.
</event>
<event>
 8    1  0.3776180E-010  0.9118800E+02  0.7816164E-02  0.1184000E+00
        -11   -1    0    0    0    0  0.00000000000E+00  0.00000000000E+00  0.45593999997E+02  0.45594000000E+02  0.51100000000E-03 0.  1.
         11   -1    0    0    0    0 -0.00000000000E+00 -0.00000000000E+00 -0.45593999997E+02  0.45594000000E+02  0.51100000000E-03 0. -1.
         23    2    1    2    0    0  0.35527136788E-14  0.35527136788E-14  0.00000000000E+00  0.91188000000E+02  0.91188000000E+02 0.  0.
    9900012    2    3    3    0    0 -0.29135106018E+02  0.31661866905E+02 -0.56829162950E+01  0.47787265488E+02  0.19999974667E+02 0.  0.
         12    1    3    3    0    0  0.29135106018E+02 -0.31661866905E+02  0.56829162950E+01  0.43400734512E+02  0.00000000000E+00 0. -1.
         11    1    4    4    0    0 -0.64271345847E+01  0.57270611327E+01 -0.16988424796E+01  0.87745857008E+01  0.51100000000E-03 0. -1.
        -11    1    4    4    0    0 -0.21666894096E+02  0.14028266964E+02  0.15153421059E+01  0.25856195307E+02  0.51100000000E-03 0.  1.
         12    1    4    4    0    0 -0.10410773365E+01  0.11906538808E+02 -0.54994159214E+01  0.13156484480E+02  0.00000000000E+00 0. -1.
</event>
<event>
 8    1  0.3776180E-010  0.9118800E+02  0.7816164E-02  0.1184000E+00
        -11   -1    0    0    0    0  0.00000000000E+00  0.00000000000E+00  0.45593999997E+02  0.45594000000E+02  0.51100000000E-03 0. -1.
         11   -1    0    0    0    0 -0.00000000000E+00 -0.00000000000E+00 -0.45593999997E+02  0.45594000000E+02  0.51100000000E-03 0.  1.
         23    2    1    2    0    0 -0.17763568394E-14  0.71054273576E-14 -0.35527136788E-14  0.91188000000E+02  0.91188000000E+02 0.  0.
    9900012    2    3    3    0    0 -0.13532065895E+02  0.36004978580E+02 -0.20103441326E+02  0.47787266791E+02  0.19999980609E+02 0.  0.
         12    1    3    3    0    0  0.13532065895E+02 -0.36004978580E+02  0.20103441326E+02  0.43400733209E+02  0.00000000000E+00 0. -1.
         11    1    4    4    0    0  0.45788563068E+00  0.14815621383E+02 -0.98708470772E+01  0.17808591143E+02  0.51100000000E-03 0. -1.
        -11    1    4    4    0    0 -0.68205278778E+01  0.19353928119E+02 -0.92644656630E+01  0.22514982977E+02  0.51100000000E-03 0.  1.
        -12    1    4    4    0    0 -0.71694236477E+01  0.18354290777E+01 -0.96812858558E+00  0.74636926717E+01  0.00000000000E+00 0.  1.
</event>
<event>
 8    1  0.3776180E-010  0.9118800E+02  0.7816164E-02  0.1184000E+00
        -11   -1    0    0    0    0  0.00000000000E+00  0.00000000000E+00  0.45593999997E+02  0.45594000000E+02  0.51100000000E-03 0. -1.
         11   -1    0    0    0    0 -0.00000000000E+00 -0.00000000000E+00 -0.45593999997E+02  0.45594000000E+02  0.51100000000E-03 0.  1.
         23    2    1    2    0    0  0.00000000000E+00 -0.22204460493E-15  0.71054273576E-14  0.91188000000E+02  0.91188000000E+02 0.  0.
    9900012    2    3    3    0    0  0.11744703488E+02 -0.65283576039E+00  0.41776296160E+02  0.47787272179E+02  0.20000005173E+02 0.  0.
        -12    1    3    3    0    0 -0.11744703488E+02  0.65283576039E+00 -0.41776296160E+02  0.43400727821E+02  0.00000000000E+00 0.  1.
         11    1    4    4    0    0  0.71535118461E+01  0.44007361632E+00  0.11466335574E+02  0.13521954307E+02  0.51100000000E-03 0. -1.
        -11    1    4    4    0    0  0.35603737604E+01 -0.53765003143E+01  0.28942408553E+02  0.29652083065E+02  0.51100000000E-03 0.  1.
        -12    1    4    4    0    0  0.10308178817E+01  0.42835909376E+01  0.13675520324E+01  0.46132348073E+01  0.00000000000E+00 0.  1.
</event>
<event>
 8    1  0.3776180E-010  0.9118800E+02  0.7816164E-02  0.1184000E+00
        -11   -1    0    0    0    0  0.00000000000E+00  0.00000000000E+00  0.45593999997E+02  0.45594000000E+02  0.51100000000E-03 0. -1.
         11   -1    0    0    0    0 -0.00000000000E+00 -0.00000000000E+00 -0.45593999997E+02  0.45594000000E+02  0.51100000000E-03 0.  1.
         23    2    1    2    0    0  0.35527136788E-14 -0.44408920985E-15  0.00000000000E+00  0.91188000000E+02  0.91188000000E+02 0.  0.
    9900012    2    3    3    0    0  0.28098026524E+02 -0.26391386136E+01 -0.32972091669E+02  0.47787274473E+02  0.20000015634E+02 0.  0.
         12    1    3    3    0    0 -0.28098026524E+02  0.26391386136E+01  0.32972091669E+02  0.43400725527E+02  0.00000000000E+00 0. -1.
         11    1    4    4    0    0  0.17441719903E+02 -0.18892326467E+01 -0.13617165420E+02  0.22208331488E+02  0.51100000000E-03 0.  1.
        -11    1    4    4    0    0  0.97224794092E+01 -0.38240443468E+01 -0.64455916207E+01  0.12275812504E+02  0.51100000000E-03 0. -1.
         12    1    4    4    0    0  0.93382721204E+00  0.30741383799E+01 -0.12909334629E+02  0.13303130481E+02  0.00000000000E+00 0. -1.
</event>
<event>
 8    1  0.3776180E-010  0.9118800E+02  0.7816164E-02  0.1184000E+00
        -11   -1    0    0    0    0  0.00000000000E+00  0.00000000000E+00  0.45593999997E+02  0.45594000000E+02  0.51100000000E-03 0. -1.
         11   -1    0    0    0    0 -0.00000000000E+00 -0.00000000000E+00 -0.45593999997E+02  0.45594000000E+02  0.51100000000E-03 0.  1.
         23    2    1    2    0    0  0.88817841970E-15  0.17763568394E-14  0.00000000000E+00  0.91188000000E+02  0.91188000000E+02 0.  0.
    9900012    2    3    3    0    0  0.46068516737E+01  0.91290062620E+01  0.42178920181E+02  0.47787272526E+02  0.20000006753E+02 0.  0.
        -12    1    3    3    0    0 -0.46068516737E+01 -0.91290062620E+01 -0.42178920181E+02  0.43400727474E+02  0.00000000000E+00 0.  1.
         11    1    4    4    0    0  0.25182671183E+01 -0.16464963389E+01  0.12112291031E+02  0.12480393173E+02  0.51100000000E-03 0. -1.
        -11    1    4    4    0    0  0.56354650440E+01  0.22696235755E+00  0.38580110059E+01  0.68333174488E+01  0.51100000000E-03 0.  1.
        -12    1    4    4    0    0 -0.35468804885E+01  0.10548540243E+02  0.26208618145E+02  0.28473561904E+02  0.00000000000E+00 0.  1.
</event>
<event>
 8    1  0.3776180E-010  0.9118800E+02  0.7816164E-02  0.1184000E+00
        -11   -1    0    0    0    0  0.00000000000E+00  0.00000000000E+00  0.45593999997E+02  0.45594000000E+02  0.51100000000E-03 0. -1.
         11   -1    0    0    0    0 -0.00000000000E+00 -0.00000000000E+00 -0.45593999997E+02  0.45594000000E+02  0.51100000000E-03 0.  1.
         23    2    1    2    0    0  0.35527136788E-14 -0.88817841970E-15 -0.35527136788E-14  0.91188000000E+02  0.91188000000E+02 0.  0.
    9900012    2    3    3    0    0  0.29321410469E+02  0.24576003570E+01  0.31903579655E+02  0.47787270672E+02  0.19999998302E+02 0.  0.
        -12    1    3    3    0    0 -0.29321410469E+02 -0.24576003570E+01 -0.31903579655E+02  0.43400729328E+02  0.00000000000E+00 0.  1.
         11    1    4    4    0    0  0.15279408958E+02  0.57554859169E+01  0.24738649600E+02  0.29640963894E+02  0.51100000000E-03 0. -1.
        -11    1    4    4    0    0  0.11529290915E+01  0.15450150323E+01  0.33393635393E+01  0.38558612590E+01  0.51100000000E-03 0.  1.
        -12    1    4    4    0    0  0.12889072419E+02 -0.48429005922E+01  0.38255665158E+01  0.14290445519E+02  0.00000000000E+00 0.  1.
</event>
<event>
 8    1  0.3776180E-010  0.9118800E+02  0.7816164E-02  0.1184000E+00
        -11   -1    0    0    0    0  0.00000000000E+00  0.00000000000E+00  0.45593999997E+02  0.45594000000E+02  0.51100000000E-03 0. -1.
         11   -1    0    0    0    0 -0.00000000000E+00 -0.00000000000E+00 -0.45593999997E+02  0.45594000000E+02  0.51100000000E-03 0.  1.
         23    2    1    2    0    0  0.00000000000E+00  0.17763568394E-14  0.00000000000E+00  0.91188000000E+02  0.91188000000E+02 0.  0.
    9900012    2    3    3    0    0  0.18304051788E+02 -0.15873771517E+02 -0.36008446764E+02  0.47787272214E+02  0.20000005332E+02 0.  0.
         12    1    3    3    0    0 -0.18304051788E+02  0.15873771517E+02  0.36008446764E+02  0.43400727786E+02  0.00000000000E+00 0. -1.
         11    1    4    4    0    0  0.17186144690E+02 -0.50941878503E+01 -0.18076617765E+02  0.25457384572E+02  0.51100000000E-03 0. -1.
        -11    1    4    4    0    0  0.35359962966E+01 -0.66337667559E+01 -0.65238820526E+01  0.99534500791E+01  0.51100000000E-03 0.  1.
        -12    1    4    4    0    0 -0.24180891980E+01 -0.41458169112E+01 -0.11407946946E+02  0.12376437563E+02  0.00000000000E+00 0.  1.
</event>
<event>
 8    1  0.3776180E-010  0.9118800E+02  0.7816164E-02  0.1184000E+00
        -11   -1    0    0    0    0  0.00000000000E+00  0.00000000000E+00  0.45593999997E+02  0.45594000000E+02  0.51100000000E-03 0. -1.
         11   -1    0    0    0    0 -0.00000000000E+00 -0.00000000000E+00 -0.45593999997E+02  0.45594000000E+02  0.51100000000E-03 0.  1.
         23    2    1    2    0    0  0.00000000000E+00  0.00000000000E+00  0.00000000000E+00  0.91188000000E+02  0.91188000000E+02 0.  0.
    9900012    2    3    3    0    0 -0.83047163874E+01 -0.21834339745E+02 -0.36577553161E+02  0.47787261509E+02  0.19999956523E+02 0.  0.
         12    1    3    3    0    0  0.83047163874E+01  0.21834339745E+02  0.36577553161E+02  0.43400738491E+02  0.00000000000E+00 0. -1.
         11    1    4    4    0    0  0.25018848023E+01 -0.65640887247E+01 -0.10130598599E+02  0.12327843144E+02  0.51100000000E-03 0. -1.
        -11    1    4    4    0    0 -0.17261188043E+01 -0.51032872314E+01 -0.19360004440E+02  0.20095591528E+02  0.51100000000E-03 0.  1.
         12    1    4    4    0    0 -0.90804823854E+01 -0.10166963789E+02 -0.70869501220E+01  0.15363826836E+02  0.00000000000E+00 0. -1.
</event>
<event>
 8    1  0.3776180E-010  0.9118800E+02  0.7816164E-02  0.1184000E+00
        -11   -1    0    0    0    0  0.00000000000E+00  0.00000000000E+00  0.45593999997E+02  0.45594000000E+02  0.51100000000E-03 0. -1.
         11   -1    0    0    0    0 -0.00000000000E+00 -0.00000000000E+00 -0.45593999997E+02  0.45594000000E+02  0.51100000000E-03 0.  1.
         23    2    1    2    0    0  0.88817841970E-15  0.00000000000E+00  0.71054273576E-14  0.91188000000E+02  0.91188000000E+02 0.  0.
    9900012    2    3    3    0    0 -0.49644709794E+01  0.17176141453E+02  0.39546896061E+02  0.47787276556E+02  0.20000025131E+02 0.  0.
        -12    1    3    3    0    0  0.49644709794E+01 -0.17176141453E+02 -0.39546896061E+02  0.43400723444E+02  0.00000000000E+00 0.  1.
         11    1    4    4    0    0 -0.15278707281E+01  0.70870316852E+01  0.18952516869E+02  0.20291828478E+02  0.51100000000E-03 0. -1.
        -11    1    4    4    0    0 -0.27067031266E+01  0.13702025373E+02  0.18731935291E+02  0.23365725779E+02  0.51100000000E-03 0.  1.
         12    1    4    4    0    0 -0.72989712461E+00 -0.36129156054E+01  0.18624439014E+01  0.41297222994E+01  0.00000000000E+00 0. -1.
</event>
<event>
 8    1  0.3776180E-010  0.9118800E+02  0.7816164E-02  0.1184000E+00
        -11   -1    0    0    0    0  0.00000000000E+00  0.00000000000E+00  0.45593999997E+02  0.45594000000E+02  0.51100000000E-03 0. -1.
         11   -1    0    0    0    0 -0.00000000000E+00 -0.00000000000E+00 -0.45593999997E+02  0.45594000000E+02  0.51100000000E-03 0.  1.
         23    2    1    2    0    0  0.12212453271E-14  0.22204460493E-15 -0.71054273576E-14  0.91188000000E+02  0.91188000000E+02 0.  0.
    9900012    2    3    3    0    0 -0.79772815677E+00 -0.18318291567E+01  0.43354713758E+02  0.47787272203E+02  0.20000005282E+02 0.  0.
        -12    1    3    3    0    0  0.79772815677E+00  0.18318291567E+01 -0.43354713758E+02  0.43400727797E+02  0.00000000000E+00 0.  1.
         11    1    4    4    0    0  0.53876394990E+00  0.17914940513E+01  0.43955515345E+01  0.47770902318E+01  0.51100000000E-03 0.  1.
        -11    1    4    4    0    0  0.65500659018E+01  0.94521761356E-01  0.29190052396E+02  0.29916073553E+02  0.51100000000E-03 0. -1.
         12    1    4    4    0    0 -0.78865580085E+01 -0.37178449694E+01  0.97691098274E+01  0.13094108418E+02  0.00000000000E+00 0. -1.
</event>
<event>
 8    1  0.3776180E-010  0.9118800E+02  0.7816164E-02  0.1184000E+00
        -11   -1    0    0    0    0  0.00000000000E+00  0.00000000000E+00  0.45593999997E+02  0.45594000000E+02  0.51100000000E-03 0. -1.
         11   -1    0    0    0    0 -0.00000000000E+00 -0.00000000000E+00 -0.45593999997E+02  0.45594000000E+02  0.51100000000E-03 0.  1.
         23    2    1    2    0    0  0.00000000000E+00  0.00000000000E+00  0.00000000000E+00  0.91188000000E+02  0.91188000000E+02 0.  0.
    9900012    2    3    3    0    0 -0.17827645864E+01  0.16433494294E+02 -0.40129602749E+02  0.47787274187E+02  0.20000014329E+02 0.  0.
         12    1    3    3    0    0  0.17827645864E+01 -0.16433494294E+02  0.40129602749E+02  0.43400725813E+02  0.00000000000E+00 0. -1.
         11    1    4    4    0    0 -0.91523619313E+00  0.27620217357E+01 -0.62737179775E+01  0.69156314882E+01  0.51100000000E-03 0. -1.
        -11    1    4    4    0    0  0.14911249327E+01  0.17855084460E+02 -0.24469727305E+02  0.30328123076E+02  0.51100000000E-03 0.  1.
         12    1    4    4    0    0 -0.23586533260E+01 -0.41836119021E+01 -0.93861574662E+01  0.10543519623E+02  0.00000000000E+00 0. -1.
</event>
<event>
 8    1  0.3776180E-010  0.9118800E+02  0.7816164E-02  0.1184000E+00
        -11   -1    0    0    0    0  0.00000000000E+00  0.00000000000E+00  0.45593999997E+02  0.45594000000E+02  0.51100000000E-03 0. -1.
         11   -1    0    0    0    0 -0.00000000000E+00 -0.00000000000E+00 -0.45593999997E+02  0.45594000000E+02  0.51100000000E-03 0.  1.
         23    2    1    2    0    0  0.00000000000E+00 -0.35527136788E-14  0.00000000000E+00  0.91188000000E+02  0.91188000000E+02 0.  0.
    9900012    2    3    3    0    0  0.18261919552E+01  0.26875283452E+02  0.34029517434E+02  0.47787263895E+02  0.19999967403E+02 0.  0.
        -12    1    3    3    0    0 -0.18261919552E+01 -0.26875283452E+02 -0.34029517434E+02  0.43400736105E+02  0.00000000000E+00 0.  1.
         11    1    4    4    0    0  0.23597363903E+01  0.27871497522E+01  0.93228283657E+01  0.10012576520E+02  0.51100000000E-03 0.  1.
        -11    1    4    4    0    0 -0.38424472151E+00  0.76574661747E+00  0.10353963420E+02  0.10389348905E+02  0.51100000000E-03 0. -1.
         12    1    4    4    0    0 -0.14929971362E+00  0.23322387082E+02  0.14352725648E+02  0.27385338470E+02  0.00000000000E+00 0. -1.
</event>
<event>
 8    1  0.3776180E-010  0.9118800E+02  0.7816164E-02  0.1184000E+00
        -11   -1    0    0    0    0  0.00000000000E+00  0.00000000000E+00  0.45593999997E+02  0.45594000000E+02  0.51100000000E-03 0. -1.
         11   -1    0    0    0    0 -0.00000000000E+00 -0.00000000000E+00 -0.45593999997E+02  0.45594000000E+02  0.51100000000E-03 0.  1.
         23    2    1    2    0    0  0.11102230246E-15  0.88817841970E-15  0.00000000000E+00  0.91188000000E+02  0.91188000000E+02 0.  0.
    9900012    2    3    3    0    0  0.88728876455E+00 -0.49004539662E+01  0.43114053162E+02  0.47787270622E+02  0.19999998075E+02 0.  0.
        -12    1    3    3    0    0 -0.88728876455E+00  0.49004539662E+01 -0.43114053162E+02  0.43400729378E+02  0.00000000000E+00 0.  1.
         11    1    4    4    0    0  0.12583696200E+01  0.61337685338E+00  0.11831085134E+02  0.11913618299E+02  0.51100000000E-03 0. -1.
        -11    1    4    4    0    0  0.35753020647E+01  0.40066382481E+01  0.39614962858E+01  0.66730343914E+01  0.51100000000E-03 0.  1.
         12    1    4    4    0    0 -0.39463829202E+01 -0.95204690677E+01  0.27321471743E+02  0.29200617932E+02  0.00000000000E+00 0. -1.
</event>
<event>
 8    1  0.3776180E-010  0.9118800E+02  0.7816164E-02  0.1184000E+00
        -11   -1    0    0    0    0  0.00000000000E+00  0.00000000000E+00  0.45593999997E+02  0.45594000000E+02  0.51100000000E-03 0. -1.
         11   -1    0    0    0    0 -0.00000000000E+00 -0.00000000000E+00 -0.45593999997E+02  0.45594000000E+02  0.51100000000E-03 0.  1.
         23    2    1    2    0    0  0.00000000000E+00  0.88817841970E-15  0.71054273576E-14  0.91188000000E+02  0.91188000000E+02 0.  0.
    9900012    2    3    3    0    0  0.89765435010E+01  0.31005917653E+01  0.42348923041E+02  0.47787270913E+02  0.19999999403E+02 0.  0.
        -12    1    3    3    0    0 -0.89765435010E+01 -0.31005917653E+01 -0.42348923041E+02  0.43400729087E+02  0.00000000000E+00 0.  1.
         11    1    4    4    0    0 -0.10076432028E+01  0.66878836934E+01  0.25749155664E+02  0.26622587229E+02  0.51100000000E-03 0. -1.
        -11    1    4    4    0    0  0.34676340676E+01  0.24502442818E+01  0.54346766114E+01  0.68966581182E+01  0.51100000000E-03 0.  1.
        -12    1    4    4    0    0  0.65165526362E+01 -0.60375362099E+01  0.11165090766E+02  0.14268025566E+02  0.00000000000E+00 0.  1.
</event>
<event>
 8    1  0.3776180E-010  0.9118800E+02  0.7816164E-02  0.1184000E+00
        -11   -1    0    0    0    0  0.00000000000E+00  0.00000000000E+00  0.45593999997E+02  0.45594000000E+02  0.51100000000E-03 0. -1.
         11   -1    0    0    0    0 -0.00000000000E+00 -0.00000000000E+00 -0.45593999997E+02  0.45594000000E+02  0.51100000000E-03 0.  1.
         23    2    1    2    0    0  0.00000000000E+00  0.00000000000E+00  0.00000000000E+00  0.91188000000E+02  0.91188000000E+02 0.  0.
    9900012    2    3    3    0    0 -0.12709360854E+02 -0.32327057589E+02  0.26020324001E+02  0.47787265366E+02  0.19999974109E+02 0.  0.
        -12    1    3    3    0    0  0.12709360854E+02  0.32327057589E+02 -0.26020324001E+02  0.43400734634E+02  0.00000000000E+00 0.  1.
         11    1    4    4    0    0  0.36071481417E+01 -0.11515603887E+02  0.12433024060E+02  0.17326301917E+02  0.51100000000E-03 0. -1.
        -11    1    4    4    0    0 -0.23861686436E+01 -0.12063850893E+01 -0.29777754407E+00  0.26903229372E+01  0.51100000000E-03 0.  1.
         12    1    4    4    0    0 -0.13930340352E+02 -0.19605068612E+02  0.13885077485E+02  0.27770640511E+02  0.00000000000E+00 0. -1.
</event>
<event>
 8    1  0.3776180E-010  0.9118800E+02  0.7816164E-02  0.1184000E+00
        -11   -1    0    0    0    0  0.00000000000E+00  0.00000000000E+00  0.45593999997E+02  0.45594000000E+02  0.51100000000E-03 0.  1.
         11   -1    0    0    0    0 -0.00000000000E+00 -0.00000000000E+00 -0.45593999997E+02  0.45594000000E+02  0.51100000000E-03 0. -1.
         23    2    1    2    0    0  0.00000000000E+00  0.00000000000E+00  0.44408920985E-15  0.91188000000E+02  0.91188000000E+02 0.  0.
    9900012    2    3    3    0    0  0.43225215026E+02 -0.32347266145E+01 -0.21773353847E+01  0.47787268904E+02  0.19999990240E+02 0.  0.
         12    1    3    3    0    0 -0.43225215026E+02  0.32347266145E+01  0.21773353847E+01  0.43400731096E+02  0.00000000000E+00 0. -1.
         11    1    4    4    0    0  0.16723255528E+01  0.36704245584E+01  0.81431666380E+00  0.41148269810E+01  0.51100000000E-03 0.  1.
        -11    1    4    4    0    0  0.25449499242E+01 -0.35297477797E+01 -0.10179743362E+01  0.44690224339E+01  0.51100000000E-03 0. -1.
        -12    1    4    4    0    0  0.39007939549E+02 -0.33754033933E+01 -0.19736777124E+01  0.39203419489E+02  0.00000000000E+00 0.  1.
</event>
<event>
 8    1  0.3776180E-010  0.9118800E+02  0.7816164E-02  0.1184000E+00
        -11   -1    0    0    0    0  0.00000000000E+00  0.00000000000E+00  0.45593999997E+02  0.45594000000E+02  0.51100000000E-03 0. -1.
         11   -1    0    0    0    0 -0.00000000000E+00 -0.00000000000E+00 -0.45593999997E+02  0.45594000000E+02  0.51100000000E-03 0.  1.
         23    2    1    2    0    0 -0.17763568394E-14  0.35527136788E-14  0.00000000000E+00  0.91188000000E+02  0.91188000000E+02 0.  0.
    9900012    2    3    3    0    0 -0.28049318376E+01  0.28895528135E+02  0.32261494835E+02  0.47787271460E+02  0.20000001895E+02 0.  0.
        -12    1    3    3    0    0  0.28049318376E+01 -0.28895528135E+02 -0.32261494835E+02  0.43400728540E+02  0.00000000000E+00 0.  1.
         11    1    4    4    0    0 -0.36868962101E+01  0.16108670257E+01  0.30982175686E+01  0.50780949776E+01  0.51100000000E-03 0. -1.
        -11    1    4    4    0    0 -0.51938384868E+01  0.13377306467E+02  0.21117090745E+02  0.25531545357E+02  0.51100000000E-03 0.  1.
         12    1    4    4    0    0  0.60758028592E+01  0.13907354642E+02  0.80461865216E+01  0.17177631125E+02  0.00000000000E+00 0. -1.
</event>
<event>
 8    1  0.3776180E-010  0.9118800E+02  0.7816164E-02  0.1184000E+00
        -11   -1    0    0    0    0  0.00000000000E+00  0.00000000000E+00  0.45593999997E+02  0.45594000000E+02  0.51100000000E-03 0. -1.
         11   -1    0    0    0    0 -0.00000000000E+00 -0.00000000000E+00 -0.45593999997E+02  0.45594000000E+02  0.51100000000E-03 0.  1.
         23    2    1    2    0    0  0.00000000000E+00  0.00000000000E+00  0.00000000000E+00  0.91188000000E+02  0.91188000000E+02 0.  0.
    9900012    2    3    3    0    0  0.99066330290E+01  0.25719230588E+02  0.33526154047E+02  0.47787271835E+02  0.20000003605E+02 0.  0.
        -12    1    3    3    0    0 -0.99066330290E+01 -0.25719230588E+02 -0.33526154047E+02  0.43400728165E+02  0.00000000000E+00 0.  1.
         11    1    4    4    0    0  0.14084991889E+01  0.74503847933E+01  0.64504296890E+00  0.76097427174E+01  0.51100000000E-03 0.  1.
        -11    1    4    4    0    0  0.58595729348E+01  0.12401304348E+02  0.11658869694E+02  0.18001560691E+02  0.51100000000E-03 0. -1.
         12    1    4    4    0    0  0.26385609053E+01  0.58675414474E+01  0.21222241385E+02  0.22175968427E+02  0.00000000000E+00 0. -1.
</event>
<event>
 8    1  0.3776180E-010  0.9118800E+02  0.7816164E-02  0.1184000E+00
        -11   -1    0    0    0    0  0.00000000000E+00  0.00000000000E+00  0.45593999997E+02  0.45594000000E+02  0.51100000000E-03 0. -1.
         11   -1    0    0    0    0 -0.00000000000E+00 -0.00000000000E+00 -0.45593999997E+02  0.45594000000E+02  0.51100000000E-03 0.  1.
         23    2    1    2    0    0  0.17763568394E-14 -0.35527136788E-14  0.35527136788E-14  0.91188000000E+02  0.91188000000E+02 0.  0.
    9900012    2    3    3    0    0 -0.12742622840E+02 -0.27882955497E+02  0.30721114270E+02  0.47787302931E+02  0.20000145383E+02 0.  0.
        -12    1    3    3    0    0  0.12742622840E+02  0.27882955497E+02 -0.30721114270E+02  0.43400697069E+02  0.00000000000E+00 0.  1.
         11    1    4    4    0    0 -0.33266918813E+01 -0.18167873748E+02  0.20940011960E+02  0.27921723023E+02  0.51100000000E-03 0. -1.
        -11    1    4    4    0    0  0.14910752798E+01 -0.13332654912E+01  0.48611024753E+01  0.52565406777E+01  0.51100000000E-03 0.  1.
        -12    1    4    4    0    0 -0.10907006239E+02 -0.83818162571E+01  0.49199998346E+01  0.14609039230E+02  0.00000000000E+00 0.  1.
</event>
<event>
 8    1  0.3776180E-010  0.9118800E+02  0.7816164E-02  0.1184000E+00
        -11   -1    0    0    0    0  0.00000000000E+00  0.00000000000E+00  0.45593999997E+02  0.45594000000E+02  0.51100000000E-03 0. -1.
         11   -1    0    0    0    0 -0.00000000000E+00 -0.00000000000E+00 -0.45593999997E+02  0.45594000000E+02  0.51100000000E-03 0.  1.
         23    2    1    2    0    0  0.00000000000E+00  0.17763568394E-14  0.00000000000E+00  0.91188000000E+02  0.91188000000E+02 0.  0.
    9900012    2    3    3    0    0  0.13460876233E+02  0.88644915550E+01  0.40297008032E+02  0.47787271252E+02  0.20000000948E+02 0.  0.
        -12    1    3    3    0    0 -0.13460876233E+02 -0.88644915550E+01 -0.40297008032E+02  0.43400728748E+02  0.00000000000E+00 0.  1.
         11    1    4    4    0    0 -0.37823196161E+01 -0.22187684124E+01  0.55573658024E+01  0.70790670197E+01  0.51100000000E-03 0.  1.
        -11    1    4    4    0    0  0.47813812567E+01  0.21494195636E+01  0.13742187848E+02  0.14708138506E+02  0.51100000000E-03 0. -1.
        -12    1    4    4    0    0  0.12461814593E+02  0.89338404039E+01  0.20997454381E+02  0.26000065727E+02  0.00000000000E+00 0.  1.
</event>
<event>
 8    1  0.3776180E-010  0.9118800E+02  0.7816164E-02  0.1184000E+00
        -11   -1    0    0    0    0  0.00000000000E+00  0.00000000000E+00  0.45593999997E+02  0.45594000000E+02  0.51100000000E-03 0. -1.
         11   -1    0    0    0    0 -0.00000000000E+00 -0.00000000000E+00 -0.45593999997E+02  0.45594000000E+02  0.51100000000E-03 0.  1.
         23    2    1    2    0    0  0.00000000000E+00  0.00000000000E+00  0.00000000000E+00  0.91188000000E+02  0.91188000000E+02 0.  0.
    9900012    2    3    3    0    0  0.33656566696E+02 -0.21842019206E+02  0.16546449632E+02  0.47787270972E+02  0.19999999668E+02 0.  0.
        -12    1    3    3    0    0 -0.33656566696E+02  0.21842019206E+02 -0.16546449632E+02  0.43400729028E+02  0.00000000000E+00 0.  1.
         11    1    4    4    0    0  0.58258600868E+01  0.22456702820E+00  0.27634980543E+01  0.64519762754E+01  0.51100000000E-03 0. -1.
        -11    1    4    4    0    0  0.23834028199E+01 -0.34422202549E+01  0.83433843049E+01  0.93349639103E+01  0.51100000000E-03 0.  1.
         12    1    4    4    0    0  0.25447303789E+02 -0.18624365980E+02  0.54395672730E+01  0.32000330786E+02  0.00000000000E+00 0. -1.
</event>
<event>
 8    1  0.3776180E-010  0.9118800E+02  0.7816164E-02  0.1184000E+00
        -11   -1    0    0    0    0  0.00000000000E+00  0.00000000000E+00  0.45593999997E+02  0.45594000000E+02  0.51100000000E-03 0. -1.
         11   -1    0    0    0    0 -0.00000000000E+00 -0.00000000000E+00 -0.45593999997E+02  0.45594000000E+02  0.51100000000E-03 0.  1.
         23    2    1    2    0    0  0.00000000000E+00  0.00000000000E+00  0.00000000000E+00  0.91188000000E+02  0.91188000000E+02 0.  0.
    9900012    2    3    3    0    0 -0.26078540869E+02  0.20292081580E+02 -0.28138307799E+02  0.47787271498E+02  0.20000002070E+02 0.  0.
         12    1    3    3    0    0  0.26078540869E+02 -0.20292081580E+02  0.28138307799E+02  0.43400728502E+02  0.00000000000E+00 0. -1.
         11    1    4    4    0    0 -0.34283033150E+01 -0.27783242074E+01 -0.51748961301E+01  0.68008748878E+01  0.51100000000E-03 0. -1.
        -11    1    4    4    0    0  0.83133733986E+00  0.10876762041E+01  0.15062732523E+00  0.13772618306E+01  0.51100000000E-03 0.  1.
        -12    1    4    4    0    0 -0.23481574894E+02  0.21982729583E+02 -0.23114038994E+02  0.39609134780E+02  0.00000000000E+00 0.  1.
</event>
<event>
 8    1  0.3776180E-010  0.9118800E+02  0.7816164E-02  0.1184000E+00
        -11   -1    0    0    0    0  0.00000000000E+00  0.00000000000E+00  0.45593999997E+02  0.45594000000E+02  0.51100000000E-03 0. -1.
         11   -1    0    0    0    0 -0.00000000000E+00 -0.00000000000E+00 -0.45593999997E+02  0.45594000000E+02  0.51100000000E-03 0.  1.
         23    2    1    2    0    0  0.10547118734E-14  0.00000000000E+00  0.71054273576E-14  0.91188000000E+02  0.91188000000E+02 0.  0.
    9900012    2    3    3    0    0 -0.25012006790E+00  0.26211019511E+02 -0.34591162846E+02  0.47787209099E+02  0.19999717563E+02 0.  0.
         12    1    3    3    0    0  0.25012006790E+00 -0.26211019511E+02  0.34591162846E+02  0.43400790901E+02  0.00000000000E+00 0. -1.
         11    1    4    4    0    0  0.13794617089E+01  0.75177822161E+01 -0.47399318294E+01  0.89937154760E+01  0.51100000000E-03 0. -1.
        -11    1    4    4    0    0 -0.54544605300E+01  0.94288497378E+01 -0.49773150705E+01  0.11976143479E+02  0.51100000000E-03 0.  1.
         12    1    4    4    0    0  0.38248787532E+01  0.92643875566E+01 -0.24873915946E+02  0.26817350144E+02  0.00000000000E+00 0. -1.
</event>
<event>
 8    1  0.3776180E-010  0.9118800E+02  0.7816164E-02  0.1184000E+00
        -11   -1    0    0    0    0  0.00000000000E+00  0.00000000000E+00  0.45593999997E+02  0.45594000000E+02  0.51100000000E-03 0. -1.
         11   -1    0    0    0    0 -0.00000000000E+00 -0.00000000000E+00 -0.45593999997E+02  0.45594000000E+02  0.51100000000E-03 0.  1.
         23    2    1    2    0    0  0.17763568394E-14 -0.88817841970E-15  0.00000000000E+00  0.91188000000E+02  0.91188000000E+02 0.  0.
    9900012    2    3    3    0    0  0.76142813045E+01 -0.74596106322E+01  0.42071372098E+02  0.47787269352E+02  0.19999992282E+02 0.  0.
        -12    1    3    3    0    0 -0.76142813045E+01  0.74596106322E+01 -0.42071372098E+02  0.43400730648E+02  0.00000000000E+00 0.  1.
         11    1    4    4    0    0  0.96305835418E+01 -0.79944024540E+01  0.16488087269E+02  0.20700619121E+02  0.51100000000E-03 0.  1.
        -11    1    4    4    0    0  0.30071225212E+01 -0.15918240661E+01  0.11117548801E+02  0.11626546405E+02  0.51100000000E-03 0. -1.
        -12    1    4    4    0    0 -0.50234247585E+01  0.21266158879E+01  0.14465736029E+02  0.15460103826E+02  0.00000000000E+00 0.  1.
</event>
<event>
 8    1  0.3776180E-010  0.9118800E+02  0.7816164E-02  0.1184000E+00
        -11   -1    0    0    0    0  0.00000000000E+00  0.00000000000E+00  0.45593999997E+02  0.45594000000E+02  0.51100000000E-03 0. -1.
         11   -1    0    0    0    0 -0.00000000000E+00 -0.00000000000E+00 -0.45593999997E+02  0.45594000000E+02  0.51100000000E-03 0.  1.
         23    2    1    2    0    0  0.00000000000E+00  0.00000000000E+00  0.17763568394E-14  0.91188000000E+02  0.91188000000E+02 0.  0.
    9900012    2    3    3    0    0  0.47387512460E+01 -0.41172092377E+02  0.12885116322E+02  0.47787272164E+02  0.20000005105E+02 0.  0.
        -12    1    3    3    0    0 -0.47387512460E+01  0.41172092377E+02 -0.12885116322E+02  0.43400727836E+02  0.00000000000E+00 0.  1.
         11    1    4    4    0    0  0.10592221177E+02 -0.22324481716E+02  0.11133470813E+02  0.27102247249E+02  0.51100000000E-03 0. -1.
        -11    1    4    4    0    0  0.28309182816E+00 -0.76403518960E+01 -0.68940444846E+00  0.76766136306E+01  0.51100000000E-03 0.  1.
         12    1    4    4    0    0 -0.61365617595E+01 -0.11207258765E+02  0.24410499579E+01  0.13008411284E+02  0.00000000000E+00 0. -1.
</event>
<event>
 8    1  0.3776180E-010  0.9118800E+02  0.7816164E-02  0.1184000E+00
        -11   -1    0    0    0    0  0.00000000000E+00  0.00000000000E+00  0.45593999997E+02  0.45594000000E+02  0.51100000000E-03 0. -1.
         11   -1    0    0    0    0 -0.00000000000E+00 -0.00000000000E+00 -0.45593999997E+02  0.45594000000E+02  0.51100000000E-03 0.  1.
         23    2    1    2    0    0 -0.71054273576E-14  0.00000000000E+00  0.00000000000E+00  0.91188000000E+02  0.91188000000E+02 0.  0.
    9900012    2    3    3    0    0 -0.38311316664E+02 -0.86915832765E+01  0.18447837136E+02  0.47787270751E+02  0.19999998661E+02 0.  0.
        -12    1    3    3    0    0  0.38311316664E+02  0.86915832765E+01 -0.18447837136E+02  0.43400729249E+02  0.00000000000E+00 0.  1.
         11    1    4    4    0    0 -0.10027300909E+02 -0.12888241362E+01  0.71187315022E+01  0.12364633825E+02  0.51100000000E-03 0. -1.
        -11    1    4    4    0    0 -0.27169011055E+02 -0.48674402332E+01  0.43865059610E+01  0.27947961838E+02  0.51100000000E-03 0.  1.
        -12    1    4    4    0    0 -0.11150047006E+01 -0.25353189071E+01  0.69425996729E+01  0.74746750873E+01  0.00000000000E+00 0.  1.
</event>
<event>
 8    1  0.3776180E-010  0.9118800E+02  0.7816164E-02  0.1184000E+00
        -11   -1    0    0    0    0  0.00000000000E+00  0.00000000000E+00  0.45593999997E+02  0.45594000000E+02  0.51100000000E-03 0. -1.
         11   -1    0    0    0    0 -0.00000000000E+00 -0.00000000000E+00 -0.45593999997E+02  0.45594000000E+02  0.51100000000E-03 0.  1.
         23    2    1    2    0    0  0.44408920985E-15  0.00000000000E+00  0.00000000000E+00  0.91188000000E+02  0.91188000000E+02 0.  0.
    9900012    2    3    3    0    0 -0.19226191983E+01 -0.25887421273E+02 -0.34781720750E+02  0.47787272551E+02  0.20000006871E+02 0.  0.
         12    1    3    3    0    0  0.19226191983E+01  0.25887421273E+02  0.34781720750E+02  0.43400727449E+02  0.00000000000E+00 0. -1.
         11    1    4    4    0    0  0.18647815403E+01 -0.82359357692E+00  0.41698345333E+00  0.20807671745E+01  0.51100000000E-03 0. -1.
        -11    1    4    4    0    0  0.52724433871E+01 -0.71724252019E+01 -0.13387566330E+02  0.16076979662E+02  0.51100000000E-03 0.  1.
        -12    1    4    4    0    0 -0.90598441256E+01 -0.17891402494E+02 -0.21811137874E+02  0.29629525715E+02  0.00000000000E+00 0.  1.
</event>
<event>
 8    1  0.3776180E-010  0.9118800E+02  0.7816164E-02  0.1184000E+00
        -11   -1    0    0    0    0  0.00000000000E+00  0.00000000000E+00  0.45593999997E+02  0.45594000000E+02  0.51100000000E-03 0. -1.
         11   -1    0    0    0    0 -0.00000000000E+00 -0.00000000000E+00 -0.45593999997E+02  0.45594000000E+02  0.51100000000E-03 0.  1.
         23    2    1    2    0    0 -0.44408920985E-15  0.00000000000E+00  0.00000000000E+00  0.91188000000E+02  0.91188000000E+02 0.  0.
    9900012    2    3    3    0    0  0.17876595380E+01  0.25718885513E+02 -0.34913698861E+02  0.47787272278E+02  0.20000005622E+02 0.  0.
         12    1    3    3    0    0 -0.17876595380E+01 -0.25718885513E+02  0.34913698861E+02  0.43400727722E+02  0.00000000000E+00 0. -1.
         11    1    4    4    0    0 -0.42148054698E+01  0.73687225539E+01 -0.50818565103E+01  0.98938325778E+01  0.51100000000E-03 0. -1.
        -11    1    4    4    0    0  0.10134626381E+00  0.15262640896E+02 -0.26163290267E+02  0.30289870188E+02  0.51100000000E-03 0.  1.
         12    1    4    4    0    0  0.59011187440E+01  0.30875220639E+01 -0.36685520841E+01  0.76035695117E+01  0.00000000000E+00 0. -1.
</event>
<event>
 8    1  0.3776180E-010  0.9118800E+02  0.7816164E-02  0.1184000E+00
        -11   -1    0    0    0    0  0.00000000000E+00  0.00000000000E+00  0.45593999997E+02  0.45594000000E+02  0.51100000000E-03 0. -1.
         11   -1    0    0    0    0 -0.00000000000E+00 -0.00000000000E+00 -0.45593999997E+02  0.45594000000E+02  0.51100000000E-03 0.  1.
         23    2    1    2    0    0  0.17763568394E-14  0.00000000000E+00  0.00000000000E+00  0.91188000000E+02  0.91188000000E+02 0.  0.
    9900012    2    3    3    0    0 -0.11960722024E+02  0.23050650330E+02  0.34774013907E+02  0.47787269647E+02  0.19999993628E+02 0.  0.
        -12    1    3    3    0    0  0.11960722024E+02 -0.23050650330E+02 -0.34774013907E+02  0.43400730353E+02  0.00000000000E+00 0.  1.
         11    1    4    4    0    0 -0.74154552089E+01  0.14669860682E+02  0.19641819759E+02  0.25612396845E+02  0.51100000000E-03 0. -1.
        -11    1    4    4    0    0 -0.79580609677E+01  0.54811441818E+01  0.45430305534E+01  0.10677677780E+02  0.51100000000E-03 0.  1.
        -12    1    4    4    0    0  0.34127941527E+01  0.28996454657E+01  0.10589163594E+02  0.11497195022E+02  0.00000000000E+00 0.  1.
</event>
<event>
 8    1  0.3776180E-010  0.9118800E+02  0.7816164E-02  0.1184000E+00
        -11   -1    0    0    0    0  0.00000000000E+00  0.00000000000E+00  0.45593999997E+02  0.45594000000E+02  0.51100000000E-03 0. -1.
         11   -1    0    0    0    0 -0.00000000000E+00 -0.00000000000E+00 -0.45593999997E+02  0.45594000000E+02  0.51100000000E-03 0.  1.
         23    2    1    2    0    0 -0.35527136788E-14  0.00000000000E+00  0.00000000000E+00  0.91188000000E+02  0.91188000000E+02 0.  0.
    9900012    2    3    3    0    0 -0.30535368606E+02 -0.10776755197E+02  0.28897669482E+02  0.47787280076E+02  0.20000041176E+02 0.  0.
        -12    1    3    3    0    0  0.30535368606E+02  0.10776755197E+02 -0.28897669482E+02  0.43400719924E+02  0.00000000000E+00 0.  1.
         11    1    4    4    0    0 -0.98655279581E+01 -0.21073460329E+01  0.90589725387E+01  0.13558559397E+02  0.51100000000E-03 0. -1.
        -11    1    4    4    0    0 -0.15011458415E+02 -0.22140327287E+01  0.20628506494E+02  0.25608223388E+02  0.51100000000E-03 0.  1.
        -12    1    4    4    0    0 -0.56583822332E+01 -0.64553764354E+01 -0.78980955060E+00  0.86204972911E+01  0.00000000000E+00 0.  1.
</event>
<event>
 8    1  0.3776180E-010  0.9118800E+02  0.7816164E-02  0.1184000E+00
        -11   -1    0    0    0    0  0.00000000000E+00  0.00000000000E+00  0.45593999997E+02  0.45594000000E+02  0.51100000000E-03 0. -1.
         11   -1    0    0    0    0 -0.00000000000E+00 -0.00000000000E+00 -0.45593999997E+02  0.45594000000E+02  0.51100000000E-03 0.  1.
         23    2    1    2    0    0  0.66613381478E-15  0.00000000000E+00  0.00000000000E+00  0.91188000000E+02  0.91188000000E+02 0.  0.
    9900012    2    3    3    0    0 -0.15577445234E+01  0.97119315758E+01  0.42271444165E+02  0.47787272187E+02  0.20000005207E+02 0.  0.
        -12    1    3    3    0    0  0.15577445234E+01 -0.97119315758E+01 -0.42271444165E+02  0.43400727813E+02  0.00000000000E+00 0.  1.
         11    1    4    4    0    0 -0.46233319103E+01  0.29719299366E+01  0.42489048740E+01  0.69469963574E+01  0.51100000000E-03 0. -1.
        -11    1    4    4    0    0 -0.20394733682E+01 -0.13003695923E+01  0.10085859961E+01  0.26206218095E+01  0.51100000000E-03 0.  1.
         12    1    4    4    0    0  0.51050607550E+01  0.80403712314E+01  0.37013953295E+02  0.38219654020E+02  0.00000000000E+00 0. -1.
</event>
<event>
 8    1  0.3776180E-010  0.9118800E+02  0.7816164E-02  0.1184000E+00
        -11   -1    0    0    0    0  0.00000000000E+00  0.00000000000E+00  0.45593999997E+02  0.45594000000E+02  0.51100000000E-03 0. -1.
         11   -1    0    0    0    0 -0.00000000000E+00 -0.00000000000E+00 -0.45593999997E+02  0.45594000000E+02  0.51100000000E-03 0.  1.
         23    2    1    2    0    0  0.00000000000E+00  0.00000000000E+00  0.00000000000E+00  0.91188000000E+02  0.91188000000E+02 0.  0.
    9900012    2    3    3    0    0  0.74030600517E+01  0.34697319500E+02 -0.24998270022E+02  0.47787276703E+02  0.20000025798E+02 0.  0.
         12    1    3    3    0    0 -0.74030600517E+01 -0.34697319500E+02  0.24998270022E+02  0.43400723297E+02  0.00000000000E+00 0. -1.
         11    1    4    4    0    0  0.33900648252E+01  0.23968110274E+01 -0.33255505474E+01  0.53194482162E+01  0.51100000000E-03 0. -1.
        -11    1    4    4    0    0  0.24169541401E+01  0.30023922969E+02 -0.12033808071E+02  0.32435939245E+02  0.51100000000E-03 0.  1.
        -12    1    4    4    0    0  0.15960410863E+01  0.22765855042E+01 -0.96389114034E+01  0.10031889241E+02  0.00000000000E+00 0.  1.
</event>
<event>
 8    1  0.3776180E-010  0.9118800E+02  0.7816164E-02  0.1184000E+00
        -11   -1    0    0    0    0  0.00000000000E+00  0.00000000000E+00  0.45593999997E+02  0.45594000000E+02  0.51100000000E-03 0. -1.
         11   -1    0    0    0    0 -0.00000000000E+00 -0.00000000000E+00 -0.45593999997E+02  0.45594000000E+02  0.51100000000E-03 0.  1.
         23    2    1    2    0    0  0.35527136788E-14  0.00000000000E+00  0.71054273576E-14  0.91188000000E+02  0.91188000000E+02 0.  0.
    9900012    2    3    3    0    0 -0.24610577601E+02 -0.71454180388E+01 -0.35026940221E+02  0.47787261872E+02  0.19999958178E+02 0.  0.
         12    1    3    3    0    0  0.24610577601E+02  0.71454180388E+01  0.35026940221E+02  0.43400738128E+02  0.00000000000E+00 0. -1.
         11    1    4    4    0    0 -0.13255369673E+02  0.26965089901E+01 -0.14201228111E+02  0.19612518095E+02  0.51100000000E-03 0. -1.
        -11    1    4    4    0    0 -0.80689255711E+01  0.10882320827E+00 -0.12069421258E+02  0.14518620187E+02  0.51100000000E-03 0.  1.
        -12    1    4    4    0    0 -0.32862823567E+01 -0.99507502372E+01 -0.87562908526E+01  0.13656123590E+02  0.00000000000E+00 0.  1.
</event>
<event>
 8    1  0.3776180E-010  0.9118800E+02  0.7816164E-02  0.1184000E+00
        -11   -1    0    0    0    0  0.00000000000E+00  0.00000000000E+00  0.45593999997E+02  0.45594000000E+02  0.51100000000E-03 0. -1.
         11   -1    0    0    0    0 -0.00000000000E+00 -0.00000000000E+00 -0.45593999997E+02  0.45594000000E+02  0.51100000000E-03 0.  1.
         23    2    1    2    0    0 -0.35527136788E-14  0.00000000000E+00  0.00000000000E+00  0.91188000000E+02  0.91188000000E+02 0.  0.
    9900012    2    3    3    0    0 -0.18282689022E+02 -0.32228378134E+02  0.22598635993E+02  0.47787269317E+02  0.19999992126E+02 0.  0.
        -12    1    3    3    0    0  0.18282689022E+02  0.32228378134E+02 -0.22598635993E+02  0.43400730683E+02  0.00000000000E+00 0.  1.
         11    1    4    4    0    0  0.67600392718E+00 -0.11895343398E+02  0.82439649988E+01  0.14488586371E+02  0.51100000000E-03 0. -1.
        -11    1    4    4    0    0 -0.37178249810E+01 -0.18197109484E+00  0.52647036186E+01  0.64476693868E+01  0.51100000000E-03 0.  1.
        -12    1    4    4    0    0 -0.15240867968E+02 -0.20151063642E+02  0.90899673759E+01  0.26851013560E+02  0.00000000000E+00 0.  1.
</event>
<event>
 8    1  0.3776180E-010  0.9118800E+02  0.7816164E-02  0.1184000E+00
        -11   -1    0    0    0    0  0.00000000000E+00  0.00000000000E+00  0.45593999997E+02  0.45594000000E+02  0.51100000000E-03 0. -1.
         11   -1    0    0    0    0 -0.00000000000E+00 -0.00000000000E+00 -0.45593999997E+02  0.45594000000E+02  0.51100000000E-03 0.  1.
         23    2    1    2    0    0  0.00000000000E+00  0.00000000000E+00  0.88817841970E-15  0.91188000000E+02  0.91188000000E+02 0.  0.
    9900012    2    3    3    0    0 -0.38271759254E+02 -0.19963355167E+02 -0.45122113233E+01  0.47787272391E+02  0.20000006142E+02 0.  0.
        -12    1    3    3    0    0  0.38271759254E+02  0.19963355167E+02  0.45122113233E+01  0.43400727609E+02  0.00000000000E+00 0.  1.
         11    1    4    4    0    0 -0.11603198002E+02 -0.89926856997E+01 -0.43592747328E+01  0.15313584702E+02  0.51100000000E-03 0. -1.
        -11    1    4    4    0    0 -0.15727708399E+02 -0.13989471297E+02  0.94980249376E+00  0.21070553948E+02  0.51100000000E-03 0.  1.
        -12    1    4    4    0    0 -0.10940852852E+02  0.30188018293E+01 -0.11027390843E+01  0.11403133741E+02  0.00000000000E+00 0.  1.
</event>
<event>
 8    1  0.3776180E-010  0.9118800E+02  0.7816164E-02  0.1184000E+00
        -11   -1    0    0    0    0  0.00000000000E+00  0.00000000000E+00  0.45593999997E+02  0.45594000000E+02  0.51100000000E-03 0. -1.
         11   -1    0    0    0    0 -0.00000000000E+00 -0.00000000000E+00 -0.45593999997E+02  0.45594000000E+02  0.51100000000E-03 0.  1.
         23    2    1    2    0    0  0.00000000000E+00  0.00000000000E+00  0.00000000000E+00  0.91188000000E+02  0.91188000000E+02 0.  0.
    9900012    2    3    3    0    0 -0.33284842736E+02 -0.17567729826E+02 -0.21612898182E+02  0.47787271262E+02  0.20000000991E+02 0.  0.
         12    1    3    3    0    0  0.33284842736E+02  0.17567729826E+02  0.21612898182E+02  0.43400728738E+02  0.00000000000E+00 0. -1.
         11    1    4    4    0    0 -0.86308478594E+01 -0.23604560322E+01 -0.38905737707E+00  0.89562633590E+01  0.51100000000E-03 0. -1.
        -11    1    4    4    0    0 -0.87563421294E+01  0.97764149222E+00 -0.18619220105E+01  0.90053353191E+01  0.51100000000E-03 0.  1.
         12    1    4    4    0    0 -0.15897652748E+02 -0.16184915286E+02 -0.19361918794E+02  0.29825672584E+02  0.00000000000E+00 0. -1.
</event>
<event>
 8    1  0.3776180E-010  0.9118800E+02  0.7816164E-02  0.1184000E+00
        -11   -1    0    0    0    0  0.00000000000E+00  0.00000000000E+00  0.45593999997E+02  0.45594000000E+02  0.51100000000E-03 0. -1.
         11   -1    0    0    0    0 -0.00000000000E+00 -0.00000000000E+00 -0.45593999997E+02  0.45594000000E+02  0.51100000000E-03 0.  1.
         23    2    1    2    0    0 -0.22204460493E-15  0.17763568394E-14  0.00000000000E+00  0.91188000000E+02  0.91188000000E+02 0.  0.
    9900012    2    3    3    0    0  0.17564601395E+01  0.14143915541E+02 -0.40993752675E+02  0.47787271233E+02  0.20000000861E+02 0.  0.
         12    1    3    3    0    0 -0.17564601395E+01 -0.14143915541E+02  0.40993752675E+02  0.43400728767E+02  0.00000000000E+00 0. -1.
         11    1    4    4    0    0 -0.41336002001E+01  0.35308253174E+01 -0.68153006255E+01  0.87178954406E+01  0.51100000000E-03 0. -1.
        -11    1    4    4    0    0 -0.29785962013E+01 -0.16706782440E+01 -0.96775324702E+01  0.10262447861E+02  0.51100000000E-03 0.  1.
        -12    1    4    4    0    0  0.88686565409E+01  0.12283768468E+02 -0.24500919580E+02  0.28806927932E+02  0.00000000000E+00 0.  1.
</event>
<event>
 8    1  0.3776180E-010  0.9118800E+02  0.7816164E-02  0.1184000E+00
        -11   -1    0    0    0    0  0.00000000000E+00  0.00000000000E+00  0.45593999997E+02  0.45594000000E+02  0.51100000000E-03 0. -1.
         11   -1    0    0    0    0 -0.00000000000E+00 -0.00000000000E+00 -0.45593999997E+02  0.45594000000E+02  0.51100000000E-03 0.  1.
         23    2    1    2    0    0  0.00000000000E+00 -0.22204460493E-15  0.00000000000E+00  0.91188000000E+02  0.91188000000E+02 0.  0.
    9900012    2    3    3    0    0 -0.35184155964E+02  0.81322638472E+00  0.25397609401E+02  0.47787254253E+02  0.19999923443E+02 0.  0.
        -12    1    3    3    0    0  0.35184155964E+02 -0.81322638472E+00 -0.25397609401E+02  0.43400745747E+02  0.00000000000E+00 0.  1.
         11    1    4    4    0    0 -0.99250472812E+01 -0.18308722009E+01  0.14620295791E+02  0.17765463851E+02  0.51100000000E-03 0. -1.
        -11    1    4    4    0    0 -0.72041575733E+01 -0.13132981698E+00  0.92014619727E+01  0.11686917325E+02  0.51100000000E-03 0.  1.
         12    1    4    4    0    0 -0.18054951110E+02  0.27754284026E+01  0.15758516372E+01  0.18334873078E+02  0.00000000000E+00 0. -1.
</event>
<event>
 8    1  0.3776180E-010  0.9118800E+02  0.7816164E-02  0.1184000E+00
        -11   -1    0    0    0    0  0.00000000000E+00  0.00000000000E+00  0.45593999997E+02  0.45594000000E+02  0.51100000000E-03 0. -1.
         11   -1    0    0    0    0 -0.00000000000E+00 -0.00000000000E+00 -0.45593999997E+02  0.45594000000E+02  0.51100000000E-03 0.  1.
         23    2    1    2    0    0  0.00000000000E+00  0.17763568394E-14  0.00000000000E+00  0.91188000000E+02  0.91188000000E+02 0.  0.
    9900012    2    3    3    0    0 -0.39137491332E+02  0.85264875235E+01  0.16708623452E+02  0.47787282092E+02  0.20000050372E+02 0.  0.
        -12    1    3    3    0    0  0.39137491332E+02 -0.85264875235E+01 -0.16708623452E+02  0.43400717908E+02  0.00000000000E+00 0.  1.
         11    1    4    4    0    0 -0.25748093085E+01 -0.19630887375E+01  0.31867479363E+01  0.45429861366E+01  0.51100000000E-03 0. -1.
        -11    1    4    4    0    0  0.13261843167E+01  0.17405609004E+01  0.81136431665E+00  0.23338014923E+01  0.51100000000E-03 0.  1.
        -12    1    4    4    0    0 -0.37888866340E+02  0.87490153606E+01  0.12710511199E+02  0.40910494463E+02  0.00000000000E+00 0.  1.
</event>
<event>
 8    1  0.3776180E-010  0.9118800E+02  0.7816164E-02  0.1184000E+00
        -11   -1    0    0    0    0  0.00000000000E+00  0.00000000000E+00  0.45593999997E+02  0.45594000000E+02  0.51100000000E-03 0. -1.
         11   -1    0    0    0    0 -0.00000000000E+00 -0.00000000000E+00 -0.45593999997E+02  0.45594000000E+02  0.51100000000E-03 0.  1.
         23    2    1    2    0    0  0.00000000000E+00  0.35527136788E-14  0.00000000000E+00  0.91188000000E+02  0.91188000000E+02 0.  0.
    9900012    2    3    3    0    0 -0.39338469894E+01 -0.25005931139E+02  0.35254101175E+02  0.47787269662E+02  0.19999993696E+02 0.  0.
        -12    1    3    3    0    0  0.39338469894E+01  0.25005931139E+02 -0.35254101175E+02  0.43400730338E+02  0.00000000000E+00 0.  1.
         11    1    4    4    0    0  0.30897814830E+01 -0.15423757364E+02  0.14358425814E+02  0.21297967813E+02  0.51100000000E-03 0. -1.
        -11    1    4    4    0    0 -0.64725373145E+01 -0.10525722362E+02  0.11030239507E+02  0.16563536892E+02  0.51100000000E-03 0.  1.
         12    1    4    4    0    0 -0.55109115788E+00  0.94354858735E+00  0.98654358533E+01  0.99257649568E+01  0.00000000000E+00 0. -1.
</event>
<event>
 8    1  0.3776180E-010  0.9118800E+02  0.7816164E-02  0.1184000E+00
        -11   -1    0    0    0    0  0.00000000000E+00  0.00000000000E+00  0.45593999997E+02  0.45594000000E+02  0.51100000000E-03 0. -1.
         11   -1    0    0    0    0 -0.00000000000E+00 -0.00000000000E+00 -0.45593999997E+02  0.45594000000E+02  0.51100000000E-03 0.  1.
         23    2    1    2    0    0  0.00000000000E+00  0.88817841970E-15  0.35527136788E-14  0.91188000000E+02  0.91188000000E+02 0.  0.
    9900012    2    3    3    0    0 -0.35714785424E+02  0.77000411027E+01 -0.23426200208E+02  0.47787269741E+02  0.19999994056E+02 0.  0.
         12    1    3    3    0    0  0.35714785424E+02 -0.77000411027E+01  0.23426200208E+02  0.43400730259E+02  0.00000000000E+00 0. -1.
         11    1    4    4    0    0 -0.80519518770E+00  0.19940435620E+01 -0.84771315746E+01  0.87456451456E+01  0.51100000000E-03 0. -1.
        -11    1    4    4    0    0 -0.41821787059E+01 -0.11622783772E+00 -0.43117420205E+01  0.60079320195E+01  0.51100000000E-03 0.  1.
        -12    1    4    4    0    0 -0.30727411530E+02  0.58222253784E+01 -0.10637326613E+02  0.33033692576E+02  0.00000000000E+00 0.  1.
</event>
<event>
 8    1  0.3776180E-010  0.9118800E+02  0.7816164E-02  0.1184000E+00
        -11   -1    0    0    0    0  0.00000000000E+00  0.00000000000E+00  0.45593999997E+02  0.45594000000E+02  0.51100000000E-03 0. -1.
         11   -1    0    0    0    0 -0.00000000000E+00 -0.00000000000E+00 -0.45593999997E+02  0.45594000000E+02  0.51100000000E-03 0.  1.
         23    2    1    2    0    0  0.00000000000E+00  0.00000000000E+00  0.00000000000E+00  0.91188000000E+02  0.91188000000E+02 0.  0.
    9900012    2    3    3    0    0 -0.90400320563E+01  0.30984582571E+01 -0.42335590434E+02  0.47787252996E+02  0.19999917710E+02 0.  0.
         12    1    3    3    0    0  0.90400320563E+01 -0.30984582571E+01  0.42335590434E+02  0.43400747004E+02  0.00000000000E+00 0. -1.
         11    1    4    4    0    0 -0.10888963633E+01  0.24188832012E+01  0.22511853587E+00  0.26622114580E+01  0.51100000000E-03 0. -1.
        -11    1    4    4    0    0  0.27885283902E+01  0.90260897158E+00 -0.32650964976E+01  0.43876473124E+01  0.51100000000E-03 0.  1.
        -12    1    4    4    0    0 -0.10739664083E+02 -0.22303391561E+00 -0.39295612472E+02  0.40737394226E+02  0.00000000000E+00 0.  1.
</event>
<event>
 8    1  0.3776180E-010  0.9118800E+02  0.7816164E-02  0.1184000E+00
        -11   -1    0    0    0    0  0.00000000000E+00  0.00000000000E+00  0.45593999997E+02  0.45594000000E+02  0.51100000000E-03 0. -1.
         11   -1    0    0    0    0 -0.00000000000E+00 -0.00000000000E+00 -0.45593999997E+02  0.45594000000E+02  0.51100000000E-03 0.  1.
         23    2    1    2    0    0  0.00000000000E+00  0.00000000000E+00  0.00000000000E+00  0.91188000000E+02  0.91188000000E+02 0.  0.
    9900012    2    3    3    0    0  0.10924100060E+02  0.81564406313E+01 -0.41203879482E+02  0.47787272238E+02  0.20000005442E+02 0.  0.
         12    1    3    3    0    0 -0.10924100060E+02 -0.81564406313E+01  0.41203879482E+02  0.43400727762E+02  0.00000000000E+00 0. -1.
         11    1    4    4    0    0  0.41120840011E+01  0.38893149026E+01 -0.44961481829E+00  0.56778657073E+01  0.51100000000E-03 0. -1.
        -11    1    4    4    0    0  0.17197931028E+01  0.35398734776E+01 -0.76005075604E+01  0.85589782095E+01  0.51100000000E-03 0.  1.
        -12    1    4    4    0    0  0.50922229556E+01  0.72725225110E+00 -0.33153757103E+02  0.33550428321E+02  0.00000000000E+00 0.  1.
</event>
<event>
 8    1  0.3776180E-010  0.9118800E+02  0.7816164E-02  0.1184000E+00
        -11   -1    0    0    0    0  0.00000000000E+00  0.00000000000E+00  0.45593999997E+02  0.45594000000E+02  0.51100000000E-03 0. -1.
         11   -1    0    0    0    0 -0.00000000000E+00 -0.00000000000E+00 -0.45593999997E+02  0.45594000000E+02  0.51100000000E-03 0.  1.
         23    2    1    2    0    0 -0.17763568394E-14  0.00000000000E+00  0.00000000000E+00  0.91188000000E+02  0.91188000000E+02 0.  0.
    9900012    2    3    3    0    0  0.11073885361E+02 -0.37610372211E+02 -0.18613234633E+02  0.47787267998E+02  0.19999986110E+02 0.  0.
         12    1    3    3    0    0 -0.11073885361E+02  0.37610372211E+02  0.18613234633E+02  0.43400732002E+02  0.00000000000E+00 0. -1.
         11    1    4    4    0    0  0.89343152654E+01 -0.15355991168E+02 -0.49947254772E+01  0.18454694169E+02  0.51100000000E-03 0. -1.
        -11    1    4    4    0    0  0.37833217429E+01 -0.63125599065E+01  0.12575460994E+01  0.74661474964E+01  0.51100000000E-03 0.  1.
        -12    1    4    4    0    0 -0.16437516473E+01 -0.15941821136E+02 -0.14876055255E+02  0.21866426333E+02  0.00000000000E+00 0.  1.
</event>
<event>
 8    1  0.3776180E-010  0.9118800E+02  0.7816164E-02  0.1184000E+00
        -11   -1    0    0    0    0  0.00000000000E+00  0.00000000000E+00  0.45593999997E+02  0.45594000000E+02  0.51100000000E-03 0. -1.
         11   -1    0    0    0    0 -0.00000000000E+00 -0.00000000000E+00 -0.45593999997E+02  0.45594000000E+02  0.51100000000E-03 0.  1.
         23    2    1    2    0    0  0.00000000000E+00  0.17763568394E-14  0.00000000000E+00  0.91188000000E+02  0.91188000000E+02 0.  0.
    9900012    2    3    3    0    0  0.51322560360E+01  0.13978935346E+02  0.40766069514E+02  0.47787272943E+02  0.20000008657E+02 0.  0.
        -12    1    3    3    0    0 -0.51322560360E+01 -0.13978935346E+02 -0.40766069514E+02  0.43400727057E+02  0.00000000000E+00 0.  1.
         11    1    4    4    0    0  0.40119760406E+01  0.74447863730E+01  0.14177371315E+02  0.16508139009E+02  0.51100000000E-03 0. -1.
        -11    1    4    4    0    0  0.72862862605E+01  0.35275122350E+01  0.76568526394E+01  0.11142742151E+02  0.51100000000E-03 0.  1.
         12    1    4    4    0    0 -0.61660062651E+01  0.30066367384E+01  0.18931845560E+02  0.20136391783E+02  0.00000000000E+00 0. -1.
</event>
<event>
 8    1  0.3776180E-010  0.9118800E+02  0.7816164E-02  0.1184000E+00
        -11   -1    0    0    0    0  0.00000000000E+00  0.00000000000E+00  0.45593999997E+02  0.45594000000E+02  0.51100000000E-03 0. -1.
         11   -1    0    0    0    0 -0.00000000000E+00 -0.00000000000E+00 -0.45593999997E+02  0.45594000000E+02  0.51100000000E-03 0.  1.
         23    2    1    2    0    0  0.71054273576E-14  0.00000000000E+00  0.35527136788E-14  0.91188000000E+02  0.91188000000E+02 0.  0.
    9900012    2    3    3    0    0  0.34391912272E+02  0.22918005986E+02  0.13250855562E+02  0.47787264969E+02  0.19999972300E+02 0.  0.
        -12    1    3    3    0    0 -0.34391912272E+02 -0.22918005986E+02 -0.13250855562E+02  0.43400735031E+02  0.00000000000E+00 0.  1.
         11    1    4    4    0    0  0.10462516272E+02  0.68483012000E+01  0.90809025364E+00  0.12537468016E+02  0.51100000000E-03 0. -1.
        -11    1    4    4    0    0  0.20581394137E+02  0.15560517018E+02  0.15924818756E+02  0.30320345102E+02  0.51100000000E-03 0.  1.
        -12    1    4    4    0    0  0.33480018626E+01  0.50918776841E+00 -0.35820534468E+01  0.49294518510E+01  0.00000000000E+00 0.  1.
</event>
<event>
 8    1  0.3776180E-010  0.9118800E+02  0.7816164E-02  0.1184000E+00
        -11   -1    0    0    0    0  0.00000000000E+00  0.00000000000E+00  0.45593999997E+02  0.45594000000E+02  0.51100000000E-03 0. -1.
         11   -1    0    0    0    0 -0.00000000000E+00 -0.00000000000E+00 -0.45593999997E+02  0.45594000000E+02  0.51100000000E-03 0.  1.
         23    2    1    2    0    0  0.00000000000E+00 -0.44408920985E-15  0.00000000000E+00  0.91188000000E+02  0.91188000000E+02 0.  0.
    9900012    2    3    3    0    0 -0.26211059101E+02  0.25612019295E+01  0.34497043927E+02  0.47787246387E+02  0.19999887574E+02 0.  0.
        -12    1    3    3    0    0  0.26211059101E+02 -0.25612019295E+01 -0.34497043927E+02  0.43400753613E+02  0.00000000000E+00 0.  1.
         11    1    4    4    0    0 -0.90660921543E+01 -0.48772602220E+01  0.55170723340E+01  0.11679887911E+02  0.51100000000E-03 0. -1.
        -11    1    4    4    0    0 -0.39110128190E+01  0.51417169854E+01  0.36080852688E+01  0.73994293291E+01  0.51100000000E-03 0.  1.
         12    1    4    4    0    0 -0.13233954128E+02  0.22967451661E+01  0.25371886324E+02  0.28707929146E+02  0.00000000000E+00 0. -1.
</event>
<event>
 8    1  0.3776180E-010  0.9118800E+02  0.7816164E-02  0.1184000E+00
        -11   -1    0    0    0    0  0.00000000000E+00  0.00000000000E+00  0.45593999997E+02  0.45594000000E+02  0.51100000000E-03 0. -1.
         11   -1    0    0    0    0 -0.00000000000E+00 -0.00000000000E+00 -0.45593999997E+02  0.45594000000E+02  0.51100000000E-03 0.  1.
         23    2    1    2    0    0  0.35527136788E-14  0.00000000000E+00 -0.35527136788E-14  0.91188000000E+02  0.91188000000E+02 0.  0.
    9900012    2    3    3    0    0 -0.29510563784E+02 -0.19373313330E+02 -0.25247270825E+02  0.47787270417E+02  0.19999997141E+02 0.  0.
         12    1    3    3    0    0  0.29510563784E+02  0.19373313330E+02  0.25247270825E+02  0.43400729583E+02  0.00000000000E+00 0. -1.
         11    1    4    4    0    0 -0.14682567602E+02 -0.33496559811E+01 -0.82267817957E+01  0.17160359133E+02  0.51100000000E-03 0. -1.
        -11    1    4    4    0    0 -0.10984720302E+02 -0.23909249905E+01 -0.85433106101E+01  0.14119800242E+02  0.51100000000E-03 0.  1.
        -12    1    4    4    0    0 -0.38432758793E+01 -0.13632732358E+02 -0.84771784191E+01  0.16507111043E+02  0.00000000000E+00 0.  1.
</event>
<event>
 8    1  0.3776180E-010  0.9118800E+02  0.7816164E-02  0.1184000E+00
        -11   -1    0    0    0    0  0.00000000000E+00  0.00000000000E+00  0.45593999997E+02  0.45594000000E+02  0.51100000000E-03 0. -1.
         11   -1    0    0    0    0 -0.00000000000E+00 -0.00000000000E+00 -0.45593999997E+02  0.45594000000E+02  0.51100000000E-03 0.  1.
         23    2    1    2    0    0  0.11102230246E-14  0.00000000000E+00  0.71054273576E-14  0.91188000000E+02  0.91188000000E+02 0.  0.
    9900012    2    3    3    0    0 -0.17863143661E+01 -0.22134173425E+01 -0.43307436734E+02  0.47787260239E+02  0.19999950731E+02 0.  0.
         12    1    3    3    0    0  0.17863143661E+01  0.22134173425E+01  0.43307436734E+02  0.43400739761E+02  0.00000000000E+00 0. -1.
         11    1    4    4    0    0 -0.53281728347E+01 -0.28305397183E+01 -0.17700947362E+02  0.18700933629E+02  0.51100000000E-03 0. -1.
        -11    1    4    4    0    0  0.84058276603E-01  0.62945696342E+00 -0.25620606539E+02  0.25628475600E+02  0.51100000000E-03 0.  1.
         12    1    4    4    0    0  0.34578001920E+01 -0.12334587597E-01  0.14117166385E-01  0.34578510095E+01  0.00000000000E+00 0. -1.
</event>
<event>
 8    1  0.3776180E-010  0.9118800E+02  0.7816164E-02  0.1184000E+00
        -11   -1    0    0    0    0  0.00000000000E+00  0.00000000000E+00  0.45593999997E+02  0.45594000000E+02  0.51100000000E-03 0. -1.
         11   -1    0    0    0    0 -0.00000000000E+00 -0.00000000000E+00 -0.45593999997E+02  0.45594000000E+02  0.51100000000E-03 0.  1.
         23    2    1    2    0    0  0.17763568394E-14 -0.17763568394E-14  0.00000000000E+00  0.91188000000E+02  0.91188000000E+02 0.  0.
    9900012    2    3    3    0    0  0.12420649719E+02 -0.15461696127E+02 -0.38604232243E+02  0.47787270356E+02  0.19999996859E+02 0.  0.
         12    1    3    3    0    0 -0.12420649719E+02  0.15461696127E+02  0.38604232243E+02  0.43400729644E+02  0.00000000000E+00 0. -1.
         11    1    4    4    0    0  0.47988216742E+01 -0.66029995621E+01 -0.64433655974E+01  0.10399290993E+02  0.51100000000E-03 0. -1.
        -11    1    4    4    0    0  0.31390939495E+01  0.49563470726E+00  0.41084999741E+00  0.32044285869E+01  0.51100000000E-03 0.  1.
        -12    1    4    4    0    0  0.44827340957E+01 -0.93543312722E+01 -0.32571716643E+02  0.34183550775E+02  0.00000000000E+00 0.  1.
</event>
<event>
 8    1  0.3776180E-010  0.9118800E+02  0.7816164E-02  0.1184000E+00
        -11   -1    0    0    0    0  0.00000000000E+00  0.00000000000E+00  0.45593999997E+02  0.45594000000E+02  0.51100000000E-03 0. -1.
         11   -1    0    0    0    0 -0.00000000000E+00 -0.00000000000E+00 -0.45593999997E+02  0.45594000000E+02  0.51100000000E-03 0.  1.
         23    2    1    2    0    0 -0.35527136788E-14  0.00000000000E+00  0.71054273576E-14  0.91188000000E+02  0.91188000000E+02 0.  0.
    9900012    2    3    3    0    0 -0.19593049300E+02  0.89257143432E+01  0.37683780272E+02  0.47787271285E+02  0.20000001098E+02 0.  0.
        -12    1    3    3    0    0  0.19593049300E+02 -0.89257143432E+01 -0.37683780272E+02  0.43400728715E+02  0.00000000000E+00 0.  1.
         11    1    4    4    0    0 -0.58870099680E+01  0.54397448917E+01  0.95400065081E+01  0.12460314414E+02  0.51100000000E-03 0.  1.
        -11    1    4    4    0    0  0.13230337540E+01  0.50342553627E+01  0.12683567451E+02  0.13710106816E+02  0.51100000000E-03 0. -1.
         12    1    4    4    0    0 -0.15029073086E+02 -0.15482859112E+01  0.15460206313E+02  0.21616850056E+02  0.00000000000E+00 0. -1.
</event>
<event>
 8    1  0.3776180E-010  0.9118800E+02  0.7816164E-02  0.1184000E+00
        -11   -1    0    0    0    0  0.00000000000E+00  0.00000000000E+00  0.45593999997E+02  0.45594000000E+02  0.51100000000E-03 0. -1.
         11   -1    0    0    0    0 -0.00000000000E+00 -0.00000000000E+00 -0.45593999997E+02  0.45594000000E+02  0.51100000000E-03 0.  1.
         23    2    1    2    0    0  0.00000000000E+00  0.00000000000E+00 -0.71054273576E-14  0.91188000000E+02  0.91188000000E+02 0.  0.
    9900012    2    3    3    0    0  0.15020318755E+02  0.13678883590E+02 -0.38352337112E+02  0.47787267359E+02  0.19999983198E+02 0.  0.
         12    1    3    3    0    0 -0.15020318755E+02 -0.13678883590E+02  0.38352337112E+02  0.43400732641E+02  0.00000000000E+00 0. -1.
         11    1    4    4    0    0  0.69158229645E+00  0.35866431475E+01 -0.13314524288E+02  0.13806478639E+02  0.51100000000E-03 0. -1.
        -11    1    4    4    0    0 -0.16319884060E+01 -0.14995047126E+01 -0.66652994701E+01  0.70241097534E+01  0.51100000000E-03 0.  1.
         12    1    4    4    0    0  0.15960724865E+02  0.11591745155E+02 -0.18372513354E+02  0.26956678967E+02  0.00000000000E+00 0. -1.
</event>
<event>
 8    1  0.3776180E-010  0.9118800E+02  0.7816164E-02  0.1184000E+00
        -11   -1    0    0    0    0  0.00000000000E+00  0.00000000000E+00  0.45593999997E+02  0.45594000000E+02  0.51100000000E-03 0. -1.
         11   -1    0    0    0    0 -0.00000000000E+00 -0.00000000000E+00 -0.45593999997E+02  0.45594000000E+02  0.51100000000E-03 0.  1.
         23    2    1    2    0    0  0.00000000000E+00 -0.88817841970E-15  0.00000000000E+00  0.91188000000E+02  0.91188000000E+02 0.  0.
    9900012    2    3    3    0    0  0.20190683157E+02 -0.79209443214E+01  0.37592794841E+02  0.47787271098E+02  0.20000000242E+02 0.  0.
        -12    1    3    3    0    0 -0.20190683157E+02  0.79209443214E+01 -0.37592794841E+02  0.43400728902E+02  0.00000000000E+00 0.  1.
         11    1    4    4    0    0  0.12239470814E+02  0.51124455120E+01  0.19271887396E+02  0.23395456589E+02  0.51100000000E-03 0. -1.
        -11    1    4    4    0    0 -0.70420540594E+00 -0.91154753252E+00  0.19007372073E+01  0.22225270190E+01  0.51100000000E-03 0.  1.
         12    1    4    4    0    0  0.86554177490E+01 -0.12121842301E+02  0.16420170237E+02  0.22169287490E+02  0.00000000000E+00 0. -1.
</event>
<event>
 8    1  0.3776180E-010  0.9118800E+02  0.7816164E-02  0.1184000E+00
        -11   -1    0    0    0    0  0.00000000000E+00  0.00000000000E+00  0.45593999997E+02  0.45594000000E+02  0.51100000000E-03 0.  1.
         11   -1    0    0    0    0 -0.00000000000E+00 -0.00000000000E+00 -0.45593999997E+02  0.45594000000E+02  0.51100000000E-03 0. -1.
         23    2    1    2    0    0  0.17763568394E-14  0.00000000000E+00  0.00000000000E+00  0.91188000000E+02  0.91188000000E+02 0.  0.
    9900012    2    3    3    0    0  0.15155595584E+02 -0.40466524773E+02 -0.40486648359E+01  0.47787269687E+02  0.19999993813E+02 0.  0.
        -12    1    3    3    0    0 -0.15155595584E+02  0.40466524773E+02  0.40486648359E+01  0.43400730313E+02  0.00000000000E+00 0.  1.
         11    1    4    4    0    0 -0.15577283140E+01 -0.84978741728E+01 -0.65232529195E+01  0.10825581364E+02  0.51100000000E-03 0. -1.
        -11    1    4    4    0    0 -0.22228497187E+00 -0.15508534599E+00 -0.73029635511E+00  0.77897053902E+00  0.51100000000E-03 0.  1.
         12    1    4    4    0    0  0.16935608870E+02 -0.31813565254E+02  0.32048844388E+01  0.36182717784E+02  0.00000000000E+00 0. -1.
</event>
<event>
 8    1  0.3776180E-010  0.9118800E+02  0.7816164E-02  0.1184000E+00
        -11   -1    0    0    0    0  0.00000000000E+00  0.00000000000E+00  0.45593999997E+02  0.45594000000E+02  0.51100000000E-03 0. -1.
         11   -1    0    0    0    0 -0.00000000000E+00 -0.00000000000E+00 -0.45593999997E+02  0.45594000000E+02  0.51100000000E-03 0.  1.
         23    2    1    2    0    0  0.00000000000E+00  0.00000000000E+00 -0.17763568394E-14  0.91188000000E+02  0.91188000000E+02 0.  0.
    9900012    2    3    3    0    0 -0.16555544364E+02 -0.37472302723E+02  0.14330517580E+02  0.47787271266E+02  0.20000001010E+02 0.  0.
        -12    1    3    3    0    0  0.16555544364E+02  0.37472302723E+02 -0.14330517580E+02  0.43400728734E+02  0.00000000000E+00 0.  1.
         11    1    4    4    0    0 -0.25165070576E+01 -0.12928157325E+01  0.53402475026E+01  0.60433785203E+01  0.51100000000E-03 0. -1.
        -11    1    4    4    0    0  0.55715094062E+00 -0.11952097365E+02  0.57479945657E+01  0.13274128611E+02  0.51100000000E-03 0.  1.
        -12    1    4    4    0    0 -0.14596188247E+02 -0.24227389625E+02  0.32422755119E+01  0.28469764135E+02  0.00000000000E+00 0.  1.
</event>
<event>
 8    1  0.3776180E-010  0.9118800E+02  0.7816164E-02  0.1184000E+00
        -11   -1    0    0    0    0  0.00000000000E+00  0.00000000000E+00  0.45593999997E+02  0.45594000000E+02  0.51100000000E-03 0. -1.
         11   -1    0    0    0    0 -0.00000000000E+00 -0.00000000000E+00 -0.45593999997E+02  0.45594000000E+02  0.51100000000E-03 0.  1.
         23    2    1    2    0    0  0.17763568394E-14 -0.35527136788E-14  0.71054273576E-14  0.91188000000E+02  0.91188000000E+02 0.  0.
    9900012    2    3    3    0    0 -0.82031406739E+01 -0.21986268798E+02  0.36509383147E+02  0.47787278919E+02  0.20000035905E+02 0.  0.
        -12    1    3    3    0    0  0.82031406739E+01  0.21986268798E+02 -0.36509383147E+02  0.43400721081E+02  0.00000000000E+00 0.  1.
         11    1    4    4    0    0 -0.51027179705E+01 -0.22294022996E+02  0.19999902586E+02  0.30381858003E+02  0.51100000000E-03 0. -1.
        -11    1    4    4    0    0  0.31658930497E+00  0.11573828273E+01  0.12027573792E+01  0.16989377185E+01  0.51100000000E-03 0.  1.
         12    1    4    4    0    0 -0.34170120084E+01 -0.84962862946E+00  0.15306723181E+02  0.15706483197E+02  0.00000000000E+00 0. -1.
</event>
<event>
 8    1  0.3776180E-010  0.9118800E+02  0.7816164E-02  0.1184000E+00
        -11   -1    0    0    0    0  0.00000000000E+00  0.00000000000E+00  0.45593999997E+02  0.45594000000E+02  0.51100000000E-03 0.  1.
         11   -1    0    0    0    0 -0.00000000000E+00 -0.00000000000E+00 -0.45593999997E+02  0.45594000000E+02  0.51100000000E-03 0. -1.
         23    2    1    2    0    0  0.71054273576E-14  0.00000000000E+00  0.00000000000E+00  0.91188000000E+02  0.91188000000E+02 0.  0.
    9900012    2    3    3    0    0 -0.38806359711E+02  0.17737163623E+02  0.79424629555E+01  0.47787271374E+02  0.20000001504E+02 0.  0.
        -12    1    3    3    0    0  0.38806359711E+02 -0.17737163623E+02 -0.79424629555E+01  0.43400728626E+02  0.00000000000E+00 0.  1.
         11    1    4    4    0    0 -0.15536191147E+02  0.11102176223E+02 -0.33941624384E+01  0.19394635628E+02  0.51100000000E-03 0. -1.
        -11    1    4    4    0    0 -0.13684626234E+02  0.50949572790E+01  0.16787135617E+01  0.14698491906E+02  0.51100000000E-03 0.  1.
        -12    1    4    4    0    0 -0.95855423309E+01  0.15400301214E+01  0.96579118321E+01  0.13694143840E+02  0.00000000000E+00 0.  1.
</event>
<event>
 8    1  0.3776180E-010  0.9118800E+02  0.7816164E-02  0.1184000E+00
        -11   -1    0    0    0    0  0.00000000000E+00  0.00000000000E+00  0.45593999997E+02  0.45594000000E+02  0.51100000000E-03 0. -1.
         11   -1    0    0    0    0 -0.00000000000E+00 -0.00000000000E+00 -0.45593999997E+02  0.45594000000E+02  0.51100000000E-03 0.  1.
         23    2    1    2    0    0 -0.35527136788E-14  0.00000000000E+00  0.00000000000E+00  0.91188000000E+02  0.91188000000E+02 0.  0.
    9900012    2    3    3    0    0 -0.24359676366E+02  0.11322133092E+02 -0.34088688232E+02  0.47787271945E+02  0.20000004104E+02 0.  0.
         12    1    3    3    0    0  0.24359676366E+02 -0.11322133092E+02  0.34088688232E+02  0.43400728055E+02  0.00000000000E+00 0. -1.
         11    1    4    4    0    0 -0.28872852918E-03 -0.63046426678E+00  0.15364738407E+01  0.16607942074E+01  0.51100000000E-03 0. -1.
        -11    1    4    4    0    0 -0.11684164914E+02  0.80318019880E+01 -0.10261587814E+02  0.17502278070E+02  0.51100000000E-03 0.  1.
         12    1    4    4    0    0 -0.12675222723E+02  0.39207953707E+01 -0.25363574259E+02  0.28624199667E+02  0.00000000000E+00 0. -1.
</event>
<event>
 8    1  0.3776180E-010  0.9118800E+02  0.7816164E-02  0.1184000E+00
        -11   -1    0    0    0    0  0.00000000000E+00  0.00000000000E+00  0.45593999997E+02  0.45594000000E+02  0.51100000000E-03 0. -1.
         11   -1    0    0    0    0 -0.00000000000E+00 -0.00000000000E+00 -0.45593999997E+02  0.45594000000E+02  0.51100000000E-03 0.  1.
         23    2    1    2    0    0  0.35527136788E-14  0.00000000000E+00  0.00000000000E+00  0.91188000000E+02  0.91188000000E+02 0.  0.
    9900012    2    3    3    0    0  0.29261927863E+02 -0.16651034222E+02  0.27388060838E+02  0.47787271442E+02  0.20000001813E+02 0.  0.
        -12    1    3    3    0    0 -0.29261927863E+02  0.16651034222E+02 -0.27388060838E+02  0.43400728558E+02  0.00000000000E+00 0.  1.
         11    1    4    4    0    0  0.64657607326E+01 -0.37342249176E+01 -0.58471552435E+00  0.74894853023E+01  0.51100000000E-03 0. -1.
        -11    1    4    4    0    0  0.17151272422E+01  0.16129374041E+01  0.63948566381E+01  0.68145007307E+01  0.51100000000E-03 0.  1.
         12    1    4    4    0    0  0.21081039888E+02 -0.14529746708E+02  0.21577919724E+02  0.33483285409E+02  0.00000000000E+00 0. -1.
</event>
<event>
 8    1  0.4127666E-010  0.9118800E+02  0.7816164E-02  0.1184000E+00
        -11   -1    0    0    0    0  0.00000000000E+00  0.00000000000E+00  0.45593999997E+02  0.45594000000E+02  0.51100000000E-03 0. -1.
         11   -1    0    0    0    0 -0.00000000000E+00 -0.00000000000E+00 -0.45593999997E+02  0.45594000000E+02  0.51100000000E-03 0.  1.
         23    2    1    2    0    0 -0.35527136788E-14  0.00000000000E+00  0.00000000000E+00  0.91188000000E+02  0.91188000000E+02 0.  0.
    9900012    2    3    3    0    0  0.25816337714E+02 -0.84585019194E+01  0.33846620700E+02  0.47787270968E+02  0.19999999653E+02 0.  0.
        -12    1    3    3    0    0 -0.25816337714E+02  0.84585019194E+01 -0.33846620700E+02  0.43400729032E+02  0.00000000000E+00 0.  1.
         11    1    4    4    0    0  0.13106015298E+02 -0.48324388661E+01  0.11781953028E+02  0.18273875336E+02  0.51100000000E-03 0. -1.
        -11    1    4    4    0    0  0.12942965603E+02  0.23763974558E+01  0.17845646220E+02  0.22172837273E+02  0.51100000000E-03 0.  1.
        -12    1    4    4    0    0 -0.23264318700E+00 -0.60024605091E+01  0.42190214523E+01  0.73405583596E+01  0.00000000000E+00 0.  1.
</event>
<event>
 8    1  0.3776180E-010  0.9118800E+02  0.7816164E-02  0.1184000E+00
        -11   -1    0    0    0    0  0.00000000000E+00  0.00000000000E+00  0.45593999997E+02  0.45594000000E+02  0.51100000000E-03 0. -1.
         11   -1    0    0    0    0 -0.00000000000E+00 -0.00000000000E+00 -0.45593999997E+02  0.45594000000E+02  0.51100000000E-03 0.  1.
         23    2    1    2    0    0  0.00000000000E+00  0.00000000000E+00  0.00000000000E+00  0.91188000000E+02  0.91188000000E+02 0.  0.
    9900012    2    3    3    0    0  0.50010265438E+01  0.31760115351E+02  0.29153184364E+02  0.47787270143E+02  0.19999995888E+02 0.  0.
        -12    1    3    3    0    0 -0.50010265438E+01 -0.31760115351E+02 -0.29153184364E+02  0.43400729857E+02  0.00000000000E+00 0.  1.
         11    1    4    4    0    0  0.34621880550E+01  0.12749910821E+02  0.13284417990E+02  0.18735600702E+02  0.51100000000E-03 0. -1.
        -11    1    4    4    0    0  0.18581543430E+01  0.13084266126E+01  0.10217149130E+02  0.10466845484E+02  0.51100000000E-03 0.  1.
         12    1    4    4    0    0 -0.31931585423E+00  0.17701777917E+02  0.56516172439E+01  0.18584823957E+02  0.00000000000E+00 0. -1.
</event>
<event>
 8    1  0.7638988E-010  0.9118800E+02  0.7816164E-02  0.1184000E+00
        -11   -1    0    0    0    0  0.00000000000E+00  0.00000000000E+00  0.45593999997E+02  0.45594000000E+02  0.51100000000E-03 0. -1.
         11   -1    0    0    0    0 -0.00000000000E+00 -0.00000000000E+00 -0.45593999997E+02  0.45594000000E+02  0.51100000000E-03 0.  1.
         23    2    1    2    0    0  0.00000000000E+00  0.88817841970E-15  0.00000000000E+00  0.91188000000E+02  0.91188000000E+02 0.  0.
    9900012    2    3    3    0    0 -0.24560333336E+02 -0.16714713311E+01  0.35743804663E+02  0.47787270031E+02  0.19999995380E+02 0.  0.
        -12    1    3    3    0    0  0.24560333336E+02  0.16714713311E+01 -0.35743804663E+02  0.43400729969E+02  0.00000000000E+00 0.  1.
         11    1    4    4    0    0  0.10982825825E+01 -0.41599636805E+01  0.31052802946E+01  0.53060614794E+01  0.51100000000E-03 0. -1.
        -11    1    4    4    0    0 -0.88110664628E+01 -0.39147067830E+00  0.54537367125E+01  0.10369734128E+02  0.51100000000E-03 0.  1.
         12    1    4    4    0    0 -0.16847549456E+02  0.28799630277E+01  0.27184787656E+02  0.32111474423E+02  0.00000000000E+00 0. -1.
</event>
<event>
 8    1  0.3776180E-010  0.9118800E+02  0.7816164E-02  0.1184000E+00
        -11   -1    0    0    0    0  0.00000000000E+00  0.00000000000E+00  0.45593999997E+02  0.45594000000E+02  0.51100000000E-03 0. -1.
         11   -1    0    0    0    0 -0.00000000000E+00 -0.00000000000E+00 -0.45593999997E+02  0.45594000000E+02  0.51100000000E-03 0.  1.
         23    2    1    2    0    0  0.00000000000E+00  0.00000000000E+00 -0.71054273576E-14  0.91188000000E+02  0.91188000000E+02 0.  0.
    9900012    2    3    3    0    0  0.23353662624E+02  0.95036225811E+01  0.35325779359E+02  0.47787273192E+02  0.20000009793E+02 0.  0.
        -12    1    3    3    0    0 -0.23353662624E+02 -0.95036225811E+01 -0.35325779359E+02  0.43400726808E+02  0.00000000000E+00 0.  1.
         11    1    4    4    0    0  0.23560343162E+02  0.46763745425E+01  0.32096532501E+02  0.40089221091E+02  0.51100000000E-03 0. -1.
        -11    1    4    4    0    0  0.92128548670E+00 -0.67852280579E+00  0.13553933123E+01  0.17737675829E+01  0.51100000000E-03 0.  1.
        -12    1    4    4    0    0 -0.11279660255E+01  0.55057708444E+01  0.18738535455E+01  0.59242845185E+01  0.00000000000E+00 0.  1.
</event>
<event>
 8    1  0.3776180E-010  0.9118800E+02  0.7816164E-02  0.1184000E+00
        -11   -1    0    0    0    0  0.00000000000E+00  0.00000000000E+00  0.45593999997E+02  0.45594000000E+02  0.51100000000E-03 0. -1.
         11   -1    0    0    0    0 -0.00000000000E+00 -0.00000000000E+00 -0.45593999997E+02  0.45594000000E+02  0.51100000000E-03 0.  1.
         23    2    1    2    0    0  0.00000000000E+00  0.00000000000E+00  0.00000000000E+00  0.91188000000E+02  0.91188000000E+02 0.  0.
    9900012    2    3    3    0    0 -0.17096168895E+02  0.10220860310E+02  0.38560063056E+02  0.47787269139E+02  0.19999991312E+02 0.  0.
        -12    1    3    3    0    0  0.17096168895E+02 -0.10220860310E+02 -0.38560063056E+02  0.43400730861E+02  0.00000000000E+00 0.  1.
         11    1    4    4    0    0 -0.57785496594E+01  0.51791173664E+01  0.26442211509E+01  0.81979752755E+01  0.51100000000E-03 0. -1.
        -11    1    4    4    0    0  0.10465322213E+01 -0.20894209410E+01  0.41168044108E+01  0.47338133019E+01  0.51100000000E-03 0.  1.
         12    1    4    4    0    0 -0.12364151456E+02  0.71311638849E+01  0.31799037495E+02  0.34855480562E+02  0.00000000000E+00 0. -1.
</event>
<event>
 8    1  0.3776180E-010  0.9118800E+02  0.7816164E-02  0.1184000E+00
        -11   -1    0    0    0    0  0.00000000000E+00  0.00000000000E+00  0.45593999997E+02  0.45594000000E+02  0.51100000000E-03 0. -1.
         11   -1    0    0    0    0 -0.00000000000E+00 -0.00000000000E+00 -0.45593999997E+02  0.45594000000E+02  0.51100000000E-03 0.  1.
         23    2    1    2    0    0  0.00000000000E+00 -0.17763568394E-14  0.71054273576E-14  0.91188000000E+02  0.91188000000E+02 0.  0.
    9900012    2    3    3    0    0  0.10776198045E+02 -0.81621534302E+01  0.41241678048E+02  0.47787271882E+02  0.20000003819E+02 0.  0.
        -12    1    3    3    0    0 -0.10776198045E+02  0.81621534302E+01 -0.41241678048E+02  0.43400728118E+02  0.00000000000E+00 0.  1.
         11    1    4    4    0    0 -0.39476270248E+01 -0.61515520922E+00  0.21203385560E+02  0.21576508858E+02  0.51100000000E-03 0. -1.
        -11    1    4    4    0    0  0.36787501931E+01 -0.87061255478E+00  0.29436271655E+01  0.47912535264E+01  0.51100000000E-03 0.  1.
         12    1    4    4    0    0  0.11045074877E+02 -0.66763856662E+01  0.17094665323E+02  0.21419509497E+02  0.00000000000E+00 0. -1.
</event>
<event>
 8    1  0.3776180E-010  0.9118800E+02  0.7816164E-02  0.1184000E+00
        -11   -1    0    0    0    0  0.00000000000E+00  0.00000000000E+00  0.45593999997E+02  0.45594000000E+02  0.51100000000E-03 0. -1.
         11   -1    0    0    0    0 -0.00000000000E+00 -0.00000000000E+00 -0.45593999997E+02  0.45594000000E+02  0.51100000000E-03 0.  1.
         23    2    1    2    0    0  0.00000000000E+00  0.35527136788E-14 -0.17763568394E-14  0.91188000000E+02  0.91188000000E+02 0.  0.
    9900012    2    3    3    0    0 -0.28672796994E+02 -0.31406392717E+02  0.86679022159E+01  0.47787270516E+02  0.19999997589E+02 0.  0.
        -12    1    3    3    0    0  0.28672796994E+02  0.31406392717E+02 -0.86679022159E+01  0.43400729484E+02  0.00000000000E+00 0.  1.
         11    1    4    4    0    0 -0.59129887486E+01 -0.96014876603E+01  0.61665050156E+01  0.12852151011E+02  0.51100000000E-03 0. -1.
        -11    1    4    4    0    0 -0.10088140875E+02 -0.19514759402E+02  0.14939645508E+01  0.22018818115E+02  0.51100000000E-03 0.  1.
         12    1    4    4    0    0 -0.12671667370E+02 -0.22901456543E+01  0.10074326495E+01  0.12916301390E+02  0.00000000000E+00 0. -1.
</event>
<event>
 8    1  0.3776180E-010  0.9118800E+02  0.7816164E-02  0.1184000E+00
        -11   -1    0    0    0    0  0.00000000000E+00  0.00000000000E+00  0.45593999997E+02  0.45594000000E+02  0.51100000000E-03 0. -1.
         11   -1    0    0    0    0 -0.00000000000E+00 -0.00000000000E+00 -0.45593999997E+02  0.45594000000E+02  0.51100000000E-03 0.  1.
         23    2    1    2    0    0  0.44408920985E-15  0.17763568394E-14 -0.71054273576E-14  0.91188000000E+02  0.91188000000E+02 0.  0.
    9900012    2    3    3    0    0  0.38477246583E+01  0.93982318660E+01 -0.42195869350E+02  0.47787272616E+02  0.20000007167E+02 0.  0.
         12    1    3    3    0    0 -0.38477246583E+01 -0.93982318660E+01  0.42195869350E+02  0.43400727384E+02  0.00000000000E+00 0. -1.
         11    1    4    4    0    0  0.92103891451E+00 -0.75005933236E+00  0.17667630100E+01  0.21289324740E+01  0.51100000000E-03 0. -1.
        -11    1    4    4    0    0  0.89998558854E-02 -0.77520351382E-01  0.20985435451E+00  0.22389621148E+00  0.51100000000E-03 0.  1.
        -12    1    4    4    0    0  0.29176858879E+01  0.10225811550E+02 -0.44172486714E+02  0.45434443931E+02  0.00000000000E+00 0.  1.
</event>
<event>
 8    1  0.3776180E-010  0.9118800E+02  0.7816164E-02  0.1184000E+00
        -11   -1    0    0    0    0  0.00000000000E+00  0.00000000000E+00  0.45593999997E+02  0.45594000000E+02  0.51100000000E-03 0. -1.
         11   -1    0    0    0    0 -0.00000000000E+00 -0.00000000000E+00 -0.45593999997E+02  0.45594000000E+02  0.51100000000E-03 0.  1.
         23    2    1    2    0    0  0.35527136788E-14  0.00000000000E+00  0.35527136788E-14  0.91188000000E+02  0.91188000000E+02 0.  0.
    9900012    2    3    3    0    0  0.31865618846E+02  0.96754662284E+01 -0.27831485663E+02  0.47787263769E+02  0.19999966829E+02 0.  0.
         12    1    3    3    0    0 -0.31865618846E+02 -0.96754662284E+01  0.27831485663E+02  0.43400736231E+02  0.00000000000E+00 0. -1.
         11    1    4    4    0    0  0.66181860544E+01 -0.10554573409E+01  0.39936781749E+00  0.67137077508E+01  0.51100000000E-03 0. -1.
        -11    1    4    4    0    0  0.85483320894E+01 -0.19172594744E+01 -0.10085023578E+02  0.13358801078E+02  0.51100000000E-03 0.  1.
        -12    1    4    4    0    0  0.16699100702E+02  0.12648183044E+02 -0.18145829903E+02  0.27714754941E+02  0.00000000000E+00 0.  1.
</event>
<event>
 8    1  0.3776180E-010  0.9118800E+02  0.7816164E-02  0.1184000E+00
        -11   -1    0    0    0    0  0.00000000000E+00  0.00000000000E+00  0.45593999997E+02  0.45594000000E+02  0.51100000000E-03 0. -1.
         11   -1    0    0    0    0 -0.00000000000E+00 -0.00000000000E+00 -0.45593999997E+02  0.45594000000E+02  0.51100000000E-03 0.  1.
         23    2    1    2    0    0  0.00000000000E+00  0.00000000000E+00  0.00000000000E+00  0.91188000000E+02  0.91188000000E+02 0.  0.
    9900012    2    3    3    0    0  0.26580603018E+02 -0.12336115961E+02  0.32014296787E+02  0.47787269447E+02  0.19999992715E+02 0.  0.
        -12    1    3    3    0    0 -0.26580603018E+02  0.12336115961E+02 -0.32014296787E+02  0.43400730553E+02  0.00000000000E+00 0.  1.
         11    1    4    4    0    0  0.81793072602E+01  0.48328681108E+00  0.62837204264E+01  0.10325685258E+02  0.51100000000E-03 0. -1.
        -11    1    4    4    0    0 -0.96290948032E+00  0.12988883300E+01  0.66071110172E+01  0.68020748170E+01  0.51100000000E-03 0.  1.
         12    1    4    4    0    0  0.19364205238E+02 -0.14118291102E+02  0.19123465343E+02  0.30659509371E+02  0.00000000000E+00 0. -1.
</event>
<event>
 8    1  0.3776180E-010  0.9118800E+02  0.7816164E-02  0.1184000E+00
        -11   -1    0    0    0    0  0.00000000000E+00  0.00000000000E+00  0.45593999997E+02  0.45594000000E+02  0.51100000000E-03 0. -1.
         11   -1    0    0    0    0 -0.00000000000E+00 -0.00000000000E+00 -0.45593999997E+02  0.45594000000E+02  0.51100000000E-03 0.  1.
         23    2    1    2    0    0  0.00000000000E+00  0.00000000000E+00  0.00000000000E+00  0.91188000000E+02  0.91188000000E+02 0.  0.
    9900012    2    3    3    0    0 -0.21926917962E+02  0.47495628323E+01  0.37152054918E+02  0.47787271169E+02  0.20000000567E+02 0.  0.
        -12    1    3    3    0    0  0.21926917962E+02 -0.47495628323E+01 -0.37152054918E+02  0.43400728831E+02  0.00000000000E+00 0.  1.
         11    1    4    4    0    0 -0.11225229956E+02 -0.20495648115E+01  0.20347074064E+02  0.23328307412E+02  0.51100000000E-03 0. -1.
        -11    1    4    4    0    0 -0.78594131723E+01  0.64297483789E+01  0.18518365600E+02  0.21119704174E+02  0.51100000000E-03 0.  1.
         12    1    4    4    0    0 -0.28422748342E+01  0.36937926496E+00 -0.17133847461E+01  0.33392595830E+01  0.00000000000E+00 0. -1.
</event>
<event>
 8    1  0.3776180E-010  0.9118800E+02  0.7816164E-02  0.1184000E+00
        -11   -1    0    0    0    0  0.00000000000E+00  0.00000000000E+00  0.45593999997E+02  0.45594000000E+02  0.51100000000E-03 0. -1.
         11   -1    0    0    0    0 -0.00000000000E+00 -0.00000000000E+00 -0.45593999997E+02  0.45594000000E+02  0.51100000000E-03 0.  1.
         23    2    1    2    0    0  0.00000000000E+00  0.00000000000E+00  0.00000000000E+00  0.91188000000E+02  0.91188000000E+02 0.  0.
    9900012    2    3    3    0    0  0.29931528834E+01 -0.23323464815E+02 -0.36478499050E+02  0.47787264198E+02  0.19999968786E+02 0.  0.
         12    1    3    3    0    0 -0.29931528834E+01  0.23323464815E+02  0.36478499050E+02  0.43400735802E+02  0.00000000000E+00 0. -1.
         11    1    4    4    0    0 -0.39928211591E+01 -0.11501522424E+00 -0.11936684863E+02  0.12587306904E+02  0.51100000000E-03 0. -1.
        -11    1    4    4    0    0  0.43736509275E+00 -0.83851165342E+01 -0.12289906716E+02  0.14884329842E+02  0.51100000000E-03 0.  1.
         12    1    4    4    0    0  0.65486089497E+01 -0.14823333057E+02 -0.12251907472E+02  0.20315627452E+02  0.00000000000E+00 0. -1.
</event>
<event>
 8    1  0.3776180E-010  0.9118800E+02  0.7816164E-02  0.1184000E+00
        -11   -1    0    0    0    0  0.00000000000E+00  0.00000000000E+00  0.45593999997E+02  0.45594000000E+02  0.51100000000E-03 0. -1.
         11   -1    0    0    0    0 -0.00000000000E+00 -0.00000000000E+00 -0.45593999997E+02  0.45594000000E+02  0.51100000000E-03 0.  1.
         23    2    1    2    0    0  0.00000000000E+00  0.44408920985E-15  0.00000000000E+00  0.91188000000E+02  0.91188000000E+02 0.  0.
    9900012    2    3    3    0    0  0.41187561673E+02  0.37573382727E+01  0.13156389184E+02  0.47787269547E+02  0.19999993173E+02 0.  0.
        -12    1    3    3    0    0 -0.41187561673E+02 -0.37573382727E+01 -0.13156389184E+02  0.43400730453E+02  0.00000000000E+00 0.  1.
         11    1    4    4    0    0  0.10609847947E+02 -0.41602323762E+01  0.39850777258E+01  0.12072996796E+02  0.51100000000E-03 0. -1.
        -11    1    4    4    0    0  0.65893313192E+00  0.16522754701E+01 -0.24364973057E+01  0.30167410368E+01  0.51100000000E-03 0.  1.
         12    1    4    4    0    0  0.29918780594E+02  0.62652951788E+01  0.11607808764E+02  0.32697531714E+02  0.00000000000E+00 0. -1.
</event>
<event>
 8    1  0.3776180E-010  0.9118800E+02  0.7816164E-02  0.1184000E+00
        -11   -1    0    0    0    0  0.00000000000E+00  0.00000000000E+00  0.45593999997E+02  0.45594000000E+02  0.51100000000E-03 0. -1.
         11   -1    0    0    0    0 -0.00000000000E+00 -0.00000000000E+00 -0.45593999997E+02  0.45594000000E+02  0.51100000000E-03 0.  1.
         23    2    1    2    0    0 -0.88817841970E-15  0.00000000000E+00  0.00000000000E+00  0.91188000000E+02  0.91188000000E+02 0.  0.
    9900012    2    3    3    0    0 -0.70457559602E+01  0.49107347903E+01  0.42542510068E+02  0.47787272401E+02  0.20000006185E+02 0.  0.
        -12    1    3    3    0    0  0.70457559602E+01 -0.49107347903E+01 -0.42542510068E+02  0.43400727599E+02  0.00000000000E+00 0.  1.
         11    1    4    4    0    0  0.25554666021E+01  0.21835354003E+01  0.94349261148E+01  0.10015790905E+02  0.51100000000E-03 0. -1.
        -11    1    4    4    0    0 -0.39664295665E+00 -0.56757562425E+01  0.94110046740E+01  0.10997206181E+02  0.51100000000E-03 0.  1.
         12    1    4    4    0    0 -0.92045796057E+01  0.84029556325E+01  0.23696579279E+02  0.26774275315E+02  0.00000000000E+00 0. -1.
</event>
<event>
 8    1  0.3864945E-010  0.9118800E+02  0.7816164E-02  0.1184000E+00
        -11   -1    0    0    0    0  0.00000000000E+00  0.00000000000E+00  0.45593999997E+02  0.45594000000E+02  0.51100000000E-03 0. -1.
         11   -1    0    0    0    0 -0.00000000000E+00 -0.00000000000E+00 -0.45593999997E+02  0.45594000000E+02  0.51100000000E-03 0.  1.
         23    2    1    2    0    0 -0.17763568394E-14  0.00000000000E+00  0.35527136788E-14  0.91188000000E+02  0.91188000000E+02 0.  0.
    9900012    2    3    3    0    0 -0.11868631780E+02  0.28383362906E+02  0.30612821309E+02  0.47787256473E+02  0.19999933565E+02 0.  0.
        -12    1    3    3    0    0  0.11868631780E+02 -0.28383362906E+02 -0.30612821309E+02  0.43400743527E+02  0.00000000000E+00 0.  1.
         11    1    4    4    0    0 -0.45545112217E+01  0.14857249033E+02  0.67147210654E+01  0.16928346066E+02  0.51100000000E-03 0. -1.
        -11    1    4    4    0    0  0.30571931813E+01  0.59119312911E+01  0.83160098736E+01  0.10651449771E+02  0.51100000000E-03 0.  1.
        -12    1    4    4    0    0 -0.10371313740E+02  0.76141825818E+01  0.15582090370E+02  0.20207460637E+02  0.00000000000E+00 0.  1.
</event>
<event>
 8    1  0.3776180E-010  0.9118800E+02  0.7816164E-02  0.1184000E+00
        -11   -1    0    0    0    0  0.00000000000E+00  0.00000000000E+00  0.45593999997E+02  0.45594000000E+02  0.51100000000E-03 0.  1.
         11   -1    0    0    0    0 -0.00000000000E+00 -0.00000000000E+00 -0.45593999997E+02  0.45594000000E+02  0.51100000000E-03 0. -1.
         23    2    1    2    0    0  0.00000000000E+00  0.35527136788E-14  0.00000000000E+00  0.91188000000E+02  0.91188000000E+02 0.  0.
    9900012    2    3    3    0    0 -0.26013736749E+02 -0.13064057258E+02  0.32190726161E+02  0.47787228781E+02  0.19999807302E+02 0.  0.
        -12    1    3    3    0    0  0.26013736749E+02  0.13064057258E+02 -0.32190726161E+02  0.43400771219E+02  0.00000000000E+00 0.  1.
         11    1    4    4    0    0 -0.45923359876E+01  0.28572392341E+01  0.19790729264E+01  0.57593485546E+01  0.51100000000E-03 0. -1.
        -11    1    4    4    0    0 -0.11956173803E+01  0.13401464853E+01  0.19624982984E-01  0.17960731954E+01  0.51100000000E-03 0.  1.
        -12    1    4    4    0    0 -0.20225783381E+02 -0.17261442977E+02  0.30192028251E+02  0.40231807031E+02  0.00000000000E+00 0.  1.
</event>
<event>
 8    1  0.3776180E-010  0.9118800E+02  0.7816164E-02  0.1184000E+00
        -11   -1    0    0    0    0  0.00000000000E+00  0.00000000000E+00  0.45593999997E+02  0.45594000000E+02  0.51100000000E-03 0. -1.
         11   -1    0    0    0    0 -0.00000000000E+00 -0.00000000000E+00 -0.45593999997E+02  0.45594000000E+02  0.51100000000E-03 0.  1.
         23    2    1    2    0    0  0.11102230246E-15  0.35527136788E-14  0.00000000000E+00  0.91188000000E+02  0.91188000000E+02 0.  0.
    9900012    2    3    3    0    0 -0.33541694676E+00  0.25882432148E+02  0.34836895472E+02  0.47787284746E+02  0.20000062472E+02 0.  0.
        -12    1    3    3    0    0  0.33541694676E+00 -0.25882432148E+02 -0.34836895472E+02  0.43400715254E+02  0.00000000000E+00 0.  1.
         11    1    4    4    0    0  0.13791161364E+01  0.14891363241E+02  0.25644951485E+02  0.29687003847E+02  0.51100000000E-03 0. -1.
        -11    1    4    4    0    0  0.15391627509E+01  0.11747857097E+02  0.87534897461E+01  0.14731081133E+02  0.51100000000E-03 0.  1.
        -12    1    4    4    0    0 -0.32536958341E+01 -0.75678819001E+00  0.43845424075E+00  0.33691997665E+01  0.00000000000E+00 0.  1.
</event>
<event>
 8    1  0.3776180E-010  0.9118800E+02  0.7816164E-02  0.1184000E+00
        -11   -1    0    0    0    0  0.00000000000E+00  0.00000000000E+00  0.45593999997E+02  0.45594000000E+02  0.51100000000E-03 0. -1.
         11   -1    0    0    0    0 -0.00000000000E+00 -0.00000000000E+00 -0.45593999997E+02  0.45594000000E+02  0.51100000000E-03 0.  1.
         23    2    1    2    0    0  0.00000000000E+00  0.00000000000E+00  0.00000000000E+00  0.91188000000E+02  0.91188000000E+02 0.  0.
    9900012    2    3    3    0    0 -0.31040723507E+02 -0.23133926718E+02  0.19619337446E+02  0.47787268635E+02  0.19999989013E+02 0.  0.
        -12    1    3    3    0    0  0.31040723507E+02  0.23133926718E+02 -0.19619337446E+02  0.43400731365E+02  0.00000000000E+00 0.  1.
         11    1    4    4    0    0 -0.30717309417E+01 -0.38417264346E+01 -0.19867567606E+01  0.53048652823E+01  0.51100000000E-03 0.  1.
        -11    1    4    4    0    0 -0.18771400921E+01 -0.72133234478E+00  0.69997136302E+01  0.72828542786E+01  0.51100000000E-03 0. -1.
        -12    1    4    4    0    0 -0.26091852473E+02 -0.18570867939E+02  0.14606380576E+02  0.35199549074E+02  0.00000000000E+00 0.  1.
</event>
<event>
 8    1  0.3776180E-010  0.9118800E+02  0.7816164E-02  0.1184000E+00
        -11   -1    0    0    0    0  0.00000000000E+00  0.00000000000E+00  0.45593999997E+02  0.45594000000E+02  0.51100000000E-03 0. -1.
         11   -1    0    0    0    0 -0.00000000000E+00 -0.00000000000E+00 -0.45593999997E+02  0.45594000000E+02  0.51100000000E-03 0.  1.
         23    2    1    2    0    0  0.35527136788E-14  0.00000000000E+00  0.00000000000E+00  0.91188000000E+02  0.91188000000E+02 0.  0.
    9900012    2    3    3    0    0  0.22213097522E+02 -0.27329225254E+02  0.25363668837E+02  0.47787263239E+02  0.19999964411E+02 0.  0.
        -12    1    3    3    0    0 -0.22213097522E+02  0.27329225254E+02 -0.25363668837E+02  0.43400736761E+02  0.00000000000E+00 0.  1.
         11    1    4    4    0    0 -0.12097691977E+01 -0.19940492472E+01  0.33817352591E+01  0.41080296415E+01  0.51100000000E-03 0. -1.
        -11    1    4    4    0    0  0.39987581818E+01 -0.15394494610E+02  0.99614402966E+01  0.18767280686E+02  0.51100000000E-03 0.  1.
         12    1    4    4    0    0  0.19424108538E+02 -0.99406813968E+01  0.12020493282E+02  0.24911952912E+02  0.00000000000E+00 0. -1.
</event>
<event>
 8    1  0.3776180E-010  0.9118800E+02  0.7816164E-02  0.1184000E+00
        -11   -1    0    0    0    0  0.00000000000E+00  0.00000000000E+00  0.45593999997E+02  0.45594000000E+02  0.51100000000E-03 0. -1.
         11   -1    0    0    0    0 -0.00000000000E+00 -0.00000000000E+00 -0.45593999997E+02  0.45594000000E+02  0.51100000000E-03 0.  1.
         23    2    1    2    0    0 -0.22204460493E-15 -0.16653345369E-15  0.00000000000E+00  0.91188000000E+02  0.91188000000E+02 0.  0.
    9900012    2    3    3    0    0 -0.19678990576E+01 -0.48514190696E+00 -0.43353377684E+02  0.47787270214E+02  0.19999996213E+02 0.  0.
         12    1    3    3    0    0  0.19678990576E+01  0.48514190696E+00  0.43353377684E+02  0.43400729786E+02  0.00000000000E+00 0. -1.
         11    1    4    4    0    0 -0.75925935063E+01 -0.12003354216E+01 -0.19700608889E+02  0.21147157542E+02  0.51100000000E-03 0. -1.
        -11    1    4    4    0    0 -0.16264797323E+01 -0.33756980611E+01 -0.96121748837E+01  0.10316718469E+02  0.51100000000E-03 0.  1.
         12    1    4    4    0    0  0.72511741809E+01  0.40908915757E+01 -0.14040593912E+02  0.16323394202E+02  0.00000000000E+00 0. -1.
</event>
<event>
 8    1  0.3776180E-010  0.9118800E+02  0.7816164E-02  0.1184000E+00
        -11   -1    0    0    0    0  0.00000000000E+00  0.00000000000E+00  0.45593999997E+02  0.45594000000E+02  0.51100000000E-03 0.  1.
         11   -1    0    0    0    0 -0.00000000000E+00 -0.00000000000E+00 -0.45593999997E+02  0.45594000000E+02  0.51100000000E-03 0. -1.
         23    2    1    2    0    0  0.35527136788E-14 -0.17763568394E-14  0.00000000000E+00  0.91188000000E+02  0.91188000000E+02 0.  0.
    9900012    2    3    3    0    0 -0.26878535232E+02  0.10489656768E+02 -0.32421210584E+02  0.47787269003E+02  0.19999990693E+02 0.  0.
         12    1    3    3    0    0  0.26878535232E+02 -0.10489656768E+02  0.32421210584E+02  0.43400730997E+02  0.00000000000E+00 0. -1.
         11    1    4    4    0    0 -0.10371199836E+02  0.78985019914E-01 -0.76204024048E+01  0.12870064403E+02  0.51100000000E-03 0. -1.
        -11    1    4    4    0    0 -0.16944567617E+02  0.94422975067E+01 -0.26543578990E+02  0.32876084618E+02  0.51100000000E-03 0.  1.
         12    1    4    4    0    0  0.43723222056E+00  0.96837424101E+00  0.17427708105E+01  0.20411199826E+01  0.00000000000E+00 0. -1.
</event>
<event>
 8    1  0.3776180E-010  0.9118800E+02  0.7816164E-02  0.1184000E+00
        -11   -1    0    0    0    0  0.00000000000E+00  0.00000000000E+00  0.45593999997E+02  0.45594000000E+02  0.51100000000E-03 0. -1.
         11   -1    0    0    0    0 -0.00000000000E+00 -0.00000000000E+00 -0.45593999997E+02  0.45594000000E+02  0.51100000000E-03 0.  1.
         23    2    1    2    0    0  0.00000000000E+00  0.00000000000E+00  0.00000000000E+00  0.91188000000E+02  0.91188000000E+02 0.  0.
    9900012    2    3    3    0    0 -0.23699904701E+02  0.25147028747E+02 -0.26259562855E+02  0.47787272137E+02  0.20000004984E+02 0.  0.
         12    1    3    3    0    0  0.23699904701E+02 -0.25147028747E+02  0.26259562855E+02  0.43400727863E+02  0.00000000000E+00 0. -1.
         11    1    4    4    0    0 -0.22688804719E+01  0.16870158262E+00 -0.99670360900E+01  0.10223408800E+02  0.51100000000E-03 0. -1.
        -11    1    4    4    0    0 -0.36662730882E+01  0.92514201238E+01 -0.65613686307E+01  0.11919810872E+02  0.51100000000E-03 0.  1.
         12    1    4    4    0    0 -0.17764751141E+02  0.15726907041E+02 -0.97311581343E+01  0.25644052465E+02  0.00000000000E+00 0. -1.
</event>
<event>
 8    1  0.4723744E-010  0.9118800E+02  0.7816164E-02  0.1184000E+00
        -11   -1    0    0    0    0  0.00000000000E+00  0.00000000000E+00  0.45593999997E+02  0.45594000000E+02  0.51100000000E-03 0. -1.
         11   -1    0    0    0    0 -0.00000000000E+00 -0.00000000000E+00 -0.45593999997E+02  0.45594000000E+02  0.51100000000E-03 0.  1.
         23    2    1    2    0    0  0.88817841970E-15 -0.88817841970E-15  0.00000000000E+00  0.91188000000E+02  0.91188000000E+02 0.  0.
    9900012    2    3    3    0    0  0.65897330800E+01  0.55476431987E+01  0.42537305147E+02  0.47787271247E+02  0.20000000924E+02 0.  0.
        -12    1    3    3    0    0 -0.65897330800E+01 -0.55476431987E+01 -0.42537305147E+02  0.43400728753E+02  0.00000000000E+00 0.  1.
         11    1    4    4    0    0  0.39096437492E+01  0.34818551751E+01  0.22422417535E+02  0.23025495392E+02  0.51100000000E-03 0. -1.
        -11    1    4    4    0    0  0.48368078314E+01  0.72925209482E+01  0.11357233897E+02  0.14337445164E+02  0.51100000000E-03 0.  1.
        -12    1    4    4    0    0 -0.21567185006E+01 -0.52267329246E+01  0.87576537149E+01  0.10424330690E+02  0.00000000000E+00 0.  1.
</event>
<event>
 8    1  0.3776180E-010  0.9118800E+02  0.7816164E-02  0.1184000E+00
        -11   -1    0    0    0    0  0.00000000000E+00  0.00000000000E+00  0.45593999997E+02  0.45594000000E+02  0.51100000000E-03 0.  1.
         11   -1    0    0    0    0 -0.00000000000E+00 -0.00000000000E+00 -0.45593999997E+02  0.45594000000E+02  0.51100000000E-03 0. -1.
         23    2    1    2    0    0 -0.88817841970E-15  0.00000000000E+00  0.00000000000E+00  0.91188000000E+02  0.91188000000E+02 0.  0.
    9900012    2    3    3    0    0 -0.68265237157E+01  0.38704387897E+02 -0.18411770190E+02  0.47787258646E+02  0.19999943472E+02 0.  0.
         12    1    3    3    0    0  0.68265237157E+01 -0.38704387897E+02  0.18411770190E+02  0.43400741354E+02  0.00000000000E+00 0. -1.
         11    1    4    4    0    0  0.27665281462E+01  0.91241291014E+00  0.48625929805E+00  0.29534088217E+01  0.51100000000E-03 0. -1.
        -11    1    4    4    0    0 -0.29417475348E+00  0.23511579097E+02 -0.93840731429E+01  0.25316826804E+02  0.51100000000E-03 0.  1.
         12    1    4    4    0    0 -0.92988771084E+01  0.14280395890E+02 -0.95139563447E+01  0.19517023021E+02  0.00000000000E+00 0. -1.
</event>
<event>
 8    1  0.3776180E-010  0.9118800E+02  0.7816164E-02  0.1184000E+00
        -11   -1    0    0    0    0  0.00000000000E+00  0.00000000000E+00  0.45593999997E+02  0.45594000000E+02  0.51100000000E-03 0. -1.
         11   -1    0    0    0    0 -0.00000000000E+00 -0.00000000000E+00 -0.45593999997E+02  0.45594000000E+02  0.51100000000E-03 0.  1.
         23    2    1    2    0    0  0.00000000000E+00  0.00000000000E+00  0.00000000000E+00  0.91188000000E+02  0.91188000000E+02 0.  0.
    9900012    2    3    3    0    0 -0.83415614445E+01  0.23317163620E+02 -0.35641990160E+02  0.47787271559E+02  0.20000002345E+02 0.  0.
         12    1    3    3    0    0  0.83415614445E+01 -0.23317163620E+02  0.35641990160E+02  0.43400728441E+02  0.00000000000E+00 0. -1.
         11    1    4    4    0    0 -0.50826093367E+01  0.24648590149E+01 -0.13240548809E+02  0.14395158236E+02  0.51100000000E-03 0.  1.
        -11    1    4    4    0    0 -0.67678447368E+01  0.97491693267E+01 -0.16535417211E+02  0.20353624924E+02  0.51100000000E-03 0. -1.
        -12    1    4    4    0    0  0.35088926290E+01  0.11103135279E+02 -0.58660241412E+01  0.13038488399E+02  0.00000000000E+00 0.  1.
</event>
<event>
 8    1  0.3776180E-010  0.9118800E+02  0.7816164E-02  0.1184000E+00
        -11   -1    0    0    0    0  0.00000000000E+00  0.00000000000E+00  0.45593999997E+02  0.45594000000E+02  0.51100000000E-03 0. -1.
         11   -1    0    0    0    0 -0.00000000000E+00 -0.00000000000E+00 -0.45593999997E+02  0.45594000000E+02  0.51100000000E-03 0.  1.
         23    2    1    2    0    0 -0.44408920985E-15  0.00000000000E+00 -0.35527136788E-14  0.91188000000E+02  0.91188000000E+02 0.  0.
    9900012    2    3    3    0    0 -0.34814783559E+01 -0.33785624610E+02 -0.27019143267E+02  0.47787271611E+02  0.20000002582E+02 0.  0.
         12    1    3    3    0    0  0.34814783559E+01  0.33785624610E+02  0.27019143267E+02  0.43400728389E+02  0.00000000000E+00 0. -1.
         11    1    4    4    0    0 -0.66210145933E+00  0.18514719149E+01 -0.32400710821E+00  0.19928139555E+01  0.51100000000E-03 0. -1.
        -11    1    4    4    0    0  0.18654678331E+01 -0.77273556545E+01 -0.19107617244E+01  0.81757572295E+01  0.51100000000E-03 0.  1.
         12    1    4    4    0    0 -0.46848447296E+01 -0.27909740871E+02 -0.24784374434E+02  0.37618700426E+02  0.00000000000E+00 0. -1.
</event>
<event>
 8    1  0.3776180E-010  0.9118800E+02  0.7816164E-02  0.1184000E+00
        -11   -1    0    0    0    0  0.00000000000E+00  0.00000000000E+00  0.45593999997E+02  0.45594000000E+02  0.51100000000E-03 0. -1.
         11   -1    0    0    0    0 -0.00000000000E+00 -0.00000000000E+00 -0.45593999997E+02  0.45594000000E+02  0.51100000000E-03 0.  1.
         23    2    1    2    0    0 -0.17763568394E-14  0.00000000000E+00  0.00000000000E+00  0.91188000000E+02  0.91188000000E+02 0.  0.
    9900012    2    3    3    0    0 -0.12112393105E+02 -0.39249403341E+02  0.14014127762E+02  0.47787291408E+02  0.20000092845E+02 0.  0.
         12    1    3    3    0    0  0.12112393105E+02  0.39249403341E+02 -0.14014127762E+02  0.43400708592E+02  0.00000000000E+00 0. -1.
         11    1    4    4    0    0 -0.62849734495E+00 -0.25156542124E+01 -0.35902543178E+00  0.26177136113E+01  0.51100000000E-03 0.  1.
        -11    1    4    4    0    0  0.24239835391E+01 -0.21528215230E+02  0.10971331834E+02  0.24283942630E+02  0.51100000000E-03 0. -1.
         12    1    4    4    0    0 -0.13907879300E+02 -0.15205533899E+02  0.34018213600E+01  0.20885635167E+02  0.00000000000E+00 0. -1.
</event>
<event>
 8    1  0.3776180E-010  0.9118800E+02  0.7816164E-02  0.1184000E+00
        -11   -1    0    0    0    0  0.00000000000E+00  0.00000000000E+00  0.45593999997E+02  0.45594000000E+02  0.51100000000E-03 0. -1.
         11   -1    0    0    0    0 -0.00000000000E+00 -0.00000000000E+00 -0.45593999997E+02  0.45594000000E+02  0.51100000000E-03 0.  1.
         23    2    1    2    0    0  0.00000000000E+00 -0.17763568394E-14  0.00000000000E+00  0.91188000000E+02  0.91188000000E+02 0.  0.
    9900012    2    3    3    0    0 -0.37709172255E+02 -0.15691868290E+02 -0.14676758642E+02  0.47787266748E+02  0.19999980409E+02 0.  0.
         12    1    3    3    0    0  0.37709172255E+02  0.15691868290E+02  0.14676758642E+02  0.43400733252E+02  0.00000000000E+00 0. -1.
         11    1    4    4    0    0 -0.10372021935E+02 -0.26513170954E+01 -0.98361607083E+01  0.14538169730E+02  0.51100000000E-03 0. -1.
        -11    1    4    4    0    0 -0.83888119430E+01 -0.10598793279E+02 -0.41185895541E+01  0.14130441074E+02  0.51100000000E-03 0.  1.
         12    1    4    4    0    0 -0.18948338377E+02 -0.24417579158E+01 -0.72200837977E+00  0.19118655943E+02  0.00000000000E+00 0. -1.
</event>
<event>
 8    1  0.3776180E-010  0.9118800E+02  0.7816164E-02  0.1184000E+00
        -11   -1    0    0    0    0  0.00000000000E+00  0.00000000000E+00  0.45593999997E+02  0.45594000000E+02  0.51100000000E-03 0. -1.
         11   -1    0    0    0    0 -0.00000000000E+00 -0.00000000000E+00 -0.45593999997E+02  0.45594000000E+02  0.51100000000E-03 0.  1.
         23    2    1    2    0    0  0.00000000000E+00 -0.35527136788E-14  0.00000000000E+00  0.91188000000E+02  0.91188000000E+02 0.  0.
    9900012    2    3    3    0    0  0.16399127594E+02  0.22013191609E+02  0.33617129468E+02  0.47787269772E+02  0.19999994197E+02 0.  0.
        -12    1    3    3    0    0 -0.16399127594E+02 -0.22013191609E+02 -0.33617129468E+02  0.43400730228E+02  0.00000000000E+00 0.  1.
         11    1    4    4    0    0  0.37375956031E+00  0.46056230548E+01  0.17489537964E+01  0.49406780481E+01  0.51100000000E-03 0. -1.
        -11    1    4    4    0    0 -0.13805732857E+01  0.67685198187E+01  0.14473287418E+02  0.16037296907E+02  0.51100000000E-03 0.  1.
         12    1    4    4    0    0  0.17405941319E+02  0.10639048736E+02  0.17394888254E+02  0.26809294817E+02  0.00000000000E+00 0. -1.
</event>
<event>
 8    1  0.3776180E-010  0.9118800E+02  0.7816164E-02  0.1184000E+00
        -11   -1    0    0    0    0  0.00000000000E+00  0.00000000000E+00  0.45593999997E+02  0.45594000000E+02  0.51100000000E-03 0. -1.
         11   -1    0    0    0    0 -0.00000000000E+00 -0.00000000000E+00 -0.45593999997E+02  0.45594000000E+02  0.51100000000E-03 0.  1.
         23    2    1    2    0    0  0.00000000000E+00  0.00000000000E+00 -0.35527136788E-14  0.91188000000E+02  0.91188000000E+02 0.  0.
    9900012    2    3    3    0    0 -0.31208125888E+02  0.15264209266E+01 -0.30122186619E+02  0.47787271791E+02  0.20000003405E+02 0.  0.
         12    1    3    3    0    0  0.31208125888E+02 -0.15264209266E+01  0.30122186619E+02  0.43400728209E+02  0.00000000000E+00 0. -1.
         11    1    4    4    0    0 -0.45971176863E+01  0.16705919401E+01 -0.86306034118E+01  0.99202663253E+01  0.51100000000E-03 0.  1.
        -11    1    4    4    0    0 -0.27079069989E+02 -0.28529375383E+01 -0.22079476855E+02  0.35055935054E+02  0.51100000000E-03 0. -1.
         12    1    4    4    0    0  0.46806178681E+00  0.27087665247E+01  0.58789364721E+00  0.28110704121E+01  0.00000000000E+00 0. -1.
</event>
<event>
 8    1  0.3776180E-010  0.9118800E+02  0.7816164E-02  0.1184000E+00
        -11   -1    0    0    0    0  0.00000000000E+00  0.00000000000E+00  0.45593999997E+02  0.45594000000E+02  0.51100000000E-03 0. -1.
         11   -1    0    0    0    0 -0.00000000000E+00 -0.00000000000E+00 -0.45593999997E+02  0.45594000000E+02  0.51100000000E-03 0.  1.
         23    2    1    2    0    0  0.00000000000E+00  0.00000000000E+00  0.35527136788E-14  0.91188000000E+02  0.91188000000E+02 0.  0.
    9900012    2    3    3    0    0 -0.35030245225E+02 -0.13991276287E+02  0.21465076635E+02  0.47787269504E+02  0.19999992976E+02 0.  0.
        -12    1    3    3    0    0  0.35030245225E+02  0.13991276287E+02 -0.21465076635E+02  0.43400730496E+02  0.00000000000E+00 0.  1.
         11    1    4    4    0    0 -0.19355203335E+01 -0.54706044505E+01  0.58485879712E+01  0.82389157984E+01  0.51100000000E-03 0. -1.
        -11    1    4    4    0    0 -0.80432737790E-01 -0.21605032053E+01  0.28670029198E+01  0.35908146052E+01  0.51100000000E-03 0.  1.
         12    1    4    4    0    0 -0.33014292154E+02 -0.63601686309E+01  0.12749485744E+02  0.35957539100E+02  0.00000000000E+00 0. -1.
</event>
<event>
 8    1  0.3776180E-010  0.9118800E+02  0.7816164E-02  0.1184000E+00
        -11   -1    0    0    0    0  0.00000000000E+00  0.00000000000E+00  0.45593999997E+02  0.45594000000E+02  0.51100000000E-03 0. -1.
         11   -1    0    0    0    0 -0.00000000000E+00 -0.00000000000E+00 -0.45593999997E+02  0.45594000000E+02  0.51100000000E-03 0.  1.
         23    2    1    2    0    0 -0.35527136788E-14  0.00000000000E+00  0.00000000000E+00  0.91188000000E+02  0.91188000000E+02 0.  0.
    9900012    2    3    3    0    0 -0.30676252199E+02 -0.29358463203E+02  0.89817375682E+01  0.47787269357E+02  0.19999992306E+02 0.  0.
        -12    1    3    3    0    0  0.30676252199E+02  0.29358463203E+02 -0.89817375682E+01  0.43400730643E+02  0.00000000000E+00 0.  1.
         11    1    4    4    0    0 -0.44820658431E+01 -0.11630220992E+02  0.40310368527E+01  0.13099626441E+02  0.51100000000E-03 0. -1.
        -11    1    4    4    0    0 -0.18364645267E+02 -0.18667317433E+02  0.19807034051E+01  0.26261228497E+02  0.51100000000E-03 0.  1.
        -12    1    4    4    0    0 -0.78295410886E+01  0.93907522128E+00  0.29699973104E+01  0.84264144186E+01  0.00000000000E+00 0.  1.
</event>
<event>
 8    1  0.3776180E-010  0.9118800E+02  0.7816164E-02  0.1184000E+00
        -11   -1    0    0    0    0  0.00000000000E+00  0.00000000000E+00  0.45593999997E+02  0.45594000000E+02  0.51100000000E-03 0. -1.
         11   -1    0    0    0    0 -0.00000000000E+00 -0.00000000000E+00 -0.45593999997E+02  0.45594000000E+02  0.51100000000E-03 0.  1.
         23    2    1    2    0    0  0.00000000000E+00  0.00000000000E+00 -0.71054273576E-14  0.91188000000E+02  0.91188000000E+02 0.  0.
    9900012    2    3    3    0    0 -0.75450768296E+01  0.17832766397E+02  0.38841828004E+02  0.47787270231E+02  0.19999996293E+02 0.  0.
        -12    1    3    3    0    0  0.75450768296E+01 -0.17832766397E+02 -0.38841828004E+02  0.43400729769E+02  0.00000000000E+00 0.  1.
         11    1    4    4    0    0 -0.12777061414E+01  0.64658245499E+01  0.20771955358E+02  0.21792511322E+02  0.51100000000E-03 0. -1.
        -11    1    4    4    0    0 -0.48692323983E+01  0.35557847241E+01  0.16938024363E+02  0.17979146218E+02  0.51100000000E-03 0.  1.
        -12    1    4    4    0    0 -0.13981382899E+01  0.78111571227E+01  0.11318482838E+01  0.80156126909E+01  0.00000000000E+00 0.  1.
</event>
<event>
 8    1  0.4928423E-010  0.9118800E+02  0.7816164E-02  0.1184000E+00
        -11   -1    0    0    0    0  0.00000000000E+00  0.00000000000E+00  0.45593999997E+02  0.45594000000E+02  0.51100000000E-03 0. -1.
         11   -1    0    0    0    0 -0.00000000000E+00 -0.00000000000E+00 -0.45593999997E+02  0.45594000000E+02  0.51100000000E-03 0.  1.
         23    2    1    2    0    0  0.00000000000E+00  0.00000000000E+00  0.00000000000E+00  0.91188000000E+02  0.91188000000E+02 0.  0.
    9900012    2    3    3    0    0  0.15659174270E+02  0.87281352466E+01  0.39525093603E+02  0.47787272955E+02  0.20000008711E+02 0.  0.
        -12    1    3    3    0    0 -0.15659174270E+02 -0.87281352466E+01 -0.39525093603E+02  0.43400727045E+02  0.00000000000E+00 0.  1.
         11    1    4    4    0    0  0.11648072014E+02  0.72601731220E+01  0.24745701822E+02  0.28297304718E+02  0.51100000000E-03 0. -1.
        -11    1    4    4    0    0  0.61179002938E+01 -0.20821978866E+01  0.13813171005E+02  0.15250178541E+02  0.51100000000E-03 0.  1.
        -12    1    4    4    0    0 -0.21067980383E+01  0.35501600112E+01  0.96622077666E+00  0.42397896963E+01  0.00000000000E+00 0.  1.
</event>
<event>
 8    1  0.4266981E-010  0.9118800E+02  0.7816164E-02  0.1184000E+00
        -11   -1    0    0    0    0  0.00000000000E+00  0.00000000000E+00  0.45593999997E+02  0.45594000000E+02  0.51100000000E-03 0. -1.
         11   -1    0    0    0    0 -0.00000000000E+00 -0.00000000000E+00 -0.45593999997E+02  0.45594000000E+02  0.51100000000E-03 0.  1.
         23    2    1    2    0    0  0.00000000000E+00  0.00000000000E+00  0.71054273576E-14  0.91188000000E+02  0.91188000000E+02 0.  0.
    9900012    2    3    3    0    0 -0.13920220979E+02 -0.41679939996E+01  0.40895946034E+02  0.47787272724E+02  0.20000007660E+02 0.  0.
        -12    1    3    3    0    0  0.13920220979E+02  0.41679939996E+01 -0.40895946034E+02  0.43400727276E+02  0.00000000000E+00 0.  1.
         11    1    4    4    0    0 -0.57845671956E+01  0.35028814173E+01  0.17117770657E+02  0.18405147877E+02  0.51100000000E-03 0. -1.
        -11    1    4    4    0    0 -0.11776988326E+02 -0.60442006267E+01  0.19030283346E+02  0.23181490455E+02  0.51100000000E-03 0.  1.
        -12    1    4    4    0    0  0.36413345428E+01 -0.16266747902E+01  0.47478920305E+01  0.62006343917E+01  0.00000000000E+00 0.  1.
</event>
<event>
 8    1  0.3776180E-010  0.9118800E+02  0.7816164E-02  0.1184000E+00
        -11   -1    0    0    0    0  0.00000000000E+00  0.00000000000E+00  0.45593999997E+02  0.45594000000E+02  0.51100000000E-03 0. -1.
         11   -1    0    0    0    0 -0.00000000000E+00 -0.00000000000E+00 -0.45593999997E+02  0.45594000000E+02  0.51100000000E-03 0.  1.
         23    2    1    2    0    0 -0.35527136788E-14  0.00000000000E+00  0.35527136788E-14  0.91188000000E+02  0.91188000000E+02 0.  0.
    9900012    2    3    3    0    0  0.30585800114E+02  0.17160370863E+01 -0.30743898928E+02  0.47787271052E+02  0.20000000036E+02 0.  0.
         12    1    3    3    0    0 -0.30585800114E+02 -0.17160370863E+01  0.30743898928E+02  0.43400728948E+02  0.00000000000E+00 0. -1.
         11    1    4    4    0    0  0.54681807673E+01 -0.54698574978E+01 -0.32681752933E+01  0.83965059376E+01  0.51100000000E-03 0. -1.
        -11    1    4    4    0    0  0.15524474990E+01  0.13932328022E+01 -0.80226858898E+01  0.82894318277E+01  0.51100000000E-03 0.  1.
         12    1    4    4    0    0  0.23565171848E+02  0.57926617819E+01 -0.19453037744E+02  0.31101333287E+02  0.00000000000E+00 0. -1.
</event>
<event>
 8    1  0.3776180E-010  0.9118800E+02  0.7816164E-02  0.1184000E+00
        -11   -1    0    0    0    0  0.00000000000E+00  0.00000000000E+00  0.45593999997E+02  0.45594000000E+02  0.51100000000E-03 0. -1.
         11   -1    0    0    0    0 -0.00000000000E+00 -0.00000000000E+00 -0.45593999997E+02  0.45594000000E+02  0.51100000000E-03 0.  1.
         23    2    1    2    0    0  0.00000000000E+00  0.71054273576E-14 -0.17763568394E-14  0.91188000000E+02  0.91188000000E+02 0.  0.
    9900012    2    3    3    0    0 -0.29017289751E+02 -0.31567181682E+02  0.67181442666E+01  0.47787268137E+02  0.19999986744E+02 0.  0.
         12    1    3    3    0    0  0.29017289751E+02  0.31567181682E+02 -0.67181442666E+01  0.43400731863E+02  0.00000000000E+00 0. -1.
         11    1    4    4    0    0 -0.25861542643E+02 -0.25223372508E+02  0.80649391499E+01  0.37014607283E+02  0.51100000000E-03 0.  1.
        -11    1    4    4    0    0 -0.21653456538E+01 -0.75829020501E+01  0.99044215460E+00  0.79479620799E+01  0.51100000000E-03 0. -1.
         12    1    4    4    0    0 -0.99040145403E+00  0.12390928757E+01 -0.23372370379E+01  0.28246987744E+01  0.00000000000E+00 0. -1.
</event>
<event>
 8    1  0.3776180E-010  0.9118800E+02  0.7816164E-02  0.1184000E+00
        -11   -1    0    0    0    0  0.00000000000E+00  0.00000000000E+00  0.45593999997E+02  0.45594000000E+02  0.51100000000E-03 0. -1.
         11   -1    0    0    0    0 -0.00000000000E+00 -0.00000000000E+00 -0.45593999997E+02  0.45594000000E+02  0.51100000000E-03 0.  1.
         23    2    1    2    0    0  0.00000000000E+00 -0.17763568394E-14  0.00000000000E+00  0.91188000000E+02  0.91188000000E+02 0.  0.
    9900012    2    3    3    0    0  0.42941252862E+01  0.91213295434E+01 -0.42213579496E+02  0.47787257397E+02  0.19999937777E+02 0.  0.
         12    1    3    3    0    0 -0.42941252862E+01 -0.91213295434E+01  0.42213579496E+02  0.43400742603E+02  0.00000000000E+00 0. -1.
         11    1    4    4    0    0 -0.25668325647E+01 -0.23684291886E+01 -0.17081124465E+02  0.17434531812E+02  0.51100000000E-03 0. -1.
        -11    1    4    4    0    0  0.31059916978E+01  0.39181702091E+01 -0.19656022945E+02  0.20281974275E+02  0.51100000000E-03 0.  1.
         12    1    4    4    0    0  0.37549661531E+01  0.75715885228E+01 -0.54764320852E+01  0.10070751310E+02  0.00000000000E+00 0. -1.
</event>
<event>
 8    1  0.3776180E-010  0.9118800E+02  0.7816164E-02  0.1184000E+00
        -11   -1    0    0    0    0  0.00000000000E+00  0.00000000000E+00  0.45593999997E+02  0.45594000000E+02  0.51100000000E-03 0. -1.
         11   -1    0    0    0    0 -0.00000000000E+00 -0.00000000000E+00 -0.45593999997E+02  0.45594000000E+02  0.51100000000E-03 0.  1.
         23    2    1    2    0    0  0.00000000000E+00  0.00000000000E+00  0.71054273576E-14  0.91188000000E+02  0.91188000000E+02 0.  0.
    9900012    2    3    3    0    0 -0.21226169083E+02 -0.16046045748E+02  0.34286989126E+02  0.47787268884E+02  0.19999990149E+02 0.  0.
        -12    1    3    3    0    0  0.21226169083E+02  0.16046045748E+02 -0.34286989126E+02  0.43400731116E+02  0.00000000000E+00 0.  1.
         11    1    4    4    0    0 -0.73204732275E+01 -0.39943948321E+01  0.22102664549E+02  0.23623553898E+02  0.51100000000E-03 0. -1.
        -11    1    4    4    0    0 -0.47397748916E+01  0.19278632518E+00  0.22661692862E+00  0.47491039243E+01  0.51100000000E-03 0.  1.
        -12    1    4    4    0    0 -0.91659209644E+01 -0.12244437241E+02  0.11957707648E+02  0.19414611061E+02  0.00000000000E+00 0.  1.
</event>
<event>
 8    1  0.3776180E-010  0.9118800E+02  0.7816164E-02  0.1184000E+00
        -11   -1    0    0    0    0  0.00000000000E+00  0.00000000000E+00  0.45593999997E+02  0.45594000000E+02  0.51100000000E-03 0. -1.
         11   -1    0    0    0    0 -0.00000000000E+00 -0.00000000000E+00 -0.45593999997E+02  0.45594000000E+02  0.51100000000E-03 0.  1.
         23    2    1    2    0    0  0.00000000000E+00 -0.35527136788E-14  0.00000000000E+00  0.91188000000E+02  0.91188000000E+02 0.  0.
    9900012    2    3    3    0    0  0.10939219968E+02 -0.17339555064E+02  0.38253059276E+02  0.47787271350E+02  0.20000001395E+02 0.  0.
        -12    1    3    3    0    0 -0.10939219968E+02  0.17339555064E+02 -0.38253059276E+02  0.43400728650E+02  0.00000000000E+00 0.  1.
         11    1    4    4    0    0  0.66862559895E+01 -0.69243202676E+01  0.56660641482E+01  0.11169445533E+02  0.51100000000E-03 0. -1.
        -11    1    4    4    0    0 -0.28827406802E+01  0.66043987257E+00  0.29165593185E+01  0.41536361389E+01  0.51100000000E-03 0.  1.
        -12    1    4    4    0    0  0.71357046590E+01 -0.11075674669E+02  0.29670435809E+02  0.32464189678E+02  0.00000000000E+00 0.  1.
</event>
<event>
 8    1  0.3776180E-010  0.9118800E+02  0.7816164E-02  0.1184000E+00
        -11   -1    0    0    0    0  0.00000000000E+00  0.00000000000E+00  0.45593999997E+02  0.45594000000E+02  0.51100000000E-03 0. -1.
         11   -1    0    0    0    0 -0.00000000000E+00 -0.00000000000E+00 -0.45593999997E+02  0.45594000000E+02  0.51100000000E-03 0.  1.
         23    2    1    2    0    0  0.00000000000E+00  0.00000000000E+00  0.00000000000E+00  0.91188000000E+02  0.91188000000E+02 0.  0.
    9900012    2    3    3    0    0 -0.33672043220E+02 -0.10582513435E+02  0.25255240401E+02  0.47787271285E+02  0.20000001098E+02 0.  0.
        -12    1    3    3    0    0  0.33672043220E+02  0.10582513435E+02 -0.25255240401E+02  0.43400728715E+02  0.00000000000E+00 0.  1.
         11    1    4    4    0    0 -0.87257406487E+01 -0.16040484149E+01  0.10586131596E+02  0.13812230218E+02  0.51100000000E-03 0. -1.
        -11    1    4    4    0    0 -0.10951295775E+02  0.33943829257E+01  0.86051126814E+01  0.14335294874E+02  0.51100000000E-03 0.  1.
        -12    1    4    4    0    0 -0.13995006796E+02 -0.12372847946E+02  0.60639961241E+01  0.19639746193E+02  0.00000000000E+00 0.  1.
</event>
<event>
 8    1  0.3776180E-010  0.9118800E+02  0.7816164E-02  0.1184000E+00
        -11   -1    0    0    0    0  0.00000000000E+00  0.00000000000E+00  0.45593999997E+02  0.45594000000E+02  0.51100000000E-03 0. -1.
         11   -1    0    0    0    0 -0.00000000000E+00 -0.00000000000E+00 -0.45593999997E+02  0.45594000000E+02  0.51100000000E-03 0.  1.
         23    2    1    2    0    0  0.00000000000E+00 -0.17763568394E-14 -0.35527136788E-14  0.91188000000E+02  0.91188000000E+02 0.  0.
    9900012    2    3    3    0    0 -0.36417105367E+02 -0.14264002870E+02 -0.18813720332E+02  0.47787269431E+02  0.19999992644E+02 0.  0.
         12    1    3    3    0    0  0.36417105367E+02  0.14264002870E+02  0.18813720332E+02  0.43400730569E+02  0.00000000000E+00 0. -1.
         11    1    4    4    0    0 -0.26450196871E+00 -0.10467203030E+01 -0.50674048909E+01  0.51811366778E+01  0.51100000000E-03 0. -1.
        -11    1    4    4    0    0 -0.48000694300E+01  0.31575475258E+00  0.17329077805E+01  0.51130555672E+01  0.51100000000E-03 0.  1.
        -12    1    4    4    0    0 -0.31352533968E+02 -0.13533037320E+02 -0.15479223222E+02  0.37493077186E+02  0.00000000000E+00 0.  1.
</event>
<event>
 8    1  0.3776180E-010  0.9118800E+02  0.7816164E-02  0.1184000E+00
        -11   -1    0    0    0    0  0.00000000000E+00  0.00000000000E+00  0.45593999997E+02  0.45594000000E+02  0.51100000000E-03 0. -1.
         11   -1    0    0    0    0 -0.00000000000E+00 -0.00000000000E+00 -0.45593999997E+02  0.45594000000E+02  0.51100000000E-03 0.  1.
         23    2    1    2    0    0  0.00000000000E+00 -0.35527136788E-14  0.17763568394E-14  0.91188000000E+02  0.91188000000E+02 0.  0.
    9900012    2    3    3    0    0 -0.38969054515E+02 -0.17328532435E+02  0.80472118694E+01  0.47787275754E+02  0.20000021474E+02 0.  0.
        -12    1    3    3    0    0  0.38969054515E+02  0.17328532435E+02 -0.80472118694E+01  0.43400724246E+02  0.00000000000E+00 0.  1.
         11    1    4    4    0    0 -0.16388713188E+02 -0.11960217772E+02  0.31571484013E+01  0.20533005514E+02  0.51100000000E-03 0. -1.
        -11    1    4    4    0    0 -0.13891645445E+02 -0.24286587905E+01 -0.38142999438E+01  0.14609075296E+02  0.51100000000E-03 0.  1.
         12    1    4    4    0    0 -0.86886958826E+01 -0.29396558723E+01  0.87043634119E+01  0.12645194945E+02  0.00000000000E+00 0. -1.
</event>
<event>
 8    1  0.3776180E-010  0.9118800E+02  0.7816164E-02  0.1184000E+00
        -11   -1    0    0    0    0  0.00000000000E+00  0.00000000000E+00  0.45593999997E+02  0.45594000000E+02  0.51100000000E-03 0. -1.
         11   -1    0    0    0    0 -0.00000000000E+00 -0.00000000000E+00 -0.45593999997E+02  0.45594000000E+02  0.51100000000E-03 0.  1.
         23    2    1    2    0    0  0.00000000000E+00  0.00000000000E+00  0.00000000000E+00  0.91188000000E+02  0.91188000000E+02 0.  0.
    9900012    2    3    3    0    0  0.46267361155E+01  0.42489607404E+02 -0.75401641621E+01  0.47787222357E+02  0.19999778011E+02 0.  0.
         12    1    3    3    0    0 -0.46267361155E+01 -0.42489607404E+02  0.75401641621E+01  0.43400777643E+02  0.00000000000E+00 0. -1.
         11    1    4    4    0    0 -0.43143627156E+00  0.93516986575E+01  0.58087412532E+01  0.11017344519E+02  0.51100000000E-03 0. -1.
        -11    1    4    4    0    0 -0.12773192550E+01  0.36066184753E+01 -0.29333440027E+01  0.48211770975E+01  0.51100000000E-03 0.  1.
        -12    1    4    4    0    0  0.63354916421E+01  0.29531290272E+02 -0.10415561413E+02  0.31948700740E+02  0.00000000000E+00 0.  1.
</event>
<event>
 8    1  0.3776180E-010  0.9118800E+02  0.7816164E-02  0.1184000E+00
        -11   -1    0    0    0    0  0.00000000000E+00  0.00000000000E+00  0.45593999997E+02  0.45594000000E+02  0.51100000000E-03 0. -1.
         11   -1    0    0    0    0 -0.00000000000E+00 -0.00000000000E+00 -0.45593999997E+02  0.45594000000E+02  0.51100000000E-03 0.  1.
         23    2    1    2    0    0 -0.71054273576E-14 -0.69388939039E-16 -0.35527136788E-14  0.91188000000E+02  0.91188000000E+02 0.  0.
    9900012    2    3    3    0    0 -0.33435015603E+02  0.84220517530E-01 -0.27671577340E+02  0.47787267818E+02  0.19999985290E+02 0.  0.
         12    1    3    3    0    0  0.33435015603E+02 -0.84220517530E-01  0.27671577340E+02  0.43400732182E+02  0.00000000000E+00 0. -1.
         11    1    4    4    0    0 -0.71663675660E+01  0.38869511210E+01 -0.87421898101E+01  0.11953706373E+02  0.51100000000E-03 0. -1.
        -11    1    4    4    0    0 -0.29771365125E+01  0.39147935213E-01 -0.10263998388E+02  0.10687120171E+02  0.51100000000E-03 0.  1.
        -12    1    4    4    0    0 -0.23291511524E+02 -0.38418785387E+01 -0.86653891416E+01  0.25146441274E+02  0.00000000000E+00 0.  1.
</event>
<event>
 8    1  0.3776180E-010  0.9118800E+02  0.7816164E-02  0.1184000E+00
        -11   -1    0    0    0    0  0.00000000000E+00  0.00000000000E+00  0.45593999997E+02  0.45594000000E+02  0.51100000000E-03 0.  1.
         11   -1    0    0    0    0 -0.00000000000E+00 -0.00000000000E+00 -0.45593999997E+02  0.45594000000E+02  0.51100000000E-03 0. -1.
         23    2    1    2    0    0  0.00000000000E+00  0.00000000000E+00  0.17763568394E-14  0.91188000000E+02  0.91188000000E+02 0.  0.
    9900012    2    3    3    0    0  0.42034018558E+02 -0.57428918248E+01  0.91533429307E+01  0.47787271787E+02  0.20000003386E+02 0.  0.
         12    1    3    3    0    0 -0.42034018558E+02  0.57428918248E+01 -0.91533429307E+01  0.43400728213E+02  0.00000000000E+00 0. -1.
         11    1    4    4    0    0  0.44910839011E+00  0.13359424252E+01 -0.21629245255E+01  0.25816047865E+01  0.51100000000E-03 0. -1.
        -11    1    4    4    0    0  0.37904505110E+01 -0.10152092303E+01 -0.23352700469E+01  0.45663608389E+01  0.51100000000E-03 0.  1.
        -12    1    4    4    0    0  0.37794459656E+02 -0.60636250198E+01  0.13651537503E+02  0.40639306162E+02  0.00000000000E+00 0.  1.
</event>
<event>
 8    1  0.3776180E-010  0.9118800E+02  0.7816164E-02  0.1184000E+00
        -11   -1    0    0    0    0  0.00000000000E+00  0.00000000000E+00  0.45593999997E+02  0.45594000000E+02  0.51100000000E-03 0. -1.
         11   -1    0    0    0    0 -0.00000000000E+00 -0.00000000000E+00 -0.45593999997E+02  0.45594000000E+02  0.51100000000E-03 0.  1.
         23    2    1    2    0    0  0.00000000000E+00  0.00000000000E+00  0.00000000000E+00  0.91188000000E+02  0.91188000000E+02 0.  0.
    9900012    2    3    3    0    0  0.17988243219E+02 -0.28906681614E+02 -0.26915610427E+02  0.47787271657E+02  0.20000002793E+02 0.  0.
         12    1    3    3    0    0 -0.17988243219E+02  0.28906681614E+02  0.26915610427E+02  0.43400728343E+02  0.00000000000E+00 0. -1.
         11    1    4    4    0    0  0.18787012869E+01 -0.17105958763E+02 -0.48596809818E+01  0.17881829975E+02  0.51100000000E-03 0. -1.
        -11    1    4    4    0    0  0.60887889526E+01 -0.27452181219E+01 -0.68465077556E+01  0.95647395236E+01  0.51100000000E-03 0.  1.
         12    1    4    4    0    0  0.10020752980E+02 -0.90555047288E+01 -0.15209421690E+02  0.20340702159E+02  0.00000000000E+00 0. -1.
</event>
<event>
 8    1  0.3776180E-010  0.9118800E+02  0.7816164E-02  0.1184000E+00
        -11   -1    0    0    0    0  0.00000000000E+00  0.00000000000E+00  0.45593999997E+02  0.45594000000E+02  0.51100000000E-03 0. -1.
         11   -1    0    0    0    0 -0.00000000000E+00 -0.00000000000E+00 -0.45593999997E+02  0.45594000000E+02  0.51100000000E-03 0.  1.
         23    2    1    2    0    0  0.00000000000E+00  0.44408920985E-15  0.00000000000E+00  0.91188000000E+02  0.91188000000E+02 0.  0.
    9900012    2    3    3    0    0 -0.20483807085E+02  0.27673970049E+01 -0.38162528566E+02  0.47787269298E+02  0.19999992039E+02 0.  0.
         12    1    3    3    0    0  0.20483807085E+02 -0.27673970049E+01  0.38162528566E+02  0.43400730702E+02  0.00000000000E+00 0. -1.
         11    1    4    4    0    0 -0.15629673153E+02 -0.24390101654E+01 -0.19136493087E+02  0.24828226304E+02  0.51100000000E-03 0. -1.
        -11    1    4    4    0    0 -0.22268844407E+01 -0.21095494863E+01 -0.12309375627E+02  0.12685816566E+02  0.51100000000E-03 0.  1.
         12    1    4    4    0    0 -0.26272494906E+01  0.73159566566E+01 -0.67166598520E+01  0.10273226429E+02  0.00000000000E+00 0. -1.
</event>
<event>
 8    1  0.3776180E-010  0.9118800E+02  0.7816164E-02  0.1184000E+00
        -11   -1    0    0    0    0  0.00000000000E+00  0.00000000000E+00  0.45593999997E+02  0.45594000000E+02  0.51100000000E-03 0. -1.
         11   -1    0    0    0    0 -0.00000000000E+00 -0.00000000000E+00 -0.45593999997E+02  0.45594000000E+02  0.51100000000E-03 0.  1.
         23    2    1    2    0    0  0.00000000000E+00  0.44408920985E-15  0.00000000000E+00  0.91188000000E+02  0.91188000000E+02 0.  0.
    9900012    2    3    3    0    0  0.31080481747E+02 -0.14263942188E+01 -0.30258763552E+02  0.47787265931E+02  0.19999976684E+02 0.  0.
         12    1    3    3    0    0 -0.31080481747E+02  0.14263942188E+01  0.30258763552E+02  0.43400734069E+02  0.00000000000E+00 0. -1.
         11    1    4    4    0    0 -0.10900171228E+01 -0.55351801275E+00  0.86145596566E+00  0.14955354093E+01  0.51100000000E-03 0. -1.
        -11    1    4    4    0    0  0.11236354385E+02 -0.53517396962E+01 -0.80672678877E+01  0.14831641483E+02  0.51100000000E-03 0.  1.
         12    1    4    4    0    0  0.20934144485E+02  0.44788634901E+01 -0.23052951630E+02  0.31460089038E+02  0.00000000000E+00 0. -1.
</event>
<event>
 8    1  0.3776180E-010  0.9118800E+02  0.7816164E-02  0.1184000E+00
        -11   -1    0    0    0    0  0.00000000000E+00  0.00000000000E+00  0.45593999997E+02  0.45594000000E+02  0.51100000000E-03 0. -1.
         11   -1    0    0    0    0 -0.00000000000E+00 -0.00000000000E+00 -0.45593999997E+02  0.45594000000E+02  0.51100000000E-03 0.  1.
         23    2    1    2    0    0  0.00000000000E+00  0.71054273576E-14  0.35527136788E-14  0.91188000000E+02  0.91188000000E+02 0.  0.
    9900012    2    3    3    0    0 -0.66503186655E+01 -0.36750440110E+02 -0.22108863328E+02  0.47787269311E+02  0.19999992097E+02 0.  0.
         12    1    3    3    0    0  0.66503186655E+01  0.36750440110E+02  0.22108863328E+02  0.43400730689E+02  0.00000000000E+00 0. -1.
         11    1    4    4    0    0  0.22838924141E+01 -0.17978642383E+02 -0.79411918191E+01  0.19786618565E+02  0.51100000000E-03 0. -1.
        -11    1    4    4    0    0 -0.17841556768E+01 -0.16255089619E+02 -0.78804152479E+01  0.18152468007E+02  0.51100000000E-03 0.  1.
         12    1    4    4    0    0 -0.71500554028E+01 -0.25167081090E+01 -0.62872562613E+01  0.98481827392E+01  0.00000000000E+00 0. -1.
</event>
<event>
 8    1  0.3776180E-010  0.9118800E+02  0.7816164E-02  0.1184000E+00
        -11   -1    0    0    0    0  0.00000000000E+00  0.00000000000E+00  0.45593999997E+02  0.45594000000E+02  0.51100000000E-03 0. -1.
         11   -1    0    0    0    0 -0.00000000000E+00 -0.00000000000E+00 -0.45593999997E+02  0.45594000000E+02  0.51100000000E-03 0.  1.
         23    2    1    2    0    0  0.00000000000E+00  0.00000000000E+00  0.00000000000E+00  0.91188000000E+02  0.91188000000E+02 0.  0.
    9900012    2    3    3    0    0  0.41799638607E+01 -0.31125910972E+02  0.29955453261E+02  0.47787267152E+02  0.19999982252E+02 0.  0.
        -12    1    3    3    0    0 -0.41799638607E+01  0.31125910972E+02 -0.29955453261E+02  0.43400732848E+02  0.00000000000E+00 0.  1.
         11    1    4    4    0    0  0.62910089746E+01 -0.62600085225E+01  0.86695040634E+01  0.12406643446E+02  0.51100000000E-03 0. -1.
        -11    1    4    4    0    0 -0.11903376868E+01 -0.22075581205E+02  0.11019110482E+02  0.24701598843E+02  0.51100000000E-03 0.  1.
         12    1    4    4    0    0 -0.92070742706E+00 -0.27903212445E+01  0.10266838716E+02  0.10679024863E+02  0.00000000000E+00 0. -1.
</event>
<event>
 8    1  0.3776180E-010  0.9118800E+02  0.7816164E-02  0.1184000E+00
        -11   -1    0    0    0    0  0.00000000000E+00  0.00000000000E+00  0.45593999997E+02  0.45594000000E+02  0.51100000000E-03 0. -1.
         11   -1    0    0    0    0 -0.00000000000E+00 -0.00000000000E+00 -0.45593999997E+02  0.45594000000E+02  0.51100000000E-03 0.  1.
         23    2    1    2    0    0 -0.17763568394E-14  0.88817841970E-15  0.71054273576E-14  0.91188000000E+02  0.91188000000E+02 0.  0.
    9900012    2    3    3    0    0  0.10985406620E+02  0.71300290770E+01  0.41377623338E+02  0.47787260533E+02  0.19999952072E+02 0.  0.
        -12    1    3    3    0    0 -0.10985406620E+02 -0.71300290770E+01 -0.41377623338E+02  0.43400739467E+02  0.00000000000E+00 0.  1.
         11    1    4    4    0    0  0.25348238598E+01  0.35708090585E+01  0.19000481223E+02  0.19498571647E+02  0.51100000000E-03 0. -1.
        -11    1    4    4    0    0 -0.40829717475E+01  0.13224580720E+00  0.35443009639E+01  0.54083469590E+01  0.51100000000E-03 0.  1.
        -12    1    4    4    0    0  0.12533554507E+02  0.34269742113E+01  0.18832841151E+02  0.22880341926E+02  0.00000000000E+00 0.  1.
</event>
<event>
 8    1  0.3776180E-010  0.9118800E+02  0.7816164E-02  0.1184000E+00
        -11   -1    0    0    0    0  0.00000000000E+00  0.00000000000E+00  0.45593999997E+02  0.45594000000E+02  0.51100000000E-03 0. -1.
         11   -1    0    0    0    0 -0.00000000000E+00 -0.00000000000E+00 -0.45593999997E+02  0.45594000000E+02  0.51100000000E-03 0.  1.
         23    2    1    2    0    0 -0.44408920985E-15  0.17763568394E-14 -0.71054273576E-14  0.91188000000E+02  0.91188000000E+02 0.  0.
    9900012    2    3    3    0    0 -0.37682986729E+01  0.14735957415E+02 -0.40648182261E+02  0.47787271470E+02  0.20000001939E+02 0.  0.
         12    1    3    3    0    0  0.37682986729E+01 -0.14735957415E+02  0.40648182261E+02  0.43400728530E+02  0.00000000000E+00 0. -1.
         11    1    4    4    0    0 -0.20056009617E+01  0.20887095319E+01 -0.21895560575E+02  0.22086210990E+02  0.51100000000E-03 0. -1.
        -11    1    4    4    0    0 -0.25978753204E+01  0.88202706034E+01 -0.19639034518E+02  0.21684967299E+02  0.51100000000E-03 0.  1.
         12    1    4    4    0    0  0.83517760923E+00  0.38269772793E+01  0.88641283128E+00  0.40160931815E+01  0.00000000000E+00 0. -1.
</event>
<event>
 8    1  0.3776180E-010  0.9118800E+02  0.7816164E-02  0.1184000E+00
        -11   -1    0    0    0    0  0.00000000000E+00  0.00000000000E+00  0.45593999997E+02  0.45594000000E+02  0.51100000000E-03 0. -1.
         11   -1    0    0    0    0 -0.00000000000E+00 -0.00000000000E+00 -0.45593999997E+02  0.45594000000E+02  0.51100000000E-03 0.  1.
         23    2    1    2    0    0  0.00000000000E+00  0.17763568394E-14  0.00000000000E+00  0.91188000000E+02  0.91188000000E+02 0.  0.
    9900012    2    3    3    0    0  0.12575282366E+02 -0.12759791767E+02  0.39530683736E+02  0.47787251514E+02  0.19999910953E+02 0.  0.
        -12    1    3    3    0    0 -0.12575282366E+02  0.12759791767E+02 -0.39530683736E+02  0.43400748486E+02  0.00000000000E+00 0.  1.
         11    1    4    4    0    0  0.13522848319E+01  0.12205751822E+01  0.71964823463E+01  0.74234652598E+01  0.51100000000E-03 0. -1.
        -11    1    4    4    0    0  0.15210858487E+02 -0.12324004073E+02  0.23951240031E+02  0.30934013505E+02  0.51100000000E-03 0.  1.
        -12    1    4    4    0    0 -0.39878609524E+01 -0.16563628758E+01  0.83829613588E+01  0.94297727488E+01  0.00000000000E+00 0.  1.
</event>
<event>
 8    1  0.3776180E-010  0.9118800E+02  0.7816164E-02  0.1184000E+00
        -11   -1    0    0    0    0  0.00000000000E+00  0.00000000000E+00  0.45593999997E+02  0.45594000000E+02  0.51100000000E-03 0. -1.
         11   -1    0    0    0    0 -0.00000000000E+00 -0.00000000000E+00 -0.45593999997E+02  0.45594000000E+02  0.51100000000E-03 0.  1.
         23    2    1    2    0    0 -0.17763568394E-14  0.00000000000E+00  0.00000000000E+00  0.91188000000E+02  0.91188000000E+02 0.  0.
    9900012    2    3    3    0    0  0.68400785865E+01 -0.37619708576E+02 -0.20532719841E+02  0.47787288802E+02  0.20000080965E+02 0.  0.
         12    1    3    3    0    0 -0.68400785865E+01  0.37619708576E+02  0.20532719841E+02  0.43400711198E+02  0.00000000000E+00 0. -1.
         11    1    4    4    0    0  0.54106257893E+01 -0.27339541422E+01 -0.18399026366E+01  0.63351889203E+01  0.51100000000E-03 0. -1.
        -11    1    4    4    0    0  0.62882539185E+01 -0.20718371280E+02 -0.81435898278E+01  0.23132468554E+02  0.51100000000E-03 0.  1.
         12    1    4    4    0    0 -0.48588011213E+01 -0.14167383153E+02 -0.10549227377E+02  0.18319631328E+02  0.00000000000E+00 0. -1.
</event>
<event>
 8    1  0.3776180E-010  0.9118800E+02  0.7816164E-02  0.1184000E+00
        -11   -1    0    0    0    0  0.00000000000E+00  0.00000000000E+00  0.45593999997E+02  0.45594000000E+02  0.51100000000E-03 0. -1.
         11   -1    0    0    0    0 -0.00000000000E+00 -0.00000000000E+00 -0.45593999997E+02  0.45594000000E+02  0.51100000000E-03 0.  1.
         23    2    1    2    0    0  0.35527136788E-14  0.00000000000E+00  0.00000000000E+00  0.91188000000E+02  0.91188000000E+02 0.  0.
    9900012    2    3    3    0    0  0.23013078229E+02 -0.96483467130E+01 -0.35509589475E+02  0.47787270645E+02  0.19999998180E+02 0.  0.
         12    1    3    3    0    0 -0.23013078229E+02  0.96483467130E+01  0.35509589475E+02  0.43400729355E+02  0.00000000000E+00 0. -1.
         11    1    4    4    0    0 -0.92559996098E-01 -0.28940098296E+00  0.16218336605E+01  0.16500499887E+01  0.51100000000E-03 0. -1.
        -11    1    4    4    0    0  0.48194438329E+01 -0.73688204092E+01 -0.14617427993E+02  0.17064458810E+02  0.51100000000E-03 0.  1.
         12    1    4    4    0    0  0.18286194392E+02 -0.19901253209E+01 -0.22513995142E+02  0.29072761846E+02  0.00000000000E+00 0. -1.
</event>
<event>
 8    1  0.3776180E-010  0.9118800E+02  0.7816164E-02  0.1184000E+00
        -11   -1    0    0    0    0  0.00000000000E+00  0.00000000000E+00  0.45593999997E+02  0.45594000000E+02  0.51100000000E-03 0.  1.
         11   -1    0    0    0    0 -0.00000000000E+00 -0.00000000000E+00 -0.45593999997E+02  0.45594000000E+02  0.51100000000E-03 0. -1.
         23    2    1    2    0    0  0.17763568394E-14 -0.71054273576E-14  0.00000000000E+00  0.91188000000E+02  0.91188000000E+02 0.  0.
    9900012    2    3    3    0    0  0.15552009761E+02 -0.39729573364E+02  0.79573536945E+01  0.47787268611E+02  0.19999988906E+02 0.  0.
        -12    1    3    3    0    0 -0.15552009761E+02  0.39729573364E+02 -0.79573536945E+01  0.43400731389E+02  0.00000000000E+00 0.  1.
         11    1    4    4    0    0  0.75649522590E+01 -0.48285256285E+01 -0.18359534803E+00  0.89764619945E+01  0.51100000000E-03 0. -1.
        -11    1    4    4    0    0  0.72879687615E+01 -0.83605180212E+01  0.46737141793E+01  0.12035628556E+02  0.51100000000E-03 0.  1.
        -12    1    4    4    0    0  0.69908874014E+00 -0.26540529714E+02  0.34672348632E+01  0.26775178060E+02  0.00000000000E+00 0.  1.
</event>
<event>
 8    1  0.3776180E-010  0.9118800E+02  0.7816164E-02  0.1184000E+00
        -11   -1    0    0    0    0  0.00000000000E+00  0.00000000000E+00  0.45593999997E+02  0.45594000000E+02  0.51100000000E-03 0.  1.
         11   -1    0    0    0    0 -0.00000000000E+00 -0.00000000000E+00 -0.45593999997E+02  0.45594000000E+02  0.51100000000E-03 0. -1.
         23    2    1    2    0    0 -0.71054273576E-14  0.00000000000E+00 -0.88817841970E-15  0.91188000000E+02  0.91188000000E+02 0.  0.
    9900012    2    3    3    0    0  0.34958971394E+02  0.25227715199E+02  0.50056003227E+01  0.47787270402E+02  0.19999997072E+02 0.  0.
        -12    1    3    3    0    0 -0.34958971394E+02 -0.25227715199E+02 -0.50056003227E+01  0.43400729598E+02  0.00000000000E+00 0.  1.
         11    1    4    4    0    0  0.13131391184E+02  0.14885863296E+02  0.47690150284E+01  0.20414844234E+02  0.51100000000E-03 0. -1.
        -11    1    4    4    0    0  0.18562308643E+02  0.12026605948E+02 -0.31919444729E+01  0.22346969874E+02  0.51100000000E-03 0.  1.
        -12    1    4    4    0    0  0.32652715668E+01 -0.16847540454E+01  0.34285297672E+01  0.50254562940E+01  0.00000000000E+00 0.  1.
</event>
<event>
 8    1  0.3776180E-010  0.9118800E+02  0.7816164E-02  0.1184000E+00
        -11   -1    0    0    0    0  0.00000000000E+00  0.00000000000E+00  0.45593999997E+02  0.45594000000E+02  0.51100000000E-03 0. -1.
         11   -1    0    0    0    0 -0.00000000000E+00 -0.00000000000E+00 -0.45593999997E+02  0.45594000000E+02  0.51100000000E-03 0.  1.
         23    2    1    2    0    0 -0.35527136788E-14 -0.71054273576E-14  0.00000000000E+00  0.91188000000E+02  0.91188000000E+02 0.  0.
    9900012    2    3    3    0    0 -0.21796074796E+02 -0.26074160584E+02  0.26994307708E+02  0.47787269876E+02  0.19999994671E+02 0.  0.
        -12    1    3    3    0    0  0.21796074796E+02  0.26074160584E+02 -0.26994307708E+02  0.43400730124E+02  0.00000000000E+00 0.  1.
         11    1    4    4    0    0 -0.16493378764E+02 -0.17958154628E+02  0.15255366145E+02  0.28762007183E+02  0.51100000000E-03 0. -1.
        -11    1    4    4    0    0 -0.99602783439E+00 -0.99597974916E+01  0.96225414476E+01  0.13884629692E+02  0.51100000000E-03 0.  1.
        -12    1    4    4    0    0 -0.43066681978E+01  0.18437915364E+01  0.21164001160E+01  0.51406330006E+01  0.00000000000E+00 0.  1.
</event>
<event>
 8    1  0.3776180E-010  0.9118800E+02  0.7816164E-02  0.1184000E+00
        -11   -1    0    0    0    0  0.00000000000E+00  0.00000000000E+00  0.45593999997E+02  0.45594000000E+02  0.51100000000E-03 0.  1.
         11   -1    0    0    0    0 -0.00000000000E+00 -0.00000000000E+00 -0.45593999997E+02  0.45594000000E+02  0.51100000000E-03 0. -1.
         23    2    1    2    0    0  0.00000000000E+00  0.00000000000E+00  0.00000000000E+00  0.91188000000E+02  0.91188000000E+02 0.  0.
    9900012    2    3    3    0    0 -0.39365979985E+02 -0.12669271990E+02 -0.13169386434E+02  0.47787267610E+02  0.19999984341E+02 0.  0.
         12    1    3    3    0    0  0.39365979985E+02  0.12669271990E+02  0.13169386434E+02  0.43400732390E+02  0.00000000000E+00 0. -1.
         11    1    4    4    0    0  0.40022994714E+00  0.11264049974E+01 -0.77525771554E+00  0.14247796375E+01  0.51100000000E-03 0. -1.
        -11    1    4    4    0    0 -0.17425493055E+02  0.14932752457E+00 -0.95559539699E+01  0.19874263847E+02  0.51100000000E-03 0.  1.
        -12    1    4    4    0    0 -0.22340716877E+02 -0.13945004512E+02 -0.28381747483E+01  0.26488224125E+02  0.00000000000E+00 0.  1.
</event>
<event>
 8    1  0.3776180E-010  0.9118800E+02  0.7816164E-02  0.1184000E+00
        -11   -1    0    0    0    0  0.00000000000E+00  0.00000000000E+00  0.45593999997E+02  0.45594000000E+02  0.51100000000E-03 0. -1.
         11   -1    0    0    0    0 -0.00000000000E+00 -0.00000000000E+00 -0.45593999997E+02  0.45594000000E+02  0.51100000000E-03 0.  1.
         23    2    1    2    0    0  0.00000000000E+00  0.00000000000E+00  0.00000000000E+00  0.91188000000E+02  0.91188000000E+02 0.  0.
    9900012    2    3    3    0    0 -0.22488466221E+02  0.85735854014E+01 -0.36116286982E+02  0.47787266538E+02  0.19999979455E+02 0.  0.
         12    1    3    3    0    0  0.22488466221E+02 -0.85735854014E+01  0.36116286982E+02  0.43400733462E+02  0.00000000000E+00 0. -1.
         11    1    4    4    0    0 -0.89392104501E+01 -0.57739326412E+00 -0.24205417458E+01  0.92791103591E+01  0.51100000000E-03 0. -1.
        -11    1    4    4    0    0  0.56784877401E+00 -0.74727351370E+00 -0.45397055451E+01  0.46357088597E+01  0.51100000000E-03 0.  1.
        -12    1    4    4    0    0 -0.14117104545E+02  0.98982521792E+01 -0.29156039691E+02  0.33872447320E+02  0.00000000000E+00 0.  1.
</event>
<event>
 8    1  0.3776180E-010  0.9118800E+02  0.7816164E-02  0.1184000E+00
        -11   -1    0    0    0    0  0.00000000000E+00  0.00000000000E+00  0.45593999997E+02  0.45594000000E+02  0.51100000000E-03 0. -1.
         11   -1    0    0    0    0 -0.00000000000E+00 -0.00000000000E+00 -0.45593999997E+02  0.45594000000E+02  0.51100000000E-03 0.  1.
         23    2    1    2    0    0  0.00000000000E+00  0.00000000000E+00  0.00000000000E+00  0.91188000000E+02  0.91188000000E+02 0.  0.
    9900012    2    3    3    0    0 -0.26199363915E+02 -0.90411957233E+01 -0.33398702367E+02  0.47787271786E+02  0.20000003381E+02 0.  0.
         12    1    3    3    0    0  0.26199363915E+02  0.90411957233E+01  0.33398702367E+02  0.43400728214E+02  0.00000000000E+00 0. -1.
         11    1    4    4    0    0 -0.94176922206E+01 -0.56919113395E+01 -0.38344052640E+01  0.11653044471E+02  0.51100000000E-03 0. -1.
        -11    1    4    4    0    0 -0.26588914073E+01 -0.38328693240E+01 -0.18366929789E+01  0.50133852965E+01  0.51100000000E-03 0.  1.
        -12    1    4    4    0    0 -0.14122780287E+02  0.48358494022E+00 -0.27727604124E+02  0.31120842018E+02  0.00000000000E+00 0.  1.
</event>
<event>
 8    1  0.3776180E-010  0.9118800E+02  0.7816164E-02  0.1184000E+00
        -11   -1    0    0    0    0  0.00000000000E+00  0.00000000000E+00  0.45593999997E+02  0.45594000000E+02  0.51100000000E-03 0. -1.
         11   -1    0    0    0    0 -0.00000000000E+00 -0.00000000000E+00 -0.45593999997E+02  0.45594000000E+02  0.51100000000E-03 0.  1.
         23    2    1    2    0    0  0.00000000000E+00 -0.71054273576E-14 -0.17763568394E-14  0.91188000000E+02  0.91188000000E+02 0.  0.
    9900012    2    3    3    0    0 -0.26519856370E+02  0.33081901465E+02 -0.92686801684E+01  0.47787269379E+02  0.19999992405E+02 0.  0.
         12    1    3    3    0    0  0.26519856370E+02 -0.33081901465E+02  0.92686801684E+01  0.43400730621E+02  0.00000000000E+00 0. -1.
         11    1    4    4    0    0  0.64098553311E-02  0.22649114497E+00  0.17497880500E+01  0.17643972926E+01  0.51100000000E-03 0. -1.
        -11    1    4    4    0    0 -0.11349745948E+02  0.58830849518E+01  0.99862248279E+00  0.12822818285E+02  0.51100000000E-03 0.  1.
         12    1    4    4    0    0 -0.15176520277E+02  0.26972325368E+02 -0.12017090701E+02  0.33200053801E+02  0.00000000000E+00 0. -1.
</event>
<event>
 8    1  0.3776180E-010  0.9118800E+02  0.7816164E-02  0.1184000E+00
        -11   -1    0    0    0    0  0.00000000000E+00  0.00000000000E+00  0.45593999997E+02  0.45594000000E+02  0.51100000000E-03 0. -1.
         11   -1    0    0    0    0 -0.00000000000E+00 -0.00000000000E+00 -0.45593999997E+02  0.45594000000E+02  0.51100000000E-03 0.  1.
         23    2    1    2    0    0  0.00000000000E+00  0.00000000000E+00 -0.71054273576E-14  0.91188000000E+02  0.91188000000E+02 0.  0.
    9900012    2    3    3    0    0  0.59891150558E+01  0.37832468615E+02  0.20407306673E+02  0.47787270211E+02  0.19999996198E+02 0.  0.
        -12    1    3    3    0    0 -0.59891150558E+01 -0.37832468615E+02 -0.20407306673E+02  0.43400729789E+02  0.00000000000E+00 0.  1.
         11    1    4    4    0    0  0.23664087169E+01  0.62652456471E+01  0.78655011607E+01  0.10330503473E+02  0.51100000000E-03 0. -1.
        -11    1    4    4    0    0 -0.42151166033E+01  0.23898045113E+02  0.96575595547E+01  0.26118044050E+02  0.51100000000E-03 0.  1.
        -12    1    4    4    0    0  0.78378229422E+01  0.76691778545E+01  0.28842459572E+01  0.11338722687E+02  0.00000000000E+00 0.  1.
</event>
<event>
 8    1  0.3776180E-010  0.9118800E+02  0.7816164E-02  0.1184000E+00
        -11   -1    0    0    0    0  0.00000000000E+00  0.00000000000E+00  0.45593999997E+02  0.45594000000E+02  0.51100000000E-03 0. -1.
         11   -1    0    0    0    0 -0.00000000000E+00 -0.00000000000E+00 -0.45593999997E+02  0.45594000000E+02  0.51100000000E-03 0.  1.
         23    2    1    2    0    0  0.00000000000E+00 -0.44408920985E-15  0.35527136788E-14  0.91188000000E+02  0.91188000000E+02 0.  0.
    9900012    2    3    3    0    0  0.32863806257E+02  0.24645898983E+01 -0.28240384686E+02  0.47787270833E+02  0.19999999036E+02 0.  0.
         12    1    3    3    0    0 -0.32863806257E+02 -0.24645898983E+01  0.28240384686E+02  0.43400729167E+02  0.00000000000E+00 0. -1.
         11    1    4    4    0    0  0.13881463231E+01 -0.28101755783E+01  0.96827611659E+00  0.32804871428E+01  0.51100000000E-03 0. -1.
        -11    1    4    4    0    0  0.10151264687E+02  0.18517926532E+01 -0.34239608130E+01  0.10872019991E+02  0.51100000000E-03 0.  1.
        -12    1    4    4    0    0  0.21324395247E+02  0.34229728234E+01 -0.25784699989E+02  0.33634763699E+02  0.00000000000E+00 0.  1.
</event>
<event>
 8    1  0.3776180E-010  0.9118800E+02  0.7816164E-02  0.1184000E+00
        -11   -1    0    0    0    0  0.00000000000E+00  0.00000000000E+00  0.45593999997E+02  0.45594000000E+02  0.51100000000E-03 0. -1.
         11   -1    0    0    0    0 -0.00000000000E+00 -0.00000000000E+00 -0.45593999997E+02  0.45594000000E+02  0.51100000000E-03 0.  1.
         23    2    1    2    0    0 -0.88817841970E-15  0.00000000000E+00  0.00000000000E+00  0.91188000000E+02  0.91188000000E+02 0.  0.
    9900012    2    3    3    0    0  0.18760910058E+01 -0.19857555226E+01 -0.43314669278E+02  0.47787268242E+02  0.19999987223E+02 0.  0.
         12    1    3    3    0    0 -0.18760910058E+01  0.19857555226E+01  0.43314669278E+02  0.43400731758E+02  0.00000000000E+00 0. -1.
         11    1    4    4    0    0 -0.41290839837E+01 -0.15988430270E+01 -0.55488392950E+01  0.70989612868E+01  0.51100000000E-03 0. -1.
        -11    1    4    4    0    0 -0.43037041811E+01 -0.19327931410E+01 -0.11825844608E+02  0.12732170277E+02  0.51100000000E-03 0.  1.
         12    1    4    4    0    0  0.10308879171E+02  0.15458806454E+01 -0.25939985375E+02  0.27956136678E+02  0.00000000000E+00 0. -1.
</event>
<event>
 8    1  0.3776180E-010  0.9118800E+02  0.7816164E-02  0.1184000E+00
        -11   -1    0    0    0    0  0.00000000000E+00  0.00000000000E+00  0.45593999997E+02  0.45594000000E+02  0.51100000000E-03 0. -1.
         11   -1    0    0    0    0 -0.00000000000E+00 -0.00000000000E+00 -0.45593999997E+02  0.45594000000E+02  0.51100000000E-03 0.  1.
         23    2    1    2    0    0  0.00000000000E+00  0.00000000000E+00  0.00000000000E+00  0.91188000000E+02  0.91188000000E+02 0.  0.
    9900012    2    3    3    0    0 -0.20685785620E+02  0.33171705836E+02  0.18850855614E+02  0.47787325442E+02  0.20000248017E+02 0.  0.
        -12    1    3    3    0    0  0.20685785620E+02 -0.33171705836E+02 -0.18850855614E+02  0.43400674558E+02  0.00000000000E+00 0.  1.
         11    1    4    4    0    0  0.67438218091E+00  0.80001438592E+01  0.33988374957E+01  0.87183249353E+01  0.51100000000E-03 0. -1.
        -11    1    4    4    0    0 -0.56331648051E+01 -0.62358713293E+00  0.26673531544E+01  0.62638789696E+01  0.51100000000E-03 0.  1.
        -12    1    4    4    0    0 -0.15727002996E+02  0.25795149109E+02  0.12784664964E+02  0.32805121537E+02  0.00000000000E+00 0.  1.
</event>
<event>
 8    1  0.3776180E-010  0.9118800E+02  0.7816164E-02  0.1184000E+00
        -11   -1    0    0    0    0  0.00000000000E+00  0.00000000000E+00  0.45593999997E+02  0.45594000000E+02  0.51100000000E-03 0. -1.
         11   -1    0    0    0    0 -0.00000000000E+00 -0.00000000000E+00 -0.45593999997E+02  0.45594000000E+02  0.51100000000E-03 0.  1.
         23    2    1    2    0    0  0.35527136788E-14 -0.35527136788E-14  0.00000000000E+00  0.91188000000E+02  0.91188000000E+02 0.  0.
    9900012    2    3    3    0    0  0.10509611521E+02 -0.23048970262E+02 -0.35240832640E+02  0.47787271324E+02  0.20000001273E+02 0.  0.
         12    1    3    3    0    0 -0.10509611521E+02  0.23048970262E+02  0.35240832640E+02  0.43400728676E+02  0.00000000000E+00 0. -1.
         11    1    4    4    0    0  0.22610914520E+01 -0.32818643108E+01 -0.44323847590E+00  0.40099412111E+01  0.51100000000E-03 0. -1.
        -11    1    4    4    0    0  0.12500401875E+02 -0.13671767314E+02 -0.28723025129E+02  0.34178786423E+02  0.51100000000E-03 0.  1.
         12    1    4    4    0    0 -0.42518818062E+01 -0.60953386374E+01 -0.60745690349E+01  0.95985436894E+01  0.00000000000E+00 0. -1.
</event>
<event>
 8    1  0.3776180E-010  0.9118800E+02  0.7816164E-02  0.1184000E+00
        -11   -1    0    0    0    0  0.00000000000E+00  0.00000000000E+00  0.45593999997E+02  0.45594000000E+02  0.51100000000E-03 0. -1.
         11   -1    0    0    0    0 -0.00000000000E+00 -0.00000000000E+00 -0.45593999997E+02  0.45594000000E+02  0.51100000000E-03 0.  1.
         23    2    1    2    0    0  0.00000000000E+00  0.00000000000E+00  0.00000000000E+00  0.91188000000E+02  0.91188000000E+02 0.  0.
    9900012    2    3    3    0    0 -0.32565017551E+02  0.60838422586E+01  0.28038013667E+02  0.47787265961E+02  0.19999976824E+02 0.  0.
        -12    1    3    3    0    0  0.32565017551E+02 -0.60838422586E+01 -0.28038013667E+02  0.43400734039E+02  0.00000000000E+00 0.  1.
         11    1    4    4    0    0 -0.14168745322E+02 -0.42608289536E+00  0.75798691196E+01  0.16074492427E+02  0.51100000000E-03 0. -1.
        -11    1    4    4    0    0 -0.16485589627E+02  0.78267436953E+01  0.96210166147E+01  0.20629991352E+02  0.51100000000E-03 0.  1.
        -12    1    4    4    0    0 -0.19106826011E+01 -0.13168185414E+01  0.10837127933E+02  0.11082782182E+02  0.00000000000E+00 0.  1.
</event>
<event>
 8    1  0.3776180E-010  0.9118800E+02  0.7816164E-02  0.1184000E+00
        -11   -1    0    0    0    0  0.00000000000E+00  0.00000000000E+00  0.45593999997E+02  0.45594000000E+02  0.51100000000E-03 0.  1.
         11   -1    0    0    0    0 -0.00000000000E+00 -0.00000000000E+00 -0.45593999997E+02  0.45594000000E+02  0.51100000000E-03 0. -1.
         23    2    1    2    0    0  0.00000000000E+00  0.88817841970E-15  0.00000000000E+00  0.91188000000E+02  0.91188000000E+02 0.  0.
    9900012    2    3    3    0    0 -0.36174755630E+02 -0.50737674563E+01  0.23436447947E+02  0.47787272431E+02  0.20000006323E+02 0.  0.
         12    1    3    3    0    0  0.36174755630E+02  0.50737674563E+01 -0.23436447947E+02  0.43400727569E+02  0.00000000000E+00 0. -1.
         11    1    4    4    0    0 -0.17995648466E+02 -0.91435626990E+01  0.10041431175E+02  0.22545031445E+02  0.51100000000E-03 0.  1.
        -11    1    4    4    0    0 -0.12331038614E+02  0.20983604795E-01  0.13288743607E+02  0.18128586832E+02  0.51100000000E-03 0. -1.
        -12    1    4    4    0    0 -0.58480685501E+01  0.40488116379E+01  0.10627316560E+00  0.71136541546E+01  0.00000000000E+00 0.  1.
</event>
<event>
 8    1  0.3776180E-010  0.9118800E+02  0.7816164E-02  0.1184000E+00
        -11   -1    0    0    0    0  0.00000000000E+00  0.00000000000E+00  0.45593999997E+02  0.45594000000E+02  0.51100000000E-03 0. -1.
         11   -1    0    0    0    0 -0.00000000000E+00 -0.00000000000E+00 -0.45593999997E+02  0.45594000000E+02  0.51100000000E-03 0.  1.
         23    2    1    2    0    0  0.35527136788E-14  0.00000000000E+00 -0.17763568394E-14  0.91188000000E+02  0.91188000000E+02 0.  0.
    9900012    2    3    3    0    0  0.16900855085E+02 -0.37900412345E+02 -0.12709958819E+02  0.47787271761E+02  0.20000003268E+02 0.  0.
         12    1    3    3    0    0 -0.16900855085E+02  0.37900412345E+02  0.12709958819E+02  0.43400728239E+02  0.00000000000E+00 0. -1.
         11    1    4    4    0    0  0.83008650888E+01 -0.26336389678E+02 -0.87243148786E+01  0.28958996060E+02  0.51100000000E-03 0. -1.
        -11    1    4    4    0    0  0.23070685433E+01 -0.11133250523E+02 -0.50335664957E+01  0.12434171641E+02  0.51100000000E-03 0.  1.
         12    1    4    4    0    0  0.62929214527E+01 -0.43077214451E+00  0.10479225557E+01  0.63941040602E+01  0.00000000000E+00 0. -1.
</event>
<event>
 8    1  0.3776180E-010  0.9118800E+02  0.7816164E-02  0.1184000E+00
        -11   -1    0    0    0    0  0.00000000000E+00  0.00000000000E+00  0.45593999997E+02  0.45594000000E+02  0.51100000000E-03 0.  1.
         11   -1    0    0    0    0 -0.00000000000E+00 -0.00000000000E+00 -0.45593999997E+02  0.45594000000E+02  0.51100000000E-03 0. -1.
         23    2    1    2    0    0  0.10658141036E-13  0.35527136788E-14  0.71054273576E-14  0.91188000000E+02  0.91188000000E+02 0.  0.
    9900012    2    3    3    0    0 -0.28864885301E+02 -0.22057464859E+02 -0.23746784062E+02  0.47787272901E+02  0.20000008463E+02 0.  0.
         12    1    3    3    0    0  0.28864885301E+02  0.22057464859E+02  0.23746784062E+02  0.43400727099E+02  0.00000000000E+00 0. -1.
         11    1    4    4    0    0 -0.17701360551E+02 -0.50138199115E+01 -0.18954583135E+02  0.26415010459E+02  0.51100000000E-03 0. -1.
        -11    1    4    4    0    0 -0.16885031481E+01 -0.60902067423E+01 -0.19420603623E+01  0.66116003930E+01  0.51100000000E-03 0.  1.
         12    1    4    4    0    0 -0.94750216017E+01 -0.10953438205E+02 -0.28501405648E+01  0.14760662049E+02  0.00000000000E+00 0. -1.
</event>
<event>
 8    1  0.3871821E-010  0.9118800E+02  0.7816164E-02  0.1184000E+00
        -11   -1    0    0    0    0  0.00000000000E+00  0.00000000000E+00  0.45593999997E+02  0.45594000000E+02  0.51100000000E-03 0. -1.
         11   -1    0    0    0    0 -0.00000000000E+00 -0.00000000000E+00 -0.45593999997E+02  0.45594000000E+02  0.51100000000E-03 0.  1.
         23    2    1    2    0    0  0.00000000000E+00  0.71054273576E-14  0.00000000000E+00  0.91188000000E+02  0.91188000000E+02 0.  0.
    9900012    2    3    3    0    0  0.15441230419E+02 -0.34282058077E+02  0.21677918658E+02  0.47787271202E+02  0.20000000720E+02 0.  0.
        -12    1    3    3    0    0 -0.15441230419E+02  0.34282058077E+02 -0.21677918658E+02  0.43400728798E+02  0.00000000000E+00 0.  1.
         11    1    4    4    0    0  0.11151706794E+02 -0.23409641931E+02  0.17133815823E+02  0.31079567961E+02  0.51100000000E-03 0. -1.
        -11    1    4    4    0    0  0.16355156257E+01 -0.55468170690E+01  0.79659346203E+01  0.98436886173E+01  0.51100000000E-03 0.  1.
        -12    1    4    4    0    0  0.26540079997E+01 -0.53255990766E+01 -0.34218317852E+01  0.68640146236E+01  0.00000000000E+00 0.  1.
</event>
<event>
 8    1  0.3776180E-010  0.9118800E+02  0.7816164E-02  0.1184000E+00
        -11   -1    0    0    0    0  0.00000000000E+00  0.00000000000E+00  0.45593999997E+02  0.45594000000E+02  0.51100000000E-03 0. -1.
         11   -1    0    0    0    0 -0.00000000000E+00 -0.00000000000E+00 -0.45593999997E+02  0.45594000000E+02  0.51100000000E-03 0.  1.
         23    2    1    2    0    0  0.35527136788E-14  0.00000000000E+00  0.35527136788E-14  0.91188000000E+02  0.91188000000E+02 0.  0.
    9900012    2    3    3    0    0 -0.25742414190E+02  0.22141682106E+02 -0.27031410931E+02  0.47787272452E+02  0.20000006416E+02 0.  0.
         12    1    3    3    0    0  0.25742414190E+02 -0.22141682106E+02  0.27031410931E+02  0.43400727548E+02  0.00000000000E+00 0. -1.
         11    1    4    4    0    0 -0.12312167992E+02  0.50311940835E+01 -0.13208081614E+02  0.18744487583E+02  0.51100000000E-03 0. -1.
        -11    1    4    4    0    0 -0.11603237843E+02  0.39543347896E+01 -0.64968996941E+01  0.13873773746E+02  0.51100000000E-03 0.  1.
        -12    1    4    4    0    0 -0.18270083552E+01  0.13156153233E+02 -0.73264296228E+01  0.15169011123E+02  0.00000000000E+00 0.  1.
</event>
<event>
 8    1  0.3776180E-010  0.9118800E+02  0.7816164E-02  0.1184000E+00
        -11   -1    0    0    0    0  0.00000000000E+00  0.00000000000E+00  0.45593999997E+02  0.45594000000E+02  0.51100000000E-03 0. -1.
         11   -1    0    0    0    0 -0.00000000000E+00 -0.00000000000E+00 -0.45593999997E+02  0.45594000000E+02  0.51100000000E-03 0.  1.
         23    2    1    2    0    0  0.88817841970E-15  0.71054273576E-14  0.35527136788E-14  0.91188000000E+02  0.91188000000E+02 0.  0.
    9900012    2    3    3    0    0 -0.67125560046E+01 -0.31695382574E+02 -0.28878507160E+02  0.47787264288E+02  0.19999969193E+02 0.  0.
         12    1    3    3    0    0  0.67125560046E+01  0.31695382574E+02  0.28878507160E+02  0.43400735712E+02  0.00000000000E+00 0. -1.
         11    1    4    4    0    0 -0.46935323817E+00 -0.11161728731E+02 -0.75061946210E+01  0.13459102447E+02  0.51100000000E-03 0. -1.
        -11    1    4    4    0    0  0.12185453833E+01 -0.14452071825E+02 -0.19847576524E+02  0.24581975653E+02  0.51100000000E-03 0.  1.
         12    1    4    4    0    0 -0.74617481497E+01 -0.60815820182E+01 -0.15247360146E+01  0.97461861878E+01  0.00000000000E+00 0. -1.
</event>
<event>
 8    1  0.3776180E-010  0.9118800E+02  0.7816164E-02  0.1184000E+00
        -11   -1    0    0    0    0  0.00000000000E+00  0.00000000000E+00  0.45593999997E+02  0.45594000000E+02  0.51100000000E-03 0. -1.
         11   -1    0    0    0    0 -0.00000000000E+00 -0.00000000000E+00 -0.45593999997E+02  0.45594000000E+02  0.51100000000E-03 0.  1.
         23    2    1    2    0    0  0.00000000000E+00  0.00000000000E+00  0.00000000000E+00  0.91188000000E+02  0.91188000000E+02 0.  0.
    9900012    2    3    3    0    0 -0.17106623910E+02  0.20486133091E+02 -0.34224329425E+02  0.47787274716E+02  0.20000016739E+02 0.  0.
         12    1    3    3    0    0  0.17106623910E+02 -0.20486133091E+02  0.34224329425E+02  0.43400725284E+02  0.00000000000E+00 0. -1.
         11    1    4    4    0    0 -0.98135472237E+01  0.26025529447E+01 -0.39145609228E+01  0.10881304077E+02  0.51100000000E-03 0. -1.
        -11    1    4    4    0    0 -0.69396844808E+01  0.60200122596E+01 -0.13091810532E+02  0.15993600957E+02  0.51100000000E-03 0.  1.
        -12    1    4    4    0    0 -0.35339220585E+00  0.11863567886E+02 -0.17217957970E+02  0.20912369682E+02  0.00000000000E+00 0.  1.
</event>
<event>
 8    1  0.3776180E-010  0.9118800E+02  0.7816164E-02  0.1184000E+00
        -11   -1    0    0    0    0  0.00000000000E+00  0.00000000000E+00  0.45593999997E+02  0.45594000000E+02  0.51100000000E-03 0. -1.
         11   -1    0    0    0    0 -0.00000000000E+00 -0.00000000000E+00 -0.45593999997E+02  0.45594000000E+02  0.51100000000E-03 0.  1.
         23    2    1    2    0    0  0.17763568394E-14  0.00000000000E+00  0.00000000000E+00  0.91188000000E+02  0.91188000000E+02 0.  0.
    9900012    2    3    3    0    0 -0.14756211402E+02  0.36620905612E+02 -0.18021851468E+02  0.47787266906E+02  0.19999981130E+02 0.  0.
         12    1    3    3    0    0  0.14756211402E+02 -0.36620905612E+02  0.18021851468E+02  0.43400733094E+02  0.00000000000E+00 0. -1.
         11    1    4    4    0    0 -0.61316541861E+01  0.11069361773E+02  0.58172570319E+00  0.12667531653E+02  0.51100000000E-03 0. -1.
        -11    1    4    4    0    0 -0.69129510472E+01  0.69709634316E+01 -0.17425519626E+01  0.99709433330E+01  0.51100000000E-03 0.  1.
        -12    1    4    4    0    0 -0.17116061688E+01  0.18580580408E+02 -0.16861025209E+02  0.25148791920E+02  0.00000000000E+00 0.  1.
</event>
<event>
 8    1  0.3776180E-010  0.9118800E+02  0.7816164E-02  0.1184000E+00
        -11   -1    0    0    0    0  0.00000000000E+00  0.00000000000E+00  0.45593999997E+02  0.45594000000E+02  0.51100000000E-03 0. -1.
         11   -1    0    0    0    0 -0.00000000000E+00 -0.00000000000E+00 -0.45593999997E+02  0.45594000000E+02  0.51100000000E-03 0.  1.
         23    2    1    2    0    0  0.00000000000E+00 -0.88817841970E-15  0.35527136788E-14  0.91188000000E+02  0.91188000000E+02 0.  0.
    9900012    2    3    3    0    0 -0.34482116129E+02 -0.29746437819E+01  0.26186934518E+02  0.47787304409E+02  0.20000152122E+02 0.  0.
        -12    1    3    3    0    0  0.34482116129E+02  0.29746437819E+01 -0.26186934518E+02  0.43400695591E+02  0.00000000000E+00 0.  1.
         11    1    4    4    0    0 -0.11147260874E+02  0.62328033100E+01  0.21833495909E+01  0.12956707830E+02  0.51100000000E-03 0.  1.
        -11    1    4    4    0    0 -0.45799855181E+00 -0.12141450480E+00  0.11427263225E+01  0.12370642121E+01  0.51100000000E-03 0. -1.
        -12    1    4    4    0    0 -0.22876856703E+02 -0.90860325871E+01  0.22860858604E+02  0.33593532367E+02  0.00000000000E+00 0.  1.
</event>
<event>
 8    1  0.3776180E-010  0.9118800E+02  0.7816164E-02  0.1184000E+00
        -11   -1    0    0    0    0  0.00000000000E+00  0.00000000000E+00  0.45593999997E+02  0.45594000000E+02  0.51100000000E-03 0. -1.
         11   -1    0    0    0    0 -0.00000000000E+00 -0.00000000000E+00 -0.45593999997E+02  0.45594000000E+02  0.51100000000E-03 0.  1.
         23    2    1    2    0    0 -0.35527136788E-14  0.00000000000E+00  0.00000000000E+00  0.91188000000E+02  0.91188000000E+02 0.  0.
    9900012    2    3    3    0    0  0.30705595853E+02  0.81143437925E+01  0.29579528061E+02  0.47787254935E+02  0.19999926552E+02 0.  0.
        -12    1    3    3    0    0 -0.30705595853E+02 -0.81143437925E+01 -0.29579528061E+02  0.43400745065E+02  0.00000000000E+00 0.  1.
         11    1    4    4    0    0  0.67233119486E+00 -0.29997253532E+01  0.31171049893E+01  0.43779818645E+01  0.51100000000E-03 0. -1.
        -11    1    4    4    0    0  0.59776010814E+00  0.33659403667E+01  0.60715170089E+00  0.34721038505E+01  0.51100000000E-03 0.  1.
         12    1    4    4    0    0  0.29435504550E+02  0.77481287790E+01  0.25855271371E+02  0.39937169220E+02  0.00000000000E+00 0. -1.
</event>
<event>
 8    1  0.3776180E-010  0.9118800E+02  0.7816164E-02  0.1184000E+00
        -11   -1    0    0    0    0  0.00000000000E+00  0.00000000000E+00  0.45593999997E+02  0.45594000000E+02  0.51100000000E-03 0. -1.
         11   -1    0    0    0    0 -0.00000000000E+00 -0.00000000000E+00 -0.45593999997E+02  0.45594000000E+02  0.51100000000E-03 0.  1.
         23    2    1    2    0    0 -0.44408920985E-15 -0.35527136788E-14  0.00000000000E+00  0.91188000000E+02  0.91188000000E+02 0.  0.
    9900012    2    3    3    0    0  0.34087181044E+01  0.26159358073E+02 -0.34462908306E+02  0.47787269329E+02  0.19999992177E+02 0.  0.
         12    1    3    3    0    0 -0.34087181044E+01 -0.26159358073E+02  0.34462908306E+02  0.43400730671E+02  0.00000000000E+00 0. -1.
         11    1    4    4    0    0 -0.35647618837E+01  0.22811779521E+01 -0.15728668651E+01  0.45149984023E+01  0.51100000000E-03 0. -1.
        -11    1    4    4    0    0  0.12220311390E+00  0.65339092336E+01 -0.14133673045E+01  0.66861431986E+01  0.51100000000E-03 0.  1.
        -12    1    4    4    0    0  0.68512768743E+01  0.17344270887E+02 -0.31476674136E+02  0.36586127728E+02  0.00000000000E+00 0.  1.
</event>
<event>
 8    1  0.3776180E-010  0.9118800E+02  0.7816164E-02  0.1184000E+00
        -11   -1    0    0    0    0  0.00000000000E+00  0.00000000000E+00  0.45593999997E+02  0.45594000000E+02  0.51100000000E-03 0. -1.
         11   -1    0    0    0    0 -0.00000000000E+00 -0.00000000000E+00 -0.45593999997E+02  0.45594000000E+02  0.51100000000E-03 0.  1.
         23    2    1    2    0    0  0.17763568394E-14  0.00000000000E+00  0.00000000000E+00  0.91188000000E+02  0.91188000000E+02 0.  0.
    9900012    2    3    3    0    0  0.11946409195E+02 -0.16626560824E+02  0.38268311101E+02  0.47787275904E+02  0.20000022158E+02 0.  0.
        -12    1    3    3    0    0 -0.11946409195E+02  0.16626560824E+02 -0.38268311101E+02  0.43400724096E+02  0.00000000000E+00 0.  1.
         11    1    4    4    0    0  0.52048146418E+01  0.64521546340E+00  0.81058408361E+01  0.96545872191E+01  0.51100000000E-03 0. -1.
        -11    1    4    4    0    0  0.63591381491E+01 -0.81869747897E+01  0.52653290905E+01  0.11627075509E+02  0.51100000000E-03 0.  1.
         12    1    4    4    0    0  0.38245640428E+00 -0.90848014975E+01  0.24897141175E+02  0.26505613176E+02  0.00000000000E+00 0. -1.
</event>
<event>
 8    1  0.3776180E-010  0.9118800E+02  0.7816164E-02  0.1184000E+00
        -11   -1    0    0    0    0  0.00000000000E+00  0.00000000000E+00  0.45593999997E+02  0.45594000000E+02  0.51100000000E-03 0. -1.
         11   -1    0    0    0    0 -0.00000000000E+00 -0.00000000000E+00 -0.45593999997E+02  0.45594000000E+02  0.51100000000E-03 0.  1.
         23    2    1    2    0    0  0.00000000000E+00 -0.35527136788E-14  0.00000000000E+00  0.91188000000E+02  0.91188000000E+02 0.  0.
    9900012    2    3    3    0    0 -0.16342886120E+02  0.25317897764E+02 -0.31233554850E+02  0.47787299286E+02  0.20000128762E+02 0.  0.
         12    1    3    3    0    0  0.16342886120E+02 -0.25317897764E+02  0.31233554850E+02  0.43400700714E+02  0.00000000000E+00 0. -1.
         11    1    4    4    0    0  0.20212519421E+01 -0.49909492625E+00 -0.43400582954E+01  0.48135913233E+01  0.51100000000E-03 0. -1.
        -11    1    4    4    0    0 -0.24848649744E+01  0.43405879762E+01 -0.10511400442E+02  0.11640652793E+02  0.51100000000E-03 0.  1.
         12    1    4    4    0    0 -0.15879273088E+02  0.21476404714E+02 -0.16382096113E+02  0.31333055170E+02  0.00000000000E+00 0. -1.
</event>
<event>
 8    1  0.3776180E-010  0.9118800E+02  0.7816164E-02  0.1184000E+00
        -11   -1    0    0    0    0  0.00000000000E+00  0.00000000000E+00  0.45593999997E+02  0.45594000000E+02  0.51100000000E-03 0.  1.
         11   -1    0    0    0    0 -0.00000000000E+00 -0.00000000000E+00 -0.45593999997E+02  0.45594000000E+02  0.51100000000E-03 0. -1.
         23    2    1    2    0    0 -0.13322676296E-14  0.00000000000E+00  0.00000000000E+00  0.91188000000E+02  0.91188000000E+02 0.  0.
    9900012    2    3    3    0    0  0.38678989039E+01 -0.40583682114E+02  0.14887160974E+02  0.47787268926E+02  0.19999990340E+02 0.  0.
        -12    1    3    3    0    0 -0.38678989039E+01  0.40583682114E+02 -0.14887160974E+02  0.43400731074E+02  0.00000000000E+00 0.  1.
         11    1    4    4    0    0  0.79423648617E+01 -0.29211844951E+02  0.69620317520E+01  0.31062564791E+02  0.51100000000E-03 0. -1.
        -11    1    4    4    0    0  0.25862225787E+01 -0.37089286856E+01  0.31086674365E+01  0.54871224438E+01  0.51100000000E-03 0.  1.
        -12    1    4    4    0    0 -0.66606885365E+01 -0.76629084780E+01  0.48164617860E+01  0.11237581691E+02  0.00000000000E+00 0.  1.
</event>
<event>
 8    1  0.3776180E-010  0.9118800E+02  0.7816164E-02  0.1184000E+00
        -11   -1    0    0    0    0  0.00000000000E+00  0.00000000000E+00  0.45593999997E+02  0.45594000000E+02  0.51100000000E-03 0. -1.
         11   -1    0    0    0    0 -0.00000000000E+00 -0.00000000000E+00 -0.45593999997E+02  0.45594000000E+02  0.51100000000E-03 0.  1.
         23    2    1    2    0    0  0.00000000000E+00  0.00000000000E+00  0.00000000000E+00  0.91188000000E+02  0.91188000000E+02 0.  0.
    9900012    2    3    3    0    0  0.12899150695E+02  0.84267371653E+01 -0.40573702931E+02  0.47787270082E+02  0.19999995611E+02 0.  0.
         12    1    3    3    0    0 -0.12899150695E+02 -0.84267371653E+01  0.40573702931E+02  0.43400729918E+02  0.00000000000E+00 0. -1.
         11    1    4    4    0    0  0.16491635022E+01 -0.12824463980E+01 -0.40735644812E+00  0.21284615472E+01  0.51100000000E-03 0. -1.
        -11    1    4    4    0    0  0.14300498738E+02  0.34220206371E+01 -0.28111026962E+02  0.31724506719E+02  0.51100000000E-03 0.  1.
         12    1    4    4    0    0 -0.30505115460E+01  0.62871629261E+01 -0.12055319521E+02  0.13934301816E+02  0.00000000000E+00 0. -1.
</event>
<event>
 8    1  0.3776180E-010  0.9118800E+02  0.7816164E-02  0.1184000E+00
        -11   -1    0    0    0    0  0.00000000000E+00  0.00000000000E+00  0.45593999997E+02  0.45594000000E+02  0.51100000000E-03 0. -1.
         11   -1    0    0    0    0 -0.00000000000E+00 -0.00000000000E+00 -0.45593999997E+02  0.45594000000E+02  0.51100000000E-03 0.  1.
         23    2    1    2    0    0 -0.35527136788E-14  0.00000000000E+00  0.35527136788E-14  0.91188000000E+02  0.91188000000E+02 0.  0.
    9900012    2    3    3    0    0 -0.17847364698E+02  0.23815870075E+02  0.31589541286E+02  0.47787271748E+02  0.20000003209E+02 0.  0.
        -12    1    3    3    0    0  0.17847364698E+02 -0.23815870075E+02 -0.31589541286E+02  0.43400728252E+02  0.00000000000E+00 0.  1.
         11    1    4    4    0    0 -0.60907919318E+01  0.22812155701E+02  0.18548940445E+02  0.30025911909E+02  0.51100000000E-03 0. -1.
        -11    1    4    4    0    0 -0.17280593795E+01 -0.25679040436E+00  0.90372333175E+00  0.19669383956E+01  0.51100000000E-03 0.  1.
         12    1    4    4    0    0 -0.10028513387E+02  0.12605047786E+01  0.12136877509E+02  0.15794421443E+02  0.00000000000E+00 0. -1.
</event>
<event>
 8    1  0.3776180E-010  0.9118800E+02  0.7816164E-02  0.1184000E+00
        -11   -1    0    0    0    0  0.00000000000E+00  0.00000000000E+00  0.45593999997E+02  0.45594000000E+02  0.51100000000E-03 0. -1.
         11   -1    0    0    0    0 -0.00000000000E+00 -0.00000000000E+00 -0.45593999997E+02  0.45594000000E+02  0.51100000000E-03 0.  1.
         23    2    1    2    0    0  0.00000000000E+00  0.00000000000E+00  0.00000000000E+00  0.91188000000E+02  0.91188000000E+02 0.  0.
    9900012    2    3    3    0    0 -0.55417647536E+01  0.30424552132E+02 -0.30450926128E+02  0.47787269233E+02  0.19999991740E+02 0.  0.
         12    1    3    3    0    0  0.55417647536E+01 -0.30424552132E+02  0.30450926128E+02  0.43400730767E+02  0.00000000000E+00 0. -1.
         11    1    4    4    0    0 -0.94324332202E+01  0.13938473662E+02 -0.15908414410E+02  0.23158788694E+02  0.51100000000E-03 0. -1.
        -11    1    4    4    0    0  0.69122017854E+00  0.87907322736E+01 -0.13645111031E+02  0.16246347730E+02  0.51100000000E-03 0.  1.
        -12    1    4    4    0    0  0.31994482880E+01  0.76953461965E+01 -0.89740068739E+00  0.83821328089E+01  0.00000000000E+00 0.  1.
</event>
<event>
 8    1  0.3776180E-010  0.9118800E+02  0.7816164E-02  0.1184000E+00
        -11   -1    0    0    0    0  0.00000000000E+00  0.00000000000E+00  0.45593999997E+02  0.45594000000E+02  0.51100000000E-03 0.  1.
         11   -1    0    0    0    0 -0.00000000000E+00 -0.00000000000E+00 -0.45593999997E+02  0.45594000000E+02  0.51100000000E-03 0. -1.
         23    2    1    2    0    0  0.00000000000E+00  0.00000000000E+00  0.44408920985E-15  0.91188000000E+02  0.91188000000E+02 0.  0.
    9900012    2    3    3    0    0  0.13344164257E+02  0.41204744023E+02 -0.27794816494E+01  0.47787272265E+02  0.20000005564E+02 0.  0.
        -12    1    3    3    0    0 -0.13344164257E+02 -0.41204744023E+02  0.27794816494E+01  0.43400727735E+02  0.00000000000E+00 0.  1.
         11    1    4    4    0    0  0.59727691576E+01  0.22090531602E+02 -0.65644626688E+01  0.23806674028E+02  0.51100000000E-03 0. -1.
        -11    1    4    4    0    0  0.99697375998E+01  0.12162022067E+02  0.17439593764E+00  0.15727074196E+02  0.51100000000E-03 0.  1.
        -12    1    4    4    0    0 -0.25983425000E+01  0.69521903534E+01  0.36105850818E+01  0.82535240407E+01  0.00000000000E+00 0.  1.
</event>
<event>
 8    1  0.3776180E-010  0.9118800E+02  0.7816164E-02  0.1184000E+00
        -11   -1    0    0    0    0  0.00000000000E+00  0.00000000000E+00  0.45593999997E+02  0.45594000000E+02  0.51100000000E-03 0. -1.
         11   -1    0    0    0    0 -0.00000000000E+00 -0.00000000000E+00 -0.45593999997E+02  0.45594000000E+02  0.51100000000E-03 0.  1.
         23    2    1    2    0    0  0.17763568394E-14  0.22204460493E-15  0.00000000000E+00  0.91188000000E+02  0.91188000000E+02 0.  0.
    9900012    2    3    3    0    0 -0.11804870898E+02 -0.81130842335E+00 -0.41756559383E+02  0.47787269017E+02  0.19999990758E+02 0.  0.
         12    1    3    3    0    0  0.11804870898E+02  0.81130842335E+00  0.41756559383E+02  0.43400730983E+02  0.00000000000E+00 0. -1.
         11    1    4    4    0    0  0.26265807184E+01  0.67500917115E+00 -0.21155574257E+01  0.34394980933E+01  0.51100000000E-03 0. -1.
        -11    1    4    4    0    0 -0.97986402978E-01  0.20521017621E+00 -0.19858898355E+02  0.19860200319E+02  0.51100000000E-03 0.  1.
         12    1    4    4    0    0 -0.14333465213E+02 -0.16915277707E+01 -0.19782103603E+02  0.24487570606E+02  0.00000000000E+00 0. -1.
</event>
<event>
 8    1  0.3776180E-010  0.9118800E+02  0.7816164E-02  0.1184000E+00
        -11   -1    0    0    0    0  0.00000000000E+00  0.00000000000E+00  0.45593999997E+02  0.45594000000E+02  0.51100000000E-03 0.  1.
         11   -1    0    0    0    0 -0.00000000000E+00 -0.00000000000E+00 -0.45593999997E+02  0.45594000000E+02  0.51100000000E-03 0. -1.
         23    2    1    2    0    0  0.00000000000E+00 -0.77715611724E-15  0.00000000000E+00  0.91188000000E+02  0.91188000000E+02 0.  0.
    9900012    2    3    3    0    0  0.43031181268E+02 -0.88304444712E+00 -0.55822054734E+01  0.47787270205E+02  0.19999996172E+02 0.  0.
         12    1    3    3    0    0 -0.43031181268E+02  0.88304444712E+00  0.55822054734E+01  0.43400729795E+02  0.00000000000E+00 0. -1.
         11    1    4    4    0    0  0.11687010099E+02  0.66414557165E+01 -0.28133203596E+01  0.13733532350E+02  0.51100000000E-03 0. -1.
        -11    1    4    4    0    0  0.12627679309E+02  0.14623690761E+01  0.16729044517E+01  0.12821677644E+02  0.51100000000E-03 0.  1.
        -12    1    4    4    0    0  0.18716491860E+02 -0.89868692397E+01 -0.44417895655E+01  0.21232060211E+02  0.00000000000E+00 0.  1.
</event>
<event>
 8    1  0.3776180E-010  0.9118800E+02  0.7816164E-02  0.1184000E+00
        -11   -1    0    0    0    0  0.00000000000E+00  0.00000000000E+00  0.45593999997E+02  0.45594000000E+02  0.51100000000E-03 0. -1.
         11   -1    0    0    0    0 -0.00000000000E+00 -0.00000000000E+00 -0.45593999997E+02  0.45594000000E+02  0.51100000000E-03 0.  1.
         23    2    1    2    0    0  0.00000000000E+00  0.00000000000E+00 -0.71054273576E-14  0.91188000000E+02  0.91188000000E+02 0.  0.
    9900012    2    3    3    0    0  0.13424443917E+02  0.22294502255E+02 -0.34732728403E+02  0.47787274804E+02  0.20000017140E+02 0.  0.
         12    1    3    3    0    0 -0.13424443917E+02 -0.22294502255E+02  0.34732728403E+02  0.43400725196E+02  0.00000000000E+00 0. -1.
         11    1    4    4    0    0 -0.26142395974E+01 -0.95977834181E-01 -0.13071352702E+01  0.29243910978E+01  0.51100000000E-03 0. -1.
        -11    1    4    4    0    0  0.25742952978E+01  0.79503333209E+01 -0.17870465051E+02  0.19727856387E+02  0.51100000000E-03 0.  1.
         12    1    4    4    0    0  0.13464388216E+02  0.14440146768E+02 -0.15555128081E+02  0.25135027319E+02  0.00000000000E+00 0. -1.
</event>
<event>
 8    1  0.3776180E-010  0.9118800E+02  0.7816164E-02  0.1184000E+00
        -11   -1    0    0    0    0  0.00000000000E+00  0.00000000000E+00  0.45593999997E+02  0.45594000000E+02  0.51100000000E-03 0. -1.
         11   -1    0    0    0    0 -0.00000000000E+00 -0.00000000000E+00 -0.45593999997E+02  0.45594000000E+02  0.51100000000E-03 0.  1.
         23    2    1    2    0    0 -0.17763568394E-14  0.00000000000E+00  0.00000000000E+00  0.91188000000E+02  0.91188000000E+02 0.  0.
    9900012    2    3    3    0    0 -0.15215562518E+02  0.15474948036E+02 -0.37585048437E+02  0.47787271602E+02  0.20000002541E+02 0.  0.
         12    1    3    3    0    0  0.15215562518E+02 -0.15474948036E+02  0.37585048437E+02  0.43400728398E+02  0.00000000000E+00 0. -1.
         11    1    4    4    0    0 -0.84571996060E+01  0.93033401435E+00 -0.62482047527E+01  0.10556031899E+02  0.51100000000E-03 0. -1.
        -11    1    4    4    0    0 -0.36028038361E+01 -0.13880034437E+01 -0.58814026413E+01  0.70354563698E+01  0.51100000000E-03 0.  1.
        -12    1    4    4    0    0 -0.31555590759E+01  0.15932617466E+02 -0.25455441043E+02  0.30195783333E+02  0.00000000000E+00 0.  1.
</event>
<event>
 8    1  0.3776180E-010  0.9118800E+02  0.7816164E-02  0.1184000E+00
        -11   -1    0    0    0    0  0.00000000000E+00  0.00000000000E+00  0.45593999997E+02  0.45594000000E+02  0.51100000000E-03 0. -1.
         11   -1    0    0    0    0 -0.00000000000E+00 -0.00000000000E+00 -0.45593999997E+02  0.45594000000E+02  0.51100000000E-03 0.  1.
         23    2    1    2    0    0  0.00000000000E+00  0.13322676296E-14  0.00000000000E+00  0.91188000000E+02  0.91188000000E+02 0.  0.
    9900012    2    3    3    0    0 -0.15250682434E+02  0.61878653784E+00  0.40628276253E+02  0.47787273707E+02  0.20000012140E+02 0.  0.
        -12    1    3    3    0    0  0.15250682434E+02 -0.61878653784E+00 -0.40628276253E+02  0.43400726293E+02  0.00000000000E+00 0.  1.
         11    1    4    4    0    0 -0.19647217451E+00  0.13875978721E+01  0.16244930936E+01  0.21454620114E+01  0.51100000000E-03 0.  1.
        -11    1    4    4    0    0 -0.20863967907E+01 -0.82776101076E+01  0.16958328437E+02  0.18985699468E+02  0.51100000000E-03 0. -1.
         12    1    4    4    0    0 -0.12967813469E+02  0.75087987733E+01  0.22045454722E+02  0.26656112228E+02  0.00000000000E+00 0. -1.
</event>
<event>
 8    1  0.3776180E-010  0.9118800E+02  0.7816164E-02  0.1184000E+00
        -11   -1    0    0    0    0  0.00000000000E+00  0.00000000000E+00  0.45593999997E+02  0.45594000000E+02  0.51100000000E-03 0. -1.
         11   -1    0    0    0    0 -0.00000000000E+00 -0.00000000000E+00 -0.45593999997E+02  0.45594000000E+02  0.51100000000E-03 0.  1.
         23    2    1    2    0    0  0.17763568394E-14  0.00000000000E+00  0.00000000000E+00  0.91188000000E+02  0.91188000000E+02 0.  0.
    9900012    2    3    3    0    0 -0.78060890512E+01 -0.49145307406E+01 -0.42409140178E+02  0.47787276396E+02  0.20000024402E+02 0.  0.
         12    1    3    3    0    0  0.78060890512E+01  0.49145307406E+01  0.42409140178E+02  0.43400723604E+02  0.00000000000E+00 0. -1.
         11    1    4    4    0    0 -0.32398790041E+01 -0.75940316364E+01 -0.17175606098E+02  0.19056956146E+02  0.51100000000E-03 0. -1.
        -11    1    4    4    0    0 -0.82659658826E+01 -0.10983473494E+01 -0.17168871404E+02  0.19086715391E+02  0.51100000000E-03 0.  1.
         12    1    4    4    0    0  0.36997558354E+01  0.37778482452E+01 -0.80646626756E+01  0.96436048590E+01  0.00000000000E+00 0. -1.
</event>
<event>
 8    1  0.3776180E-010  0.9118800E+02  0.7816164E-02  0.1184000E+00
        -11   -1    0    0    0    0  0.00000000000E+00  0.00000000000E+00  0.45593999997E+02  0.45594000000E+02  0.51100000000E-03 0. -1.
         11   -1    0    0    0    0 -0.00000000000E+00 -0.00000000000E+00 -0.45593999997E+02  0.45594000000E+02  0.51100000000E-03 0.  1.
         23    2    1    2    0    0  0.44408920985E-15  0.00000000000E+00  0.00000000000E+00  0.91188000000E+02  0.91188000000E+02 0.  0.
    9900012    2    3    3    0    0 -0.38965129001E+01  0.71113061585E+01  0.42636485495E+02  0.47787269782E+02  0.19999994244E+02 0.  0.
        -12    1    3    3    0    0  0.38965129001E+01 -0.71113061585E+01 -0.42636485495E+02  0.43400730218E+02  0.00000000000E+00 0.  1.
         11    1    4    4    0    0 -0.57227114517E+00  0.33191487833E+01 -0.20684735929E+00  0.33744672173E+01  0.51100000000E-03 0.  1.
        -11    1    4    4    0    0 -0.30648361894E+01  0.57042664711E+01  0.13160670148E+02  0.14667484987E+02  0.51100000000E-03 0. -1.
         12    1    4    4    0    0 -0.25940556551E+00 -0.19121090960E+01  0.29682662707E+02  0.29745317578E+02  0.00000000000E+00 0. -1.
</event>
<event>
 8    1  0.3776180E-010  0.9118800E+02  0.7816164E-02  0.1184000E+00
        -11   -1    0    0    0    0  0.00000000000E+00  0.00000000000E+00  0.45593999997E+02  0.45594000000E+02  0.51100000000E-03 0. -1.
         11   -1    0    0    0    0 -0.00000000000E+00 -0.00000000000E+00 -0.45593999997E+02  0.45594000000E+02  0.51100000000E-03 0.  1.
         23    2    1    2    0    0 -0.35527136788E-14  0.00000000000E+00 -0.17763568394E-14  0.91188000000E+02  0.91188000000E+02 0.  0.
    9900012    2    3    3    0    0 -0.31343388711E+02  0.27763779022E+02  0.11418752923E+02  0.47787270055E+02  0.19999995487E+02 0.  0.
        -12    1    3    3    0    0  0.31343388711E+02 -0.27763779022E+02 -0.11418752923E+02  0.43400729945E+02  0.00000000000E+00 0.  1.
         11    1    4    4    0    0 -0.20584630112E+02  0.15187450503E+02  0.16151693786E+02  0.30253311588E+02  0.51100000000E-03 0. -1.
        -11    1    4    4    0    0 -0.13246670330E+01  0.10987327195E+01 -0.16002427363E+01  0.23500496620E+01  0.51100000000E-03 0.  1.
         12    1    4    4    0    0 -0.94340915662E+01  0.11477595800E+02 -0.31326981275E+01  0.15183908805E+02  0.00000000000E+00 0. -1.
</event>
<event>
 8    1  0.3776180E-010  0.9118800E+02  0.7816164E-02  0.1184000E+00
        -11   -1    0    0    0    0  0.00000000000E+00  0.00000000000E+00  0.45593999997E+02  0.45594000000E+02  0.51100000000E-03 0. -1.
         11   -1    0    0    0    0 -0.00000000000E+00 -0.00000000000E+00 -0.45593999997E+02  0.45594000000E+02  0.51100000000E-03 0.  1.
         23    2    1    2    0    0  0.88817841970E-15  0.00000000000E+00  0.00000000000E+00  0.91188000000E+02  0.91188000000E+02 0.  0.
    9900012    2    3    3    0    0  0.68491779535E+01 -0.20406766442E+01 -0.42808261922E+02  0.47787275483E+02  0.20000020238E+02 0.  0.
         12    1    3    3    0    0 -0.68491779535E+01  0.20406766442E+01  0.42808261922E+02  0.43400724517E+02  0.00000000000E+00 0. -1.
         11    1    4    4    0    0  0.45673129110E+01  0.40772972815E+01 -0.81247620409E+01  0.10173320934E+02  0.51100000000E-03 0. -1.
        -11    1    4    4    0    0  0.14827131124E+01 -0.49976516142E+01 -0.32345753936E+01  0.61349358651E+01  0.51100000000E-03 0.  1.
        -12    1    4    4    0    0  0.79915193009E+00 -0.11203223115E+01 -0.31448924487E+02  0.31479018684E+02  0.00000000000E+00 0.  1.
</event>
<event>
 8    1  0.3776180E-010  0.9118800E+02  0.7816164E-02  0.1184000E+00
        -11   -1    0    0    0    0  0.00000000000E+00  0.00000000000E+00  0.45593999997E+02  0.45594000000E+02  0.51100000000E-03 0. -1.
         11   -1    0    0    0    0 -0.00000000000E+00 -0.00000000000E+00 -0.45593999997E+02  0.45594000000E+02  0.51100000000E-03 0.  1.
         23    2    1    2    0    0  0.00000000000E+00  0.00000000000E+00  0.00000000000E+00  0.91188000000E+02  0.91188000000E+02 0.  0.
    9900012    2    3    3    0    0  0.18963113453E+02  0.57344981758E+01 -0.38615270283E+02  0.47787271433E+02  0.20000001770E+02 0.  0.
         12    1    3    3    0    0 -0.18963113453E+02 -0.57344981758E+01  0.38615270283E+02  0.43400728567E+02  0.00000000000E+00 0. -1.
         11    1    4    4    0    0 -0.61039882213E+00  0.13415587973E+01 -0.77399110027E+01  0.78789967204E+01  0.51100000000E-03 0. -1.
        -11    1    4    4    0    0  0.37532450541E+01  0.15406543234E+01 -0.20218065335E+02  0.20621120977E+02  0.51100000000E-03 0.  1.
         12    1    4    4    0    0  0.15820267221E+02  0.28522850551E+01 -0.10657293945E+02  0.19287153736E+02  0.00000000000E+00 0. -1.
</event>
<event>
 8    1  0.3776180E-010  0.9118800E+02  0.7816164E-02  0.1184000E+00
        -11   -1    0    0    0    0  0.00000000000E+00  0.00000000000E+00  0.45593999997E+02  0.45594000000E+02  0.51100000000E-03 0.  1.
         11   -1    0    0    0    0 -0.00000000000E+00 -0.00000000000E+00 -0.45593999997E+02  0.45594000000E+02  0.51100000000E-03 0. -1.
         23    2    1    2    0    0  0.00000000000E+00  0.00000000000E+00  0.00000000000E+00  0.91188000000E+02  0.91188000000E+02 0.  0.
    9900012    2    3    3    0    0  0.35969294289E+02  0.24112315068E+02  0.29034109373E+01  0.47787266542E+02  0.19999979472E+02 0.  0.
         12    1    3    3    0    0 -0.35969294289E+02 -0.24112315068E+02 -0.29034109373E+01  0.43400733458E+02  0.00000000000E+00 0. -1.
         11    1    4    4    0    0  0.38284861650E+01 -0.23046875321E+01  0.23796569430E+01  0.50627718064E+01  0.51100000000E-03 0. -1.
        -11    1    4    4    0    0  0.94067492251E+01  0.41432124328E+01 -0.29881424782E+01  0.10704304554E+02  0.51100000000E-03 0.  1.
        -12    1    4    4    0    0  0.22734058899E+02  0.22273790168E+02  0.35118964725E+01  0.32020190182E+02  0.00000000000E+00 0.  1.
</event>
<event>
 8    1  0.3776180E-010  0.9118800E+02  0.7816164E-02  0.1184000E+00
        -11   -1    0    0    0    0  0.00000000000E+00  0.00000000000E+00  0.45593999997E+02  0.45594000000E+02  0.51100000000E-03 0. -1.
         11   -1    0    0    0    0 -0.00000000000E+00 -0.00000000000E+00 -0.45593999997E+02  0.45594000000E+02  0.51100000000E-03 0.  1.
         23    2    1    2    0    0  0.00000000000E+00  0.00000000000E+00  0.71054273576E-14  0.91188000000E+02  0.91188000000E+02 0.  0.
    9900012    2    3    3    0    0 -0.86182206819E+01  0.26235004264E+02 -0.33482440089E+02  0.47787274536E+02  0.20000015921E+02 0.  0.
         12    1    3    3    0    0  0.86182206819E+01 -0.26235004264E+02  0.33482440089E+02  0.43400725464E+02  0.00000000000E+00 0. -1.
         11    1    4    4    0    0 -0.95786572861E+00  0.58213195969E+00 -0.41935449275E+01  0.43407607274E+01  0.51100000000E-03 0. -1.
        -11    1    4    4    0    0 -0.47151149760E+01  0.12684367226E+02 -0.28178430703E+01  0.13822652458E+02  0.51100000000E-03 0.  1.
        -12    1    4    4    0    0 -0.29452399773E+01  0.12968505078E+02 -0.26471052091E+02  0.29623861351E+02  0.00000000000E+00 0.  1.
</event>
<event>
 8    1  0.3776180E-010  0.9118800E+02  0.7816164E-02  0.1184000E+00
        -11   -1    0    0    0    0  0.00000000000E+00  0.00000000000E+00  0.45593999997E+02  0.45594000000E+02  0.51100000000E-03 0. -1.
         11   -1    0    0    0    0 -0.00000000000E+00 -0.00000000000E+00 -0.45593999997E+02  0.45594000000E+02  0.51100000000E-03 0.  1.
         23    2    1    2    0    0  0.17763568394E-14  0.00000000000E+00  0.00000000000E+00  0.91188000000E+02  0.91188000000E+02 0.  0.
    9900012    2    3    3    0    0  0.13923016531E+02  0.25374050335E+02  0.32340849045E+02  0.47787270321E+02  0.19999996702E+02 0.  0.
        -12    1    3    3    0    0 -0.13923016531E+02 -0.25374050335E+02 -0.32340849045E+02  0.43400729679E+02  0.00000000000E+00 0.  1.
         11    1    4    4    0    0 -0.34658278436E+00  0.54290771199E+01  0.73649325354E+01  0.91562672259E+01  0.51100000000E-03 0. -1.
        -11    1    4    4    0    0  0.56254567425E+01  0.12214171309E+02  0.23316057710E+02  0.26915985803E+02  0.51100000000E-03 0.  1.
         12    1    4    4    0    0  0.86441425724E+01  0.77308019064E+01  0.16598587991E+01  0.11715017292E+02  0.00000000000E+00 0. -1.
</event>
<event>
 8    1  0.3776180E-010  0.9118800E+02  0.7816164E-02  0.1184000E+00
        -11   -1    0    0    0    0  0.00000000000E+00  0.00000000000E+00  0.45593999997E+02  0.45594000000E+02  0.51100000000E-03 0. -1.
         11   -1    0    0    0    0 -0.00000000000E+00 -0.00000000000E+00 -0.45593999997E+02  0.45594000000E+02  0.51100000000E-03 0.  1.
         23    2    1    2    0    0  0.00000000000E+00  0.00000000000E+00  0.17763568394E-14  0.91188000000E+02  0.91188000000E+02 0.  0.
    9900012    2    3    3    0    0 -0.14119011237E+02  0.38835714958E+02 -0.13268944267E+02  0.47787261336E+02  0.19999955735E+02 0.  0.
         12    1    3    3    0    0  0.14119011237E+02 -0.38835714958E+02  0.13268944267E+02  0.43400738664E+02  0.00000000000E+00 0. -1.
         11    1    4    4    0    0 -0.23260630453E+01  0.15665709249E+02 -0.10169771864E+02  0.18821510981E+02  0.51100000000E-03 0. -1.
        -11    1    4    4    0    0 -0.62140834671E+01  0.15960561397E+02 -0.76718009897E+01  0.18767282279E+02  0.51100000000E-03 0.  1.
         12    1    4    4    0    0 -0.55788647248E+01  0.72094443115E+01  0.45726285869E+01  0.10198468076E+02  0.00000000000E+00 0. -1.
</event>
<event>
 8    1  0.3776180E-010  0.9118800E+02  0.7816164E-02  0.1184000E+00
        -11   -1    0    0    0    0  0.00000000000E+00  0.00000000000E+00  0.45593999997E+02  0.45594000000E+02  0.51100000000E-03 0. -1.
         11   -1    0    0    0    0 -0.00000000000E+00 -0.00000000000E+00 -0.45593999997E+02  0.45594000000E+02  0.51100000000E-03 0.  1.
         23    2    1    2    0    0 -0.44408920985E-15  0.00000000000E+00  0.00000000000E+00  0.91188000000E+02  0.91188000000E+02 0.  0.
    9900012    2    3    3    0    0 -0.33646175779E+01 -0.11949066055E+02  0.41587464463E+02  0.47787331440E+02  0.20000275365E+02 0.  0.
        -12    1    3    3    0    0  0.33646175779E+01  0.11949066055E+02 -0.41587464463E+02  0.43400668560E+02  0.00000000000E+00 0.  1.
         11    1    4    4    0    0  0.72088203980E+01 -0.35824818737E+01  0.15145838884E+02  0.17152192387E+02  0.51100000000E-03 0. -1.
        -11    1    4    4    0    0 -0.25946825878E+01 -0.47463407477E+00  0.12310191908E+02  0.12589617958E+02  0.51100000000E-03 0.  1.
         12    1    4    4    0    0 -0.79787553882E+01 -0.78919501068E+01  0.14131433670E+02  0.18045521095E+02  0.00000000000E+00 0. -1.
</event>
<event>
 8    1  0.3776180E-010  0.9118800E+02  0.7816164E-02  0.1184000E+00
        -11   -1    0    0    0    0  0.00000000000E+00  0.00000000000E+00  0.45593999997E+02  0.45594000000E+02  0.51100000000E-03 0. -1.
         11   -1    0    0    0    0 -0.00000000000E+00 -0.00000000000E+00 -0.45593999997E+02  0.45594000000E+02  0.51100000000E-03 0.  1.
         23    2    1    2    0    0  0.35527136788E-14  0.11102230246E-15  0.00000000000E+00  0.91188000000E+02  0.91188000000E+02 0.  0.
    9900012    2    3    3    0    0 -0.29798732307E+02  0.65935594801E+00  0.31547181996E+02  0.47787263955E+02  0.19999967677E+02 0.  0.
        -12    1    3    3    0    0  0.29798732307E+02 -0.65935594801E+00 -0.31547181996E+02  0.43400736045E+02  0.00000000000E+00 0.  1.
         11    1    4    4    0    0 -0.41113066818E+01 -0.11077121902E+01  0.17266586008E+01  0.45946946703E+01  0.51100000000E-03 0.  1.
        -11    1    4    4    0    0 -0.19290629743E+02  0.19108111990E+01  0.89279071277E+01  0.21342144252E+02  0.51100000000E-03 0. -1.
         12    1    4    4    0    0 -0.63967958816E+01 -0.14374306078E+00  0.20892616267E+02  0.21850425033E+02  0.00000000000E+00 0. -1.
</event>
<event>
 8    1  0.3776180E-010  0.9118800E+02  0.7816164E-02  0.1184000E+00
        -11   -1    0    0    0    0  0.00000000000E+00  0.00000000000E+00  0.45593999997E+02  0.45594000000E+02  0.51100000000E-03 0. -1.
         11   -1    0    0    0    0 -0.00000000000E+00 -0.00000000000E+00 -0.45593999997E+02  0.45594000000E+02  0.51100000000E-03 0.  1.
         23    2    1    2    0    0  0.00000000000E+00  0.00000000000E+00  0.71054273576E-14  0.91188000000E+02  0.91188000000E+02 0.  0.
    9900012    2    3    3    0    0  0.21769263191E+01 -0.10616789105E+02 -0.42025804748E+02  0.47787268626E+02  0.19999988973E+02 0.  0.
         12    1    3    3    0    0 -0.21769263191E+01  0.10616789105E+02  0.42025804748E+02  0.43400731374E+02  0.00000000000E+00 0. -1.
         11    1    4    4    0    0 -0.75273512704E+01 -0.66650462691E+01 -0.26948532730E+02  0.28762949700E+02  0.51100000000E-03 0. -1.
        -11    1    4    4    0    0  0.24427569203E+01 -0.37701785057E+00 -0.76493509003E+01  0.80387669010E+01  0.51100000000E-03 0.  1.
         12    1    4    4    0    0  0.72615206692E+01 -0.35747249848E+01 -0.74279211179E+01  0.10985552024E+02  0.00000000000E+00 0. -1.
</event>
<event>
 8    1  0.3776180E-010  0.9118800E+02  0.7816164E-02  0.1184000E+00
        -11   -1    0    0    0    0  0.00000000000E+00  0.00000000000E+00  0.45593999997E+02  0.45594000000E+02  0.51100000000E-03 0. -1.
         11   -1    0    0    0    0 -0.00000000000E+00 -0.00000000000E+00 -0.45593999997E+02  0.45594000000E+02  0.51100000000E-03 0.  1.
         23    2    1    2    0    0  0.00000000000E+00  0.00000000000E+00  0.35527136788E-14  0.91188000000E+02  0.91188000000E+02 0.  0.
    9900012    2    3    3    0    0 -0.24311241679E+02  0.31586136008E+02 -0.17172750661E+02  0.47787264693E+02  0.19999971043E+02 0.  0.
         12    1    3    3    0    0  0.24311241679E+02 -0.31586136008E+02  0.17172750661E+02  0.43400735307E+02  0.00000000000E+00 0. -1.
         11    1    4    4    0    0 -0.12792751562E+02  0.89412700075E+01 -0.11467967362E+02  0.19367887792E+02  0.51100000000E-03 0. -1.
        -11    1    4    4    0    0 -0.20751187496E+01  0.38042463016E+01 -0.59285159295E+01  0.73434126355E+01  0.51100000000E-03 0.  1.
         12    1    4    4    0    0 -0.94433713678E+01  0.18840619699E+02  0.22373263034E+00  0.21075964266E+02  0.00000000000E+00 0. -1.
</event>
<event>
 8    1  0.3776180E-010  0.9118800E+02  0.7816164E-02  0.1184000E+00
        -11   -1    0    0    0    0  0.00000000000E+00  0.00000000000E+00  0.45593999997E+02  0.45594000000E+02  0.51100000000E-03 0. -1.
         11   -1    0    0    0    0 -0.00000000000E+00 -0.00000000000E+00 -0.45593999997E+02  0.45594000000E+02  0.51100000000E-03 0.  1.
         23    2    1    2    0    0  0.00000000000E+00 -0.35527136788E-14  0.00000000000E+00  0.91188000000E+02  0.91188000000E+02 0.  0.
    9900012    2    3    3    0    0  0.79423231426E+01 -0.22453512606E+02  0.36281989365E+02  0.47787268698E+02  0.19999989303E+02 0.  0.
        -12    1    3    3    0    0 -0.79423231426E+01  0.22453512606E+02 -0.36281989365E+02  0.43400731302E+02  0.00000000000E+00 0.  1.
         11    1    4    4    0    0  0.36510835362E+01  0.11014291863E+01  0.50260984557E+01  0.63091380702E+01  0.51100000000E-03 0. -1.
        -11    1    4    4    0    0  0.49927398039E+01 -0.23578578536E+02  0.23404234193E+02  0.33595163267E+02  0.51100000000E-03 0.  1.
         12    1    4    4    0    0 -0.70150019743E+00  0.23636743891E-01  0.78516567166E+01  0.78829673612E+01  0.00000000000E+00 0. -1.
</event>
<event>
 8    1  0.3776180E-010  0.9118800E+02  0.7816164E-02  0.1184000E+00
        -11   -1    0    0    0    0  0.00000000000E+00  0.00000000000E+00  0.45593999997E+02  0.45594000000E+02  0.51100000000E-03 0. -1.
         11   -1    0    0    0    0 -0.00000000000E+00 -0.00000000000E+00 -0.45593999997E+02  0.45594000000E+02  0.51100000000E-03 0.  1.
         23    2    1    2    0    0  0.00000000000E+00 -0.17763568394E-14  0.00000000000E+00  0.91188000000E+02  0.91188000000E+02 0.  0.
    9900012    2    3    3    0    0  0.72443157079E+01  0.15152823847E+02  0.40019163768E+02  0.47787289760E+02  0.20000085332E+02 0.  0.
        -12    1    3    3    0    0 -0.72443157079E+01 -0.15152823847E+02 -0.40019163768E+02  0.43400710240E+02  0.00000000000E+00 0.  1.
         11    1    4    4    0    0 -0.75291496843E+00 -0.20168397769E+01  0.46156516869E+00  0.22017189424E+01  0.51100000000E-03 0. -1.
        -11    1    4    4    0    0  0.92520849656E+01  0.71410112869E+01  0.14898989694E+02  0.18936077011E+02  0.51100000000E-03 0.  1.
         12    1    4    4    0    0 -0.12548542893E+01  0.10028652337E+02  0.24658608905E+02  0.26649493806E+02  0.00000000000E+00 0. -1.
</event>
<event>
 8    1  0.3776180E-010  0.9118800E+02  0.7816164E-02  0.1184000E+00
        -11   -1    0    0    0    0  0.00000000000E+00  0.00000000000E+00  0.45593999997E+02  0.45594000000E+02  0.51100000000E-03 0. -1.
         11   -1    0    0    0    0 -0.00000000000E+00 -0.00000000000E+00 -0.45593999997E+02  0.45594000000E+02  0.51100000000E-03 0.  1.
         23    2    1    2    0    0  0.00000000000E+00  0.00000000000E+00  0.35527136788E-14  0.91188000000E+02  0.91188000000E+02 0.  0.
    9900012    2    3    3    0    0  0.18421077937E+02 -0.36435607221E+02  0.14721887397E+02  0.47787267812E+02  0.19999985262E+02 0.  0.
        -12    1    3    3    0    0 -0.18421077937E+02  0.36435607221E+02 -0.14721887397E+02  0.43400732188E+02  0.00000000000E+00 0.  1.
         11    1    4    4    0    0  0.16762062143E+02 -0.32253905426E+02  0.16256703049E+02  0.39819110196E+02  0.51100000000E-03 0. -1.
        -11    1    4    4    0    0  0.27663547829E+01 -0.56945060269E+00  0.14298587977E+01  0.31656735802E+01  0.51100000000E-03 0.  1.
         12    1    4    4    0    0 -0.11073389890E+01 -0.36122511928E+01 -0.29646744504E+01  0.48024840357E+01  0.00000000000E+00 0. -1.
</event>
<event>
 8    1  0.3776180E-010  0.9118800E+02  0.7816164E-02  0.1184000E+00
        -11   -1    0    0    0    0  0.00000000000E+00  0.00000000000E+00  0.45593999997E+02  0.45594000000E+02  0.51100000000E-03 0. -1.
         11   -1    0    0    0    0 -0.00000000000E+00 -0.00000000000E+00 -0.45593999997E+02  0.45594000000E+02  0.51100000000E-03 0.  1.
         23    2    1    2    0    0  0.00000000000E+00  0.00000000000E+00 -0.35527136788E-14  0.91188000000E+02  0.91188000000E+02 0.  0.
    9900012    2    3    3    0    0  0.22699243540E+02 -0.29718352843E+02  0.22026947194E+02  0.47787279319E+02  0.20000037725E+02 0.  0.
        -12    1    3    3    0    0 -0.22699243540E+02  0.29718352843E+02 -0.22026947194E+02  0.43400720681E+02  0.00000000000E+00 0.  1.
         11    1    4    4    0    0  0.16947958372E+02 -0.22661020234E+02  0.17856209655E+02  0.33460414739E+02  0.51100000000E-03 0. -1.
        -11    1    4    4    0    0  0.87849983351E+00 -0.31977947177E+01  0.68093125478E+01  0.75739283498E+01  0.51100000000E-03 0.  1.
         12    1    4    4    0    0  0.48727853349E+01 -0.38595378906E+01 -0.26385750081E+01  0.67529362297E+01  0.00000000000E+00 0. -1.
</event>
<event>
 8    1  0.3776180E-010  0.9118800E+02  0.7816164E-02  0.1184000E+00
        -11   -1    0    0    0    0  0.00000000000E+00  0.00000000000E+00  0.45593999997E+02  0.45594000000E+02  0.51100000000E-03 0. -1.
         11   -1    0    0    0    0 -0.00000000000E+00 -0.00000000000E+00 -0.45593999997E+02  0.45594000000E+02  0.51100000000E-03 0.  1.
         23    2    1    2    0    0  0.88817841970E-15  0.00000000000E+00  0.71054273576E-14  0.91188000000E+02  0.91188000000E+02 0.  0.
    9900012    2    3    3    0    0 -0.20557607990E+01 -0.90110457826E+01 -0.42405166587E+02  0.47787271299E+02  0.20000001160E+02 0.  0.
         12    1    3    3    0    0  0.20557607990E+01  0.90110457826E+01  0.42405166587E+02  0.43400728701E+02  0.00000000000E+00 0. -1.
         11    1    4    4    0    0  0.17067695376E+01  0.19478115540E+01 -0.17155969165E+00  0.25954701103E+01  0.51100000000E-03 0. -1.
        -11    1    4    4    0    0  0.14662175956E+01 -0.47057876370E+01 -0.47962916604E+01  0.68774010552E+01  0.51100000000E-03 0.  1.
        -12    1    4    4    0    0 -0.52287479322E+01 -0.62530696997E+01 -0.37437315235E+02  0.38314400133E+02  0.00000000000E+00 0.  1.
</event>
<event>
 8    1  0.3776180E-010  0.9118800E+02  0.7816164E-02  0.1184000E+00
        -11   -1    0    0    0    0  0.00000000000E+00  0.00000000000E+00  0.45593999997E+02  0.45594000000E+02  0.51100000000E-03 0. -1.
         11   -1    0    0    0    0 -0.00000000000E+00 -0.00000000000E+00 -0.45593999997E+02  0.45594000000E+02  0.51100000000E-03 0.  1.
         23    2    1    2    0    0 -0.88817841970E-15 -0.71054273576E-14  0.00000000000E+00  0.91188000000E+02  0.91188000000E+02 0.  0.
    9900012    2    3    3    0    0  0.78504467051E+01  0.37296586326E+02  0.20759538462E+02  0.47787270718E+02  0.19999998513E+02 0.  0.
        -12    1    3    3    0    0 -0.78504467051E+01 -0.37296586326E+02 -0.20759538462E+02  0.43400729282E+02  0.00000000000E+00 0.  1.
         11    1    4    4    0    0 -0.33874991607E+01  0.25834578540E+01  0.34331973650E+01  0.54714028782E+01  0.51100000000E-03 0.  1.
        -11    1    4    4    0    0 -0.21648611247E+01  0.73943043382E+01  0.62922567973E+01  0.99476055511E+01  0.51100000000E-03 0. -1.
         12    1    4    4    0    0  0.13402806991E+02  0.27318824134E+02  0.11034084299E+02  0.32368262289E+02  0.00000000000E+00 0. -1.
</event>
<event>
 8    1  0.3776180E-010  0.9118800E+02  0.7816164E-02  0.1184000E+00
        -11   -1    0    0    0    0  0.00000000000E+00  0.00000000000E+00  0.45593999997E+02  0.45594000000E+02  0.51100000000E-03 0. -1.
         11   -1    0    0    0    0 -0.00000000000E+00 -0.00000000000E+00 -0.45593999997E+02  0.45594000000E+02  0.51100000000E-03 0.  1.
         23    2    1    2    0    0 -0.17763568394E-14 -0.71054273576E-14  0.88817841970E-15  0.91188000000E+02  0.91188000000E+02 0.  0.
    9900012    2    3    3    0    0  0.13761860161E+02  0.40604322027E+02 -0.67470531047E+01  0.47787280099E+02  0.20000041283E+02 0.  0.
         12    1    3    3    0    0 -0.13761860161E+02 -0.40604322027E+02  0.67470531047E+01  0.43400719901E+02  0.00000000000E+00 0. -1.
         11    1    4    4    0    0  0.14544806320E+01  0.29538098013E+01  0.41248647225E+01  0.52777850933E+01  0.51100000000E-03 0. -1.
        -11    1    4    4    0    0  0.19652087996E+01  0.22665163593E+02 -0.43063280093E+01  0.23154182073E+02  0.51100000000E-03 0.  1.
         12    1    4    4    0    0  0.10342170729E+02  0.14985348633E+02 -0.65655898180E+01  0.19355312932E+02  0.00000000000E+00 0. -1.
</event>
<event>
 8    1  0.3776180E-010  0.9118800E+02  0.7816164E-02  0.1184000E+00
        -11   -1    0    0    0    0  0.00000000000E+00  0.00000000000E+00  0.45593999997E+02  0.45594000000E+02  0.51100000000E-03 0.  1.
         11   -1    0    0    0    0 -0.00000000000E+00 -0.00000000000E+00 -0.45593999997E+02  0.45594000000E+02  0.51100000000E-03 0. -1.
         23    2    1    2    0    0 -0.35527136788E-14  0.00000000000E+00  0.00000000000E+00  0.91188000000E+02  0.91188000000E+02 0.  0.
    9900012    2    3    3    0    0 -0.25044284439E+02  0.33156913676E+02 -0.12531030216E+02  0.47787264686E+02  0.19999971007E+02 0.  0.
        -12    1    3    3    0    0  0.25044284439E+02 -0.33156913676E+02  0.12531030216E+02  0.43400735314E+02  0.00000000000E+00 0.  1.
         11    1    4    4    0    0 -0.67306491242E+01  0.53138984203E+01 -0.18793779930E+01  0.87790213553E+01  0.51100000000E-03 0.  1.
        -11    1    4    4    0    0 -0.11180348309E+02  0.88813863490E+01  0.29849152394E+01  0.14587286624E+02  0.51100000000E-03 0. -1.
         12    1    4    4    0    0 -0.71332870048E+01  0.18961628907E+02 -0.13636567463E+02  0.24420956706E+02  0.00000000000E+00 0. -1.
</event>
<event>
 8    1  0.3776180E-010  0.9118800E+02  0.7816164E-02  0.1184000E+00
        -11   -1    0    0    0    0  0.00000000000E+00  0.00000000000E+00  0.45593999997E+02  0.45594000000E+02  0.51100000000E-03 0. -1.
         11   -1    0    0    0    0 -0.00000000000E+00 -0.00000000000E+00 -0.45593999997E+02  0.45594000000E+02  0.51100000000E-03 0.  1.
         23    2    1    2    0    0  0.00000000000E+00 -0.13877787808E-15 -0.35527136788E-14  0.91188000000E+02  0.91188000000E+02 0.  0.
    9900012    2    3    3    0    0  0.40495035863E+02  0.17501093085E+00 -0.15612308290E+02  0.47787277328E+02  0.20000028648E+02 0.  0.
         12    1    3    3    0    0 -0.40495035863E+02 -0.17501093085E+00  0.15612308290E+02  0.43400722672E+02  0.00000000000E+00 0. -1.
         11    1    4    4    0    0  0.14269517157E+02 -0.76740982848E-01  0.71484476274E+00  0.14287617449E+02  0.51100000000E-03 0. -1.
        -11    1    4    4    0    0  0.23877295573E+02 -0.29664218416E+01 -0.10072635405E+02  0.26084150104E+02  0.51100000000E-03 0.  1.
         12    1    4    4    0    0  0.23482231328E+01  0.32181737553E+01 -0.62545176481E+01  0.74155097742E+01  0.00000000000E+00 0. -1.
</event>
<event>
 8    1  0.3776180E-010  0.9118800E+02  0.7816164E-02  0.1184000E+00
        -11   -1    0    0    0    0  0.00000000000E+00  0.00000000000E+00  0.45593999997E+02  0.45594000000E+02  0.51100000000E-03 0. -1.
         11   -1    0    0    0    0 -0.00000000000E+00 -0.00000000000E+00 -0.45593999997E+02  0.45594000000E+02  0.51100000000E-03 0.  1.
         23    2    1    2    0    0 -0.44408920985E-15  0.88817841970E-15  0.00000000000E+00  0.91188000000E+02  0.91188000000E+02 0.  0.
    9900012    2    3    3    0    0 -0.27353678455E+01  0.71766786372E+01 -0.42715764479E+02  0.47787268571E+02  0.19999988723E+02 0.  0.
         12    1    3    3    0    0  0.27353678455E+01 -0.71766786372E+01  0.42715764479E+02  0.43400731429E+02  0.00000000000E+00 0. -1.
         11    1    4    4    0    0 -0.23003860346E+01  0.85932083332E+01 -0.26670702270E+02  0.28115144766E+02  0.51100000000E-03 0. -1.
        -11    1    4    4    0    0  0.30399094142E+01  0.38796869479E+01 -0.56359732784E+01  0.74871366434E+01  0.51100000000E-03 0.  1.
         12    1    4    4    0    0 -0.34748912251E+01 -0.52962166439E+01 -0.10409088931E+02  0.12184987162E+02  0.00000000000E+00 0. -1.
</event>
<event>
 8    1  0.3776180E-010  0.9118800E+02  0.7816164E-02  0.1184000E+00
        -11   -1    0    0    0    0  0.00000000000E+00  0.00000000000E+00  0.45593999997E+02  0.45594000000E+02  0.51100000000E-03 0. -1.
         11   -1    0    0    0    0 -0.00000000000E+00 -0.00000000000E+00 -0.45593999997E+02  0.45594000000E+02  0.51100000000E-03 0.  1.
         23    2    1    2    0    0  0.00000000000E+00  0.00000000000E+00  0.00000000000E+00  0.91188000000E+02  0.91188000000E+02 0.  0.
    9900012    2    3    3    0    0  0.66983238910E+01  0.28183093418E+02  0.32318172247E+02  0.47787325409E+02  0.20000247869E+02 0.  0.
        -12    1    3    3    0    0 -0.66983238910E+01 -0.28183093418E+02 -0.32318172247E+02  0.43400674591E+02  0.00000000000E+00 0.  1.
         11    1    4    4    0    0  0.18758763962E+01  0.51039341332E+01  0.12745975721E+02  0.13857451181E+02  0.51100000000E-03 0. -1.
        -11    1    4    4    0    0  0.32931832422E+01  0.25879106314E+01  0.10807033759E+02  0.11590268169E+02  0.51100000000E-03 0.  1.
         12    1    4    4    0    0  0.15292642526E+01  0.20491248654E+02  0.87651627667E+01  0.22339606059E+02  0.00000000000E+00 0. -1.
</event>
<event>
 8    1  0.3776180E-010  0.9118800E+02  0.7816164E-02  0.1184000E+00
        -11   -1    0    0    0    0  0.00000000000E+00  0.00000000000E+00  0.45593999997E+02  0.45594000000E+02  0.51100000000E-03 0. -1.
         11   -1    0    0    0    0 -0.00000000000E+00 -0.00000000000E+00 -0.45593999997E+02  0.45594000000E+02  0.51100000000E-03 0.  1.
         23    2    1    2    0    0  0.17763568394E-14  0.00000000000E+00  0.14210854715E-13  0.91188000000E+02  0.91188000000E+02 0.  0.
    9900012    2    3    3    0    0 -0.12140998867E+02  0.87735591354E+01 -0.40733796258E+02  0.47787293198E+02  0.20000101005E+02 0.  0.
         12    1    3    3    0    0  0.12140998867E+02 -0.87735591354E+01  0.40733796258E+02  0.43400706802E+02  0.00000000000E+00 0. -1.
         11    1    4    4    0    0 -0.12232865264E+01  0.11623109449E+01 -0.10940390462E+01  0.20110490681E+01  0.51100000000E-03 0. -1.
        -11    1    4    4    0    0 -0.62672807356E+01  0.12120847736E+02 -0.35640428054E+02  0.38163252872E+02  0.51100000000E-03 0.  1.
         12    1    4    4    0    0 -0.46504316051E+01 -0.45095995456E+01 -0.39993291577E+01  0.76129912576E+01  0.00000000000E+00 0. -1.
</event>
<event>
 8    1  0.3776180E-010  0.9118800E+02  0.7816164E-02  0.1184000E+00
        -11   -1    0    0    0    0  0.00000000000E+00  0.00000000000E+00  0.45593999997E+02  0.45594000000E+02  0.51100000000E-03 0.  1.
         11   -1    0    0    0    0 -0.00000000000E+00 -0.00000000000E+00 -0.45593999997E+02  0.45594000000E+02  0.51100000000E-03 0. -1.
         23    2    1    2    0    0  0.00000000000E+00  0.00000000000E+00  0.00000000000E+00  0.91188000000E+02  0.91188000000E+02 0.  0.
    9900012    2    3    3    0    0  0.47302120798E+01  0.40387968968E+02 -0.15167736319E+02  0.47787272255E+02  0.20000005521E+02 0.  0.
        -12    1    3    3    0    0 -0.47302120798E+01 -0.40387968968E+02  0.15167736319E+02  0.43400727745E+02  0.00000000000E+00 0.  1.
         11    1    4    4    0    0  0.15483523106E+01  0.16370232746E+02  0.46611678610E+00  0.16449899093E+02  0.51100000000E-03 0. -1.
        -11    1    4    4    0    0  0.17791371261E+01 -0.70545980974E+00  0.23167355114E+00  0.19278680847E+01  0.51100000000E-03 0.  1.
         12    1    4    4    0    0  0.14027226431E+01  0.24723196032E+02 -0.15865526657E+02  0.29409505078E+02  0.00000000000E+00 0. -1.
</event>
<event>
 8    1  0.3776180E-010  0.9118800E+02  0.7816164E-02  0.1184000E+00
        -11   -1    0    0    0    0  0.00000000000E+00  0.00000000000E+00  0.45593999997E+02  0.45594000000E+02  0.51100000000E-03 0. -1.
         11   -1    0    0    0    0 -0.00000000000E+00 -0.00000000000E+00 -0.45593999997E+02  0.45594000000E+02  0.51100000000E-03 0.  1.
         23    2    1    2    0    0  0.00000000000E+00  0.44408920985E-15  0.00000000000E+00  0.91188000000E+02  0.91188000000E+02 0.  0.
    9900012    2    3    3    0    0  0.38514832375E+02  0.34371897361E+01 -0.19708275672E+02  0.47787277470E+02  0.20000029294E+02 0.  0.
         12    1    3    3    0    0 -0.38514832375E+02 -0.34371897361E+01  0.19708275672E+02  0.43400722530E+02  0.00000000000E+00 0. -1.
         11    1    4    4    0    0  0.12304114525E+02  0.47636590025E+01 -0.91250808967E+01  0.16042156431E+02  0.51100000000E-03 0. -1.
        -11    1    4    4    0    0  0.12116158239E+02 -0.37059751838E+01 -0.11910623721E+02  0.17389608972E+02  0.51100000000E-03 0.  1.
         12    1    4    4    0    0  0.14094559612E+02  0.23795059174E+01  0.13274289455E+01  0.14355512066E+02  0.00000000000E+00 0. -1.
</event>
<event>
 8    1  0.3776180E-010  0.9118800E+02  0.7816164E-02  0.1184000E+00
        -11   -1    0    0    0    0  0.00000000000E+00  0.00000000000E+00  0.45593999997E+02  0.45594000000E+02  0.51100000000E-03 0. -1.
         11   -1    0    0    0    0 -0.00000000000E+00 -0.00000000000E+00 -0.45593999997E+02  0.45594000000E+02  0.51100000000E-03 0.  1.
         23    2    1    2    0    0  0.00000000000E+00 -0.35527136788E-14  0.00000000000E+00  0.91188000000E+02  0.91188000000E+02 0.  0.
    9900012    2    3    3    0    0 -0.46112547196E+01  0.26458145449E+02 -0.34092899916E+02  0.47787274714E+02  0.20000016729E+02 0.  0.
         12    1    3    3    0    0  0.46112547196E+01 -0.26458145449E+02  0.34092899916E+02  0.43400725286E+02  0.00000000000E+00 0. -1.
         11    1    4    4    0    0 -0.82967686833E+01  0.10494148936E+02 -0.69588940183E+01  0.15079447560E+02  0.51100000000E-03 0. -1.
        -11    1    4    4    0    0  0.43499505086E+01  0.33253632207E+01 -0.64680961488E+01  0.84744544384E+01  0.51100000000E-03 0.  1.
        -12    1    4    4    0    0 -0.66443654490E+00  0.12638633292E+02 -0.20665909749E+02  0.24233372716E+02  0.00000000000E+00 0.  1.
</event>
<event>
 8    1  0.3776180E-010  0.9118800E+02  0.7816164E-02  0.1184000E+00
        -11   -1    0    0    0    0  0.00000000000E+00  0.00000000000E+00  0.45593999997E+02  0.45594000000E+02  0.51100000000E-03 0. -1.
         11   -1    0    0    0    0 -0.00000000000E+00 -0.00000000000E+00 -0.45593999997E+02  0.45594000000E+02  0.51100000000E-03 0.  1.
         23    2    1    2    0    0  0.00000000000E+00  0.71054273576E-14  0.00000000000E+00  0.91188000000E+02  0.91188000000E+02 0.  0.
    9900012    2    3    3    0    0 -0.85163936314E+01 -0.37390187660E+02  0.20324072480E+02  0.47787274016E+02  0.20000013548E+02 0.  0.
        -12    1    3    3    0    0  0.85163936314E+01  0.37390187660E+02 -0.20324072480E+02  0.43400725984E+02  0.00000000000E+00 0.  1.
         11    1    4    4    0    0 -0.22060061591E+01 -0.34537241433E+02  0.13708726191E+02  0.37223872488E+02  0.51100000000E-03 0. -1.
        -11    1    4    4    0    0 -0.15639692902E+01 -0.78402987934E+00 -0.44764430913E+00  0.18058484103E+01  0.51100000000E-03 0.  1.
         12    1    4    4    0    0 -0.47464181822E+01 -0.20689163486E+01  0.70629905983E+01  0.87575531177E+01  0.00000000000E+00 0. -1.
</event>
<event>
 8    1  0.3776180E-010  0.9118800E+02  0.7816164E-02  0.1184000E+00
        -11   -1    0    0    0    0  0.00000000000E+00  0.00000000000E+00  0.45593999997E+02  0.45594000000E+02  0.51100000000E-03 0. -1.
         11   -1    0    0    0    0 -0.00000000000E+00 -0.00000000000E+00 -0.45593999997E+02  0.45594000000E+02  0.51100000000E-03 0.  1.
         23    2    1    2    0    0  0.00000000000E+00  0.35527136788E-14  0.35527136788E-14  0.91188000000E+02  0.91188000000E+02 0.  0.
    9900012    2    3    3    0    0 -0.24327372943E+01  0.31057902696E+02  0.30217744477E+02  0.47787267150E+02  0.19999982245E+02 0.  0.
        -12    1    3    3    0    0  0.24327372943E+01 -0.31057902696E+02 -0.30217744477E+02  0.43400732850E+02  0.00000000000E+00 0.  1.
         11    1    4    4    0    0  0.59836804416E-01  0.55222767440E+01  0.17021308681E+00  0.55252234015E+01  0.51100000000E-03 0. -1.
        -11    1    4    4    0    0 -0.10822887129E+01 -0.15467651772E+01  0.50042322511E+01  0.53484738061E+01  0.51100000000E-03 0.  1.
         12    1    4    4    0    0 -0.14102853858E+01  0.27082391130E+02  0.25043299139E+02  0.36913569943E+02  0.00000000000E+00 0. -1.
</event>
<event>
 8    1  0.3776180E-010  0.9118800E+02  0.7816164E-02  0.1184000E+00
        -11   -1    0    0    0    0  0.00000000000E+00  0.00000000000E+00  0.45593999997E+02  0.45594000000E+02  0.51100000000E-03 0.  1.
         11   -1    0    0    0    0 -0.00000000000E+00 -0.00000000000E+00 -0.45593999997E+02  0.45594000000E+02  0.51100000000E-03 0. -1.
         23    2    1    2    0    0 -0.35527136788E-14  0.00000000000E+00  0.17763568394E-14  0.91188000000E+02  0.91188000000E+02 0.  0.
    9900012    2    3    3    0    0  0.19525920787E+02 -0.36666019050E+02 -0.12568393550E+02  0.47787273601E+02  0.20000011655E+02 0.  0.
        -12    1    3    3    0    0 -0.19525920787E+02  0.36666019050E+02  0.12568393550E+02  0.43400726399E+02  0.00000000000E+00 0.  1.
         11    1    4    4    0    0  0.31158854462E+01 -0.87295432081E+01 -0.43434244985E+01  0.10236161555E+02  0.51100000000E-03 0. -1.
        -11    1    4    4    0    0 -0.12409678204E+01  0.15752664232E+01  0.51473577149E+00  0.20703667817E+01  0.51100000000E-03 0.  1.
        -12    1    4    4    0    0  0.17651003161E+02 -0.29511742265E+02 -0.87397048230E+01  0.35480745264E+02  0.00000000000E+00 0.  1.
</event>
<event>
 8    1  0.3776180E-010  0.9118800E+02  0.7816164E-02  0.1184000E+00
        -11   -1    0    0    0    0  0.00000000000E+00  0.00000000000E+00  0.45593999997E+02  0.45594000000E+02  0.51100000000E-03 0. -1.
         11   -1    0    0    0    0 -0.00000000000E+00 -0.00000000000E+00 -0.45593999997E+02  0.45594000000E+02  0.51100000000E-03 0.  1.
         23    2    1    2    0    0  0.00000000000E+00  0.00000000000E+00  0.00000000000E+00  0.91188000000E+02  0.91188000000E+02 0.  0.
    9900012    2    3    3    0    0  0.17083649448E+02 -0.33591193293E+01 -0.39755357637E+02  0.47787271642E+02  0.20000002726E+02 0.  0.
         12    1    3    3    0    0 -0.17083649448E+02  0.33591193293E+01  0.39755357637E+02  0.43400728358E+02  0.00000000000E+00 0. -1.
         11    1    4    4    0    0  0.15718795090E+02  0.30346140105E+01 -0.31002832930E+02  0.34892191838E+02  0.51100000000E-03 0. -1.
        -11    1    4    4    0    0  0.18640656769E+01 -0.38553156213E+01 -0.93109007434E+01  0.10248466827E+02  0.51100000000E-03 0.  1.
         12    1    4    4    0    0 -0.49921131890E+00 -0.25384177185E+01  0.55837603696E+00  0.26466129776E+01  0.00000000000E+00 0. -1.
</event>
<event>
 8    1  0.3776180E-010  0.9118800E+02  0.7816164E-02  0.1184000E+00
        -11   -1    0    0    0    0  0.00000000000E+00  0.00000000000E+00  0.45593999997E+02  0.45594000000E+02  0.51100000000E-03 0. -1.
         11   -1    0    0    0    0 -0.00000000000E+00 -0.00000000000E+00 -0.45593999997E+02  0.45594000000E+02  0.51100000000E-03 0.  1.
         23    2    1    2    0    0  0.00000000000E+00  0.71054273576E-14 -0.71054273576E-14  0.91188000000E+02  0.91188000000E+02 0.  0.
    9900012    2    3    3    0    0  0.32380937030E+01  0.24539781201E+02 -0.35650204558E+02  0.47787271928E+02  0.20000004027E+02 0.  0.
         12    1    3    3    0    0 -0.32380937030E+01 -0.24539781201E+02  0.35650204558E+02  0.43400728072E+02  0.00000000000E+00 0. -1.
         11    1    4    4    0    0  0.11373021414E+01  0.11476577519E+02 -0.10498362127E+02  0.15595540879E+02  0.51100000000E-03 0.  1.
        -11    1    4    4    0    0  0.46941211971E+01  0.15557289020E+02 -0.18455973725E+02  0.24590383931E+02  0.51100000000E-03 0. -1.
        -12    1    4    4    0    0 -0.25933296356E+01 -0.24940853383E+01 -0.66958687055E+01  0.76013471171E+01  0.00000000000E+00 0.  1.
</event>
<event>
 8    1  0.3776180E-010  0.9118800E+02  0.7816164E-02  0.1184000E+00
        -11   -1    0    0    0    0  0.00000000000E+00  0.00000000000E+00  0.45593999997E+02  0.45594000000E+02  0.51100000000E-03 0. -1.
         11   -1    0    0    0    0 -0.00000000000E+00 -0.00000000000E+00 -0.45593999997E+02  0.45594000000E+02  0.51100000000E-03 0.  1.
         23    2    1    2    0    0  0.00000000000E+00  0.00000000000E+00 -0.88817841970E-15  0.91188000000E+02  0.91188000000E+02 0.  0.
    9900012    2    3    3    0    0 -0.39808627299E+02 -0.16464719023E+02 -0.52734550776E+01  0.47787272951E+02  0.20000008695E+02 0.  0.
         12    1    3    3    0    0  0.39808627299E+02  0.16464719023E+02  0.52734550776E+01  0.43400727049E+02  0.00000000000E+00 0. -1.
         11    1    4    4    0    0 -0.91412159133E+01  0.13093288475E+01 -0.67087151067E+01  0.11414159148E+02  0.51100000000E-03 0. -1.
        -11    1    4    4    0    0 -0.57390336593E+01 -0.44089356712E+01 -0.28250289035E+01  0.77689130296E+01  0.51100000000E-03 0.  1.
        -12    1    4    4    0    0 -0.24928377726E+02 -0.13365112199E+02  0.42602889327E+01  0.28604200774E+02  0.00000000000E+00 0.  1.
</event>
<event>
 8    1  0.3776180E-010  0.9118800E+02  0.7816164E-02  0.1184000E+00
        -11   -1    0    0    0    0  0.00000000000E+00  0.00000000000E+00  0.45593999997E+02  0.45594000000E+02  0.51100000000E-03 0. -1.
         11   -1    0    0    0    0 -0.00000000000E+00 -0.00000000000E+00 -0.45593999997E+02  0.45594000000E+02  0.51100000000E-03 0.  1.
         23    2    1    2    0    0  0.44408920985E-15  0.35527136788E-14 -0.71054273576E-14  0.91188000000E+02  0.91188000000E+02 0.  0.
    9900012    2    3    3    0    0 -0.27182849652E+01 -0.25158397577E+02  0.35260309780E+02  0.47787268583E+02  0.19999988776E+02 0.  0.
        -12    1    3    3    0    0  0.27182849652E+01  0.25158397577E+02 -0.35260309780E+02  0.43400731417E+02  0.00000000000E+00 0.  1.
         11    1    4    4    0    0 -0.17367029567E+01 -0.14188024488E+02  0.13434785310E+02  0.19616565261E+02  0.51100000000E-03 0. -1.
        -11    1    4    4    0    0 -0.65572234182E+01 -0.84049530989E+01  0.89963718330E+01  0.13949018674E+02  0.51100000000E-03 0.  1.
        -12    1    4    4    0    0  0.55756414097E+01 -0.25654199898E+01  0.12829152637E+02  0.14221684648E+02  0.00000000000E+00 0.  1.
</event>
<event>
 8    1  0.3776180E-010  0.9118800E+02  0.7816164E-02  0.1184000E+00
        -11   -1    0    0    0    0  0.00000000000E+00  0.00000000000E+00  0.45593999997E+02  0.45594000000E+02  0.51100000000E-03 0.  1.
         11   -1    0    0    0    0 -0.00000000000E+00 -0.00000000000E+00 -0.45593999997E+02  0.45594000000E+02  0.51100000000E-03 0. -1.
         23    2    1    2    0    0  0.00000000000E+00  0.00000000000E+00  0.00000000000E+00  0.91188000000E+02  0.91188000000E+02 0.  0.
    9900012    2    3    3    0    0  0.36932595322E+02  0.50720478227E+01  0.22223434816E+02  0.47787270498E+02  0.19999997507E+02 0.  0.
        -12    1    3    3    0    0 -0.36932595322E+02 -0.50720478227E+01 -0.22223434816E+02  0.43400729502E+02  0.00000000000E+00 0.  1.
         11    1    4    4    0    0  0.17020166328E+02  0.11108846105E+01  0.10989583800E+02  0.20290171976E+02  0.51100000000E-03 0. -1.
        -11    1    4    4    0    0  0.15739818197E+02  0.70141029157E+01  0.13462213129E+02  0.21867114560E+02  0.51100000000E-03 0.  1.
         12    1    4    4    0    0  0.41726107966E+01 -0.30529397035E+01 -0.22283621137E+01  0.56299839612E+01  0.00000000000E+00 0. -1.
</event>
<event>
 8    1  0.3776180E-010  0.9118800E+02  0.7816164E-02  0.1184000E+00
        -11   -1    0    0    0    0  0.00000000000E+00  0.00000000000E+00  0.45593999997E+02  0.45594000000E+02  0.51100000000E-03 0. -1.
         11   -1    0    0    0    0 -0.00000000000E+00 -0.00000000000E+00 -0.45593999997E+02  0.45594000000E+02  0.51100000000E-03 0.  1.
         23    2    1    2    0    0  0.00000000000E+00  0.11102230246E-14  0.71054273576E-14  0.91188000000E+02  0.91188000000E+02 0.  0.
    9900012    2    3    3    0    0  0.24448412379E+02 -0.13691210671E+01  0.35833282265E+02  0.47787268690E+02  0.19999989266E+02 0.  0.
        -12    1    3    3    0    0 -0.24448412379E+02  0.13691210671E+01 -0.35833282265E+02  0.43400731310E+02  0.00000000000E+00 0.  1.
         11    1    4    4    0    0  0.59744341656E+01  0.73458769941E+01  0.93372690163E+01  0.13298133905E+02  0.51100000000E-03 0. -1.
        -11    1    4    4    0    0  0.10830378806E+02 -0.47923673285E+00  0.12820202791E+02  0.16789412520E+02  0.51100000000E-03 0.  1.
        -12    1    4    4    0    0  0.76435994074E+01 -0.82357613284E+01  0.13675810458E+02  0.17699722265E+02  0.00000000000E+00 0.  1.
</event>
<event>
 8    1  0.3776180E-010  0.9118800E+02  0.7816164E-02  0.1184000E+00
        -11   -1    0    0    0    0  0.00000000000E+00  0.00000000000E+00  0.45593999997E+02  0.45594000000E+02  0.51100000000E-03 0. -1.
         11   -1    0    0    0    0 -0.00000000000E+00 -0.00000000000E+00 -0.45593999997E+02  0.45594000000E+02  0.51100000000E-03 0.  1.
         23    2    1    2    0    0  0.00000000000E+00  0.24424906542E-14  0.35527136788E-14  0.91188000000E+02  0.91188000000E+02 0.  0.
    9900012    2    3    3    0    0 -0.35898373222E+02  0.15701424430E+01 -0.24340595467E+02  0.47787272645E+02  0.20000007297E+02 0.  0.
         12    1    3    3    0    0  0.35898373222E+02 -0.15701424430E+01  0.24340595467E+02  0.43400727355E+02  0.00000000000E+00 0. -1.
         11    1    4    4    0    0 -0.11803692033E+02  0.95073279440E+01 -0.12718814004E+02  0.19785971297E+02  0.51100000000E-03 0. -1.
        -11    1    4    4    0    0 -0.12369842110E+01 -0.11763455461E+00 -0.10677551879E+01  0.16383129216E+01  0.51100000000E-03 0.  1.
        -12    1    4    4    0    0 -0.22857696978E+02 -0.78195509464E+01 -0.10554026275E+02  0.26362988426E+02  0.00000000000E+00 0.  1.
</event>
<event>
 8    1  0.3776180E-010  0.9118800E+02  0.7816164E-02  0.1184000E+00
        -11   -1    0    0    0    0  0.00000000000E+00  0.00000000000E+00  0.45593999997E+02  0.45594000000E+02  0.51100000000E-03 0. -1.
         11   -1    0    0    0    0 -0.00000000000E+00 -0.00000000000E+00 -0.45593999997E+02  0.45594000000E+02  0.51100000000E-03 0.  1.
         23    2    1    2    0    0  0.00000000000E+00  0.00000000000E+00  0.00000000000E+00  0.91188000000E+02  0.91188000000E+02 0.  0.
    9900012    2    3    3    0    0  0.18012484157E+01  0.28425552085E+02 -0.32747022535E+02  0.47787262770E+02  0.19999962273E+02 0.  0.
         12    1    3    3    0    0 -0.18012484157E+01 -0.28425552085E+02  0.32747022535E+02  0.43400737230E+02  0.00000000000E+00 0. -1.
         11    1    4    4    0    0  0.14777874212E+00  0.24868933981E+01 -0.57148006826E+01  0.62342140189E+01  0.51100000000E-03 0. -1.
        -11    1    4    4    0    0  0.79112342528E+00  0.34328672684E+01 -0.16167982942E+02  0.16547329895E+02  0.51100000000E-03 0.  1.
         12    1    4    4    0    0  0.86234624829E+00  0.22505791419E+02 -0.10864238910E+02  0.25005718856E+02  0.00000000000E+00 0. -1.
</event>
<event>
 8    1  0.3776180E-010  0.9118800E+02  0.7816164E-02  0.1184000E+00
        -11   -1    0    0    0    0  0.00000000000E+00  0.00000000000E+00  0.45593999997E+02  0.45594000000E+02  0.51100000000E-03 0. -1.
         11   -1    0    0    0    0 -0.00000000000E+00 -0.00000000000E+00 -0.45593999997E+02  0.45594000000E+02  0.51100000000E-03 0.  1.
         23    2    1    2    0    0  0.00000000000E+00  0.17763568394E-14  0.00000000000E+00  0.91188000000E+02  0.91188000000E+02 0.  0.
    9900012    2    3    3    0    0 -0.31209919237E+01 -0.91191613570E+01  0.42316941772E+02  0.47787271257E+02  0.20000000970E+02 0.  0.
        -12    1    3    3    0    0  0.31209919237E+01  0.91191613570E+01 -0.42316941772E+02  0.43400728743E+02  0.00000000000E+00 0.  1.
         11    1    4    4    0    0  0.88802004686E+00 -0.14649955143E+02  0.27979634343E+02  0.31595406367E+02  0.51100000000E-03 0. -1.
        -11    1    4    4    0    0 -0.10655877375E+01  0.12144470986E+01  0.70035846613E+01  0.71875279026E+01  0.51100000000E-03 0.  1.
        -12    1    4    4    0    0 -0.29434242330E+01  0.43163466872E+01  0.73337227680E+01  0.90043369871E+01  0.00000000000E+00 0.  1.
</event>
<event>
 8    1  0.3776180E-010  0.9118800E+02  0.7816164E-02  0.1184000E+00
        -11   -1    0    0    0    0  0.00000000000E+00  0.00000000000E+00  0.45593999997E+02  0.45594000000E+02  0.51100000000E-03 0. -1.
         11   -1    0    0    0    0 -0.00000000000E+00 -0.00000000000E+00 -0.45593999997E+02  0.45594000000E+02  0.51100000000E-03 0.  1.
         23    2    1    2    0    0  0.00000000000E+00  0.35527136788E-14  0.00000000000E+00  0.91188000000E+02  0.91188000000E+02 0.  0.
    9900012    2    3    3    0    0  0.36126842480E+02 -0.20682150705E+02 -0.12276920075E+02  0.47787275676E+02  0.20000021117E+02 0.  0.
         12    1    3    3    0    0 -0.36126842480E+02  0.20682150705E+02  0.12276920075E+02  0.43400724324E+02  0.00000000000E+00 0. -1.
         11    1    4    4    0    0  0.90472293322E+01 -0.11268357790E+02 -0.73355094241E+01  0.16206108251E+02  0.51100000000E-03 0. -1.
        -11    1    4    4    0    0  0.23547651110E+02 -0.11608143545E+02 -0.66550676401E+01  0.27083773646E+02  0.51100000000E-03 0.  1.
         12    1    4    4    0    0  0.35319620371E+01  0.21943506300E+01  0.17136569894E+01  0.44973937782E+01  0.00000000000E+00 0. -1.
</event>
<event>
 8    1  0.3776180E-010  0.9118800E+02  0.7816164E-02  0.1184000E+00
        -11   -1    0    0    0    0  0.00000000000E+00  0.00000000000E+00  0.45593999997E+02  0.45594000000E+02  0.51100000000E-03 0. -1.
         11   -1    0    0    0    0 -0.00000000000E+00 -0.00000000000E+00 -0.45593999997E+02  0.45594000000E+02  0.51100000000E-03 0.  1.
         23    2    1    2    0    0  0.00000000000E+00  0.17763568394E-14  0.00000000000E+00  0.91188000000E+02  0.91188000000E+02 0.  0.
    9900012    2    3    3    0    0  0.23145681109E+02  0.11896866094E+02  0.34732775456E+02  0.47787266507E+02  0.19999979313E+02 0.  0.
        -12    1    3    3    0    0 -0.23145681109E+02 -0.11896866094E+02 -0.34732775456E+02  0.43400733493E+02  0.00000000000E+00 0.  1.
         11    1    4    4    0    0  0.58263384266E+01  0.59675070795E+01  0.68766122356E+00  0.83684071618E+01  0.51100000000E-03 0. -1.
        -11    1    4    4    0    0  0.14945835166E+01  0.18491996283E+01  0.10516744919E+01  0.25998728145E+01  0.51100000000E-03 0.  1.
        -12    1    4    4    0    0  0.15824759165E+02  0.40801593864E+01  0.32993439740E+02  0.36818986531E+02  0.00000000000E+00 0.  1.
</event>
<event>
 8    1  0.4661188E-010  0.9118800E+02  0.7816164E-02  0.1184000E+00
        -11   -1    0    0    0    0  0.00000000000E+00  0.00000000000E+00  0.45593999997E+02  0.45594000000E+02  0.51100000000E-03 0. -1.
         11   -1    0    0    0    0 -0.00000000000E+00 -0.00000000000E+00 -0.45593999997E+02  0.45594000000E+02  0.51100000000E-03 0.  1.
         23    2    1    2    0    0  0.00000000000E+00  0.00000000000E+00 -0.35527136788E-14  0.91188000000E+02  0.91188000000E+02 0.  0.
    9900012    2    3    3    0    0 -0.24697738478E+02  0.16780972916E+02  0.31496730561E+02  0.47787269892E+02  0.19999994745E+02 0.  0.
        -12    1    3    3    0    0  0.24697738478E+02 -0.16780972916E+02 -0.31496730561E+02  0.43400730108E+02  0.00000000000E+00 0.  1.
         11    1    4    4    0    0 -0.17653813326E+02  0.11116246726E+02  0.15130571073E+02  0.25771345473E+02  0.51100000000E-03 0. -1.
        -11    1    4    4    0    0 -0.74207250390E+01  0.63274278601E+01  0.17854218644E+02  0.20343957999E+02  0.51100000000E-03 0.  1.
        -12    1    4    4    0    0  0.37679988735E+00 -0.66270167025E+00 -0.14880591558E+01  0.16719664202E+01  0.00000000000E+00 0.  1.
</event>
<event>
 8    1  0.3776180E-010  0.9118800E+02  0.7816164E-02  0.1184000E+00
        -11   -1    0    0    0    0  0.00000000000E+00  0.00000000000E+00  0.45593999997E+02  0.45594000000E+02  0.51100000000E-03 0. -1.
         11   -1    0    0    0    0 -0.00000000000E+00 -0.00000000000E+00 -0.45593999997E+02  0.45594000000E+02  0.51100000000E-03 0.  1.
         23    2    1    2    0    0 -0.17763568394E-14  0.71054273576E-14  0.00000000000E+00  0.91188000000E+02  0.91188000000E+02 0.  0.
    9900012    2    3    3    0    0  0.10675381929E+02  0.35274164470E+02  0.22921447914E+02  0.47787271517E+02  0.20000002153E+02 0.  0.
        -12    1    3    3    0    0 -0.10675381929E+02 -0.35274164470E+02 -0.22921447914E+02  0.43400728483E+02  0.00000000000E+00 0.  1.
         11    1    4    4    0    0  0.38234436037E+01  0.14560093903E+02  0.11322633069E+02  0.18836588739E+02  0.51100000000E-03 0. -1.
        -11    1    4    4    0    0  0.33804955915E+01  0.19743411814E+02  0.38400674967E+01  0.20395494089E+02  0.51100000000E-03 0.  1.
         12    1    4    4    0    0  0.34714427340E+01  0.97065875304E+00  0.77587473483E+01  0.85551886879E+01  0.00000000000E+00 0. -1.
</event>
<event>
 8    1  0.3776180E-010  0.9118800E+02  0.7816164E-02  0.1184000E+00
        -11   -1    0    0    0    0  0.00000000000E+00  0.00000000000E+00  0.45593999997E+02  0.45594000000E+02  0.51100000000E-03 0. -1.
         11   -1    0    0    0    0 -0.00000000000E+00 -0.00000000000E+00 -0.45593999997E+02  0.45594000000E+02  0.51100000000E-03 0.  1.
         23    2    1    2    0    0 -0.35527136788E-14  0.71054273576E-14  0.17763568394E-14  0.91188000000E+02  0.91188000000E+02 0.  0.
    9900012    2    3    3    0    0 -0.21739925126E+02  0.34895997026E+02  0.13902103148E+02  0.47787269305E+02  0.19999992068E+02 0.  0.
        -12    1    3    3    0    0  0.21739925126E+02 -0.34895997026E+02 -0.13902103148E+02  0.43400730695E+02  0.00000000000E+00 0.  1.
         11    1    4    4    0    0 -0.13240956309E+02  0.21599524341E+02  0.10148020767E+02  0.27291843131E+02  0.51100000000E-03 0. -1.
        -11    1    4    4    0    0  0.29194007658E+01  0.48187508686E+01 -0.48671468741E+00  0.56550996643E+01  0.51100000000E-03 0.  1.
         12    1    4    4    0    0 -0.11418369583E+02  0.84777218161E+01  0.42407970688E+01  0.14840326509E+02  0.00000000000E+00 0. -1.
</event>
<event>
 8    1  0.3776180E-010  0.9118800E+02  0.7816164E-02  0.1184000E+00
        -11   -1    0    0    0    0  0.00000000000E+00  0.00000000000E+00  0.45593999997E+02  0.45594000000E+02  0.51100000000E-03 0. -1.
         11   -1    0    0    0    0 -0.00000000000E+00 -0.00000000000E+00 -0.45593999997E+02  0.45594000000E+02  0.51100000000E-03 0.  1.
         23    2    1    2    0    0  0.35527136788E-14 -0.44408920985E-15 -0.71054273576E-14  0.91188000000E+02  0.91188000000E+02 0.  0.
    9900012    2    3    3    0    0  0.20775625798E+02  0.23928213075E+01  0.38029838031E+02  0.47787299525E+02  0.20000129853E+02 0.  0.
        -12    1    3    3    0    0 -0.20775625798E+02 -0.23928213075E+01 -0.38029838031E+02  0.43400700475E+02  0.00000000000E+00 0.  1.
         11    1    4    4    0    0  0.56591419484E+00  0.51015826950E+00  0.45002760429E+01  0.45643186852E+01  0.51100000000E-03 0. -1.
        -11    1    4    4    0    0  0.18432708250E+02  0.58197266011E+00  0.35667876027E+02  0.40153465681E+02  0.51100000000E-03 0.  1.
        -12    1    4    4    0    0  0.17770033534E+01  0.13006903779E+01 -0.21383140399E+01  0.30695151588E+01  0.00000000000E+00 0.  1.
</event>
<event>
 8    1  0.3776180E-010  0.9118800E+02  0.7816164E-02  0.1184000E+00
        -11   -1    0    0    0    0  0.00000000000E+00  0.00000000000E+00  0.45593999997E+02  0.45594000000E+02  0.51100000000E-03 0. -1.
         11   -1    0    0    0    0 -0.00000000000E+00 -0.00000000000E+00 -0.45593999997E+02  0.45594000000E+02  0.51100000000E-03 0.  1.
         23    2    1    2    0    0  0.00000000000E+00  0.00000000000E+00  0.00000000000E+00  0.91188000000E+02  0.91188000000E+02 0.  0.
    9900012    2    3    3    0    0 -0.15599256757E+02 -0.14166630723E+02  0.37941969363E+02  0.47787271014E+02  0.19999999860E+02 0.  0.
        -12    1    3    3    0    0  0.15599256757E+02  0.14166630723E+02 -0.37941969363E+02  0.43400728986E+02  0.00000000000E+00 0.  1.
         11    1    4    4    0    0 -0.43413203134E+01  0.17888217379E+01  0.46418364538E+01  0.66025442973E+01  0.51100000000E-03 0. -1.
        -11    1    4    4    0    0  0.30463440577E+01 -0.27247070340E+01  0.26689013729E+01  0.48813190163E+01  0.51100000000E-03 0.  1.
        -12    1    4    4    0    0 -0.14304280501E+02 -0.13230745427E+02  0.30631231536E+02  0.36303407700E+02  0.00000000000E+00 0.  1.
</event>
<event>
 8    1  0.3776180E-010  0.9118800E+02  0.7816164E-02  0.1184000E+00
        -11   -1    0    0    0    0  0.00000000000E+00  0.00000000000E+00  0.45593999997E+02  0.45594000000E+02  0.51100000000E-03 0. -1.
         11   -1    0    0    0    0 -0.00000000000E+00 -0.00000000000E+00 -0.45593999997E+02  0.45594000000E+02  0.51100000000E-03 0.  1.
         23    2    1    2    0    0  0.00000000000E+00  0.13877787808E-15  0.00000000000E+00  0.91188000000E+02  0.91188000000E+02 0.  0.
    9900012    2    3    3    0    0  0.19390955686E+02 -0.17087892822E+00  0.38827624663E+02  0.47787276515E+02  0.20000024945E+02 0.  0.
        -12    1    3    3    0    0 -0.19390955686E+02  0.17087892822E+00 -0.38827624663E+02  0.43400723485E+02  0.00000000000E+00 0.  1.
         11    1    4    4    0    0  0.16403001671E+00 -0.11144467686E+01  0.10298007665E+02  0.10359433362E+02  0.51100000000E-03 0. -1.
        -11    1    4    4    0    0  0.49436077019E+01 -0.46921101701E+01  0.26040550329E+01  0.72963181012E+01  0.51100000000E-03 0.  1.
         12    1    4    4    0    0  0.14283317967E+02  0.56356780105E+01  0.25925561965E+02  0.30131525052E+02  0.00000000000E+00 0. -1.
</event>
<event>
 8    1  0.3776180E-010  0.9118800E+02  0.7816164E-02  0.1184000E+00
        -11   -1    0    0    0    0  0.00000000000E+00  0.00000000000E+00  0.45593999997E+02  0.45594000000E+02  0.51100000000E-03 0. -1.
         11   -1    0    0    0    0 -0.00000000000E+00 -0.00000000000E+00 -0.45593999997E+02  0.45594000000E+02  0.51100000000E-03 0.  1.
         23    2    1    2    0    0  0.00000000000E+00  0.00000000000E+00 -0.71054273576E-14  0.91188000000E+02  0.91188000000E+02 0.  0.
    9900012    2    3    3    0    0  0.59976210982E+01 -0.28694915556E+02  0.32003960147E+02  0.47787273017E+02  0.20000008992E+02 0.  0.
        -12    1    3    3    0    0 -0.59976210982E+01  0.28694915556E+02 -0.32003960147E+02  0.43400726983E+02  0.00000000000E+00 0.  1.
         11    1    4    4    0    0  0.26115855530E+01 -0.12372234948E+02  0.21686035657E+02  0.25103320886E+02  0.51100000000E-03 0. -1.
        -11    1    4    4    0    0  0.29150733083E+01 -0.60154496020E+01  0.10403131886E+02  0.12365615213E+02  0.51100000000E-03 0.  1.
        -12    1    4    4    0    0  0.47096223688E+00 -0.10307231006E+02 -0.85207396408E-01  0.10318336918E+02  0.00000000000E+00 0.  1.
</event>
<event>
 8    1  0.3776180E-010  0.9118800E+02  0.7816164E-02  0.1184000E+00
        -11   -1    0    0    0    0  0.00000000000E+00  0.00000000000E+00  0.45593999997E+02  0.45594000000E+02  0.51100000000E-03 0. -1.
         11   -1    0    0    0    0 -0.00000000000E+00 -0.00000000000E+00 -0.45593999997E+02  0.45594000000E+02  0.51100000000E-03 0.  1.
         23    2    1    2    0    0  0.00000000000E+00  0.00000000000E+00  0.35527136788E-14  0.91188000000E+02  0.91188000000E+02 0.  0.
    9900012    2    3    3    0    0  0.33746571605E+02  0.44102672637E+01 -0.26932163838E+02  0.47787274183E+02  0.20000014310E+02 0.  0.
         12    1    3    3    0    0 -0.33746571605E+02 -0.44102672637E+01  0.26932163838E+02  0.43400725817E+02  0.00000000000E+00 0. -1.
         11    1    4    4    0    0  0.56238873942E+01  0.56702122573E+00 -0.60958334884E+01  0.83131707953E+01  0.51100000000E-03 0. -1.
        -11    1    4    4    0    0  0.29594663889E+02  0.62481730835E+00 -0.16543405800E+02  0.33910452712E+02  0.51100000000E-03 0.  1.
         12    1    4    4    0    0 -0.14719796779E+01  0.32184287296E+01 -0.42929245493E+01  0.55636506761E+01  0.00000000000E+00 0. -1.
</event>
<event>
 8    1  0.3776180E-010  0.9118800E+02  0.7816164E-02  0.1184000E+00
        -11   -1    0    0    0    0  0.00000000000E+00  0.00000000000E+00  0.45593999997E+02  0.45594000000E+02  0.51100000000E-03 0. -1.
         11   -1    0    0    0    0 -0.00000000000E+00 -0.00000000000E+00 -0.45593999997E+02  0.45594000000E+02  0.51100000000E-03 0.  1.
         23    2    1    2    0    0  0.22204460493E-15 -0.17763568394E-14  0.71054273576E-14  0.91188000000E+02  0.91188000000E+02 0.  0.
    9900012    2    3    3    0    0 -0.12149453482E+01 -0.12612132999E+02  0.41510012212E+02  0.47787272992E+02  0.20000008880E+02 0.  0.
        -12    1    3    3    0    0  0.12149453482E+01  0.12612132999E+02 -0.41510012212E+02  0.43400727008E+02  0.00000000000E+00 0.  1.
         11    1    4    4    0    0  0.20427945945E+01 -0.13020599856E+01  0.95958695644E+00  0.26056049872E+01  0.51100000000E-03 0. -1.
        -11    1    4    4    0    0  0.10353004261E+01 -0.60008938161E-02 -0.12755858298E+01  0.16428641007E+01  0.51100000000E-03 0.  1.
         12    1    4    4    0    0 -0.42930403688E+01 -0.11304072120E+02  0.41826011085E+02  0.43538803904E+02  0.00000000000E+00 0. -1.
</event>
<event>
 8    1  0.3776180E-010  0.9118800E+02  0.7816164E-02  0.1184000E+00
        -11   -1    0    0    0    0  0.00000000000E+00  0.00000000000E+00  0.45593999997E+02  0.45594000000E+02  0.51100000000E-03 0. -1.
         11   -1    0    0    0    0 -0.00000000000E+00 -0.00000000000E+00 -0.45593999997E+02  0.45594000000E+02  0.51100000000E-03 0.  1.
         23    2    1    2    0    0 -0.17763568394E-14  0.00000000000E+00  0.00000000000E+00  0.91188000000E+02  0.91188000000E+02 0.  0.
    9900012    2    3    3    0    0  0.13098416650E+02  0.36276787965E+02  0.19900980416E+02  0.47787275521E+02  0.20000020410E+02 0.  0.
        -12    1    3    3    0    0 -0.13098416650E+02 -0.36276787965E+02 -0.19900980416E+02  0.43400724479E+02  0.00000000000E+00 0.  1.
         11    1    4    4    0    0  0.26544209085E+01  0.89898039678E+01  0.18906720280E+01  0.95622783226E+01  0.51100000000E-03 0.  1.
        -11    1    4    4    0    0  0.14727251706E+01  0.67214760370E+01 -0.29815138646E+01  0.74991055954E+01  0.51100000000E-03 0. -1.
         12    1    4    4    0    0  0.89712705703E+01  0.20565507960E+02  0.20991822253E+02  0.30725891603E+02  0.00000000000E+00 0. -1.
</event>
<event>
 8    1  0.3776180E-010  0.9118800E+02  0.7816164E-02  0.1184000E+00
        -11   -1    0    0    0    0  0.00000000000E+00  0.00000000000E+00  0.45593999997E+02  0.45594000000E+02  0.51100000000E-03 0. -1.
         11   -1    0    0    0    0 -0.00000000000E+00 -0.00000000000E+00 -0.45593999997E+02  0.45594000000E+02  0.51100000000E-03 0.  1.
         23    2    1    2    0    0 -0.35527136788E-14  0.11102230246E-15 -0.71054273576E-14  0.91188000000E+02  0.91188000000E+02 0.  0.
    9900012    2    3    3    0    0  0.22205092320E+02 -0.31370037920E-01  0.37290161896E+02  0.47787270937E+02  0.19999999509E+02 0.  0.
        -12    1    3    3    0    0 -0.22205092320E+02  0.31370037920E-01 -0.37290161896E+02  0.43400729063E+02  0.00000000000E+00 0.  1.
         11    1    4    4    0    0  0.91152698456E+01 -0.47947993134E+01  0.10894329809E+02  0.14992153516E+02  0.51100000000E-03 0. -1.
        -11    1    4    4    0    0  0.12470415758E+02  0.37270456818E+01  0.10152118097E+02  0.16506593858E+02  0.51100000000E-03 0.  1.
        -12    1    4    4    0    0  0.61940671627E+00  0.10363835936E+01  0.16243713990E+02  0.16288523562E+02  0.00000000000E+00 0.  1.
</event>
<event>
 8    1  0.3776180E-010  0.9118800E+02  0.7816164E-02  0.1184000E+00
        -11   -1    0    0    0    0  0.00000000000E+00  0.00000000000E+00  0.45593999997E+02  0.45594000000E+02  0.51100000000E-03 0. -1.
         11   -1    0    0    0    0 -0.00000000000E+00 -0.00000000000E+00 -0.45593999997E+02  0.45594000000E+02  0.51100000000E-03 0.  1.
         23    2    1    2    0    0 -0.22204460493E-15 -0.35527136788E-14  0.00000000000E+00  0.91188000000E+02  0.91188000000E+02 0.  0.
    9900012    2    3    3    0    0 -0.13259749211E+01 -0.29276269491E+02 -0.32011947204E+02  0.47787275022E+02  0.20000018135E+02 0.  0.
         12    1    3    3    0    0  0.13259749211E+01  0.29276269491E+02  0.32011947204E+02  0.43400724978E+02  0.00000000000E+00 0. -1.
         11    1    4    4    0    0 -0.43213998336E+01 -0.99488160631E+01 -0.87628608359E+01  0.13944216287E+02  0.51100000000E-03 0. -1.
        -11    1    4    4    0    0 -0.38263526925E+00 -0.17819241639E+02 -0.10764240612E+02  0.20821639190E+02  0.51100000000E-03 0.  1.
        -12    1    4    4    0    0  0.33780601817E+01 -0.15082117890E+01 -0.12484845757E+02  0.13021419545E+02  0.00000000000E+00 0.  1.
</event>
<event>
 8    1  0.3776180E-010  0.9118800E+02  0.7816164E-02  0.1184000E+00
        -11   -1    0    0    0    0  0.00000000000E+00  0.00000000000E+00  0.45593999997E+02  0.45594000000E+02  0.51100000000E-03 0. -1.
         11   -1    0    0    0    0 -0.00000000000E+00 -0.00000000000E+00 -0.45593999997E+02  0.45594000000E+02  0.51100000000E-03 0.  1.
         23    2    1    2    0    0  0.35527136788E-14 -0.13322676296E-14  0.00000000000E+00  0.91188000000E+02  0.91188000000E+02 0.  0.
    9900012    2    3    3    0    0 -0.20797051163E+02 -0.27943633414E+01 -0.37990759706E+02  0.47787266981E+02  0.19999981471E+02 0.  0.
         12    1    3    3    0    0  0.20797051163E+02  0.27943633414E+01  0.37990759706E+02  0.43400733019E+02  0.00000000000E+00 0. -1.
         11    1    4    4    0    0 -0.17538041108E+02  0.52507585958E+01 -0.21001510179E+02  0.27860667289E+02  0.51100000000E-03 0. -1.
        -11    1    4    4    0    0 -0.16142473996E+00  0.76794225049E+00 -0.30302361561E+01  0.31301956280E+01  0.51100000000E-03 0.  1.
        -12    1    4    4    0    0 -0.30975853151E+01 -0.88130641877E+01 -0.13959013371E+02  0.16796404063E+02  0.00000000000E+00 0.  1.
</event>
<event>
 8    1  0.3776180E-010  0.9118800E+02  0.7816164E-02  0.1184000E+00
        -11   -1    0    0    0    0  0.00000000000E+00  0.00000000000E+00  0.45593999997E+02  0.45594000000E+02  0.51100000000E-03 0. -1.
         11   -1    0    0    0    0 -0.00000000000E+00 -0.00000000000E+00 -0.45593999997E+02  0.45594000000E+02  0.51100000000E-03 0.  1.
         23    2    1    2    0    0 -0.35527136788E-14 -0.88817841970E-15  0.00000000000E+00  0.91188000000E+02  0.91188000000E+02 0.  0.
    9900012    2    3    3    0    0 -0.22224673790E+02 -0.30646450579E+01  0.37152321090E+02  0.47787272624E+02  0.20000007202E+02 0.  0.
        -12    1    3    3    0    0  0.22224673790E+02  0.30646450579E+01 -0.37152321090E+02  0.43400727376E+02  0.00000000000E+00 0.  1.
         11    1    4    4    0    0 -0.64855438531E+01 -0.17062718604E+01  0.18162523433E+02  0.19361066614E+02  0.51100000000E-03 0. -1.
        -11    1    4    4    0    0 -0.91956894030E+00  0.41470788749E+01  0.83552299756E+01  0.93730325102E+01  0.51100000000E-03 0.  1.
        -12    1    4    4    0    0 -0.14819560996E+02 -0.55054520724E+01  0.10634567682E+02  0.19053173500E+02  0.00000000000E+00 0.  1.
</event>
<event>
 8    1  0.3776180E-010  0.9118800E+02  0.7816164E-02  0.1184000E+00
        -11   -1    0    0    0    0  0.00000000000E+00  0.00000000000E+00  0.45593999997E+02  0.45594000000E+02  0.51100000000E-03 0. -1.
         11   -1    0    0    0    0 -0.00000000000E+00 -0.00000000000E+00 -0.45593999997E+02  0.45594000000E+02  0.51100000000E-03 0.  1.
         23    2    1    2    0    0  0.00000000000E+00  0.00000000000E+00  0.00000000000E+00  0.91188000000E+02  0.91188000000E+02 0.  0.
    9900012    2    3    3    0    0  0.96330660170E+01 -0.45374184378E+01 -0.42074207541E+02  0.47787273426E+02  0.20000010858E+02 0.  0.
         12    1    3    3    0    0 -0.96330660170E+01  0.45374184378E+01  0.42074207541E+02  0.43400726574E+02  0.00000000000E+00 0. -1.
         11    1    4    4    0    0 -0.17551523731E+01 -0.24396820423E+01 -0.83750008672E+01  0.88979350474E+01  0.51100000000E-03 0. -1.
        -11    1    4    4    0    0  0.64346289608E+01 -0.25207850711E+01 -0.33178430661E+02  0.33890515910E+02  0.51100000000E-03 0.  1.
        -12    1    4    4    0    0  0.49535894294E+01  0.42304867560E+00 -0.52077601231E+00  0.49988224685E+01  0.00000000000E+00 0.  1.
</event>
<event>
 8    1  0.3776180E-010  0.9118800E+02  0.7816164E-02  0.1184000E+00
        -11   -1    0    0    0    0  0.00000000000E+00  0.00000000000E+00  0.45593999997E+02  0.45594000000E+02  0.51100000000E-03 0. -1.
         11   -1    0    0    0    0 -0.00000000000E+00 -0.00000000000E+00 -0.45593999997E+02  0.45594000000E+02  0.51100000000E-03 0.  1.
         23    2    1    2    0    0  0.44408920985E-15  0.11102230246E-15  0.00000000000E+00  0.91188000000E+02  0.91188000000E+02 0.  0.
    9900012    2    3    3    0    0  0.23469325819E+01  0.95484646506E+00  0.43326703614E+02  0.47787273388E+02  0.20000010687E+02 0.  0.
        -12    1    3    3    0    0 -0.23469325819E+01 -0.95484646506E+00 -0.43326703614E+02  0.43400726612E+02  0.00000000000E+00 0.  1.
         11    1    4    4    0    0  0.57431607644E+01 -0.37263367274E+01  0.15204226147E+02  0.16674470725E+02  0.51100000000E-03 0. -1.
        -11    1    4    4    0    0  0.22240929019E+01  0.58493165002E+01  0.78270317825E+01  0.10021153603E+02  0.51100000000E-03 0.  1.
         12    1    4    4    0    0 -0.56203210844E+01 -0.11681333077E+01  0.20295445685E+02  0.21091649060E+02  0.00000000000E+00 0. -1.
</event>
<event>
 8    1  0.3776180E-010  0.9118800E+02  0.7816164E-02  0.1184000E+00
        -11   -1    0    0    0    0  0.00000000000E+00  0.00000000000E+00  0.45593999997E+02  0.45594000000E+02  0.51100000000E-03 0. -1.
         11   -1    0    0    0    0 -0.00000000000E+00 -0.00000000000E+00 -0.45593999997E+02  0.45594000000E+02  0.51100000000E-03 0.  1.
         23    2    1    2    0    0 -0.55511151231E-15 -0.17763568394E-14 -0.71054273576E-14  0.91188000000E+02  0.91188000000E+02 0.  0.
    9900012    2    3    3    0    0 -0.44287336932E+00 -0.96312395030E+01  0.42316277000E+02  0.47787260256E+02  0.19999950811E+02 0.  0.
        -12    1    3    3    0    0  0.44287336932E+00  0.96312395030E+01 -0.42316277000E+02  0.43400739744E+02  0.00000000000E+00 0.  1.
         11    1    4    4    0    0  0.79555200797E+00 -0.79453618619E+01  0.13221010787E+02  0.15445284219E+02  0.51100000000E-03 0. -1.
        -11    1    4    4    0    0  0.30812411216E+01 -0.67136714824E+01  0.17313918644E+02  0.18823899986E+02  0.51100000000E-03 0.  1.
        -12    1    4    4    0    0 -0.43196664989E+01  0.50277938413E+01  0.11781347569E+02  0.13518076051E+02  0.00000000000E+00 0.  1.
</event>
<event>
 8    1  0.3776180E-010  0.9118800E+02  0.7816164E-02  0.1184000E+00
        -11   -1    0    0    0    0  0.00000000000E+00  0.00000000000E+00  0.45593999997E+02  0.45594000000E+02  0.51100000000E-03 0. -1.
         11   -1    0    0    0    0 -0.00000000000E+00 -0.00000000000E+00 -0.45593999997E+02  0.45594000000E+02  0.51100000000E-03 0.  1.
         23    2    1    2    0    0  0.00000000000E+00  0.17763568394E-14  0.00000000000E+00  0.91188000000E+02  0.91188000000E+02 0.  0.
    9900012    2    3    3    0    0  0.87470483734E+01 -0.10975371865E+02 -0.41068862170E+02  0.47787296288E+02  0.20000115093E+02 0.  0.
         12    1    3    3    0    0 -0.87470483734E+01  0.10975371865E+02  0.41068862170E+02  0.43400703712E+02  0.00000000000E+00 0. -1.
         11    1    4    4    0    0  0.17121251758E+01 -0.76861483131E+00 -0.10321038231E+02  0.10490279872E+02  0.51100000000E-03 0. -1.
        -11    1    4    4    0    0  0.44802666848E+01 -0.11635219388E+02 -0.90589575900E+01  0.15411548678E+02  0.51100000000E-03 0.  1.
        -12    1    4    4    0    0  0.25546565128E+01  0.14284623537E+01 -0.21688866349E+02  0.21885467738E+02  0.00000000000E+00 0.  1.
</event>
<event>
 8    1  0.3776180E-010  0.9118800E+02  0.7816164E-02  0.1184000E+00
        -11   -1    0    0    0    0  0.00000000000E+00  0.00000000000E+00  0.45593999997E+02  0.45594000000E+02  0.51100000000E-03 0. -1.
         11   -1    0    0    0    0 -0.00000000000E+00 -0.00000000000E+00 -0.45593999997E+02  0.45594000000E+02  0.51100000000E-03 0.  1.
         23    2    1    2    0    0  0.00000000000E+00  0.00000000000E+00 -0.35527136788E-14  0.91188000000E+02  0.91188000000E+02 0.  0.
    9900012    2    3    3    0    0 -0.25825125045E+02 -0.30601792894E+02 -0.16739643299E+02  0.47787280309E+02  0.20000042239E+02 0.  0.
         12    1    3    3    0    0  0.25825125045E+02  0.30601792894E+02  0.16739643299E+02  0.43400719691E+02  0.00000000000E+00 0. -1.
         11    1    4    4    0    0 -0.15184743588E+00 -0.26684351153E+01  0.81969026623E+00  0.27956208616E+01  0.51100000000E-03 0. -1.
        -11    1    4    4    0    0  0.19010600021E+01 -0.15452096018E+01  0.88157008627E+00  0.26036259184E+01  0.51100000000E-03 0.  1.
        -12    1    4    4    0    0 -0.27574337612E+02 -0.26388148177E+02 -0.18440903652E+02  0.42388033529E+02  0.00000000000E+00 0.  1.
</event>
<event>
 8    1  0.3776180E-010  0.9118800E+02  0.7816164E-02  0.1184000E+00
        -11   -1    0    0    0    0  0.00000000000E+00  0.00000000000E+00  0.45593999997E+02  0.45594000000E+02  0.51100000000E-03 0. -1.
         11   -1    0    0    0    0 -0.00000000000E+00 -0.00000000000E+00 -0.45593999997E+02  0.45594000000E+02  0.51100000000E-03 0.  1.
         23    2    1    2    0    0  0.00000000000E+00 -0.35527136788E-14 -0.71054273576E-14  0.91188000000E+02  0.91188000000E+02 0.  0.
    9900012    2    3    3    0    0  0.11659246559E+01 -0.15371735555E+02 -0.40570614265E+02  0.47787258346E+02  0.19999942101E+02 0.  0.
         12    1    3    3    0    0 -0.11659246559E+01  0.15371735555E+02  0.40570614265E+02  0.43400741654E+02  0.00000000000E+00 0. -1.
         11    1    4    4    0    0  0.55923401692E+01 -0.11278287842E+02 -0.15028729812E+02  0.19604508799E+02  0.51100000000E-03 0. -1.
        -11    1    4    4    0    0 -0.78525543074E+00  0.89996828875E+00 -0.19511638419E+02  0.19548161117E+02  0.51100000000E-03 0.  1.
         12    1    4    4    0    0 -0.36411600826E+01 -0.49934160019E+01 -0.60302460348E+01  0.86345884299E+01  0.00000000000E+00 0. -1.
</event>
<event>
 8    1  0.3776180E-010  0.9118800E+02  0.7816164E-02  0.1184000E+00
        -11   -1    0    0    0    0  0.00000000000E+00  0.00000000000E+00  0.45593999997E+02  0.45594000000E+02  0.51100000000E-03 0.  1.
         11   -1    0    0    0    0 -0.00000000000E+00 -0.00000000000E+00 -0.45593999997E+02  0.45594000000E+02  0.51100000000E-03 0. -1.
         23    2    1    2    0    0 -0.35527136788E-14 -0.71054273576E-14  0.00000000000E+00  0.91188000000E+02  0.91188000000E+02 0.  0.
    9900012    2    3    3    0    0  0.21776748852E+02  0.36191410215E+02  0.99788913050E+01  0.47787271486E+02  0.20000002012E+02 0.  0.
        -12    1    3    3    0    0 -0.21776748852E+02 -0.36191410215E+02 -0.99788913050E+01  0.43400728514E+02  0.00000000000E+00 0.  1.
         11    1    4    4    0    0  0.15350743441E+01  0.12101634306E+01  0.34076719893E+01  0.39285082944E+01  0.51100000000E-03 0. -1.
        -11    1    4    4    0    0  0.52880195616E+01  0.27002865644E+00 -0.78945608690E+00  0.53534388512E+01  0.51100000000E-03 0.  1.
         12    1    4    4    0    0  0.14953654946E+02  0.34711218128E+02  0.73606754026E+01  0.38505324340E+02  0.00000000000E+00 0. -1.
</event>
<event>
 8    1  0.3776180E-010  0.9118800E+02  0.7816164E-02  0.1184000E+00
        -11   -1    0    0    0    0  0.00000000000E+00  0.00000000000E+00  0.45593999997E+02  0.45594000000E+02  0.51100000000E-03 0. -1.
         11   -1    0    0    0    0 -0.00000000000E+00 -0.00000000000E+00 -0.45593999997E+02  0.45594000000E+02  0.51100000000E-03 0.  1.
         23    2    1    2    0    0  0.17763568394E-14 -0.35527136788E-14  0.00000000000E+00  0.91188000000E+02  0.91188000000E+02 0.  0.
    9900012    2    3    3    0    0 -0.11251981026E+02  0.21210834379E+02 -0.36154069108E+02  0.47787270915E+02  0.19999999409E+02 0.  0.
         12    1    3    3    0    0  0.11251981026E+02 -0.21210834379E+02  0.36154069108E+02  0.43400729085E+02  0.00000000000E+00 0. -1.
         11    1    4    4    0    0  0.60149781429E+00 -0.35166862349E+00 -0.60634393376E+01  0.61033406674E+01  0.51100000000E-03 0. -1.
        -11    1    4    4    0    0  0.21978776404E+01  0.10368458010E+02 -0.84290954737E+01  0.13541980594E+02  0.51100000000E-03 0.  1.
        -12    1    4    4    0    0 -0.14051356480E+02  0.11194044992E+02 -0.21661534297E+02  0.28141949654E+02  0.00000000000E+00 0.  1.
</event>
<event>
 8    1  0.3776180E-010  0.9118800E+02  0.7816164E-02  0.1184000E+00
        -11   -1    0    0    0    0  0.00000000000E+00  0.00000000000E+00  0.45593999997E+02  0.45594000000E+02  0.51100000000E-03 0. -1.
         11   -1    0    0    0    0 -0.00000000000E+00 -0.00000000000E+00 -0.45593999997E+02  0.45594000000E+02  0.51100000000E-03 0.  1.
         23    2    1    2    0    0  0.00000000000E+00  0.00000000000E+00 -0.17763568394E-14  0.91188000000E+02  0.91188000000E+02 0.  0.
    9900012    2    3    3    0    0 -0.26794936453E+02 -0.31232629512E+02  0.13790485759E+02  0.47787271168E+02  0.20000000562E+02 0.  0.
        -12    1    3    3    0    0  0.26794936453E+02  0.31232629512E+02 -0.13790485759E+02  0.43400728832E+02  0.00000000000E+00 0.  1.
         11    1    4    4    0    0 -0.24128612402E+02 -0.26198591777E+02  0.11645607645E+02  0.37472340803E+02  0.51100000000E-03 0. -1.
        -11    1    4    4    0    0 -0.53579395048E+01 -0.15183198213E+01  0.49924562417E+00  0.55912482749E+01  0.51100000000E-03 0.  1.
        -12    1    4    4    0    0  0.26916154540E+01 -0.35157179132E+01  0.16456324892E+01  0.47236820900E+01  0.00000000000E+00 0.  1.
</event>
<event>
 8    1  0.1337175E-009  0.9118800E+02  0.7816164E-02  0.1184000E+00
        -11   -1    0    0    0    0  0.00000000000E+00  0.00000000000E+00  0.45593999997E+02  0.45594000000E+02  0.51100000000E-03 0.  1.
         11   -1    0    0    0    0 -0.00000000000E+00 -0.00000000000E+00 -0.45593999997E+02  0.45594000000E+02  0.51100000000E-03 0. -1.
         23    2    1    2    0    0  0.00000000000E+00 -0.35527136788E-14  0.00000000000E+00  0.91188000000E+02  0.91188000000E+02 0.  0.
    9900012    2    3    3    0    0 -0.18023590287E+02  0.26315858629E+02 -0.29432117680E+02  0.47787265290E+02  0.19999973763E+02 0.  0.
         12    1    3    3    0    0  0.18023590287E+02 -0.26315858629E+02  0.29432117680E+02  0.43400734710E+02  0.00000000000E+00 0. -1.
         11    1    4    4    0    0  0.28414495272E+01  0.18923257338E+00 -0.12335355622E+01  0.31034262722E+01  0.51100000000E-03 0. -1.
        -11    1    4    4    0    0 -0.77275534755E+01  0.38401640332E+01 -0.52424672385E+01  0.10096801747E+02  0.51100000000E-03 0.  1.
         12    1    4    4    0    0 -0.13137486339E+02  0.22286462022E+02 -0.22956114880E+02  0.34587037270E+02  0.00000000000E+00 0. -1.
</event>
<event>
 8    1  0.3776180E-010  0.9118800E+02  0.7816164E-02  0.1184000E+00
        -11   -1    0    0    0    0  0.00000000000E+00  0.00000000000E+00  0.45593999997E+02  0.45594000000E+02  0.51100000000E-03 0.  1.
         11   -1    0    0    0    0 -0.00000000000E+00 -0.00000000000E+00 -0.45593999997E+02  0.45594000000E+02  0.51100000000E-03 0. -1.
         23    2    1    2    0    0  0.00000000000E+00  0.00000000000E+00  0.00000000000E+00  0.91188000000E+02  0.91188000000E+02 0.  0.
    9900012    2    3    3    0    0  0.39638728918E+02  0.93238121359E+01 -0.15015416238E+02  0.47787250839E+02  0.19999907874E+02 0.  0.
         12    1    3    3    0    0 -0.39638728918E+02 -0.93238121359E+01  0.15015416238E+02  0.43400749161E+02  0.00000000000E+00 0. -1.
         11    1    4    4    0    0 -0.57854072547E+00 -0.17077476260E+00 -0.13005255188E+01  0.14336109224E+01  0.51100000000E-03 0. -1.
        -11    1    4    4    0    0  0.21840357677E+02  0.11516917609E+02 -0.27120923135E+01  0.24839405380E+02  0.51100000000E-03 0.  1.
        -12    1    4    4    0    0  0.18376911966E+02 -0.20223307105E+01 -0.11002798406E+02  0.21514234536E+02  0.00000000000E+00 0.  1.
</event>
<event>
 8    1  0.3776180E-010  0.9118800E+02  0.7816164E-02  0.1184000E+00
        -11   -1    0    0    0    0  0.00000000000E+00  0.00000000000E+00  0.45593999997E+02  0.45594000000E+02  0.51100000000E-03 0.  1.
         11   -1    0    0    0    0 -0.00000000000E+00 -0.00000000000E+00 -0.45593999997E+02  0.45594000000E+02  0.51100000000E-03 0. -1.
         23    2    1    2    0    0  0.00000000000E+00  0.00000000000E+00 -0.17763568394E-14  0.91188000000E+02  0.91188000000E+02 0.  0.
    9900012    2    3    3    0    0 -0.39815280379E+02  0.76048947559E+01 -0.15509101913E+02  0.47787271688E+02  0.20000002933E+02 0.  0.
         12    1    3    3    0    0  0.39815280379E+02 -0.76048947559E+01  0.15509101913E+02  0.43400728312E+02  0.00000000000E+00 0. -1.
         11    1    4    4    0    0 -0.10938184757E+02  0.10977967081E+01 -0.52680543155E+01  0.12190219026E+02  0.51100000000E-03 0. -1.
        -11    1    4    4    0    0 -0.27941250658E+02  0.63892386803E+00 -0.69315274525E+01  0.28795273659E+02  0.51100000000E-03 0.  1.
         12    1    4    4    0    0 -0.93584496434E+00  0.58681741797E+01 -0.33095201450E+01  0.68017790019E+01  0.00000000000E+00 0. -1.
</event>
<event>
 8    1  0.3776180E-010  0.9118800E+02  0.7816164E-02  0.1184000E+00
        -11   -1    0    0    0    0  0.00000000000E+00  0.00000000000E+00  0.45593999997E+02  0.45594000000E+02  0.51100000000E-03 0. -1.
         11   -1    0    0    0    0 -0.00000000000E+00 -0.00000000000E+00 -0.45593999997E+02  0.45594000000E+02  0.51100000000E-03 0.  1.
         23    2    1    2    0    0  0.35527136788E-14  0.00000000000E+00  0.00000000000E+00  0.91188000000E+02  0.91188000000E+02 0.  0.
    9900012    2    3    3    0    0  0.28159335157E+02  0.12973986456E+02 -0.30370230028E+02  0.47787270133E+02  0.19999995843E+02 0.  0.
         12    1    3    3    0    0 -0.28159335157E+02 -0.12973986456E+02  0.30370230028E+02  0.43400729867E+02  0.00000000000E+00 0. -1.
         11    1    4    4    0    0  0.11745250816E+02  0.54301126510E+01 -0.58585250530E+01  0.14204202061E+02  0.51100000000E-03 0. -1.
        -11    1    4    4    0    0  0.15502951260E+02  0.10383216758E+02 -0.16052703203E+02  0.24613857243E+02  0.51100000000E-03 0.  1.
         12    1    4    4    0    0  0.91113308059E+00 -0.28393429530E+01 -0.84590017723E+01  0.89692108281E+01  0.00000000000E+00 0. -1.
</event>
<event>
 8    1  0.3776180E-010  0.9118800E+02  0.7816164E-02  0.1184000E+00
        -11   -1    0    0    0    0  0.00000000000E+00  0.00000000000E+00  0.45593999997E+02  0.45594000000E+02  0.51100000000E-03 0. -1.
         11   -1    0    0    0    0 -0.00000000000E+00 -0.00000000000E+00 -0.45593999997E+02  0.45594000000E+02  0.51100000000E-03 0.  1.
         23    2    1    2    0    0  0.17763568394E-14  0.00000000000E+00  0.00000000000E+00  0.91188000000E+02  0.91188000000E+02 0.  0.
    9900012    2    3    3    0    0  0.13838217543E+02  0.22789422486E+02 -0.34245717726E+02  0.47787271612E+02  0.20000002587E+02 0.  0.
         12    1    3    3    0    0 -0.13838217543E+02 -0.22789422486E+02  0.34245717726E+02  0.43400728388E+02  0.00000000000E+00 0. -1.
         11    1    4    4    0    0  0.82829098494E+01  0.32121283953E+01 -0.14363922585E+02  0.16889246185E+02  0.51100000000E-03 0. -1.
        -11    1    4    4    0    0  0.26152899726E+00 -0.13469149897E+00  0.13883213715E+01  0.14191461193E+01  0.51100000000E-03 0.  1.
        -12    1    4    4    0    0  0.52937786967E+01  0.19711985590E+02 -0.21270116513E+02  0.29478879308E+02  0.00000000000E+00 0.  1.
</event>
<event>
 8    1  0.3776180E-010  0.9118800E+02  0.7816164E-02  0.1184000E+00
        -11   -1    0    0    0    0  0.00000000000E+00  0.00000000000E+00  0.45593999997E+02  0.45594000000E+02  0.51100000000E-03 0. -1.
         11   -1    0    0    0    0 -0.00000000000E+00 -0.00000000000E+00 -0.45593999997E+02  0.45594000000E+02  0.51100000000E-03 0.  1.
         23    2    1    2    0    0 -0.35527136788E-14 -0.17763568394E-14  0.71054273576E-14  0.91188000000E+02  0.91188000000E+02 0.  0.
    9900012    2    3    3    0    0  0.24690430877E+02  0.10261556953E+02 -0.34186334249E+02  0.47787281372E+02  0.20000047088E+02 0.  0.
         12    1    3    3    0    0 -0.24690430877E+02 -0.10261556953E+02  0.34186334249E+02  0.43400718628E+02  0.00000000000E+00 0. -1.
         11    1    4    4    0    0  0.79122200568E+01  0.57026972416E+01 -0.14360842694E+02  0.17359659708E+02  0.51100000000E-03 0.  1.
        -11    1    4    4    0    0  0.15689510649E+02  0.28910608113E+01 -0.22194006246E+02  0.27333000028E+02  0.51100000000E-03 0. -1.
        -12    1    4    4    0    0  0.10887001719E+01  0.16677989000E+01  0.23685146901E+01  0.30946216363E+01  0.00000000000E+00 0.  1.
</event>
<event>
 8    1  0.3776180E-010  0.9118800E+02  0.7816164E-02  0.1184000E+00
        -11   -1    0    0    0    0  0.00000000000E+00  0.00000000000E+00  0.45593999997E+02  0.45594000000E+02  0.51100000000E-03 0. -1.
         11   -1    0    0    0    0 -0.00000000000E+00 -0.00000000000E+00 -0.45593999997E+02  0.45594000000E+02  0.51100000000E-03 0.  1.
         23    2    1    2    0    0  0.71054273576E-14  0.00000000000E+00  0.00000000000E+00  0.91188000000E+02  0.91188000000E+02 0.  0.
    9900012    2    3    3    0    0 -0.33767701787E+02  0.22073065253E+01 -0.27175225119E+02  0.47787277122E+02  0.20000027710E+02 0.  0.
         12    1    3    3    0    0  0.33767701787E+02 -0.22073065253E+01  0.27175225119E+02  0.43400722878E+02  0.00000000000E+00 0. -1.
         11    1    4    4    0    0 -0.20525707624E+01  0.13969409786E+01  0.15348323610E+01  0.29189384148E+01  0.51100000000E-03 0. -1.
        -11    1    4    4    0    0 -0.33752093509E+01  0.10980613850E+01 -0.10737060756E+02  0.11308503478E+02  0.51100000000E-03 0.  1.
         12    1    4    4    0    0 -0.28339921674E+02 -0.28769583830E+00 -0.17972996723E+02  0.33559835229E+02  0.00000000000E+00 0. -1.
</event>
<event>
 8    1  0.3776180E-010  0.9118800E+02  0.7816164E-02  0.1184000E+00
        -11   -1    0    0    0    0  0.00000000000E+00  0.00000000000E+00  0.45593999997E+02  0.45594000000E+02  0.51100000000E-03 0. -1.
         11   -1    0    0    0    0 -0.00000000000E+00 -0.00000000000E+00 -0.45593999997E+02  0.45594000000E+02  0.51100000000E-03 0.  1.
         23    2    1    2    0    0  0.88817841970E-15  0.00000000000E+00 -0.26645352591E-14  0.91188000000E+02  0.91188000000E+02 0.  0.
    9900012    2    3    3    0    0  0.56506659818E+01 -0.42713664621E+02 -0.52188251938E+01  0.47787270654E+02  0.19999998218E+02 0.  0.
        -12    1    3    3    0    0 -0.56506659818E+01  0.42713664621E+02  0.52188251938E+01  0.43400729346E+02  0.00000000000E+00 0.  1.
         11    1    4    4    0    0  0.22900814741E+01 -0.21429808141E+02 -0.12611578246E+01  0.21588693093E+02  0.51100000000E-03 0. -1.
        -11    1    4    4    0    0  0.29076355215E+01 -0.16650160733E+02 -0.91538320141E+01  0.19221728267E+02  0.51100000000E-03 0.  1.
         12    1    4    4    0    0  0.45294898618E+00 -0.46336957463E+01  0.51961646448E+01  0.69768492939E+01  0.00000000000E+00 0. -1.
</event>
<event>
 8    1  0.3776180E-010  0.9118800E+02  0.7816164E-02  0.1184000E+00
        -11   -1    0    0    0    0  0.00000000000E+00  0.00000000000E+00  0.45593999997E+02  0.45594000000E+02  0.51100000000E-03 0. -1.
         11   -1    0    0    0    0 -0.00000000000E+00 -0.00000000000E+00 -0.45593999997E+02  0.45594000000E+02  0.51100000000E-03 0.  1.
         23    2    1    2    0    0  0.00000000000E+00 -0.22204460493E-15  0.71054273576E-14  0.91188000000E+02  0.91188000000E+02 0.  0.
    9900012    2    3    3    0    0  0.25259656568E+01 -0.43489931742E+00 -0.43324976281E+02  0.47787271784E+02  0.20000003372E+02 0.  0.
         12    1    3    3    0    0 -0.25259656568E+01  0.43489931742E+00  0.43324976281E+02  0.43400728216E+02  0.00000000000E+00 0. -1.
         11    1    4    4    0    0  0.10132761534E+02  0.28635049978E+01 -0.26616824633E+02  0.28623903839E+02  0.51100000000E-03 0. -1.
        -11    1    4    4    0    0 -0.17666497854E+01  0.59180928737E+00 -0.66022628239E+01  0.68601140190E+01  0.51100000000E-03 0.  1.
         12    1    4    4    0    0 -0.58401460917E+01 -0.38902136025E+01 -0.10105888825E+02  0.12303253927E+02  0.00000000000E+00 0. -1.
</event>
<event>
 8    1  0.3776180E-010  0.9118800E+02  0.7816164E-02  0.1184000E+00
        -11   -1    0    0    0    0  0.00000000000E+00  0.00000000000E+00  0.45593999997E+02  0.45594000000E+02  0.51100000000E-03 0.  1.
         11   -1    0    0    0    0 -0.00000000000E+00 -0.00000000000E+00 -0.45593999997E+02  0.45594000000E+02  0.51100000000E-03 0. -1.
         23    2    1    2    0    0  0.00000000000E+00  0.00000000000E+00 -0.44408920985E-15  0.91188000000E+02  0.91188000000E+02 0.  0.
    9900012    2    3    3    0    0 -0.41495663421E+02 -0.12477589641E+02  0.24582529149E+01  0.47787270359E+02  0.19999996874E+02 0.  0.
        -12    1    3    3    0    0  0.41495663421E+02  0.12477589641E+02 -0.24582529149E+01  0.43400729641E+02  0.00000000000E+00 0.  1.
         11    1    4    4    0    0 -0.20544645602E+02 -0.23931590600E+01 -0.74312363978E+01  0.21978010553E+02  0.51100000000E-03 0.  1.
        -11    1    4    4    0    0 -0.55722824338E+01 -0.12001309350E+01  0.50646648164E+00  0.57225129394E+01  0.51100000000E-03 0. -1.
        -12    1    4    4    0    0 -0.15378735385E+02 -0.88842996457E+01  0.93830228310E+01  0.20086746867E+02  0.00000000000E+00 0.  1.
</event>
<event>
 8    1  0.3776180E-010  0.9118800E+02  0.7816164E-02  0.1184000E+00
        -11   -1    0    0    0    0  0.00000000000E+00  0.00000000000E+00  0.45593999997E+02  0.45594000000E+02  0.51100000000E-03 0. -1.
         11   -1    0    0    0    0 -0.00000000000E+00 -0.00000000000E+00 -0.45593999997E+02  0.45594000000E+02  0.51100000000E-03 0.  1.
         23    2    1    2    0    0  0.00000000000E+00  0.00000000000E+00  0.00000000000E+00  0.91188000000E+02  0.91188000000E+02 0.  0.
    9900012    2    3    3    0    0 -0.26640628887E+02 -0.31075145371E+02  0.14430361504E+02  0.47787273042E+02  0.20000009109E+02 0.  0.
        -12    1    3    3    0    0  0.26640628887E+02  0.31075145371E+02 -0.14430361504E+02  0.43400726958E+02  0.00000000000E+00 0.  1.
         11    1    4    4    0    0 -0.19954908560E+02 -0.17220064904E+02  0.19161558246E+01  0.26427271224E+02  0.51100000000E-03 0. -1.
        -11    1    4    4    0    0  0.16324208878E+00  0.39923323336E+00 -0.65235547572E+00  0.78205056230E+00  0.51100000000E-03 0.  1.
        -12    1    4    4    0    0 -0.68489624158E+01 -0.14254313700E+02  0.13166561155E+02  0.20577951256E+02  0.00000000000E+00 0.  1.
</event>
<event>
 8    1  0.3776180E-010  0.9118800E+02  0.7816164E-02  0.1184000E+00
        -11   -1    0    0    0    0  0.00000000000E+00  0.00000000000E+00  0.45593999997E+02  0.45594000000E+02  0.51100000000E-03 0. -1.
         11   -1    0    0    0    0 -0.00000000000E+00 -0.00000000000E+00 -0.45593999997E+02  0.45594000000E+02  0.51100000000E-03 0.  1.
         23    2    1    2    0    0  0.00000000000E+00  0.00000000000E+00 -0.35527136788E-14  0.91188000000E+02  0.91188000000E+02 0.  0.
    9900012    2    3    3    0    0 -0.33034213675E+02 -0.97777289703E+01  0.26396206692E+02  0.47787274376E+02  0.20000015190E+02 0.  0.
        -12    1    3    3    0    0  0.33034213675E+02  0.97777289703E+01 -0.26396206692E+02  0.43400725624E+02  0.00000000000E+00 0.  1.
         11    1    4    4    0    0 -0.10122255592E+01  0.16337255945E+01  0.16903037858E+01  0.25594505368E+01  0.51100000000E-03 0. -1.
        -11    1    4    4    0    0 -0.23262014061E+00 -0.33965460513E+01 -0.10210799738E+01  0.35543271913E+01  0.51100000000E-03 0.  1.
         12    1    4    4    0    0 -0.31789367975E+02 -0.80149085135E+01  0.25726982880E+02  0.41673496648E+02  0.00000000000E+00 0. -1.
</event>
<event>
 8    1  0.3776180E-010  0.9118800E+02  0.7816164E-02  0.1184000E+00
        -11   -1    0    0    0    0  0.00000000000E+00  0.00000000000E+00  0.45593999997E+02  0.45594000000E+02  0.51100000000E-03 0. -1.
         11   -1    0    0    0    0 -0.00000000000E+00 -0.00000000000E+00 -0.45593999997E+02  0.45594000000E+02  0.51100000000E-03 0.  1.
         23    2    1    2    0    0  0.00000000000E+00  0.00000000000E+00  0.00000000000E+00  0.91188000000E+02  0.91188000000E+02 0.  0.
    9900012    2    3    3    0    0 -0.97007594895E+01  0.72886586926E+01 -0.41670049341E+02  0.47787282353E+02  0.20000051561E+02 0.  0.
         12    1    3    3    0    0  0.97007594895E+01 -0.72886586926E+01  0.41670049341E+02  0.43400717647E+02  0.00000000000E+00 0. -1.
         11    1    4    4    0    0 -0.35644750785E+01  0.10119307410E+01  0.10208204441E+01  0.38433788586E+01  0.51100000000E-03 0. -1.
        -11    1    4    4    0    0  0.32422267674E+00  0.23414632071E+01 -0.16965139781E+02  0.17129026193E+02  0.51100000000E-03 0.  1.
        -12    1    4    4    0    0 -0.64605070876E+01  0.39352647445E+01 -0.25725730004E+02  0.26814877301E+02  0.00000000000E+00 0.  1.
</event>
<event>
 8    1  0.3776180E-010  0.9118800E+02  0.7816164E-02  0.1184000E+00
        -11   -1    0    0    0    0  0.00000000000E+00  0.00000000000E+00  0.45593999997E+02  0.45594000000E+02  0.51100000000E-03 0. -1.
         11   -1    0    0    0    0 -0.00000000000E+00 -0.00000000000E+00 -0.45593999997E+02  0.45594000000E+02  0.51100000000E-03 0.  1.
         23    2    1    2    0    0 -0.17763568394E-14  0.00000000000E+00 -0.88817841970E-15  0.91188000000E+02  0.91188000000E+02 0.  0.
    9900012    2    3    3    0    0 -0.13043832144E+02 -0.41010702586E+02  0.56217077273E+01  0.47787275566E+02  0.20000020616E+02 0.  0.
        -12    1    3    3    0    0  0.13043832144E+02  0.41010702586E+02 -0.56217077273E+01  0.43400724434E+02  0.00000000000E+00 0.  1.
         11    1    4    4    0    0  0.17381371139E+01 -0.16086560902E+01  0.93501708083E+00  0.25462034966E+01  0.51100000000E-03 0. -1.
        -11    1    4    4    0    0  0.46139901409E+00 -0.25835336378E+01  0.47099975429E+01  0.53918097354E+01  0.51100000000E-03 0.  1.
         12    1    4    4    0    0 -0.15243368272E+02 -0.36818512858E+02 -0.23306896439E-01  0.39849262334E+02  0.00000000000E+00 0. -1.
</event>
<event>
 8    1  0.3776180E-010  0.9118800E+02  0.7816164E-02  0.1184000E+00
        -11   -1    0    0    0    0  0.00000000000E+00  0.00000000000E+00  0.45593999997E+02  0.45594000000E+02  0.51100000000E-03 0. -1.
         11   -1    0    0    0    0 -0.00000000000E+00 -0.00000000000E+00 -0.45593999997E+02  0.45594000000E+02  0.51100000000E-03 0.  1.
         23    2    1    2    0    0  0.00000000000E+00  0.17763568394E-14  0.00000000000E+00  0.91188000000E+02  0.91188000000E+02 0.  0.
    9900012    2    3    3    0    0 -0.11174159157E+02  0.11681648613E+02  0.40277790294E+02  0.47787272608E+02  0.20000007130E+02 0.  0.
        -12    1    3    3    0    0  0.11174159157E+02 -0.11681648613E+02 -0.40277790294E+02  0.43400727392E+02  0.00000000000E+00 0.  1.
         11    1    4    4    0    0 -0.40448807527E+01  0.89787774273E+01  0.17084895431E+02  0.19719867052E+02  0.51100000000E-03 0. -1.
        -11    1    4    4    0    0 -0.77621400676E+01  0.75866828308E+01  0.15155798733E+02  0.18641534548E+02  0.51100000000E-03 0.  1.
        -12    1    4    4    0    0  0.63286166308E+00 -0.48838116450E+01  0.80370961301E+01  0.94258710087E+01  0.00000000000E+00 0.  1.
</event>
<event>
 8    1  0.3776180E-010  0.9118800E+02  0.7816164E-02  0.1184000E+00
        -11   -1    0    0    0    0  0.00000000000E+00  0.00000000000E+00  0.45593999997E+02  0.45594000000E+02  0.51100000000E-03 0. -1.
         11   -1    0    0    0    0 -0.00000000000E+00 -0.00000000000E+00 -0.45593999997E+02  0.45594000000E+02  0.51100000000E-03 0.  1.
         23    2    1    2    0    0 -0.44408920985E-15  0.00000000000E+00  0.00000000000E+00  0.91188000000E+02  0.91188000000E+02 0.  0.
    9900012    2    3    3    0    0  0.36735336531E+01 -0.26227033676E+02 -0.34384167142E+02  0.47787273105E+02  0.20000009396E+02 0.  0.
         12    1    3    3    0    0 -0.36735336531E+01  0.26227033676E+02  0.34384167142E+02  0.43400726895E+02  0.00000000000E+00 0. -1.
         11    1    4    4    0    0 -0.18926765892E+00 -0.47160706491E+01 -0.88056785672E+01  0.99908518107E+01  0.51100000000E-03 0. -1.
        -11    1    4    4    0    0 -0.25291828581E+01 -0.42938763032E+01 -0.16642282783E+02  0.17372383720E+02  0.51100000000E-03 0.  1.
         12    1    4    4    0    0  0.63919841701E+01 -0.17217086724E+02 -0.89362057926E+01  0.20424037574E+02  0.00000000000E+00 0. -1.
</event>
<event>
 8    1  0.3776180E-010  0.9118800E+02  0.7816164E-02  0.1184000E+00
        -11   -1    0    0    0    0  0.00000000000E+00  0.00000000000E+00  0.45593999997E+02  0.45594000000E+02  0.51100000000E-03 0. -1.
         11   -1    0    0    0    0 -0.00000000000E+00 -0.00000000000E+00 -0.45593999997E+02  0.45594000000E+02  0.51100000000E-03 0.  1.
         23    2    1    2    0    0  0.17763568394E-14  0.00000000000E+00  0.00000000000E+00  0.91188000000E+02  0.91188000000E+02 0.  0.
    9900012    2    3    3    0    0  0.15614321150E+02 -0.21995647442E+02  0.34000115099E+02  0.47787270074E+02  0.19999995575E+02 0.  0.
        -12    1    3    3    0    0 -0.15614321150E+02  0.21995647442E+02 -0.34000115099E+02  0.43400729926E+02  0.00000000000E+00 0.  1.
         11    1    4    4    0    0  0.15098567532E+02 -0.88571819381E+01  0.20858121569E+02  0.27230087203E+02  0.51100000000E-03 0. -1.
        -11    1    4    4    0    0 -0.17043831375E+00  0.26140969923E+00 -0.10091817501E+01  0.10563296434E+01  0.51100000000E-03 0.  1.
        -12    1    4    4    0    0  0.68619193210E+00 -0.13399875203E+02  0.14151175280E+02  0.19500853228E+02  0.00000000000E+00 0.  1.
</event>
<event>
 8    1  0.3776180E-010  0.9118800E+02  0.7816164E-02  0.1184000E+00
        -11   -1    0    0    0    0  0.00000000000E+00  0.00000000000E+00  0.45593999997E+02  0.45594000000E+02  0.51100000000E-03 0. -1.
         11   -1    0    0    0    0 -0.00000000000E+00 -0.00000000000E+00 -0.45593999997E+02  0.45594000000E+02  0.51100000000E-03 0.  1.
         23    2    1    2    0    0  0.88817841970E-15 -0.71054273576E-14 -0.35527136788E-14  0.91188000000E+02  0.91188000000E+02 0.  0.
    9900012    2    3    3    0    0 -0.71901180013E+01  0.35838181049E+02  0.23399789282E+02  0.47787272400E+02  0.20000006182E+02 0.  0.
        -12    1    3    3    0    0  0.71901180013E+01 -0.35838181049E+02 -0.23399789282E+02  0.43400727600E+02  0.00000000000E+00 0.  1.
         11    1    4    4    0    0 -0.59268316845E+01  0.14176773699E+02  0.13894332925E+02  0.20716194970E+02  0.51100000000E-03 0. -1.
        -11    1    4    4    0    0 -0.29622775194E+01  0.53916152650E+01  0.87490358381E+01  0.10695336910E+02  0.51100000000E-03 0.  1.
         12    1    4    4    0    0  0.16989912026E+01  0.16269792085E+02  0.75642051860E+00  0.16375740520E+02  0.00000000000E+00 0. -1.
</event>
<event>
 8    1  0.3776180E-010  0.9118800E+02  0.7816164E-02  0.1184000E+00
        -11   -1    0    0    0    0  0.00000000000E+00  0.00000000000E+00  0.45593999997E+02  0.45594000000E+02  0.51100000000E-03 0. -1.
         11   -1    0    0    0    0 -0.00000000000E+00 -0.00000000000E+00 -0.45593999997E+02  0.45594000000E+02  0.51100000000E-03 0.  1.
         23    2    1    2    0    0  0.00000000000E+00  0.00000000000E+00  0.00000000000E+00  0.91188000000E+02  0.91188000000E+02 0.  0.
    9900012    2    3    3    0    0  0.33942119295E+02 -0.11817462986E+02 -0.24329064532E+02  0.47787271035E+02  0.19999999959E+02 0.  0.
         12    1    3    3    0    0 -0.33942119295E+02  0.11817462986E+02  0.24329064532E+02  0.43400728965E+02  0.00000000000E+00 0. -1.
         11    1    4    4    0    0  0.19741770682E+02 -0.27902907716E+01 -0.82140412678E+01  0.21563712724E+02  0.51100000000E-03 0.  1.
        -11    1    4    4    0    0  0.48474512747E+01  0.98868313246E+00  0.15707527848E+00  0.49497425287E+01  0.51100000000E-03 0. -1.
         12    1    4    4    0    0  0.93528973384E+01 -0.10015855347E+02 -0.16272098543E+02  0.21273815783E+02  0.00000000000E+00 0. -1.
</event>
<event>
 8    1  0.3776180E-010  0.9118800E+02  0.7816164E-02  0.1184000E+00
        -11   -1    0    0    0    0  0.00000000000E+00  0.00000000000E+00  0.45593999997E+02  0.45594000000E+02  0.51100000000E-03 0. -1.
         11   -1    0    0    0    0 -0.00000000000E+00 -0.00000000000E+00 -0.45593999997E+02  0.45594000000E+02  0.51100000000E-03 0.  1.
         23    2    1    2    0    0 -0.35527136788E-14  0.00000000000E+00  0.35527136788E-14  0.91188000000E+02  0.91188000000E+02 0.  0.
    9900012    2    3    3    0    0 -0.27948250650E+02  0.20194432163E+02  0.26357228929E+02  0.47787270495E+02  0.19999997494E+02 0.  0.
        -12    1    3    3    0    0  0.27948250650E+02 -0.20194432163E+02 -0.26357228929E+02  0.43400729505E+02  0.00000000000E+00 0.  1.
         11    1    4    4    0    0 -0.53547316389E+01  0.20534410786E+00  0.13573595218E+02  0.14593073855E+02  0.51100000000E-03 0. -1.
        -11    1    4    4    0    0 -0.54096035030E+01  0.69814004847E+01  0.56841660943E+01  0.10503023719E+02  0.51100000000E-03 0.  1.
         12    1    4    4    0    0 -0.17183915508E+02  0.13007687570E+02  0.70994676167E+01  0.22691172921E+02  0.00000000000E+00 0. -1.
</event>
<event>
 8    1  0.3776180E-010  0.9118800E+02  0.7816164E-02  0.1184000E+00
        -11   -1    0    0    0    0  0.00000000000E+00  0.00000000000E+00  0.45593999997E+02  0.45594000000E+02  0.51100000000E-03 0.  1.
         11   -1    0    0    0    0 -0.00000000000E+00 -0.00000000000E+00 -0.45593999997E+02  0.45594000000E+02  0.51100000000E-03 0. -1.
         23    2    1    2    0    0  0.00000000000E+00  0.00000000000E+00  0.17763568394E-14  0.91188000000E+02  0.91188000000E+02 0.  0.
    9900012    2    3    3    0    0 -0.34136513479E+02 -0.25277774693E+02  0.89082026174E+01  0.47787268211E+02  0.19999987083E+02 0.  0.
        -12    1    3    3    0    0  0.34136513479E+02  0.25277774693E+02 -0.89082026174E+01  0.43400731789E+02  0.00000000000E+00 0.  1.
         11    1    4    4    0    0 -0.14723949475E+02 -0.17029344703E+02  0.11337118907E+02  0.25205625057E+02  0.51100000000E-03 0. -1.
        -11    1    4    4    0    0  0.80337677544E-01 -0.71172409706E+00  0.11729732417E+01  0.13743623320E+01  0.51100000000E-03 0.  1.
         12    1    4    4    0    0 -0.19492901682E+02 -0.75367058928E+01 -0.36018895314E+01  0.21207280822E+02  0.00000000000E+00 0. -1.
</event>
<event>
 8    1  0.3776180E-010  0.9118800E+02  0.7816164E-02  0.1184000E+00
        -11   -1    0    0    0    0  0.00000000000E+00  0.00000000000E+00  0.45593999997E+02  0.45594000000E+02  0.51100000000E-03 0. -1.
         11   -1    0    0    0    0 -0.00000000000E+00 -0.00000000000E+00 -0.45593999997E+02  0.45594000000E+02  0.51100000000E-03 0.  1.
         23    2    1    2    0    0  0.17763568394E-14  0.66613381478E-15  0.00000000000E+00  0.91188000000E+02  0.91188000000E+02 0.  0.
    9900012    2    3    3    0    0  0.14305167773E+02  0.15233542460E+01  0.40947114961E+02  0.47787255112E+02  0.19999927359E+02 0.  0.
        -12    1    3    3    0    0 -0.14305167773E+02 -0.15233542460E+01 -0.40947114961E+02  0.43400744888E+02  0.00000000000E+00 0.  1.
         11    1    4    4    0    0  0.46853407779E+01  0.38148422885E+01  0.13921550344E+02  0.15176132713E+02  0.51100000000E-03 0. -1.
        -11    1    4    4    0    0  0.25902801478E+01  0.45546159422E+01  0.17932885073E+01  0.55380467276E+01  0.51100000000E-03 0.  1.
         12    1    4    4    0    0  0.70295468477E+01 -0.68461039847E+01  0.25232276110E+02  0.27073075672E+02  0.00000000000E+00 0. -1.
</event>
<event>
 8    1  0.3776180E-010  0.9118800E+02  0.7816164E-02  0.1184000E+00
        -11   -1    0    0    0    0  0.00000000000E+00  0.00000000000E+00  0.45593999997E+02  0.45594000000E+02  0.51100000000E-03 0. -1.
         11   -1    0    0    0    0 -0.00000000000E+00 -0.00000000000E+00 -0.45593999997E+02  0.45594000000E+02  0.51100000000E-03 0.  1.
         23    2    1    2    0    0  0.00000000000E+00  0.00000000000E+00  0.00000000000E+00  0.91188000000E+02  0.91188000000E+02 0.  0.
    9900012    2    3    3    0    0 -0.40532810843E+02 -0.67641381389E+01  0.13962864085E+02  0.47787263911E+02  0.19999967476E+02 0.  0.
        -12    1    3    3    0    0  0.40532810843E+02  0.67641381389E+01 -0.13962864085E+02  0.43400736089E+02  0.00000000000E+00 0.  1.
         11    1    4    4    0    0 -0.88331940703E+01 -0.61712743380E+01  0.46466041741E+01  0.11734601614E+02  0.51100000000E-03 0. -1.
        -11    1    4    4    0    0 -0.15901243015E+02 -0.64202286255E+01  0.76147427669E+00  0.17165334496E+02  0.51100000000E-03 0.  1.
        -12    1    4    4    0    0 -0.15798373757E+02  0.58273648246E+01  0.85547856347E+01  0.18887327800E+02  0.00000000000E+00 0.  1.
</event>
<event>
 8    1  0.3776180E-010  0.9118800E+02  0.7816164E-02  0.1184000E+00
        -11   -1    0    0    0    0  0.00000000000E+00  0.00000000000E+00  0.45593999997E+02  0.45594000000E+02  0.51100000000E-03 0. -1.
         11   -1    0    0    0    0 -0.00000000000E+00 -0.00000000000E+00 -0.45593999997E+02  0.45594000000E+02  0.51100000000E-03 0.  1.
         23    2    1    2    0    0  0.88817841970E-15 -0.17763568394E-14 -0.71054273576E-14  0.91188000000E+02  0.91188000000E+02 0.  0.
    9900012    2    3    3    0    0  0.22856138187E+01  0.14109627571E+02  0.40979432297E+02  0.47787314612E+02  0.20000198643E+02 0.  0.
        -12    1    3    3    0    0 -0.22856138187E+01 -0.14109627571E+02 -0.40979432297E+02  0.43400685388E+02  0.00000000000E+00 0.  1.
         11    1    4    4    0    0  0.64615921565E+01  0.91370956097E+01  0.33633884861E+02  0.35446817918E+02  0.51100000000E-03 0. -1.
        -11    1    4    4    0    0  0.20563348039E+01  0.21967388404E+01  0.30150367766E+01  0.42596503829E+01  0.51100000000E-03 0.  1.
        -12    1    4    4    0    0 -0.62323131416E+01  0.27757931211E+01  0.43305106592E+01  0.80808463118E+01  0.00000000000E+00 0.  1.
</event>
<event>
 8    1  0.3776180E-010  0.9118800E+02  0.7816164E-02  0.1184000E+00
        -11   -1    0    0    0    0  0.00000000000E+00  0.00000000000E+00  0.45593999997E+02  0.45594000000E+02  0.51100000000E-03 0.  1.
         11   -1    0    0    0    0 -0.00000000000E+00 -0.00000000000E+00 -0.45593999997E+02  0.45594000000E+02  0.51100000000E-03 0. -1.
         23    2    1    2    0    0 -0.71054273576E-14  0.44408920985E-15  0.35527136788E-14  0.91188000000E+02  0.91188000000E+02 0.  0.
    9900012    2    3    3    0    0  0.39280424074E+02 -0.38761340517E+01 -0.18045695690E+02  0.47787271163E+02  0.20000000540E+02 0.  0.
         12    1    3    3    0    0 -0.39280424074E+02  0.38761340517E+01  0.18045695690E+02  0.43400728837E+02  0.00000000000E+00 0. -1.
         11    1    4    4    0    0  0.22508050143E+02  0.16043722428E+01 -0.12059670014E+02  0.25585581343E+02  0.51100000000E-03 0. -1.
        -11    1    4    4    0    0  0.16047635536E+02 -0.25152308175E+01 -0.84212812629E+01  0.18296747545E+02  0.51100000000E-03 0.  1.
         12    1    4    4    0    0  0.72473839500E+00 -0.29652754770E+01  0.24352555866E+01  0.39049422746E+01  0.00000000000E+00 0. -1.
</event>
<event>
 8    1  0.3776180E-010  0.9118800E+02  0.7816164E-02  0.1184000E+00
        -11   -1    0    0    0    0  0.00000000000E+00  0.00000000000E+00  0.45593999997E+02  0.45594000000E+02  0.51100000000E-03 0. -1.
         11   -1    0    0    0    0 -0.00000000000E+00 -0.00000000000E+00 -0.45593999997E+02  0.45594000000E+02  0.51100000000E-03 0.  1.
         23    2    1    2    0    0  0.00000000000E+00  0.22204460493E-15  0.00000000000E+00  0.91188000000E+02  0.91188000000E+02 0.  0.
    9900012    2    3    3    0    0 -0.33039442825E+01  0.16761238913E+01 -0.43242312966E+02  0.47787273396E+02  0.20000010720E+02 0.  0.
         12    1    3    3    0    0  0.33039442825E+01 -0.16761238913E+01  0.43242312966E+02  0.43400726604E+02  0.00000000000E+00 0. -1.
         11    1    4    4    0    0  0.29984734482E+00 -0.27271002791E+00 -0.19479852367E+02  0.19484068561E+02  0.51100000000E-03 0.  1.
        -11    1    4    4    0    0  0.21591991965E+00  0.75296248545E+01 -0.17638750449E+02  0.19179869383E+02  0.51100000000E-03 0. -1.
         12    1    4    4    0    0 -0.38197115470E+01 -0.55807909353E+01 -0.61237101493E+01  0.91233354514E+01  0.00000000000E+00 0. -1.
</event>
<event>
 8    1  0.3776180E-010  0.9118800E+02  0.7816164E-02  0.1184000E+00
        -11   -1    0    0    0    0  0.00000000000E+00  0.00000000000E+00  0.45593999997E+02  0.45594000000E+02  0.51100000000E-03 0. -1.
         11   -1    0    0    0    0 -0.00000000000E+00 -0.00000000000E+00 -0.45593999997E+02  0.45594000000E+02  0.51100000000E-03 0.  1.
         23    2    1    2    0    0  0.00000000000E+00  0.00000000000E+00  0.00000000000E+00  0.91188000000E+02  0.91188000000E+02 0.  0.
    9900012    2    3    3    0    0 -0.18856440825E+02 -0.10761711221E+02 -0.37579828187E+02  0.47787271025E+02  0.19999999910E+02 0.  0.
         12    1    3    3    0    0  0.18856440825E+02  0.10761711221E+02  0.37579828187E+02  0.43400728975E+02  0.00000000000E+00 0. -1.
         11    1    4    4    0    0  0.69198634965E-01 -0.15651177219E+01  0.19126219987E+01  0.24723480955E+01  0.51100000000E-03 0. -1.
        -11    1    4    4    0    0 -0.14893164256E+01 -0.32932763524E+01 -0.44630203640E+01  0.57430204230E+01  0.51100000000E-03 0.  1.
        -12    1    4    4    0    0 -0.17436323035E+02 -0.59033171465E+01 -0.35029429822E+02  0.39571902506E+02  0.00000000000E+00 0.  1.
</event>
<event>
 8    1  0.3776180E-010  0.9118800E+02  0.7816164E-02  0.1184000E+00
        -11   -1    0    0    0    0  0.00000000000E+00  0.00000000000E+00  0.45593999997E+02  0.45594000000E+02  0.51100000000E-03 0. -1.
         11   -1    0    0    0    0 -0.00000000000E+00 -0.00000000000E+00 -0.45593999997E+02  0.45594000000E+02  0.51100000000E-03 0.  1.
         23    2    1    2    0    0 -0.17763568394E-14  0.00000000000E+00  0.00000000000E+00  0.91188000000E+02  0.91188000000E+02 0.  0.
    9900012    2    3    3    0    0  0.15149890799E+02  0.16349230144E+02 -0.37239855050E+02  0.47787270494E+02  0.19999997489E+02 0.  0.
         12    1    3    3    0    0 -0.15149890799E+02 -0.16349230144E+02  0.37239855050E+02  0.43400729506E+02  0.00000000000E+00 0. -1.
         11    1    4    4    0    0  0.87906792876E+01  0.56561709457E-01 -0.66235554140E+01  0.11006849147E+02  0.51100000000E-03 0. -1.
        -11    1    4    4    0    0  0.74190113335E+01  0.52285631657E+01 -0.16292749796E+02  0.18650289492E+02  0.51100000000E-03 0.  1.
         12    1    4    4    0    0 -0.10597998217E+01  0.11064105269E+02 -0.14323549840E+02  0.18130131855E+02  0.00000000000E+00 0. -1.
</event>
<event>
 8    1  0.3776180E-010  0.9118800E+02  0.7816164E-02  0.1184000E+00
        -11   -1    0    0    0    0  0.00000000000E+00  0.00000000000E+00  0.45593999997E+02  0.45594000000E+02  0.51100000000E-03 0. -1.
         11   -1    0    0    0    0 -0.00000000000E+00 -0.00000000000E+00 -0.45593999997E+02  0.45594000000E+02  0.51100000000E-03 0.  1.
         23    2    1    2    0    0  0.38857805862E-15  0.00000000000E+00  0.71054273576E-14  0.91188000000E+02  0.91188000000E+02 0.  0.
    9900012    2    3    3    0    0 -0.25930095872E+00  0.42225155614E+01 -0.43194054808E+02  0.47787271373E+02  0.20000001496E+02 0.  0.
         12    1    3    3    0    0  0.25930095872E+00 -0.42225155614E+01  0.43194054808E+02  0.43400728627E+02  0.00000000000E+00 0. -1.
         11    1    4    4    0    0 -0.49204719334E+01  0.39095418453E+01 -0.16198390870E+02  0.17374792906E+02  0.51100000000E-03 0. -1.
        -11    1    4    4    0    0  0.21190963536E+01  0.34547059488E+01 -0.25913801382E+02  0.26228813639E+02  0.51100000000E-03 0.  1.
         12    1    4    4    0    0  0.25420746211E+01 -0.31417322327E+01 -0.10818625551E+01  0.41836648276E+01  0.00000000000E+00 0. -1.
</event>
<event>
 8    1  0.3776180E-010  0.9118800E+02  0.7816164E-02  0.1184000E+00
        -11   -1    0    0    0    0  0.00000000000E+00  0.00000000000E+00  0.45593999997E+02  0.45594000000E+02  0.51100000000E-03 0. -1.
         11   -1    0    0    0    0 -0.00000000000E+00 -0.00000000000E+00 -0.45593999997E+02  0.45594000000E+02  0.51100000000E-03 0.  1.
         23    2    1    2    0    0  0.00000000000E+00 -0.35527136788E-14  0.00000000000E+00  0.91188000000E+02  0.91188000000E+02 0.  0.
    9900012    2    3    3    0    0 -0.49989995074E+01  0.19432682937E+02 -0.38483815238E+02  0.47787271924E+02  0.20000004012E+02 0.  0.
         12    1    3    3    0    0  0.49989995074E+01 -0.19432682937E+02  0.38483815238E+02  0.43400728076E+02  0.00000000000E+00 0. -1.
         11    1    4    4    0    0  0.98245889030E+00 -0.20216118866E+01 -0.63071446699E+00  0.23345108891E+01  0.51100000000E-03 0. -1.
        -11    1    4    4    0    0 -0.33430291854E+01  0.95777281904E+01 -0.71044518783E+01  0.12384746997E+02  0.51100000000E-03 0.  1.
         12    1    4    4    0    0 -0.26384292123E+01  0.11876566634E+02 -0.30748648893E+02  0.33068014038E+02  0.00000000000E+00 0. -1.
</event>
<event>
 8    1  0.3776180E-010  0.9118800E+02  0.7816164E-02  0.1184000E+00
        -11   -1    0    0    0    0  0.00000000000E+00  0.00000000000E+00  0.45593999997E+02  0.45594000000E+02  0.51100000000E-03 0. -1.
         11   -1    0    0    0    0 -0.00000000000E+00 -0.00000000000E+00 -0.45593999997E+02  0.45594000000E+02  0.51100000000E-03 0.  1.
         23    2    1    2    0    0 -0.35527136788E-14 -0.71054273576E-14 -0.71054273576E-14  0.91188000000E+02  0.91188000000E+02 0.  0.
    9900012    2    3    3    0    0 -0.21439067123E+02 -0.23028068866E+02 -0.29894778870E+02  0.47787270069E+02  0.19999995555E+02 0.  0.
         12    1    3    3    0    0  0.21439067123E+02  0.23028068866E+02  0.29894778870E+02  0.43400729931E+02  0.00000000000E+00 0. -1.
         11    1    4    4    0    0 -0.15049461663E+02 -0.25299286525E+02 -0.22945516592E+02  0.37323409905E+02  0.51100000000E-03 0.  1.
        -11    1    4    4    0    0 -0.34561900473E-01  0.24436773073E+00 -0.23467101487E+01  0.23596522828E+01  0.51100000000E-03 0. -1.
        -12    1    4    4    0    0 -0.63550435601E+01  0.20268499283E+01 -0.46025521296E+01  0.81042078816E+01  0.00000000000E+00 0.  1.
</event>
<event>
 8    1  0.3776180E-010  0.9118800E+02  0.7816164E-02  0.1184000E+00
        -11   -1    0    0    0    0  0.00000000000E+00  0.00000000000E+00  0.45593999997E+02  0.45594000000E+02  0.51100000000E-03 0. -1.
         11   -1    0    0    0    0 -0.00000000000E+00 -0.00000000000E+00 -0.45593999997E+02  0.45594000000E+02  0.51100000000E-03 0.  1.
         23    2    1    2    0    0  0.35527136788E-14  0.00000000000E+00  0.00000000000E+00  0.91188000000E+02  0.91188000000E+02 0.  0.
    9900012    2    3    3    0    0 -0.30407781494E+02 -0.25881623410E+02  0.17003895416E+02  0.47787261930E+02  0.19999958442E+02 0.  0.
        -12    1    3    3    0    0  0.30407781494E+02  0.25881623410E+02 -0.17003895416E+02  0.43400738070E+02  0.00000000000E+00 0.  1.
         11    1    4    4    0    0 -0.10066660197E+02 -0.12758630814E+02  0.15575045971E+02  0.22510050311E+02  0.51100000000E-03 0. -1.
        -11    1    4    4    0    0 -0.60561703292E+00 -0.20213537337E+01 -0.12863718330E+01  0.24713145613E+01  0.51100000000E-03 0.  1.
         12    1    4    4    0    0 -0.19735504264E+02 -0.11101638863E+02  0.27152212785E+01  0.22805897057E+02  0.00000000000E+00 0. -1.
</event>
<event>
 8    1  0.3776180E-010  0.9118800E+02  0.7816164E-02  0.1184000E+00
        -11   -1    0    0    0    0  0.00000000000E+00  0.00000000000E+00  0.45593999997E+02  0.45594000000E+02  0.51100000000E-03 0. -1.
         11   -1    0    0    0    0 -0.00000000000E+00 -0.00000000000E+00 -0.45593999997E+02  0.45594000000E+02  0.51100000000E-03 0.  1.
         23    2    1    2    0    0  0.00000000000E+00  0.00000000000E+00  0.00000000000E+00  0.91188000000E+02  0.91188000000E+02 0.  0.
    9900012    2    3    3    0    0 -0.94505021179E+01  0.22183867756E+02  0.36085833681E+02  0.47787269921E+02  0.19999994880E+02 0.  0.
        -12    1    3    3    0    0  0.94505021179E+01 -0.22183867756E+02 -0.36085833681E+02  0.43400730079E+02  0.00000000000E+00 0.  1.
         11    1    4    4    0    0 -0.29850122838E+01  0.63975528901E+00  0.33407969411E+01  0.45255397056E+01  0.51100000000E-03 0. -1.
        -11    1    4    4    0    0 -0.41823040410E+01  0.24179133282E+02  0.26548874278E+02  0.36151969228E+02  0.51100000000E-03 0.  1.
        -12    1    4    4    0    0 -0.22831857932E+01 -0.26350208144E+01  0.61961624615E+01  0.71097609881E+01  0.00000000000E+00 0.  1.
</event>
<event>
 8    1  0.3776180E-010  0.9118800E+02  0.7816164E-02  0.1184000E+00
        -11   -1    0    0    0    0  0.00000000000E+00  0.00000000000E+00  0.45593999997E+02  0.45594000000E+02  0.51100000000E-03 0. -1.
         11   -1    0    0    0    0 -0.00000000000E+00 -0.00000000000E+00 -0.45593999997E+02  0.45594000000E+02  0.51100000000E-03 0.  1.
         23    2    1    2    0    0  0.00000000000E+00  0.00000000000E+00 -0.44408920985E-15  0.91188000000E+02  0.91188000000E+02 0.  0.
    9900012    2    3    3    0    0  0.25464123805E+02  0.35036417592E+02  0.27661068290E+01  0.47787268372E+02  0.19999987817E+02 0.  0.
         12    1    3    3    0    0 -0.25464123805E+02 -0.35036417592E+02 -0.27661068290E+01  0.43400731628E+02  0.00000000000E+00 0. -1.
         11    1    4    4    0    0  0.45295666330E+01 -0.16727178538E+01 -0.40741637571E+00  0.48457143194E+01  0.51100000000E-03 0. -1.
        -11    1    4    4    0    0  0.35497173665E+01  0.97432843810E+01 -0.16390960752E+01  0.10498510376E+02  0.51100000000E-03 0.  1.
         12    1    4    4    0    0  0.17384839805E+02  0.26965851065E+02  0.48126192799E+01  0.32443043677E+02  0.00000000000E+00 0. -1.
</event>
<event>
 8    1  0.3776180E-010  0.9118800E+02  0.7816164E-02  0.1184000E+00
        -11   -1    0    0    0    0  0.00000000000E+00  0.00000000000E+00  0.45593999997E+02  0.45594000000E+02  0.51100000000E-03 0. -1.
         11   -1    0    0    0    0 -0.00000000000E+00 -0.00000000000E+00 -0.45593999997E+02  0.45594000000E+02  0.51100000000E-03 0.  1.
         23    2    1    2    0    0 -0.17763568394E-14  0.00000000000E+00  0.00000000000E+00  0.91188000000E+02  0.91188000000E+02 0.  0.
    9900012    2    3    3    0    0 -0.11921955053E+02  0.12053514475E+02 -0.39952507905E+02  0.47787272916E+02  0.20000008535E+02 0.  0.
         12    1    3    3    0    0  0.11921955053E+02 -0.12053514475E+02  0.39952507905E+02  0.43400727084E+02  0.00000000000E+00 0. -1.
         11    1    4    4    0    0  0.27267566204E+01  0.10529890466E+02 -0.20205097471E+02  0.22946889963E+02  0.51100000000E-03 0. -1.
        -11    1    4    4    0    0  0.21264913447E-01  0.14394725785E+00  0.56630490404E-01  0.15614186867E+00  0.51100000000E-03 0.  1.
        -12    1    4    4    0    0 -0.14669976587E+02  0.13796767506E+01 -0.19804040925E+02  0.24684241085E+02  0.00000000000E+00 0.  1.
</event>
<event>
 8    1  0.3776180E-010  0.9118800E+02  0.7816164E-02  0.1184000E+00
        -11   -1    0    0    0    0  0.00000000000E+00  0.00000000000E+00  0.45593999997E+02  0.45594000000E+02  0.51100000000E-03 0. -1.
         11   -1    0    0    0    0 -0.00000000000E+00 -0.00000000000E+00 -0.45593999997E+02  0.45594000000E+02  0.51100000000E-03 0.  1.
         23    2    1    2    0    0  0.00000000000E+00  0.35527136788E-14  0.00000000000E+00  0.91188000000E+02  0.91188000000E+02 0.  0.
    9900012    2    3    3    0    0 -0.21831295686E+02  0.24577397579E+02  0.28336720144E+02  0.47787266693E+02  0.19999980160E+02 0.  0.
        -12    1    3    3    0    0  0.21831295686E+02 -0.24577397579E+02 -0.28336720144E+02  0.43400733307E+02  0.00000000000E+00 0.  1.
         11    1    4    4    0    0 -0.13486716371E+01  0.14454120661E+01  0.82413200549E+01  0.84751098951E+01  0.51100000000E-03 0. -1.
        -11    1    4    4    0    0 -0.17410281382E+02  0.11760253910E+02  0.81490111028E+01  0.22535036100E+02  0.51100000000E-03 0.  1.
         12    1    4    4    0    0 -0.30723426676E+01  0.11371731602E+02  0.11946388986E+02  0.16777120698E+02  0.00000000000E+00 0. -1.
</event>
<event>
 8    1  0.3776180E-010  0.9118800E+02  0.7816164E-02  0.1184000E+00
        -11   -1    0    0    0    0  0.00000000000E+00  0.00000000000E+00  0.45593999997E+02  0.45594000000E+02  0.51100000000E-03 0. -1.
         11   -1    0    0    0    0 -0.00000000000E+00 -0.00000000000E+00 -0.45593999997E+02  0.45594000000E+02  0.51100000000E-03 0.  1.
         23    2    1    2    0    0  0.00000000000E+00 -0.88817841970E-15  0.00000000000E+00  0.91188000000E+02  0.91188000000E+02 0.  0.
    9900012    2    3    3    0    0 -0.15768686132E+01  0.41075023247E+01  0.43177136753E+02  0.47787271571E+02  0.20000002402E+02 0.  0.
        -12    1    3    3    0    0  0.15768686132E+01 -0.41075023247E+01 -0.43177136753E+02  0.43400728429E+02  0.00000000000E+00 0.  1.
         11    1    4    4    0    0  0.16558184905E+01 -0.67883158931E+00  0.20811106349E+02  0.20887907864E+02  0.51100000000E-03 0. -1.
        -11    1    4    4    0    0 -0.13196362684E+01  0.87555898229E+01  0.20057576916E+02  0.21925058382E+02  0.51100000000E-03 0.  1.
         12    1    4    4    0    0 -0.19130508353E+01 -0.39692559089E+01  0.23084534877E+01  0.49743053257E+01  0.00000000000E+00 0. -1.
</event>
<event>
 8    1  0.3776180E-010  0.9118800E+02  0.7816164E-02  0.1184000E+00
        -11   -1    0    0    0    0  0.00000000000E+00  0.00000000000E+00  0.45593999997E+02  0.45594000000E+02  0.51100000000E-03 0.  1.
         11   -1    0    0    0    0 -0.00000000000E+00 -0.00000000000E+00 -0.45593999997E+02  0.45594000000E+02  0.51100000000E-03 0. -1.
         23    2    1    2    0    0  0.00000000000E+00  0.00000000000E+00 -0.88817841970E-15  0.91188000000E+02  0.91188000000E+02 0.  0.
    9900012    2    3    3    0    0 -0.25952450687E+02  0.34721835534E+02 -0.21184524214E+01  0.47787269589E+02  0.19999993364E+02 0.  0.
        -12    1    3    3    0    0  0.25952450687E+02 -0.34721835534E+02  0.21184524214E+01  0.43400730411E+02  0.00000000000E+00 0.  1.
         11    1    4    4    0    0 -0.11271207309E+02  0.79339149212E+01 -0.53374485420E+01  0.14780915985E+02  0.51100000000E-03 0. -1.
        -11    1    4    4    0    0 -0.36369146092E+01  0.99409391065E+00 -0.22907365681E+01  0.44116714364E+01  0.51100000000E-03 0.  1.
         12    1    4    4    0    0 -0.11044328770E+02  0.25793826703E+02  0.55097326886E+01  0.28594682167E+02  0.00000000000E+00 0. -1.
</event>
<event>
 8    1  0.3776180E-010  0.9118800E+02  0.7816164E-02  0.1184000E+00
        -11   -1    0    0    0    0  0.00000000000E+00  0.00000000000E+00  0.45593999997E+02  0.45594000000E+02  0.51100000000E-03 0.  1.
         11   -1    0    0    0    0 -0.00000000000E+00 -0.00000000000E+00 -0.45593999997E+02  0.45594000000E+02  0.51100000000E-03 0. -1.
         23    2    1    2    0    0  0.00000000000E+00  0.71054273576E-14  0.00000000000E+00  0.91188000000E+02  0.91188000000E+02 0.  0.
    9900012    2    3    3    0    0  0.26187450639E+02 -0.33348108081E+02 -0.92598269830E+01  0.47787270982E+02  0.19999999717E+02 0.  0.
         12    1    3    3    0    0 -0.26187450639E+02  0.33348108081E+02  0.92598269830E+01  0.43400729018E+02  0.00000000000E+00 0. -1.
         11    1    4    4    0    0  0.21934052058E+01  0.29509417019E+00 -0.26456088628E+01  0.34492540472E+01  0.51100000000E-03 0. -1.
        -11    1    4    4    0    0  0.17336273401E+02 -0.12676637708E+02 -0.40555839303E+00  0.21480409607E+02  0.51100000000E-03 0.  1.
         12    1    4    4    0    0  0.66577720318E+01 -0.20966564542E+02 -0.62086597271E+01  0.22857607328E+02  0.00000000000E+00 0. -1.
</event>
<event>
 8    1  0.3776180E-010  0.9118800E+02  0.7816164E-02  0.1184000E+00
        -11   -1    0    0    0    0  0.00000000000E+00  0.00000000000E+00  0.45593999997E+02  0.45594000000E+02  0.51100000000E-03 0. -1.
         11   -1    0    0    0    0 -0.00000000000E+00 -0.00000000000E+00 -0.45593999997E+02  0.45594000000E+02  0.51100000000E-03 0.  1.
         23    2    1    2    0    0  0.44408920985E-15  0.00000000000E+00  0.00000000000E+00  0.91188000000E+02  0.91188000000E+02 0.  0.
    9900012    2    3    3    0    0  0.33307560561E+01  0.27858181333E+02 -0.33112704189E+02  0.47787269801E+02  0.19999994330E+02 0.  0.
         12    1    3    3    0    0 -0.33307560561E+01 -0.27858181333E+02  0.33112704189E+02  0.43400730199E+02  0.00000000000E+00 0. -1.
         11    1    4    4    0    0  0.31075412766E+01  0.35104500717E+01 -0.39790930700E+01  0.61492482803E+01  0.51100000000E-03 0. -1.
        -11    1    4    4    0    0 -0.58762360902E+00  0.26444697487E+02 -0.29186238807E+02  0.39389133814E+02  0.51100000000E-03 0.  1.
        -12    1    4    4    0    0  0.81083838854E+00 -0.20969662250E+01  0.52627688270E-01  0.22488877061E+01  0.00000000000E+00 0.  1.
</event>
<event>
 8    1  0.3776180E-010  0.9118800E+02  0.7816164E-02  0.1184000E+00
        -11   -1    0    0    0    0  0.00000000000E+00  0.00000000000E+00  0.45593999997E+02  0.45594000000E+02  0.51100000000E-03 0. -1.
         11   -1    0    0    0    0 -0.00000000000E+00 -0.00000000000E+00 -0.45593999997E+02  0.45594000000E+02  0.51100000000E-03 0.  1.
         23    2    1    2    0    0  0.35527136788E-14 -0.35527136788E-14  0.35527136788E-14  0.91188000000E+02  0.91188000000E+02 0.  0.
    9900012    2    3    3    0    0  0.21010100035E+02 -0.28677445820E+02  0.24895826755E+02  0.47787281204E+02  0.20000046319E+02 0.  0.
        -12    1    3    3    0    0 -0.21010100035E+02  0.28677445820E+02 -0.24895826755E+02  0.43400718796E+02  0.00000000000E+00 0.  1.
         11    1    4    4    0    0  0.61644348228E+01 -0.42315110931E+01  0.96384120096E-01  0.74776488936E+01  0.51100000000E-03 0.  1.
        -11    1    4    4    0    0  0.17477759852E+02 -0.19584311414E+02  0.20386731257E+02  0.33236067075E+02  0.51100000000E-03 0. -1.
         12    1    4    4    0    0 -0.26320946399E+01 -0.48616233125E+01  0.44127113778E+01  0.70735652348E+01  0.00000000000E+00 0. -1.
</event>
<event>
 8    1  0.3776180E-010  0.9118800E+02  0.7816164E-02  0.1184000E+00
        -11   -1    0    0    0    0  0.00000000000E+00  0.00000000000E+00  0.45593999997E+02  0.45594000000E+02  0.51100000000E-03 0. -1.
         11   -1    0    0    0    0 -0.00000000000E+00 -0.00000000000E+00 -0.45593999997E+02  0.45594000000E+02  0.51100000000E-03 0.  1.
         23    2    1    2    0    0  0.88817841970E-15 -0.35527136788E-14  0.71054273576E-14  0.91188000000E+02  0.91188000000E+02 0.  0.
    9900012    2    3    3    0    0  0.67765081019E+01 -0.12504311410E+02  0.41004209847E+02  0.47787261630E+02  0.19999957076E+02 0.  0.
        -12    1    3    3    0    0 -0.67765081019E+01  0.12504311410E+02 -0.41004209847E+02  0.43400738370E+02  0.00000000000E+00 0.  1.
         11    1    4    4    0    0  0.30963835989E+01 -0.69834978532E+01  0.66014038425E+01  0.10096304602E+02  0.51100000000E-03 0. -1.
        -11    1    4    4    0    0 -0.63103259332E+00 -0.89072391772E+01  0.27270157760E+02  0.28694923182E+02  0.51100000000E-03 0.  1.
        -12    1    4    4    0    0  0.43111570963E+01  0.33864256202E+01  0.71326482446E+01  0.89960338467E+01  0.00000000000E+00 0.  1.
</event>
<event>
 8    1  0.4451266E-010  0.9118800E+02  0.7816164E-02  0.1184000E+00
        -11   -1    0    0    0    0  0.00000000000E+00  0.00000000000E+00  0.45593999997E+02  0.45594000000E+02  0.51100000000E-03 0. -1.
         11   -1    0    0    0    0 -0.00000000000E+00 -0.00000000000E+00 -0.45593999997E+02  0.45594000000E+02  0.51100000000E-03 0.  1.
         23    2    1    2    0    0  0.00000000000E+00  0.00000000000E+00 -0.35527136788E-14  0.91188000000E+02  0.91188000000E+02 0.  0.
    9900012    2    3    3    0    0  0.28404739532E+02  0.89697524640E+01  0.31564816949E+02  0.47787270096E+02  0.19999995678E+02 0.  0.
        -12    1    3    3    0    0 -0.28404739532E+02 -0.89697524640E+01 -0.31564816949E+02  0.43400729904E+02  0.00000000000E+00 0.  1.
         11    1    4    4    0    0  0.80643589897E+01  0.75360639498E+01  0.13493755514E+02  0.17432945359E+02  0.51100000000E-03 0. -1.
        -11    1    4    4    0    0  0.12252233970E+02 -0.59290586546E+00  0.18279159127E+02  0.22013551128E+02  0.51100000000E-03 0.  1.
        -12    1    4    4    0    0  0.80881465719E+01  0.20265943796E+01 -0.20809769162E+00  0.83407736091E+01  0.00000000000E+00 0.  1.
</event>
<event>
 8    1  0.3776180E-010  0.9118800E+02  0.7816164E-02  0.1184000E+00
        -11   -1    0    0    0    0  0.00000000000E+00  0.00000000000E+00  0.45593999997E+02  0.45594000000E+02  0.51100000000E-03 0. -1.
         11   -1    0    0    0    0 -0.00000000000E+00 -0.00000000000E+00 -0.45593999997E+02  0.45594000000E+02  0.51100000000E-03 0.  1.
         23    2    1    2    0    0  0.00000000000E+00  0.00000000000E+00 -0.35527136788E-14  0.91188000000E+02  0.91188000000E+02 0.  0.
    9900012    2    3    3    0    0  0.27726847189E+02 -0.18395152657E+02  0.27865090956E+02  0.47787274312E+02  0.20000014896E+02 0.  0.
        -12    1    3    3    0    0 -0.27726847189E+02  0.18395152657E+02 -0.27865090956E+02  0.43400725688E+02  0.00000000000E+00 0.  1.
         11    1    4    4    0    0  0.19122626336E+02 -0.63091872476E+01  0.19650046464E+02  0.28135475969E+02  0.51100000000E-03 0. -1.
        -11    1    4    4    0    0  0.89258524052E+01 -0.85012724828E+01  0.97723171246E+01  0.15730246572E+02  0.51100000000E-03 0.  1.
        -12    1    4    4    0    0 -0.32163155219E+00 -0.35846929270E+01 -0.15572726325E+01  0.39215517704E+01  0.00000000000E+00 0.  1.
</event>
<event>
 8    1  0.3776180E-010  0.9118800E+02  0.7816164E-02  0.1184000E+00
        -11   -1    0    0    0    0  0.00000000000E+00  0.00000000000E+00  0.45593999997E+02  0.45594000000E+02  0.51100000000E-03 0. -1.
         11   -1    0    0    0    0 -0.00000000000E+00 -0.00000000000E+00 -0.45593999997E+02  0.45594000000E+02  0.51100000000E-03 0.  1.
         23    2    1    2    0    0  0.00000000000E+00  0.14432899320E-14 -0.35527136788E-14  0.91188000000E+02  0.91188000000E+02 0.  0.
    9900012    2    3    3    0    0 -0.33816201422E+02  0.67723355345E+00 -0.27196114015E+02  0.47787277178E+02  0.20000027967E+02 0.  0.
         12    1    3    3    0    0  0.33816201422E+02 -0.67723355345E+00  0.27196114015E+02  0.43400722822E+02  0.00000000000E+00 0. -1.
         11    1    4    4    0    0 -0.22089614064E+02  0.83132141648E+01 -0.17495521194E+02  0.29379479937E+02  0.51100000000E-03 0. -1.
        -11    1    4    4    0    0 -0.39825991888E+01  0.85542459487E+00 -0.33729721550E+01  0.52886471764E+01  0.51100000000E-03 0.  1.
        -12    1    4    4    0    0 -0.77439881697E+01 -0.84914052062E+01 -0.63276206657E+01  0.13119150065E+02  0.00000000000E+00 0.  1.
</event>
<event>
 8    1  0.3776180E-010  0.9118800E+02  0.7816164E-02  0.1184000E+00
        -11   -1    0    0    0    0  0.00000000000E+00  0.00000000000E+00  0.45593999997E+02  0.45594000000E+02  0.51100000000E-03 0. -1.
         11   -1    0    0    0    0 -0.00000000000E+00 -0.00000000000E+00 -0.45593999997E+02  0.45594000000E+02  0.51100000000E-03 0.  1.
         23    2    1    2    0    0  0.00000000000E+00  0.44408920985E-15 -0.14210854715E-13  0.91188000000E+02  0.91188000000E+02 0.  0.
    9900012    2    3    3    0    0 -0.19164293011E+02  0.39532101261E+01 -0.38739197120E+02  0.47787269702E+02  0.19999993880E+02 0.  0.
         12    1    3    3    0    0  0.19164293011E+02 -0.39532101261E+01  0.38739197120E+02  0.43400730298E+02  0.00000000000E+00 0. -1.
         11    1    4    4    0    0  0.95671383617E+00  0.19741682734E+00 -0.39683980623E+01  0.40868641047E+01  0.51100000000E-03 0. -1.
        -11    1    4    4    0    0 -0.19808251189E+02  0.70749181058E+01 -0.34433494528E+02  0.40349557954E+02  0.51100000000E-03 0.  1.
        -12    1    4    4    0    0 -0.31275565811E+00 -0.33191248071E+01 -0.33730452911E+00  0.33508476438E+01  0.00000000000E+00 0.  1.
</event>
<event>
 8    1  0.3776180E-010  0.9118800E+02  0.7816164E-02  0.1184000E+00
        -11   -1    0    0    0    0  0.00000000000E+00  0.00000000000E+00  0.45593999997E+02  0.45594000000E+02  0.51100000000E-03 0. -1.
         11   -1    0    0    0    0 -0.00000000000E+00 -0.00000000000E+00 -0.45593999997E+02  0.45594000000E+02  0.51100000000E-03 0.  1.
         23    2    1    2    0    0  0.00000000000E+00  0.00000000000E+00  0.00000000000E+00  0.91188000000E+02  0.91188000000E+02 0.  0.
    9900012    2    3    3    0    0  0.95285343413E+01 -0.11225641671E+02 -0.40826648316E+02  0.47787271776E+02  0.20000003337E+02 0.  0.
         12    1    3    3    0    0 -0.95285343413E+01  0.11225641671E+02  0.40826648316E+02  0.43400728224E+02  0.00000000000E+00 0. -1.
         11    1    4    4    0    0  0.41599374244E+01 -0.10784595166E+01  0.98742224291E+00  0.44094395620E+01  0.51100000000E-03 0. -1.
        -11    1    4    4    0    0  0.13995888583E+01 -0.31570076751E+01 -0.10780548973E+02  0.11320149418E+02  0.51100000000E-03 0.  1.
         12    1    4    4    0    0  0.39690080586E+01 -0.69901744788E+01 -0.31033521587E+02  0.32057682796E+02  0.00000000000E+00 0. -1.
</event>
<event>
 8    1  0.3776180E-010  0.9118800E+02  0.7816164E-02  0.1184000E+00
        -11   -1    0    0    0    0  0.00000000000E+00  0.00000000000E+00  0.45593999997E+02  0.45594000000E+02  0.51100000000E-03 0. -1.
         11   -1    0    0    0    0 -0.00000000000E+00 -0.00000000000E+00 -0.45593999997E+02  0.45594000000E+02  0.51100000000E-03 0.  1.
         23    2    1    2    0    0  0.00000000000E+00 -0.35527136788E-14  0.00000000000E+00  0.91188000000E+02  0.91188000000E+02 0.  0.
    9900012    2    3    3    0    0  0.20350317039E+02  0.30781407914E+02 -0.22847163199E+02  0.47787270248E+02  0.19999996367E+02 0.  0.
         12    1    3    3    0    0 -0.20350317039E+02 -0.30781407914E+02  0.22847163199E+02  0.43400729752E+02  0.00000000000E+00 0. -1.
         11    1    4    4    0    0  0.43701585290E+01  0.72839060443E+01  0.18123176366E+01  0.86855090989E+01  0.51100000000E-03 0. -1.
        -11    1    4    4    0    0  0.19352962058E+01  0.39269504930E+01  0.33258904253E+00  0.43905497732E+01  0.51100000000E-03 0.  1.
        -12    1    4    4    0    0  0.14044862305E+02  0.19570551377E+02 -0.24992069878E+02  0.34711211376E+02  0.00000000000E+00 0.  1.
</event>
<event>
 8    1  0.3776180E-010  0.9118800E+02  0.7816164E-02  0.1184000E+00
        -11   -1    0    0    0    0  0.00000000000E+00  0.00000000000E+00  0.45593999997E+02  0.45594000000E+02  0.51100000000E-03 0. -1.
         11   -1    0    0    0    0 -0.00000000000E+00 -0.00000000000E+00 -0.45593999997E+02  0.45594000000E+02  0.51100000000E-03 0.  1.
         23    2    1    2    0    0  0.00000000000E+00  0.00000000000E+00  0.00000000000E+00  0.91188000000E+02  0.91188000000E+02 0.  0.
    9900012    2    3    3    0    0 -0.23103579736E+02  0.19135036916E+02 -0.31363963109E+02  0.47787271708E+02  0.20000003024E+02 0.  0.
         12    1    3    3    0    0  0.23103579736E+02 -0.19135036916E+02  0.31363963109E+02  0.43400728292E+02  0.00000000000E+00 0. -1.
         11    1    4    4    0    0 -0.10791055906E+02  0.97170529576E+01 -0.25960886502E+02  0.29746186881E+02  0.51100000000E-03 0. -1.
        -11    1    4    4    0    0 -0.88051170474E+01  0.54955488878E+01 -0.70269604153E+01  0.12534325540E+02  0.51100000000E-03 0.  1.
         12    1    4    4    0    0 -0.35074067824E+01  0.39224350711E+01  0.16238838076E+01  0.55067592870E+01  0.00000000000E+00 0. -1.
</event>
<event>
 8    1  0.3776180E-010  0.9118800E+02  0.7816164E-02  0.1184000E+00
        -11   -1    0    0    0    0  0.00000000000E+00  0.00000000000E+00  0.45593999997E+02  0.45594000000E+02  0.51100000000E-03 0. -1.
         11   -1    0    0    0    0 -0.00000000000E+00 -0.00000000000E+00 -0.45593999997E+02  0.45594000000E+02  0.51100000000E-03 0.  1.
         23    2    1    2    0    0 -0.88817841970E-15  0.00000000000E+00  0.00000000000E+00  0.91188000000E+02  0.91188000000E+02 0.  0.
    9900012    2    3    3    0    0  0.37625934326E+01  0.39731895801E+02  0.17054113203E+02  0.47787269241E+02  0.19999991779E+02 0.  0.
        -12    1    3    3    0    0 -0.37625934326E+01 -0.39731895801E+02 -0.17054113203E+02  0.43400730759E+02  0.00000000000E+00 0.  1.
         11    1    4    4    0    0  0.53050176331E+01  0.29992129555E+02  0.88348774450E+01  0.31713185067E+02  0.51100000000E-03 0. -1.
        -11    1    4    4    0    0 -0.50971129608E+00  0.31238016016E+01 -0.20814971338E+01  0.37882149663E+01  0.51100000000E-03 0.  1.
         12    1    4    4    0    0 -0.10327129044E+01  0.66159646439E+01  0.10300732891E+02  0.12285869209E+02  0.00000000000E+00 0. -1.
</event>
<event>
 8    1  0.3776180E-010  0.9118800E+02  0.7816164E-02  0.1184000E+00
        -11   -1    0    0    0    0  0.00000000000E+00  0.00000000000E+00  0.45593999997E+02  0.45594000000E+02  0.51100000000E-03 0. -1.
         11   -1    0    0    0    0 -0.00000000000E+00 -0.00000000000E+00 -0.45593999997E+02  0.45594000000E+02  0.51100000000E-03 0.  1.
         23    2    1    2    0    0  0.00000000000E+00 -0.35527136788E-14  0.00000000000E+00  0.91188000000E+02  0.91188000000E+02 0.  0.
    9900012    2    3    3    0    0 -0.89165334998E+01 -0.28274105376E+02 -0.31696906185E+02  0.47787268829E+02  0.19999989899E+02 0.  0.
         12    1    3    3    0    0  0.89165334998E+01  0.28274105376E+02  0.31696906185E+02  0.43400731171E+02  0.00000000000E+00 0. -1.
         11    1    4    4    0    0  0.36986862342E+01 -0.64368994155E+01 -0.38876065268E+01  0.83801813055E+01  0.51100000000E-03 0. -1.
        -11    1    4    4    0    0  0.13606356432E+01 -0.97408751565E+00  0.31564984824E+00  0.17028831227E+01  0.51100000000E-03 0.  1.
        -12    1    4    4    0    0 -0.13975855377E+02 -0.20863118445E+02 -0.28124949506E+02  0.37704204401E+02  0.00000000000E+00 0.  1.
</event>
<event>
 8    1  0.3776180E-010  0.9118800E+02  0.7816164E-02  0.1184000E+00
        -11   -1    0    0    0    0  0.00000000000E+00  0.00000000000E+00  0.45593999997E+02  0.45594000000E+02  0.51100000000E-03 0. -1.
         11   -1    0    0    0    0 -0.00000000000E+00 -0.00000000000E+00 -0.45593999997E+02  0.45594000000E+02  0.51100000000E-03 0.  1.
         23    2    1    2    0    0  0.00000000000E+00  0.00000000000E+00  0.00000000000E+00  0.91188000000E+02  0.91188000000E+02 0.  0.
    9900012    2    3    3    0    0  0.13634374154E+02 -0.11997918629E+02 -0.39417981440E+02  0.47787268776E+02  0.19999989657E+02 0.  0.
         12    1    3    3    0    0 -0.13634374154E+02  0.11997918629E+02  0.39417981440E+02  0.43400731224E+02  0.00000000000E+00 0. -1.
         11    1    4    4    0    0  0.90256701585E+00  0.26472882563E+01 -0.51104880633E+01  0.58257918634E+01  0.51100000000E-03 0. -1.
        -11    1    4    4    0    0  0.35013741653E+01  0.17394406403E+01 -0.15823740924E+01  0.42177224679E+01  0.51100000000E-03 0.  1.
        -12    1    4    4    0    0  0.92304329731E+01 -0.16384647526E+02 -0.32725119284E+02  0.37743754445E+02  0.00000000000E+00 0.  1.
</event>
<event>
 8    1  0.3776180E-010  0.9118800E+02  0.7816164E-02  0.1184000E+00
        -11   -1    0    0    0    0  0.00000000000E+00  0.00000000000E+00  0.45593999997E+02  0.45594000000E+02  0.51100000000E-03 0. -1.
         11   -1    0    0    0    0 -0.00000000000E+00 -0.00000000000E+00 -0.45593999997E+02  0.45594000000E+02  0.51100000000E-03 0.  1.
         23    2    1    2    0    0  0.00000000000E+00  0.00000000000E+00  0.00000000000E+00  0.91188000000E+02  0.91188000000E+02 0.  0.
    9900012    2    3    3    0    0 -0.98958553102E+01 -0.11955016783E+02  0.40531134388E+02  0.47787271511E+02  0.20000002125E+02 0.  0.
        -12    1    3    3    0    0  0.98958553102E+01  0.11955016783E+02 -0.40531134388E+02  0.43400728489E+02  0.00000000000E+00 0.  1.
         11    1    4    4    0    0  0.32484166113E+00 -0.15905012448E+01  0.47237671601E+00  0.16906674237E+01  0.51100000000E-03 0.  1.
        -11    1    4    4    0    0 -0.34023580951E+01 -0.47873852855E+01  0.35860997429E+02  0.36338770416E+02  0.51100000000E-03 0. -1.
         12    1    4    4    0    0 -0.68183388763E+01 -0.55771302524E+01  0.41977602430E+01  0.97578336706E+01  0.00000000000E+00 0. -1.
</event>
<event>
 8    1  0.3776180E-010  0.9118800E+02  0.7816164E-02  0.1184000E+00
        -11   -1    0    0    0    0  0.00000000000E+00  0.00000000000E+00  0.45593999997E+02  0.45594000000E+02  0.51100000000E-03 0. -1.
         11   -1    0    0    0    0 -0.00000000000E+00 -0.00000000000E+00 -0.45593999997E+02  0.45594000000E+02  0.51100000000E-03 0.  1.
         23    2    1    2    0    0  0.00000000000E+00  0.00000000000E+00  0.00000000000E+00  0.91188000000E+02  0.91188000000E+02 0.  0.
    9900012    2    3    3    0    0 -0.25476494468E+02 -0.15489844791E+01 -0.35102310926E+02  0.47787270103E+02  0.19999995706E+02 0.  0.
         12    1    3    3    0    0  0.25476494468E+02  0.15489844791E+01  0.35102310926E+02  0.43400729897E+02  0.00000000000E+00 0. -1.
         11    1    4    4    0    0 -0.45729361554E+01  0.39879626057E+01 -0.12664656734E+02  0.14043116508E+02  0.51100000000E-03 0. -1.
        -11    1    4    4    0    0 -0.98635258399E+01  0.14403184973E+01 -0.31559945412E+01  0.10455809924E+02  0.51100000000E-03 0.  1.
         12    1    4    4    0    0 -0.11040032472E+02 -0.69772655821E+01 -0.19281659651E+02  0.23288343670E+02  0.00000000000E+00 0. -1.
</event>
<event>
 8    1  0.3776180E-010  0.9118800E+02  0.7816164E-02  0.1184000E+00
        -11   -1    0    0    0    0  0.00000000000E+00  0.00000000000E+00  0.45593999997E+02  0.45594000000E+02  0.51100000000E-03 0. -1.
         11   -1    0    0    0    0 -0.00000000000E+00 -0.00000000000E+00 -0.45593999997E+02  0.45594000000E+02  0.51100000000E-03 0.  1.
         23    2    1    2    0    0  0.35527136788E-14  0.00000000000E+00  0.35527136788E-14  0.91188000000E+02  0.91188000000E+02 0.  0.
    9900012    2    3    3    0    0  0.16657921516E+02  0.32295017713E+02  0.23731177794E+02  0.47787270539E+02  0.19999997693E+02 0.  0.
        -12    1    3    3    0    0 -0.16657921516E+02 -0.32295017713E+02 -0.23731177794E+02  0.43400729461E+02  0.00000000000E+00 0.  1.
         11    1    4    4    0    0 -0.70826542045E+00  0.93284974931E+01  0.23521972862E+01  0.96465194614E+01  0.51100000000E-03 0. -1.
        -11    1    4    4    0    0  0.10411601657E+02  0.18969740143E+02  0.91016237416E+01  0.23475349734E+02  0.51100000000E-03 0.  1.
        -12    1    4    4    0    0  0.69545852796E+01  0.39967800772E+01  0.12277356766E+02  0.14665401343E+02  0.00000000000E+00 0.  1.
</event>
<event>
 8    1  0.3794460E-010  0.9118800E+02  0.7816164E-02  0.1184000E+00
        -11   -1    0    0    0    0  0.00000000000E+00  0.00000000000E+00  0.45593999997E+02  0.45594000000E+02  0.51100000000E-03 0. -1.
         11   -1    0    0    0    0 -0.00000000000E+00 -0.00000000000E+00 -0.45593999997E+02  0.45594000000E+02  0.51100000000E-03 0.  1.
         23    2    1    2    0    0  0.88817841970E-15  0.17763568394E-14  0.71054273576E-14  0.91188000000E+02  0.91188000000E+02 0.  0.
    9900012    2    3    3    0    0 -0.19257581405E+01  0.14092894824E+02  0.41003718875E+02  0.47787272004E+02  0.20000004377E+02 0.  0.
        -12    1    3    3    0    0  0.19257581405E+01 -0.14092894824E+02 -0.41003718875E+02  0.43400727996E+02  0.00000000000E+00 0.  1.
         11    1    4    4    0    0  0.43726385411E+01  0.76695269030E+01  0.10689348262E+02  0.13863757689E+02  0.51100000000E-03 0. -1.
        -11    1    4    4    0    0  0.90487027800E+00  0.50884703322E+01  0.22991584302E+02  0.23565319211E+02  0.51100000000E-03 0.  1.
        -12    1    4    4    0    0 -0.72032669596E+01  0.13348975888E+01  0.73227863111E+01  0.10358195104E+02  0.00000000000E+00 0.  1.
</event>
<event>
 8    1  0.3776180E-010  0.9118800E+02  0.7816164E-02  0.1184000E+00
        -11   -1    0    0    0    0  0.00000000000E+00  0.00000000000E+00  0.45593999997E+02  0.45594000000E+02  0.51100000000E-03 0. -1.
         11   -1    0    0    0    0 -0.00000000000E+00 -0.00000000000E+00 -0.45593999997E+02  0.45594000000E+02  0.51100000000E-03 0.  1.
         23    2    1    2    0    0  0.00000000000E+00  0.00000000000E+00  0.00000000000E+00  0.91188000000E+02  0.91188000000E+02 0.  0.
    9900012    2    3    3    0    0  0.21687705606E+02  0.26065125771E+01 -0.37502966111E+02  0.47787274783E+02  0.20000017045E+02 0.  0.
         12    1    3    3    0    0 -0.21687705606E+02 -0.26065125771E+01  0.37502966111E+02  0.43400725217E+02  0.00000000000E+00 0. -1.
         11    1    4    4    0    0  0.24423006212E+01  0.12744250014E+01 -0.81278091491E+01  0.85819737377E+01  0.51100000000E-03 0.  1.
        -11    1    4    4    0    0  0.25424303672E+01 -0.32393231943E+00  0.22444477354E+01  0.34068211309E+01  0.51100000000E-03 0. -1.
         12    1    4    4    0    0  0.16702974618E+02  0.16560198951E+01 -0.31619604697E+02  0.35798479914E+02  0.00000000000E+00 0. -1.
</event>
<event>
 8    1  0.3776180E-010  0.9118800E+02  0.7816164E-02  0.1184000E+00
        -11   -1    0    0    0    0  0.00000000000E+00  0.00000000000E+00  0.45593999997E+02  0.45594000000E+02  0.51100000000E-03 0. -1.
         11   -1    0    0    0    0 -0.00000000000E+00 -0.00000000000E+00 -0.45593999997E+02  0.45594000000E+02  0.51100000000E-03 0.  1.
         23    2    1    2    0    0  0.49960036108E-15 -0.71054273576E-14  0.00000000000E+00  0.91188000000E+02  0.91188000000E+02 0.  0.
    9900012    2    3    3    0    0  0.47021149535E+00  0.35832040291E+02 -0.24484017959E+02  0.47787270217E+02  0.19999996229E+02 0.  0.
         12    1    3    3    0    0 -0.47021149535E+00 -0.35832040291E+02  0.24484017959E+02  0.43400729783E+02  0.00000000000E+00 0. -1.
         11    1    4    4    0    0 -0.26526887548E+01  0.19341121408E+01 -0.50403283144E+01  0.60151855483E+01  0.51100000000E-03 0. -1.
        -11    1    4    4    0    0 -0.40034509304E+01  0.16656625347E+02 -0.40949250239E+01  0.17613608333E+02  0.51100000000E-03 0.  1.
        -12    1    4    4    0    0  0.71263511806E+01  0.17241302803E+02 -0.15348764621E+02  0.24158476336E+02  0.00000000000E+00 0.  1.
</event>
<event>
 8    1  0.3776180E-010  0.9118800E+02  0.7816164E-02  0.1184000E+00
        -11   -1    0    0    0    0  0.00000000000E+00  0.00000000000E+00  0.45593999997E+02  0.45594000000E+02  0.51100000000E-03 0. -1.
         11   -1    0    0    0    0 -0.00000000000E+00 -0.00000000000E+00 -0.45593999997E+02  0.45594000000E+02  0.51100000000E-03 0.  1.
         23    2    1    2    0    0  0.22204460493E-15  0.35527136788E-14  0.00000000000E+00  0.91188000000E+02  0.91188000000E+02 0.  0.
    9900012    2    3    3    0    0 -0.11867293870E+01  0.26569744246E+02 -0.34296698811E+02  0.47787272065E+02  0.20000004653E+02 0.  0.
         12    1    3    3    0    0  0.11867293870E+01 -0.26569744246E+02  0.34296698811E+02  0.43400727935E+02  0.00000000000E+00 0. -1.
         11    1    4    4    0    0  0.32361680132E+01  0.10612639568E+01 -0.43223878736E+01  0.55029175704E+01  0.51100000000E-03 0. -1.
        -11    1    4    4    0    0 -0.22226421665E+01  0.18487359265E+01 -0.12392316263E+02  0.12725072312E+02  0.51100000000E-03 0.  1.
        -12    1    4    4    0    0 -0.22002552337E+01  0.23659744363E+02 -0.17581994675E+02  0.29559282182E+02  0.00000000000E+00 0.  1.
</event>
<event>
 8    1  0.3776180E-010  0.9118800E+02  0.7816164E-02  0.1184000E+00
        -11   -1    0    0    0    0  0.00000000000E+00  0.00000000000E+00  0.45593999997E+02  0.45594000000E+02  0.51100000000E-03 0.  1.
         11   -1    0    0    0    0 -0.00000000000E+00 -0.00000000000E+00 -0.45593999997E+02  0.45594000000E+02  0.51100000000E-03 0. -1.
         23    2    1    2    0    0  0.00000000000E+00  0.00000000000E+00  0.00000000000E+00  0.91188000000E+02  0.91188000000E+02 0.  0.
    9900012    2    3    3    0    0  0.90567812588E+00 -0.28902063468E+02 -0.32364699043E+02  0.47787271092E+02  0.20000000217E+02 0.  0.
         12    1    3    3    0    0 -0.90567812588E+00  0.28902063468E+02  0.32364699043E+02  0.43400728908E+02  0.00000000000E+00 0. -1.
         11    1    4    4    0    0 -0.51642453533E-02  0.15324281037E+01  0.47911377925E+00  0.16055880035E+01  0.51100000000E-03 0. -1.
        -11    1    4    4    0    0 -0.45371306360E+01 -0.10960061768E+02 -0.88316802425E+01  0.14788748579E+02  0.51100000000E-03 0.  1.
        -12    1    4    4    0    0  0.54479730073E+01 -0.19474429804E+02 -0.24012132580E+02  0.31392934509E+02  0.00000000000E+00 0.  1.
</event>
<event>
 8    1  0.3776180E-010  0.9118800E+02  0.7816164E-02  0.1184000E+00
        -11   -1    0    0    0    0  0.00000000000E+00  0.00000000000E+00  0.45593999997E+02  0.45594000000E+02  0.51100000000E-03 0. -1.
         11   -1    0    0    0    0 -0.00000000000E+00 -0.00000000000E+00 -0.45593999997E+02  0.45594000000E+02  0.51100000000E-03 0.  1.
         23    2    1    2    0    0  0.00000000000E+00  0.00000000000E+00  0.71054273576E-14  0.91188000000E+02  0.91188000000E+02 0.  0.
    9900012    2    3    3    0    0  0.13893986255E+02  0.30263858138E+01 -0.41005137897E+02  0.47787271906E+02  0.20000003928E+02 0.  0.
         12    1    3    3    0    0 -0.13893986255E+02 -0.30263858138E+01  0.41005137897E+02  0.43400728094E+02  0.00000000000E+00 0. -1.
         11    1    4    4    0    0  0.28489454055E+00  0.10727387195E+01 -0.14193432287E+02  0.14236764155E+02  0.51100000000E-03 0. -1.
        -11    1    4    4    0    0  0.11358013851E+00  0.59005135744E+01 -0.10225445651E+02  0.11806299163E+02  0.51100000000E-03 0.  1.
        -12    1    4    4    0    0  0.13495511576E+02 -0.39468664801E+01 -0.16586259959E+02  0.21744208589E+02  0.00000000000E+00 0.  1.
</event>
<event>
 8    1  0.3776180E-010  0.9118800E+02  0.7816164E-02  0.1184000E+00
        -11   -1    0    0    0    0  0.00000000000E+00  0.00000000000E+00  0.45593999997E+02  0.45594000000E+02  0.51100000000E-03 0. -1.
         11   -1    0    0    0    0 -0.00000000000E+00 -0.00000000000E+00 -0.45593999997E+02  0.45594000000E+02  0.51100000000E-03 0.  1.
         23    2    1    2    0    0 -0.44408920985E-15  0.17763568394E-14 -0.71054273576E-14  0.91188000000E+02  0.91188000000E+02 0.  0.
    9900012    2    3    3    0    0  0.29793034949E+01  0.14624928108E+02 -0.40753633064E+02  0.47787269829E+02  0.19999994458E+02 0.  0.
         12    1    3    3    0    0 -0.29793034949E+01 -0.14624928108E+02  0.40753633064E+02  0.43400730171E+02  0.00000000000E+00 0. -1.
         11    1    4    4    0    0  0.12156515066E-01  0.19413512191E+01 -0.68447063453E+01  0.71147029138E+01  0.51100000000E-03 0. -1.
        -11    1    4    4    0    0 -0.40422838433E+01  0.42942943683E+01 -0.27230637557E+02  0.27861956945E+02  0.51100000000E-03 0.  1.
         12    1    4    4    0    0  0.70094308231E+01  0.83892825210E+01 -0.66782891612E+01  0.12810609970E+02  0.00000000000E+00 0. -1.
</event>
<event>
 8    1  0.3776180E-010  0.9118800E+02  0.7816164E-02  0.1184000E+00
        -11   -1    0    0    0    0  0.00000000000E+00  0.00000000000E+00  0.45593999997E+02  0.45594000000E+02  0.51100000000E-03 0. -1.
         11   -1    0    0    0    0 -0.00000000000E+00 -0.00000000000E+00 -0.45593999997E+02  0.45594000000E+02  0.51100000000E-03 0.  1.
         23    2    1    2    0    0  0.00000000000E+00  0.22204460493E-14  0.71054273576E-14  0.91188000000E+02  0.91188000000E+02 0.  0.
    9900012    2    3    3    0    0 -0.16132323553E+02 -0.20991919272E+01 -0.40236374279E+02  0.47787259394E+02  0.19999946882E+02 0.  0.
         12    1    3    3    0    0  0.16132323553E+02  0.20991919272E+01  0.40236374279E+02  0.43400740606E+02  0.00000000000E+00 0. -1.
         11    1    4    4    0    0 -0.78154616283E+01 -0.48308508578E+01 -0.91984626109E+01  0.13001164376E+02  0.51100000000E-03 0. -1.
        -11    1    4    4    0    0 -0.51812799413E+01 -0.34756196410E+01 -0.24354253503E+02  0.25140709172E+02  0.51100000000E-03 0.  1.
         12    1    4    4    0    0 -0.31355819837E+01  0.62072785716E+01 -0.66836581651E+01  0.96453858456E+01  0.00000000000E+00 0. -1.
</event>
<event>
 8    1  0.3776180E-010  0.9118800E+02  0.7816164E-02  0.1184000E+00
        -11   -1    0    0    0    0  0.00000000000E+00  0.00000000000E+00  0.45593999997E+02  0.45594000000E+02  0.51100000000E-03 0.  1.
         11   -1    0    0    0    0 -0.00000000000E+00 -0.00000000000E+00 -0.45593999997E+02  0.45594000000E+02  0.51100000000E-03 0. -1.
         23    2    1    2    0    0  0.71054273576E-14  0.00000000000E+00 -0.35527136788E-14  0.91188000000E+02  0.91188000000E+02 0.  0.
    9900012    2    3    3    0    0 -0.37800204642E+02  0.44800934423E+01 -0.20849371087E+02  0.47787274396E+02  0.20000015280E+02 0.  0.
         12    1    3    3    0    0  0.37800204642E+02 -0.44800934423E+01  0.20849371087E+02  0.43400725604E+02  0.00000000000E+00 0. -1.
         11    1    4    4    0    0 -0.93293692677E+01 -0.46240262791E+01 -0.39853453221E+01  0.11149068462E+02  0.51100000000E-03 0. -1.
        -11    1    4    4    0    0 -0.25087693064E+02  0.48232397006E+01 -0.90398042820E+01  0.27099336638E+02  0.51100000000E-03 0.  1.
         12    1    4    4    0    0 -0.33831423107E+01  0.42808800208E+01 -0.78242214828E+01  0.95388692966E+01  0.00000000000E+00 0. -1.
</event>
<event>
 8    1  0.3776180E-010  0.9118800E+02  0.7816164E-02  0.1184000E+00
        -11   -1    0    0    0    0  0.00000000000E+00  0.00000000000E+00  0.45593999997E+02  0.45594000000E+02  0.51100000000E-03 0. -1.
         11   -1    0    0    0    0 -0.00000000000E+00 -0.00000000000E+00 -0.45593999997E+02  0.45594000000E+02  0.51100000000E-03 0.  1.
         23    2    1    2    0    0  0.00000000000E+00  0.00000000000E+00  0.00000000000E+00  0.91188000000E+02  0.91188000000E+02 0.  0.
    9900012    2    3    3    0    0  0.19791584328E+02  0.34348354956E+02 -0.17666547105E+02  0.47787272069E+02  0.20000004670E+02 0.  0.
         12    1    3    3    0    0 -0.19791584328E+02 -0.34348354956E+02  0.17666547105E+02  0.43400727931E+02  0.00000000000E+00 0. -1.
         11    1    4    4    0    0  0.16373450487E+02  0.13644880976E+02 -0.13628359303E+02  0.25298316846E+02  0.51100000000E-03 0. -1.
        -11    1    4    4    0    0  0.46932443359E+01  0.79160932281E+01 -0.25678550932E+01  0.95543160107E+01  0.51100000000E-03 0.  1.
         12    1    4    4    0    0 -0.12751104949E+01  0.12787380752E+02 -0.14703327085E+01  0.12934639212E+02  0.00000000000E+00 0. -1.
</event>
<event>
 8    1  0.3776180E-010  0.9118800E+02  0.7816164E-02  0.1184000E+00
        -11   -1    0    0    0    0  0.00000000000E+00  0.00000000000E+00  0.45593999997E+02  0.45594000000E+02  0.51100000000E-03 0. -1.
         11   -1    0    0    0    0 -0.00000000000E+00 -0.00000000000E+00 -0.45593999997E+02  0.45594000000E+02  0.51100000000E-03 0.  1.
         23    2    1    2    0    0  0.00000000000E+00  0.00000000000E+00  0.00000000000E+00  0.91188000000E+02  0.91188000000E+02 0.  0.
    9900012    2    3    3    0    0  0.33672456624E+02 -0.18244794045E+02  0.20418528814E+02  0.47787272313E+02  0.20000005782E+02 0.  0.
        -12    1    3    3    0    0 -0.33672456624E+02  0.18244794045E+02 -0.20418528814E+02  0.43400727687E+02  0.00000000000E+00 0.  1.
         11    1    4    4    0    0  0.12240928973E+02 -0.13964321574E+02  0.68420450430E+01  0.19790305702E+02  0.51100000000E-03 0. -1.
        -11    1    4    4    0    0  0.25537879784E+01  0.24434707412E+00 -0.18817968536E+01  0.31816188003E+01  0.51100000000E-03 0.  1.
         12    1    4    4    0    0  0.18877739673E+02 -0.45248195447E+01  0.15458280625E+02  0.24815347810E+02  0.00000000000E+00 0. -1.
</event>
<event>
 8    1  0.3776180E-010  0.9118800E+02  0.7816164E-02  0.1184000E+00
        -11   -1    0    0    0    0  0.00000000000E+00  0.00000000000E+00  0.45593999997E+02  0.45594000000E+02  0.51100000000E-03 0. -1.
         11   -1    0    0    0    0 -0.00000000000E+00 -0.00000000000E+00 -0.45593999997E+02  0.45594000000E+02  0.51100000000E-03 0.  1.
         23    2    1    2    0    0  0.00000000000E+00  0.00000000000E+00 -0.35527136788E-14  0.91188000000E+02  0.91188000000E+02 0.  0.
    9900012    2    3    3    0    0 -0.12383118995E+01 -0.32843055644E+02  0.28344719029E+02  0.47787276306E+02  0.20000023988E+02 0.  0.
        -12    1    3    3    0    0  0.12383118995E+01  0.32843055644E+02 -0.28344719029E+02  0.43400723694E+02  0.00000000000E+00 0.  1.
         11    1    4    4    0    0 -0.37261447920E+01 -0.97615430303E+00  0.13636412954E+01  0.40861412210E+01  0.51100000000E-03 0. -1.
        -11    1    4    4    0    0  0.29482192873E+01 -0.95112136777E+01  0.19675402928E+01  0.10150192001E+02  0.51100000000E-03 0.  1.
         12    1    4    4    0    0 -0.46038639484E+00 -0.22355687663E+02  0.25013537441E+02  0.33550943084E+02  0.00000000000E+00 0. -1.
</event>
<event>
 8    1  0.3776180E-010  0.9118800E+02  0.7816164E-02  0.1184000E+00
        -11   -1    0    0    0    0  0.00000000000E+00  0.00000000000E+00  0.45593999997E+02  0.45594000000E+02  0.51100000000E-03 0. -1.
         11   -1    0    0    0    0 -0.00000000000E+00 -0.00000000000E+00 -0.45593999997E+02  0.45594000000E+02  0.51100000000E-03 0.  1.
         23    2    1    2    0    0  0.00000000000E+00  0.44408920985E-15  0.00000000000E+00  0.91188000000E+02  0.91188000000E+02 0.  0.
    9900012    2    3    3    0    0  0.66012245259E+01 -0.12991509867E+01  0.42876093390E+02  0.47787270249E+02  0.19999996374E+02 0.  0.
        -12    1    3    3    0    0 -0.66012245259E+01  0.12991509867E+01 -0.42876093390E+02  0.43400729751E+02  0.00000000000E+00 0.  1.
         11    1    4    4    0    0  0.24113172957E+01 -0.35381556230E+01  0.13776252724E+02  0.14426300138E+02  0.51100000000E-03 0. -1.
        -11    1    4    4    0    0  0.69896996256E+01 -0.29143768505E+01  0.63980704357E+01  0.99138690148E+01  0.51100000000E-03 0.  1.
         12    1    4    4    0    0 -0.27997923953E+01  0.51533814868E+01  0.22701770231E+02  0.23447101096E+02  0.00000000000E+00 0. -1.
</event>
<event>
 8    1  0.3776180E-010  0.9118800E+02  0.7816164E-02  0.1184000E+00
        -11   -1    0    0    0    0  0.00000000000E+00  0.00000000000E+00  0.45593999997E+02  0.45594000000E+02  0.51100000000E-03 0. -1.
         11   -1    0    0    0    0 -0.00000000000E+00 -0.00000000000E+00 -0.45593999997E+02  0.45594000000E+02  0.51100000000E-03 0.  1.
         23    2    1    2    0    0  0.00000000000E+00  0.00000000000E+00  0.00000000000E+00  0.91188000000E+02  0.91188000000E+02 0.  0.
    9900012    2    3    3    0    0 -0.14873645486E+02  0.21890024950E+02 -0.34398039918E+02  0.47787266452E+02  0.19999979060E+02 0.  0.
         12    1    3    3    0    0  0.14873645486E+02 -0.21890024950E+02  0.34398039918E+02  0.43400733548E+02  0.00000000000E+00 0. -1.
         11    1    4    4    0    0  0.15749377211E+01  0.84650059504E+01 -0.52126334810E+01  0.10065202563E+02  0.51100000000E-03 0. -1.
        -11    1    4    4    0    0 -0.67929342235E+01  0.86728090805E+01 -0.69670837704E+01  0.13034639590E+02  0.51100000000E-03 0.  1.
        -12    1    4    4    0    0 -0.96556489833E+01  0.47522099189E+01 -0.22218322666E+02  0.24687424299E+02  0.00000000000E+00 0.  1.
</event>
<event>
 8    1  0.3776180E-010  0.9118800E+02  0.7816164E-02  0.1184000E+00
        -11   -1    0    0    0    0  0.00000000000E+00  0.00000000000E+00  0.45593999997E+02  0.45594000000E+02  0.51100000000E-03 0. -1.
         11   -1    0    0    0    0 -0.00000000000E+00 -0.00000000000E+00 -0.45593999997E+02  0.45594000000E+02  0.51100000000E-03 0.  1.
         23    2    1    2    0    0  0.00000000000E+00  0.88817841970E-15  0.00000000000E+00  0.91188000000E+02  0.91188000000E+02 0.  0.
    9900012    2    3    3    0    0 -0.13866397949E+02  0.55476525682E+01 -0.40750078385E+02  0.47787281924E+02  0.20000049605E+02 0.  0.
         12    1    3    3    0    0  0.13866397949E+02 -0.55476525682E+01  0.40750078385E+02  0.43400718076E+02  0.00000000000E+00 0. -1.
         11    1    4    4    0    0 -0.27486347884E+01  0.30691200560E+01 -0.14688630230E+02  0.15255502267E+02  0.51100000000E-03 0. -1.
        -11    1    4    4    0    0 -0.45332616644E+01  0.54935948681E+01 -0.23952396818E+02  0.24988944745E+02  0.51100000000E-03 0.  1.
         12    1    4    4    0    0 -0.65845014966E+01 -0.30150623560E+01 -0.21090513368E+01  0.75428349120E+01  0.00000000000E+00 0. -1.
</event>
<event>
 8    1  0.3776180E-010  0.9118800E+02  0.7816164E-02  0.1184000E+00
        -11   -1    0    0    0    0  0.00000000000E+00  0.00000000000E+00  0.45593999997E+02  0.45594000000E+02  0.51100000000E-03 0.  1.
         11   -1    0    0    0    0 -0.00000000000E+00 -0.00000000000E+00 -0.45593999997E+02  0.45594000000E+02  0.51100000000E-03 0. -1.
         23    2    1    2    0    0  0.00000000000E+00  0.00000000000E+00  0.00000000000E+00  0.91188000000E+02  0.91188000000E+02 0.  0.
    9900012    2    3    3    0    0 -0.20055813806E+02 -0.28708007876E+02  0.25636651512E+02  0.47787270923E+02  0.19999999447E+02 0.  0.
        -12    1    3    3    0    0  0.20055813806E+02  0.28708007876E+02 -0.25636651512E+02  0.43400729077E+02  0.00000000000E+00 0.  1.
         11    1    4    4    0    0  0.34447141439E+00 -0.82056525323E+01  0.53343396296E+01  0.97931901637E+01  0.51100000000E-03 0. -1.
        -11    1    4    4    0    0 -0.41508533437E+01  0.23015518587E+00  0.77942378573E+01  0.88336118846E+01  0.51100000000E-03 0.  1.
         12    1    4    4    0    0 -0.16249431877E+02 -0.20732510530E+02  0.12508074025E+02  0.29160468875E+02  0.00000000000E+00 0. -1.
</event>
<event>
 8    1  0.3776180E-010  0.9118800E+02  0.7816164E-02  0.1184000E+00
        -11   -1    0    0    0    0  0.00000000000E+00  0.00000000000E+00  0.45593999997E+02  0.45594000000E+02  0.51100000000E-03 0. -1.
         11   -1    0    0    0    0 -0.00000000000E+00 -0.00000000000E+00 -0.45593999997E+02  0.45594000000E+02  0.51100000000E-03 0.  1.
         23    2    1    2    0    0  0.00000000000E+00  0.17763568394E-14  0.00000000000E+00  0.91188000000E+02  0.91188000000E+02 0.  0.
    9900012    2    3    3    0    0 -0.36016284849E+02 -0.12639596341E+02  0.20656483256E+02  0.47787280300E+02  0.20000042200E+02 0.  0.
        -12    1    3    3    0    0  0.36016284849E+02  0.12639596341E+02 -0.20656483256E+02  0.43400719700E+02  0.00000000000E+00 0.  1.
         11    1    4    4    0    0 -0.57280031457E+01 -0.15300417637E+01 -0.12356848835E+01  0.60562335844E+01  0.51100000000E-03 0. -1.
        -11    1    4    4    0    0 -0.66565829024E+01 -0.93450021554E+01  0.44482595245E+01  0.12305534295E+02  0.51100000000E-03 0.  1.
         12    1    4    4    0    0 -0.23631698801E+02 -0.17645524216E+01  0.17443908615E+02  0.29425512421E+02  0.00000000000E+00 0. -1.
</event>
<event>
 8    1  0.3776180E-010  0.9118800E+02  0.7816164E-02  0.1184000E+00
        -11   -1    0    0    0    0  0.00000000000E+00  0.00000000000E+00  0.45593999997E+02  0.45594000000E+02  0.51100000000E-03 0. -1.
         11   -1    0    0    0    0 -0.00000000000E+00 -0.00000000000E+00 -0.45593999997E+02  0.45594000000E+02  0.51100000000E-03 0.  1.
         23    2    1    2    0    0  0.00000000000E+00  0.00000000000E+00  0.00000000000E+00  0.91188000000E+02  0.91188000000E+02 0.  0.
    9900012    2    3    3    0    0  0.19780563443E+02  0.16997936920E+02  0.34690382395E+02  0.47787272122E+02  0.20000004912E+02 0.  0.
        -12    1    3    3    0    0 -0.19780563443E+02 -0.16997936920E+02 -0.34690382395E+02  0.43400727878E+02  0.00000000000E+00 0.  1.
         11    1    4    4    0    0 -0.48452523207E+00  0.45844612100E+01  0.10353371980E+01  0.47248251461E+01  0.51100000000E-03 0.  1.
        -11    1    4    4    0    0  0.20820070056E+02  0.11361626504E+02  0.25516756635E+02  0.34837720123E+02  0.51100000000E-03 0. -1.
         12    1    4    4    0    0 -0.55498138032E+00  0.10518492061E+01  0.81382885616E+01  0.82247268524E+01  0.00000000000E+00 0. -1.
</event>
<event>
 8    1  0.3776180E-010  0.9118800E+02  0.7816164E-02  0.1184000E+00
        -11   -1    0    0    0    0  0.00000000000E+00  0.00000000000E+00  0.45593999997E+02  0.45594000000E+02  0.51100000000E-03 0. -1.
         11   -1    0    0    0    0 -0.00000000000E+00 -0.00000000000E+00 -0.45593999997E+02  0.45594000000E+02  0.51100000000E-03 0.  1.
         23    2    1    2    0    0  0.00000000000E+00  0.00000000000E+00  0.00000000000E+00  0.91188000000E+02  0.91188000000E+02 0.  0.
    9900012    2    3    3    0    0  0.26016583971E+02  0.24803872394E+02 -0.24321363218E+02  0.47787269176E+02  0.19999991482E+02 0.  0.
         12    1    3    3    0    0 -0.26016583971E+02 -0.24803872394E+02  0.24321363218E+02  0.43400730824E+02  0.00000000000E+00 0. -1.
         11    1    4    4    0    0  0.10853927452E+02  0.39402553676E+01 -0.93940408075E+01  0.14885609039E+02  0.51100000000E-03 0. -1.
        -11    1    4    4    0    0  0.68486697253E+01  0.41326414956E+01 -0.11340445123E+02  0.13877633032E+02  0.51100000000E-03 0.  1.
         12    1    4    4    0    0  0.83139867931E+01  0.16730975531E+02 -0.35868772877E+01  0.19024027105E+02  0.00000000000E+00 0. -1.
</event>
<event>
 8    1  0.3776180E-010  0.9118800E+02  0.7816164E-02  0.1184000E+00
        -11   -1    0    0    0    0  0.00000000000E+00  0.00000000000E+00  0.45593999997E+02  0.45594000000E+02  0.51100000000E-03 0. -1.
         11   -1    0    0    0    0 -0.00000000000E+00 -0.00000000000E+00 -0.45593999997E+02  0.45594000000E+02  0.51100000000E-03 0.  1.
         23    2    1    2    0    0  0.00000000000E+00  0.17763568394E-14  0.00000000000E+00  0.91188000000E+02  0.91188000000E+02 0.  0.
    9900012    2    3    3    0    0  0.20970624649E+02 -0.11244095365E+02  0.36296402888E+02  0.47787243770E+02  0.19999875645E+02 0.  0.
        -12    1    3    3    0    0 -0.20970624649E+02  0.11244095365E+02 -0.36296402888E+02  0.43400756230E+02  0.00000000000E+00 0.  1.
         11    1    4    4    0    0  0.12422492768E+02 -0.14205616927E+01  0.15462451094E+02  0.19885263795E+02  0.51100000000E-03 0. -1.
        -11    1    4    4    0    0  0.16442991926E+01  0.33012889924E+01  0.49266663429E+01  0.61542075332E+01  0.51100000000E-03 0.  1.
         12    1    4    4    0    0  0.69038326882E+01 -0.13124822665E+02  0.15907285451E+02  0.21747772442E+02  0.00000000000E+00 0. -1.
</event>
<event>
 8    1  0.3776180E-010  0.9118800E+02  0.7816164E-02  0.1184000E+00
        -11   -1    0    0    0    0  0.00000000000E+00  0.00000000000E+00  0.45593999997E+02  0.45594000000E+02  0.51100000000E-03 0. -1.
         11   -1    0    0    0    0 -0.00000000000E+00 -0.00000000000E+00 -0.45593999997E+02  0.45594000000E+02  0.51100000000E-03 0.  1.
         23    2    1    2    0    0 -0.35527136788E-14  0.00000000000E+00  0.00000000000E+00  0.91188000000E+02  0.91188000000E+02 0.  0.
    9900012    2    3    3    0    0  0.23294946237E+02  0.21840886767E+01 -0.36554054201E+02  0.47787266803E+02  0.19999980663E+02 0.  0.
         12    1    3    3    0    0 -0.23294946237E+02 -0.21840886767E+01  0.36554054201E+02  0.43400733197E+02  0.00000000000E+00 0. -1.
         11    1    4    4    0    0  0.10398124764E+02  0.49901084026E+01 -0.19312433036E+02  0.22494271504E+02  0.51100000000E-03 0. -1.
        -11    1    4    4    0    0  0.13901503344E+02  0.15826704917E+01 -0.12644070404E+02  0.18858132404E+02  0.51100000000E-03 0.  1.
        -12    1    4    4    0    0 -0.10046818715E+01 -0.43886902175E+01 -0.45975507610E+01  0.64348628958E+01  0.00000000000E+00 0.  1.
</event>
<event>
 8    1  0.3776180E-010  0.9118800E+02  0.7816164E-02  0.1184000E+00
        -11   -1    0    0    0    0  0.00000000000E+00  0.00000000000E+00  0.45593999997E+02  0.45594000000E+02  0.51100000000E-03 0. -1.
         11   -1    0    0    0    0 -0.00000000000E+00 -0.00000000000E+00 -0.45593999997E+02  0.45594000000E+02  0.51100000000E-03 0.  1.
         23    2    1    2    0    0  0.00000000000E+00  0.55511151231E-16  0.00000000000E+00  0.91188000000E+02  0.91188000000E+02 0.  0.
    9900012    2    3    3    0    0 -0.32133256100E+02  0.36854966635E+00  0.29170903518E+02  0.47787267420E+02  0.19999983474E+02 0.  0.
        -12    1    3    3    0    0  0.32133256100E+02 -0.36854966635E+00 -0.29170903518E+02  0.43400732580E+02  0.00000000000E+00 0.  1.
         11    1    4    4    0    0 -0.28630171407E+02 -0.19408927816E+01  0.18998015566E+02  0.34414798783E+02  0.51100000000E-03 0. -1.
        -11    1    4    4    0    0 -0.11009789083E+01 -0.18859382946E+01  0.84336091184E-01  0.21854131520E+01  0.51100000000E-03 0.  1.
         12    1    4    4    0    0 -0.24021057853E+01  0.41953807425E+01  0.10088551861E+02  0.11187055485E+02  0.00000000000E+00 0. -1.
</event>
<event>
 8    1  0.3776180E-010  0.9118800E+02  0.7816164E-02  0.1184000E+00
        -11   -1    0    0    0    0  0.00000000000E+00  0.00000000000E+00  0.45593999997E+02  0.45594000000E+02  0.51100000000E-03 0. -1.
         11   -1    0    0    0    0 -0.00000000000E+00 -0.00000000000E+00 -0.45593999997E+02  0.45594000000E+02  0.51100000000E-03 0.  1.
         23    2    1    2    0    0  0.17763568394E-14  0.00000000000E+00  0.00000000000E+00  0.91188000000E+02  0.91188000000E+02 0.  0.
    9900012    2    3    3    0    0  0.10694869350E+02  0.81089461233E+01  0.41273332145E+02  0.47787272080E+02  0.20000004721E+02 0.  0.
        -12    1    3    3    0    0 -0.10694869350E+02 -0.81089461233E+01 -0.41273332145E+02  0.43400727920E+02  0.00000000000E+00 0.  1.
         11    1    4    4    0    0 -0.28506679262E+01 -0.24174240937E+01  0.16102142392E+02  0.16530252168E+02  0.51100000000E-03 0. -1.
        -11    1    4    4    0    0  0.12375397849E+01 -0.44565933540E+00  0.19594076582E+00  0.13298533781E+01  0.51100000000E-03 0.  1.
        -12    1    4    4    0    0  0.12307997492E+02  0.10972029552E+02  0.24975248987E+02  0.29927166534E+02  0.00000000000E+00 0.  1.
</event>
<event>
 8    1  0.3776180E-010  0.9118800E+02  0.7816164E-02  0.1184000E+00
        -11   -1    0    0    0    0  0.00000000000E+00  0.00000000000E+00  0.45593999997E+02  0.45594000000E+02  0.51100000000E-03 0.  1.
         11   -1    0    0    0    0 -0.00000000000E+00 -0.00000000000E+00 -0.45593999997E+02  0.45594000000E+02  0.51100000000E-03 0. -1.
         23    2    1    2    0    0  0.00000000000E+00  0.35527136788E-14  0.00000000000E+00  0.91188000000E+02  0.91188000000E+02 0.  0.
    9900012    2    3    3    0    0 -0.38344710775E+02  0.17250144601E+02  0.10758201344E+02  0.47787271558E+02  0.20000002341E+02 0.  0.
         12    1    3    3    0    0  0.38344710775E+02 -0.17250144601E+02 -0.10758201344E+02  0.43400728442E+02  0.00000000000E+00 0. -1.
         11    1    4    4    0    0 -0.32596376385E+02  0.13543863194E+02  0.76741156405E+01  0.36122735704E+02  0.51100000000E-03 0.  1.
        -11    1    4    4    0    0 -0.59277791179E+01  0.26357978357E+01 -0.17425771672E+01  0.67173336188E+01  0.51100000000E-03 0. -1.
        -12    1    4    4    0    0  0.17944472825E+00  0.10704835716E+01  0.48266628703E+01  0.49472022347E+01  0.00000000000E+00 0.  1.
</event>
<event>
 8    1  0.3776180E-010  0.9118800E+02  0.7816164E-02  0.1184000E+00
        -11   -1    0    0    0    0  0.00000000000E+00  0.00000000000E+00  0.45593999997E+02  0.45594000000E+02  0.51100000000E-03 0. -1.
         11   -1    0    0    0    0 -0.00000000000E+00 -0.00000000000E+00 -0.45593999997E+02  0.45594000000E+02  0.51100000000E-03 0.  1.
         23    2    1    2    0    0  0.00000000000E+00  0.00000000000E+00  0.00000000000E+00  0.91188000000E+02  0.91188000000E+02 0.  0.
    9900012    2    3    3    0    0 -0.63537903784E+01  0.20293171546E+02  0.37834373161E+02  0.47787271250E+02  0.20000000937E+02 0.  0.
        -12    1    3    3    0    0  0.63537903784E+01 -0.20293171546E+02 -0.37834373161E+02  0.43400728750E+02  0.00000000000E+00 0.  1.
         11    1    4    4    0    0 -0.36505788278E+01  0.12772768308E+02  0.80735526501E+01  0.15545178953E+02  0.51100000000E-03 0. -1.
        -11    1    4    4    0    0  0.15113017508E+01  0.27830848270E+01  0.19534232413E+01  0.37209483679E+01  0.51100000000E-03 0.  1.
        -12    1    4    4    0    0 -0.42145133014E+01  0.47373184108E+01  0.27807397269E+02  0.28521143929E+02  0.00000000000E+00 0.  1.
</event>
<event>
 8    1  0.3776180E-010  0.9118800E+02  0.7816164E-02  0.1184000E+00
        -11   -1    0    0    0    0  0.00000000000E+00  0.00000000000E+00  0.45593999997E+02  0.45594000000E+02  0.51100000000E-03 0. -1.
         11   -1    0    0    0    0 -0.00000000000E+00 -0.00000000000E+00 -0.45593999997E+02  0.45594000000E+02  0.51100000000E-03 0.  1.
         23    2    1    2    0    0  0.00000000000E+00  0.00000000000E+00  0.00000000000E+00  0.91188000000E+02  0.91188000000E+02 0.  0.
    9900012    2    3    3    0    0 -0.84306659884E+01 -0.10276897247E+02 -0.41315034691E+02  0.47787276071E+02  0.20000022919E+02 0.  0.
         12    1    3    3    0    0  0.84306659884E+01  0.10276897247E+02  0.41315034691E+02  0.43400723929E+02  0.00000000000E+00 0. -1.
         11    1    4    4    0    0 -0.47491462800E+01 -0.60465770643E-01 -0.32825570753E+01  0.57734935449E+01  0.51100000000E-03 0. -1.
        -11    1    4    4    0    0  0.11861365693E+01  0.11942001349E+01  0.31256284459E+00  0.17119374160E+01  0.51100000000E-03 0.  1.
        -12    1    4    4    0    0 -0.48676562777E+01 -0.11410631611E+02 -0.38345040460E+02  0.40301845110E+02  0.00000000000E+00 0.  1.
</event>
<event>
 8    1  0.3776180E-010  0.9118800E+02  0.7816164E-02  0.1184000E+00
        -11   -1    0    0    0    0  0.00000000000E+00  0.00000000000E+00  0.45593999997E+02  0.45594000000E+02  0.51100000000E-03 0. -1.
         11   -1    0    0    0    0 -0.00000000000E+00 -0.00000000000E+00 -0.45593999997E+02  0.45594000000E+02  0.51100000000E-03 0.  1.
         23    2    1    2    0    0  0.88817841970E-15  0.35527136788E-14  0.00000000000E+00  0.91188000000E+02  0.91188000000E+02 0.  0.
    9900012    2    3    3    0    0  0.47359657161E+01  0.25733279747E+02 -0.34626450365E+02  0.47787284307E+02  0.20000060468E+02 0.  0.
         12    1    3    3    0    0 -0.47359657161E+01 -0.25733279747E+02  0.34626450365E+02  0.43400715693E+02  0.00000000000E+00 0. -1.
         11    1    4    4    0    0  0.35443762645E+01  0.12986793484E+02 -0.31828976141E+01  0.13832940598E+02  0.51100000000E-03 0. -1.
        -11    1    4    4    0    0  0.20872896210E+00  0.14759706450E+01 -0.32464388454E+01  0.35723133349E+01  0.51100000000E-03 0.  1.
         12    1    4    4    0    0  0.98286048951E+00  0.11270515618E+02 -0.28197113906E+02  0.30382030374E+02  0.00000000000E+00 0. -1.
</event>
<event>
 8    1  0.3776180E-010  0.9118800E+02  0.7816164E-02  0.1184000E+00
        -11   -1    0    0    0    0  0.00000000000E+00  0.00000000000E+00  0.45593999997E+02  0.45594000000E+02  0.51100000000E-03 0. -1.
         11   -1    0    0    0    0 -0.00000000000E+00 -0.00000000000E+00 -0.45593999997E+02  0.45594000000E+02  0.51100000000E-03 0.  1.
         23    2    1    2    0    0 -0.35527136788E-14  0.00000000000E+00 -0.22204460493E-15  0.91188000000E+02  0.91188000000E+02 0.  0.
    9900012    2    3    3    0    0  0.27223863428E+02  0.33757390687E+02  0.17096611022E+01  0.47787272967E+02  0.20000008765E+02 0.  0.
        -12    1    3    3    0    0 -0.27223863428E+02 -0.33757390687E+02 -0.17096611022E+01  0.43400727033E+02  0.00000000000E+00 0.  1.
         11    1    4    4    0    0  0.54873213992E+01  0.60995538238E+01  0.12664500204E+00  0.82055647097E+01  0.51100000000E-03 0. -1.
        -11    1    4    4    0    0  0.11717775283E+02  0.29989529182E+01 -0.32626161789E+01  0.12527754818E+02  0.51100000000E-03 0.  1.
        -12    1    4    4    0    0  0.10018766745E+02  0.24658883945E+02  0.48456322791E+01  0.27053953439E+02  0.00000000000E+00 0.  1.
</event>
<event>
 8    1  0.3776180E-010  0.9118800E+02  0.7816164E-02  0.1184000E+00
        -11   -1    0    0    0    0  0.00000000000E+00  0.00000000000E+00  0.45593999997E+02  0.45594000000E+02  0.51100000000E-03 0. -1.
         11   -1    0    0    0    0 -0.00000000000E+00 -0.00000000000E+00 -0.45593999997E+02  0.45594000000E+02  0.51100000000E-03 0.  1.
         23    2    1    2    0    0  0.44408920985E-15  0.00000000000E+00  0.00000000000E+00  0.91188000000E+02  0.91188000000E+02 0.  0.
    9900012    2    3    3    0    0 -0.35029430763E+01  0.17135755596E+02 -0.39720506486E+02  0.47787269988E+02  0.19999995185E+02 0.  0.
         12    1    3    3    0    0  0.35029430763E+01 -0.17135755596E+02  0.39720506486E+02  0.43400730012E+02  0.00000000000E+00 0. -1.
         11    1    4    4    0    0  0.26610264316E+01 -0.16134793283E+01 -0.57965566255E+01  0.65790915928E+01  0.51100000000E-03 0. -1.
        -11    1    4    4    0    0 -0.36809523325E+01  0.28771232842E+00 -0.11380078962E+02  0.11964045549E+02  0.51100000000E-03 0.  1.
        -12    1    4    4    0    0 -0.24830171754E+01  0.18461522596E+02 -0.22543870898E+02  0.29244132846E+02  0.00000000000E+00 0.  1.
</event>
<event>
 8    1  0.3776180E-010  0.9118800E+02  0.7816164E-02  0.1184000E+00
        -11   -1    0    0    0    0  0.00000000000E+00  0.00000000000E+00  0.45593999997E+02  0.45594000000E+02  0.51100000000E-03 0. -1.
         11   -1    0    0    0    0 -0.00000000000E+00 -0.00000000000E+00 -0.45593999997E+02  0.45594000000E+02  0.51100000000E-03 0.  1.
         23    2    1    2    0    0  0.00000000000E+00  0.35527136788E-14  0.71054273576E-14  0.91188000000E+02  0.91188000000E+02 0.  0.
    9900012    2    3    3    0    0  0.25175563054E+01  0.27403949648E+02  0.33560524280E+02  0.47787270328E+02  0.19999996735E+02 0.  0.
        -12    1    3    3    0    0 -0.25175563054E+01 -0.27403949648E+02 -0.33560524280E+02  0.43400729672E+02  0.00000000000E+00 0.  1.
         11    1    4    4    0    0  0.49125893340E+01  0.52986882228E+01  0.10751633788E+02  0.12954044165E+02  0.51100000000E-03 0. -1.
        -11    1    4    4    0    0  0.21618552822E+01  0.46154839502E+00 -0.92004267393E+00  0.23943942793E+01  0.51100000000E-03 0.  1.
         12    1    4    4    0    0 -0.45568883107E+01  0.21643713031E+02  0.23728933166E+02  0.32438831884E+02  0.00000000000E+00 0. -1.
</event>
<event>
 8    1  0.3776180E-010  0.9118800E+02  0.7816164E-02  0.1184000E+00
        -11   -1    0    0    0    0  0.00000000000E+00  0.00000000000E+00  0.45593999997E+02  0.45594000000E+02  0.51100000000E-03 0. -1.
         11   -1    0    0    0    0 -0.00000000000E+00 -0.00000000000E+00 -0.45593999997E+02  0.45594000000E+02  0.51100000000E-03 0.  1.
         23    2    1    2    0    0  0.00000000000E+00  0.00000000000E+00  0.00000000000E+00  0.91188000000E+02  0.91188000000E+02 0.  0.
    9900012    2    3    3    0    0  0.30299013431E+01  0.20442709301E+02 -0.38164624206E+02  0.47787271821E+02  0.20000003540E+02 0.  0.
         12    1    3    3    0    0 -0.30299013431E+01 -0.20442709301E+02  0.38164624206E+02  0.43400728179E+02  0.00000000000E+00 0. -1.
         11    1    4    4    0    0  0.66482035430E+01  0.20056176507E+02 -0.25863317364E+02  0.33397006030E+02  0.51100000000E-03 0. -1.
        -11    1    4    4    0    0  0.92473461458E+00 -0.13979667128E+01 -0.69417124543E+01  0.71412055772E+01  0.51100000000E-03 0.  1.
        -12    1    4    4    0    0 -0.45430368145E+01  0.17844995072E+01 -0.53595943870E+01  0.72490602137E+01  0.00000000000E+00 0.  1.
</event>
<event>
 8    1  0.3776180E-010  0.9118800E+02  0.7816164E-02  0.1184000E+00
        -11   -1    0    0    0    0  0.00000000000E+00  0.00000000000E+00  0.45593999997E+02  0.45594000000E+02  0.51100000000E-03 0.  1.
         11   -1    0    0    0    0 -0.00000000000E+00 -0.00000000000E+00 -0.45593999997E+02  0.45594000000E+02  0.51100000000E-03 0. -1.
         23    2    1    2    0    0  0.35527136788E-14  0.00000000000E+00 -0.17763568394E-14  0.91188000000E+02  0.91188000000E+02 0.  0.
    9900012    2    3    3    0    0 -0.14517658991E+02  0.38027989410E+02  0.15057650572E+02  0.47787271413E+02  0.20000001678E+02 0.  0.
         12    1    3    3    0    0  0.14517658991E+02 -0.38027989410E+02 -0.15057650572E+02  0.43400728587E+02  0.00000000000E+00 0. -1.
         11    1    4    4    0    0 -0.58577567622E+01  0.11225614256E+02  0.10429242855E+02  0.16404171314E+02  0.51100000000E-03 0. -1.
        -11    1    4    4    0    0 -0.11580624736E+02  0.16613615423E+02  0.46740203149E+01  0.20783877234E+02  0.51100000000E-03 0.  1.
         12    1    4    4    0    0  0.29207225071E+01  0.10188759731E+02 -0.45612598006E-01  0.10599222864E+02  0.00000000000E+00 0. -1.
</event>
<event>
 8    1  0.3776180E-010  0.9118800E+02  0.7816164E-02  0.1184000E+00
        -11   -1    0    0    0    0  0.00000000000E+00  0.00000000000E+00  0.45593999997E+02  0.45594000000E+02  0.51100000000E-03 0. -1.
         11   -1    0    0    0    0 -0.00000000000E+00 -0.00000000000E+00 -0.45593999997E+02  0.45594000000E+02  0.51100000000E-03 0.  1.
         23    2    1    2    0    0  0.00000000000E+00  0.00000000000E+00  0.71054273576E-14  0.91188000000E+02  0.91188000000E+02 0.  0.
    9900012    2    3    3    0    0  0.27507359439E+02  0.74339161355E+01 -0.32736917647E+02  0.47787266026E+02  0.19999977120E+02 0.  0.
         12    1    3    3    0    0 -0.27507359439E+02 -0.74339161355E+01  0.32736917647E+02  0.43400733974E+02  0.00000000000E+00 0. -1.
         11    1    4    4    0    0  0.69613646406E+01 -0.86090905980E+00 -0.16002204774E+01  0.71946138121E+01  0.51100000000E-03 0. -1.
        -11    1    4    4    0    0  0.18664002864E+02  0.12040579453E+01 -0.22021047466E+02  0.28891543576E+02  0.51100000000E-03 0.  1.
         12    1    4    4    0    0  0.18819919341E+01  0.70907672499E+01 -0.91156497041E+01  0.11701108638E+02  0.00000000000E+00 0. -1.
</event>
<event>
 8    1  0.3776180E-010  0.9118800E+02  0.7816164E-02  0.1184000E+00
        -11   -1    0    0    0    0  0.00000000000E+00  0.00000000000E+00  0.45593999997E+02  0.45594000000E+02  0.51100000000E-03 0. -1.
         11   -1    0    0    0    0 -0.00000000000E+00 -0.00000000000E+00 -0.45593999997E+02  0.45594000000E+02  0.51100000000E-03 0.  1.
         23    2    1    2    0    0  0.00000000000E+00  0.00000000000E+00  0.00000000000E+00  0.91188000000E+02  0.91188000000E+02 0.  0.
    9900012    2    3    3    0    0 -0.38896645405E+02 -0.17123883807E+02  0.88003958727E+01  0.47787269730E+02  0.19999994008E+02 0.  0.
        -12    1    3    3    0    0  0.38896645405E+02  0.17123883807E+02 -0.88003958727E+01  0.43400730270E+02  0.00000000000E+00 0.  1.
         11    1    4    4    0    0 -0.25249385140E+02 -0.12554430068E+02 -0.12013493704E+01  0.28223897762E+02  0.51100000000E-03 0. -1.
        -11    1    4    4    0    0 -0.12542561836E+02 -0.26882035578E+01  0.44152615782E+01  0.13566017502E+02  0.51100000000E-03 0.  1.
        -12    1    4    4    0    0 -0.11046984285E+01 -0.18812501813E+01  0.55864836649E+01  0.59973544668E+01  0.00000000000E+00 0.  1.
</event>
<event>
 8    1  0.3776180E-010  0.9118800E+02  0.7816164E-02  0.1184000E+00
        -11   -1    0    0    0    0  0.00000000000E+00  0.00000000000E+00  0.45593999997E+02  0.45594000000E+02  0.51100000000E-03 0. -1.
         11   -1    0    0    0    0 -0.00000000000E+00 -0.00000000000E+00 -0.45593999997E+02  0.45594000000E+02  0.51100000000E-03 0.  1.
         23    2    1    2    0    0  0.17763568394E-14  0.00000000000E+00  0.00000000000E+00  0.91188000000E+02  0.91188000000E+02 0.  0.
    9900012    2    3    3    0    0  0.13979093770E+02 -0.21200919938E+02 -0.35195584718E+02  0.47787271291E+02  0.20000001122E+02 0.  0.
         12    1    3    3    0    0 -0.13979093770E+02  0.21200919938E+02  0.35195584718E+02  0.43400728709E+02  0.00000000000E+00 0. -1.
         11    1    4    4    0    0  0.12060714598E+02 -0.61145402349E+01 -0.13939884949E+02  0.19420834986E+02  0.51100000000E-03 0. -1.
        -11    1    4    4    0    0  0.32765701891E+01 -0.30267418624E+01 -0.72787636359E+00  0.45196109089E+01  0.51100000000E-03 0.  1.
         12    1    4    4    0    0 -0.13581910166E+01 -0.12059637841E+02 -0.20527823405E+02  0.23846825395E+02  0.00000000000E+00 0. -1.
</event>
<event>
 8    1  0.3776180E-010  0.9118800E+02  0.7816164E-02  0.1184000E+00
        -11   -1    0    0    0    0  0.00000000000E+00  0.00000000000E+00  0.45593999997E+02  0.45594000000E+02  0.51100000000E-03 0. -1.
         11   -1    0    0    0    0 -0.00000000000E+00 -0.00000000000E+00 -0.45593999997E+02  0.45594000000E+02  0.51100000000E-03 0.  1.
         23    2    1    2    0    0  0.00000000000E+00  0.00000000000E+00  0.00000000000E+00  0.91188000000E+02  0.91188000000E+02 0.  0.
    9900012    2    3    3    0    0  0.96298108676E+01  0.83332214781E+01  0.41490324718E+02  0.47787275550E+02  0.20000020545E+02 0.  0.
        -12    1    3    3    0    0 -0.96298108676E+01 -0.83332214781E+01 -0.41490324718E+02  0.43400724450E+02  0.00000000000E+00 0.  1.
         11    1    4    4    0    0  0.88411779487E+01  0.24392027875E+01  0.14147138464E+02  0.16859942608E+02  0.51100000000E-03 0. -1.
        -11    1    4    4    0    0  0.26190672682E+01 -0.35513316693E+01  0.12330601939E+02  0.13096381730E+02  0.51100000000E-03 0.  1.
         12    1    4    4    0    0 -0.18304343492E+01  0.94453503600E+01  0.15012584315E+02  0.17830951212E+02  0.00000000000E+00 0. -1.
</event>
<event>
 8    1  0.3776180E-010  0.9118800E+02  0.7816164E-02  0.1184000E+00
        -11   -1    0    0    0    0  0.00000000000E+00  0.00000000000E+00  0.45593999997E+02  0.45594000000E+02  0.51100000000E-03 0. -1.
         11   -1    0    0    0    0 -0.00000000000E+00 -0.00000000000E+00 -0.45593999997E+02  0.45594000000E+02  0.51100000000E-03 0.  1.
         23    2    1    2    0    0  0.00000000000E+00  0.33306690739E-15  0.00000000000E+00  0.91188000000E+02  0.91188000000E+02 0.  0.
    9900012    2    3    3    0    0 -0.25650692060E+02 -0.76826740248E+00  0.35001063037E+02  0.47787278212E+02  0.20000032680E+02 0.  0.
        -12    1    3    3    0    0  0.25650692060E+02  0.76826740248E+00 -0.35001063037E+02  0.43400721788E+02  0.00000000000E+00 0.  1.
         11    1    4    4    0    0 -0.12451186018E+02  0.20249939712E+00  0.25553012824E+02  0.28425859774E+02  0.51100000000E-03 0. -1.
        -11    1    4    4    0    0 -0.11920280726E+01  0.32750739053E+01  0.45142706984E+01  0.57031289842E+01  0.51100000000E-03 0.  1.
        -12    1    4    4    0    0 -0.12007477970E+02 -0.42458407049E+01  0.49337795146E+01  0.13658289454E+02  0.00000000000E+00 0.  1.
</event>
<event>
 8    1  0.3776180E-010  0.9118800E+02  0.7816164E-02  0.1184000E+00
        -11   -1    0    0    0    0  0.00000000000E+00  0.00000000000E+00  0.45593999997E+02  0.45594000000E+02  0.51100000000E-03 0. -1.
         11   -1    0    0    0    0 -0.00000000000E+00 -0.00000000000E+00 -0.45593999997E+02  0.45594000000E+02  0.51100000000E-03 0.  1.
         23    2    1    2    0    0  0.17763568394E-14  0.00000000000E+00  0.00000000000E+00  0.91188000000E+02  0.91188000000E+02 0.  0.
    9900012    2    3    3    0    0  0.14948305698E+02 -0.82910183983E+01  0.39892728437E+02  0.47787278676E+02  0.20000034794E+02 0.  0.
        -12    1    3    3    0    0 -0.14948305698E+02  0.82910183983E+01 -0.39892728437E+02  0.43400721324E+02  0.00000000000E+00 0.  1.
         11    1    4    4    0    0  0.61078469511E+01 -0.63986548124E+01  0.50701584440E+01  0.10195836635E+02  0.51100000000E-03 0. -1.
        -11    1    4    4    0    0  0.14648180085E+01  0.34444363896E+01  0.41144835211E+01  0.55622665116E+01  0.51100000000E-03 0.  1.
         12    1    4    4    0    0  0.73756407381E+01 -0.53367999754E+01  0.30708086472E+02  0.32029175529E+02  0.00000000000E+00 0. -1.
</event>
<event>
 8    1  0.3776180E-010  0.9118800E+02  0.7816164E-02  0.1184000E+00
        -11   -1    0    0    0    0  0.00000000000E+00  0.00000000000E+00  0.45593999997E+02  0.45594000000E+02  0.51100000000E-03 0. -1.
         11   -1    0    0    0    0 -0.00000000000E+00 -0.00000000000E+00 -0.45593999997E+02  0.45594000000E+02  0.51100000000E-03 0.  1.
         23    2    1    2    0    0  0.00000000000E+00 -0.88817841970E-15  0.00000000000E+00  0.91188000000E+02  0.91188000000E+02 0.  0.
    9900012    2    3    3    0    0  0.11489015934E+02 -0.44187661614E+01 -0.41618505361E+02  0.47787274545E+02  0.20000015960E+02 0.  0.
         12    1    3    3    0    0 -0.11489015934E+02  0.44187661614E+01  0.41618505361E+02  0.43400725455E+02  0.00000000000E+00 0. -1.
         11    1    4    4    0    0  0.64900715691E+01 -0.23590122524E+01 -0.72451872411E+01  0.10008931321E+02  0.51100000000E-03 0. -1.
        -11    1    4    4    0    0  0.96117391249E+01 -0.33107793680E+01 -0.28164310644E+02  0.29942865316E+02  0.51100000000E-03 0.  1.
        -12    1    4    4    0    0 -0.46127947601E+01  0.12510254590E+01 -0.62090074766E+01  0.78354779077E+01  0.00000000000E+00 0.  1.
</event>
<event>
 8    1  0.3776180E-010  0.9118800E+02  0.7816164E-02  0.1184000E+00
        -11   -1    0    0    0    0  0.00000000000E+00  0.00000000000E+00  0.45593999997E+02  0.45594000000E+02  0.51100000000E-03 0. -1.
         11   -1    0    0    0    0 -0.00000000000E+00 -0.00000000000E+00 -0.45593999997E+02  0.45594000000E+02  0.51100000000E-03 0.  1.
         23    2    1    2    0    0  0.44408920985E-15  0.17763568394E-14  0.00000000000E+00  0.91188000000E+02  0.91188000000E+02 0.  0.
    9900012    2    3    3    0    0 -0.13261153803E+01 -0.14794323488E+02 -0.40779798569E+02  0.47787279260E+02  0.20000037456E+02 0.  0.
         12    1    3    3    0    0  0.13261153803E+01  0.14794323488E+02  0.40779798569E+02  0.43400720740E+02  0.00000000000E+00 0. -1.
         11    1    4    4    0    0  0.50837773958E+01 -0.58637295587E+01 -0.17382879052E+02  0.19036612129E+02  0.51100000000E-03 0. -1.
        -11    1    4    4    0    0 -0.41927831258E+01 -0.63994393716E+01 -0.24124042898E+02  0.25308135068E+02  0.51100000000E-03 0.  1.
         12    1    4    4    0    0 -0.22171096503E+01 -0.25311545579E+01  0.72712338054E+00  0.34425320634E+01  0.00000000000E+00 0. -1.
</event>
<event>
 8    1  0.3776180E-010  0.9118800E+02  0.7816164E-02  0.1184000E+00
        -11   -1    0    0    0    0  0.00000000000E+00  0.00000000000E+00  0.45593999997E+02  0.45594000000E+02  0.51100000000E-03 0. -1.
         11   -1    0    0    0    0 -0.00000000000E+00 -0.00000000000E+00 -0.45593999997E+02  0.45594000000E+02  0.51100000000E-03 0.  1.
         23    2    1    2    0    0  0.00000000000E+00 -0.35527136788E-14  0.00000000000E+00  0.91188000000E+02  0.91188000000E+02 0.  0.
    9900012    2    3    3    0    0 -0.22966906111E+02 -0.30984689118E+02  0.19902102030E+02  0.47787269577E+02  0.19999993308E+02 0.  0.
        -12    1    3    3    0    0  0.22966906111E+02  0.30984689118E+02 -0.19902102030E+02  0.43400730423E+02  0.00000000000E+00 0.  1.
         11    1    4    4    0    0 -0.72462705094E+00 -0.19103743023E+00  0.96267605334E+00  0.12199693060E+01  0.51100000000E-03 0. -1.
        -11    1    4    4    0    0 -0.31614096471E+01 -0.14370473131E+02 -0.55805077002E+00  0.14724687769E+02  0.51100000000E-03 0.  1.
        -12    1    4    4    0    0 -0.19080869413E+02 -0.16423178557E+02  0.19497476747E+02  0.31842612502E+02  0.00000000000E+00 0.  1.
</event>
<event>
 8    1  0.3776180E-010  0.9118800E+02  0.7816164E-02  0.1184000E+00
        -11   -1    0    0    0    0  0.00000000000E+00  0.00000000000E+00  0.45593999997E+02  0.45594000000E+02  0.51100000000E-03 0. -1.
         11   -1    0    0    0    0 -0.00000000000E+00 -0.00000000000E+00 -0.45593999997E+02  0.45594000000E+02  0.51100000000E-03 0.  1.
         23    2    1    2    0    0  0.00000000000E+00  0.00000000000E+00 -0.71054273576E-14  0.91188000000E+02  0.91188000000E+02 0.  0.
    9900012    2    3    3    0    0  0.10617085532E+01 -0.40322228490E+01  0.43199963232E+02  0.47787275704E+02  0.20000021246E+02 0.  0.
        -12    1    3    3    0    0 -0.10617085532E+01  0.40322228490E+01 -0.43199963232E+02  0.43400724296E+02  0.00000000000E+00 0.  1.
         11    1    4    4    0    0 -0.43824251281E+00  0.15002259066E+01  0.13431527349E+02  0.13522154468E+02  0.51100000000E-03 0. -1.
        -11    1    4    4    0    0 -0.54893454570E+01 -0.38630034004E+01  0.47185047835E+01  0.82048763836E+01  0.51100000000E-03 0.  1.
        -12    1    4    4    0    0  0.69892965230E+01 -0.16694453552E+01  0.25049931099E+02  0.26060244852E+02  0.00000000000E+00 0.  1.
</event>
<event>
 8    1  0.3776180E-010  0.9118800E+02  0.7816164E-02  0.1184000E+00
        -11   -1    0    0    0    0  0.00000000000E+00  0.00000000000E+00  0.45593999997E+02  0.45594000000E+02  0.51100000000E-03 0. -1.
         11   -1    0    0    0    0 -0.00000000000E+00 -0.00000000000E+00 -0.45593999997E+02  0.45594000000E+02  0.51100000000E-03 0.  1.
         23    2    1    2    0    0  0.00000000000E+00  0.00000000000E+00 -0.35527136788E-14  0.91188000000E+02  0.91188000000E+02 0.  0.
    9900012    2    3    3    0    0 -0.72879407156E+01 -0.36507545412E+02  0.22309379609E+02  0.47787269932E+02  0.19999994926E+02 0.  0.
        -12    1    3    3    0    0  0.72879407156E+01  0.36507545412E+02 -0.22309379609E+02  0.43400730068E+02  0.00000000000E+00 0.  1.
         11    1    4    4    0    0 -0.66297162889E+01 -0.35714825006E+02  0.15744984115E+02  0.39590483558E+02  0.51100000000E-03 0. -1.
        -11    1    4    4    0    0 -0.76815661285E+00  0.41086595544E+00 -0.51699767194E+00  0.10129966777E+01  0.51100000000E-03 0.  1.
         12    1    4    4    0    0  0.10993218611E+00 -0.12035863615E+01  0.70813931668E+01  0.71837896961E+01  0.00000000000E+00 0. -1.
</event>
<event>
 8    1  0.3776180E-010  0.9118800E+02  0.7816164E-02  0.1184000E+00
        -11   -1    0    0    0    0  0.00000000000E+00  0.00000000000E+00  0.45593999997E+02  0.45594000000E+02  0.51100000000E-03 0.  1.
         11   -1    0    0    0    0 -0.00000000000E+00 -0.00000000000E+00 -0.45593999997E+02  0.45594000000E+02  0.51100000000E-03 0. -1.
         23    2    1    2    0    0  0.00000000000E+00  0.00000000000E+00  0.00000000000E+00  0.91188000000E+02  0.91188000000E+02 0.  0.
    9900012    2    3    3    0    0  0.32138150468E+02 -0.26734281007E+02 -0.11663644627E+02  0.47787273020E+02  0.20000009005E+02 0.  0.
         12    1    3    3    0    0 -0.32138150468E+02  0.26734281007E+02  0.11663644627E+02  0.43400726980E+02  0.00000000000E+00 0. -1.
         11    1    4    4    0    0 -0.16112368154E+01 -0.20757701458E+01 -0.40198194915E+01  0.48024842299E+01  0.51100000000E-03 0. -1.
        -11    1    4    4    0    0  0.86902171532E+01 -0.10072950175E+02 -0.25615508295E+01  0.13547905459E+02  0.51100000000E-03 0.  1.
        -12    1    4    4    0    0  0.25059170130E+02 -0.14585560686E+02 -0.50822743060E+01  0.29436883331E+02  0.00000000000E+00 0.  1.
</event>
<event>
 8    1  0.3776180E-010  0.9118800E+02  0.7816164E-02  0.1184000E+00
        -11   -1    0    0    0    0  0.00000000000E+00  0.00000000000E+00  0.45593999997E+02  0.45594000000E+02  0.51100000000E-03 0. -1.
         11   -1    0    0    0    0 -0.00000000000E+00 -0.00000000000E+00 -0.45593999997E+02  0.45594000000E+02  0.51100000000E-03 0.  1.
         23    2    1    2    0    0 -0.17763568394E-14 -0.44408920985E-15 -0.71054273576E-14  0.91188000000E+02  0.91188000000E+02 0.  0.
    9900012    2    3    3    0    0  0.13166322656E+02 -0.29820107918E+01  0.41247773803E+02  0.47787270924E+02  0.19999999451E+02 0.  0.
        -12    1    3    3    0    0 -0.13166322656E+02  0.29820107918E+01 -0.41247773803E+02  0.43400729076E+02  0.00000000000E+00 0.  1.
         11    1    4    4    0    0  0.44545318747E+00  0.47029107108E+01  0.84867156564E+01  0.97128852866E+01  0.51100000000E-03 0. -1.
        -11    1    4    4    0    0  0.75192984008E+01  0.14294853187E+01  0.74812516531E+01  0.10702915644E+02  0.51100000000E-03 0.  1.
         12    1    4    4    0    0  0.52015710678E+01 -0.91144068213E+01  0.25279806493E+02  0.27371469994E+02  0.00000000000E+00 0. -1.
</event>
<event>
 8    1  0.3776180E-010  0.9118800E+02  0.7816164E-02  0.1184000E+00
        -11   -1    0    0    0    0  0.00000000000E+00  0.00000000000E+00  0.45593999997E+02  0.45594000000E+02  0.51100000000E-03 0. -1.
         11   -1    0    0    0    0 -0.00000000000E+00 -0.00000000000E+00 -0.45593999997E+02  0.45594000000E+02  0.51100000000E-03 0.  1.
         23    2    1    2    0    0  0.17763568394E-14  0.71054273576E-14  0.00000000000E+00  0.91188000000E+02  0.91188000000E+02 0.  0.
    9900012    2    3    3    0    0  0.99638460726E+01  0.30045195316E+02  0.29692281513E+02  0.47787267615E+02  0.19999984363E+02 0.  0.
        -12    1    3    3    0    0 -0.99638460726E+01 -0.30045195316E+02 -0.29692281513E+02  0.43400732385E+02  0.00000000000E+00 0.  1.
         11    1    4    4    0    0  0.82616487956E+01  0.15930549309E+02  0.24949804503E+02  0.30733206587E+02  0.51100000000E-03 0. -1.
        -11    1    4    4    0    0  0.43835525674E-01  0.24515879379E+01  0.46687462724E+01  0.52734615754E+01  0.51100000000E-03 0.  1.
        -12    1    4    4    0    0  0.16583617513E+01  0.11663058070E+02  0.73730736889E-01  0.11780599452E+02  0.00000000000E+00 0.  1.
</event>
<event>
 8    1  0.3776180E-010  0.9118800E+02  0.7816164E-02  0.1184000E+00
        -11   -1    0    0    0    0  0.00000000000E+00  0.00000000000E+00  0.45593999997E+02  0.45594000000E+02  0.51100000000E-03 0.  1.
         11   -1    0    0    0    0 -0.00000000000E+00 -0.00000000000E+00 -0.45593999997E+02  0.45594000000E+02  0.51100000000E-03 0. -1.
         23    2    1    2    0    0 -0.88817841970E-15  0.00000000000E+00  0.35527136788E-14  0.91188000000E+02  0.91188000000E+02 0.  0.
    9900012    2    3    3    0    0 -0.70534341591E+01 -0.40961092629E+02  0.12492464620E+02  0.47787265962E+02  0.19999976826E+02 0.  0.
        -12    1    3    3    0    0  0.70534341591E+01  0.40961092629E+02 -0.12492464620E+02  0.43400734038E+02  0.00000000000E+00 0.  1.
         11    1    4    4    0    0 -0.71538422738E+01 -0.27884339877E+02  0.81708886235E+01  0.29924526576E+02  0.51100000000E-03 0. -1.
        -11    1    4    4    0    0 -0.39105273928E+01 -0.41447298223E+01  0.55987320560E+01  0.79885424632E+01  0.51100000000E-03 0.  1.
         12    1    4    4    0    0  0.40109355075E+01 -0.89320229293E+01 -0.12771560599E+01  0.98741969221E+01  0.00000000000E+00 0. -1.
</event>
<event>
 8    1  0.3776180E-010  0.9118800E+02  0.7816164E-02  0.1184000E+00
        -11   -1    0    0    0    0  0.00000000000E+00  0.00000000000E+00  0.45593999997E+02  0.45594000000E+02  0.51100000000E-03 0. -1.
         11   -1    0    0    0    0 -0.00000000000E+00 -0.00000000000E+00 -0.45593999997E+02  0.45594000000E+02  0.51100000000E-03 0.  1.
         23    2    1    2    0    0  0.00000000000E+00 -0.35527136788E-14  0.17763568394E-14  0.91188000000E+02  0.91188000000E+02 0.  0.
    9900012    2    3    3    0    0 -0.37434190359E+02  0.16842654467E+02  0.14093605466E+02  0.47787270371E+02  0.19999996929E+02 0.  0.
        -12    1    3    3    0    0  0.37434190359E+02 -0.16842654467E+02 -0.14093605466E+02  0.43400729629E+02  0.00000000000E+00 0.  1.
         11    1    4    4    0    0 -0.54001490699E+01 -0.20087440198E+01  0.49769870461E+01  0.76136103677E+01  0.51100000000E-03 0. -1.
        -11    1    4    4    0    0 -0.36787361967E+01 -0.12052746465E+01 -0.10005950059E+01  0.39983718693E+01  0.51100000000E-03 0.  1.
        -12    1    4    4    0    0 -0.28355305092E+02  0.20056673134E+02  0.10117213426E+02  0.36175288134E+02  0.00000000000E+00 0.  1.
</event>
<event>
 8    1  0.3776180E-010  0.9118800E+02  0.7816164E-02  0.1184000E+00
        -11   -1    0    0    0    0  0.00000000000E+00  0.00000000000E+00  0.45593999997E+02  0.45594000000E+02  0.51100000000E-03 0.  1.
         11   -1    0    0    0    0 -0.00000000000E+00 -0.00000000000E+00 -0.45593999997E+02  0.45594000000E+02  0.51100000000E-03 0. -1.
         23    2    1    2    0    0  0.00000000000E+00  0.00000000000E+00 -0.88817841970E-15  0.91188000000E+02  0.91188000000E+02 0.  0.
    9900012    2    3    3    0    0  0.20353404629E+02  0.38261947005E+02  0.23206793574E+01  0.47787271650E+02  0.20000002763E+02 0.  0.
         12    1    3    3    0    0 -0.20353404629E+02 -0.38261947005E+02 -0.23206793574E+01  0.43400728350E+02  0.00000000000E+00 0. -1.
         11    1    4    4    0    0  0.13173858290E+02  0.15147490806E+02  0.13072864643E+01  0.20117306433E+02  0.51100000000E-03 0. -1.
        -11    1    4    4    0    0  0.56821735438E+01  0.20732931694E+02  0.56672432794E+01  0.22231940974E+02  0.51100000000E-03 0.  1.
        -12    1    4    4    0    0  0.14973727952E+01  0.23815245045E+01 -0.46538503863E+01  0.54380242434E+01  0.00000000000E+00 0.  1.
</event>
<event>
 8    1  0.4929202E-010  0.9118800E+02  0.7816164E-02  0.1184000E+00
        -11   -1    0    0    0    0  0.00000000000E+00  0.00000000000E+00  0.45593999997E+02  0.45594000000E+02  0.51100000000E-03 0. -1.
         11   -1    0    0    0    0 -0.00000000000E+00 -0.00000000000E+00 -0.45593999997E+02  0.45594000000E+02  0.51100000000E-03 0.  1.
         23    2    1    2    0    0  0.00000000000E+00  0.00000000000E+00  0.71054273576E-14  0.91188000000E+02  0.91188000000E+02 0.  0.
    9900012    2    3    3    0    0 -0.21517846683E+02  0.17743374005E+02  0.33253253421E+02  0.47787263715E+02  0.19999966584E+02 0.  0.
        -12    1    3    3    0    0  0.21517846683E+02 -0.17743374005E+02 -0.33253253421E+02  0.43400736285E+02  0.00000000000E+00 0.  1.
         11    1    4    4    0    0 -0.13794348077E+02  0.54712556298E+01  0.17613195204E+02  0.23031355205E+02  0.51100000000E-03 0. -1.
        -11    1    4    4    0    0 -0.94961269021E+01  0.95391603276E+01  0.16589249570E+02  0.21362940047E+02  0.51100000000E-03 0.  1.
        -12    1    4    4    0    0  0.17726282969E+01  0.27329580480E+01 -0.94919135215E+00  0.33929684635E+01  0.00000000000E+00 0.  1.
</event>
<event>
 8    1  0.3776180E-010  0.9118800E+02  0.7816164E-02  0.1184000E+00
        -11   -1    0    0    0    0  0.00000000000E+00  0.00000000000E+00  0.45593999997E+02  0.45594000000E+02  0.51100000000E-03 0. -1.
         11   -1    0    0    0    0 -0.00000000000E+00 -0.00000000000E+00 -0.45593999997E+02  0.45594000000E+02  0.51100000000E-03 0.  1.
         23    2    1    2    0    0  0.35527136788E-14 -0.35527136788E-14  0.35527136788E-14  0.91188000000E+02  0.91188000000E+02 0.  0.
    9900012    2    3    3    0    0 -0.19172177812E+02 -0.23955565046E+02  0.30694995853E+02  0.47787259578E+02  0.19999947721E+02 0.  0.
        -12    1    3    3    0    0  0.19172177812E+02  0.23955565046E+02 -0.30694995853E+02  0.43400740422E+02  0.00000000000E+00 0.  1.
         11    1    4    4    0    0 -0.10943749283E+02 -0.19510109767E+02  0.21066474304E+02  0.30727941216E+02  0.51100000000E-03 0. -1.
        -11    1    4    4    0    0 -0.10567946588E+02 -0.48508485033E+01  0.72760481017E+01  0.13716891140E+02  0.51100000000E-03 0.  1.
         12    1    4    4    0    0  0.23395180593E+01  0.40539322521E+00  0.23524734479E+01  0.33424272228E+01  0.00000000000E+00 0. -1.
</event>
<event>
 8    1  0.3776180E-010  0.9118800E+02  0.7816164E-02  0.1184000E+00
        -11   -1    0    0    0    0  0.00000000000E+00  0.00000000000E+00  0.45593999997E+02  0.45594000000E+02  0.51100000000E-03 0. -1.
         11   -1    0    0    0    0 -0.00000000000E+00 -0.00000000000E+00 -0.45593999997E+02  0.45594000000E+02  0.51100000000E-03 0.  1.
         23    2    1    2    0    0  0.00000000000E+00 -0.88817841970E-15  0.00000000000E+00  0.91188000000E+02  0.91188000000E+02 0.  0.
    9900012    2    3    3    0    0 -0.23329150273E+02 -0.48094240600E+01  0.36280063791E+02  0.47787276032E+02  0.20000022741E+02 0.  0.
        -12    1    3    3    0    0  0.23329150273E+02  0.48094240600E+01 -0.36280063791E+02  0.43400723968E+02  0.00000000000E+00 0.  1.
         11    1    4    4    0    0 -0.68928990731E+00 -0.10935757894E+01  0.62669322205E+00  0.14365838782E+01  0.51100000000E-03 0.  1.
        -11    1    4    4    0    0  0.20804743135E+01 -0.43734421634E+01  0.49211895310E+01  0.69045982060E+01  0.51100000000E-03 0. -1.
         12    1    4    4    0    0 -0.24720334680E+02  0.65759389282E+00  0.30732181038E+02  0.39446093948E+02  0.00000000000E+00 0. -1.
</event>
<event>
 8    1  0.3776180E-010  0.9118800E+02  0.7816164E-02  0.1184000E+00
        -11   -1    0    0    0    0  0.00000000000E+00  0.00000000000E+00  0.45593999997E+02  0.45594000000E+02  0.51100000000E-03 0. -1.
         11   -1    0    0    0    0 -0.00000000000E+00 -0.00000000000E+00 -0.45593999997E+02  0.45594000000E+02  0.51100000000E-03 0.  1.
         23    2    1    2    0    0  0.00000000000E+00  0.00000000000E+00  0.00000000000E+00  0.91188000000E+02  0.91188000000E+02 0.  0.
    9900012    2    3    3    0    0  0.17490161577E+02  0.38535348480E+01  0.39533122389E+02  0.47787271335E+02  0.20000001325E+02 0.  0.
        -12    1    3    3    0    0 -0.17490161577E+02 -0.38535348480E+01 -0.39533122389E+02  0.43400728665E+02  0.00000000000E+00 0.  1.
         11    1    4    4    0    0  0.25228267168E+01  0.61887369743E+01  0.11857331632E+02  0.13611077608E+02  0.51100000000E-03 0. -1.
        -11    1    4    4    0    0  0.14473761625E+02  0.90736163445E+00  0.27250099467E+02  0.30868770658E+02  0.51100000000E-03 0.  1.
        -12    1    4    4    0    0  0.49357323569E+00 -0.32425637607E+01  0.42569129040E+00  0.33074230688E+01  0.00000000000E+00 0.  1.
</event>
<event>
 8    1  0.3776180E-010  0.9118800E+02  0.7816164E-02  0.1184000E+00
        -11   -1    0    0    0    0  0.00000000000E+00  0.00000000000E+00  0.45593999997E+02  0.45594000000E+02  0.51100000000E-03 0. -1.
         11   -1    0    0    0    0 -0.00000000000E+00 -0.00000000000E+00 -0.45593999997E+02  0.45594000000E+02  0.51100000000E-03 0.  1.
         23    2    1    2    0    0  0.00000000000E+00 -0.35527136788E-14  0.00000000000E+00  0.91188000000E+02  0.91188000000E+02 0.  0.
    9900012    2    3    3    0    0 -0.14744796855E+01  0.21513418230E+02  0.37664598215E+02  0.47787271746E+02  0.20000003201E+02 0.  0.
        -12    1    3    3    0    0  0.14744796855E+01 -0.21513418230E+02 -0.37664598215E+02  0.43400728254E+02  0.00000000000E+00 0.  1.
         11    1    4    4    0    0  0.24295026546E+01  0.20915936218E+02  0.25977178573E+02  0.33439388121E+02  0.51100000000E-03 0. -1.
        -11    1    4    4    0    0 -0.18003112455E+01  0.13963450216E+01 -0.16445224092E+00  0.22842821193E+01  0.51100000000E-03 0.  1.
         12    1    4    4    0    0 -0.21036710946E+01 -0.79886300954E+00  0.11851871883E+02  0.12063601506E+02  0.00000000000E+00 0. -1.
</event>
<event>
 8    1  0.3776180E-010  0.9118800E+02  0.7816164E-02  0.1184000E+00
        -11   -1    0    0    0    0  0.00000000000E+00  0.00000000000E+00  0.45593999997E+02  0.45594000000E+02  0.51100000000E-03 0. -1.
         11   -1    0    0    0    0 -0.00000000000E+00 -0.00000000000E+00 -0.45593999997E+02  0.45594000000E+02  0.51100000000E-03 0.  1.
         23    2    1    2    0    0 -0.17763568394E-14  0.00000000000E+00  0.00000000000E+00  0.91188000000E+02  0.91188000000E+02 0.  0.
    9900012    2    3    3    0    0 -0.11445507494E+02 -0.35000009132E+02  0.22970014056E+02  0.47787287716E+02  0.20000076014E+02 0.  0.
        -12    1    3    3    0    0  0.11445507494E+02  0.35000009132E+02 -0.22970014056E+02  0.43400712284E+02  0.00000000000E+00 0.  1.
         11    1    4    4    0    0 -0.61969370824E+01 -0.22649908812E+02  0.16134159734E+02  0.28490902214E+02  0.51100000000E-03 0. -1.
        -11    1    4    4    0    0 -0.27453093671E+01 -0.13722784293E+02  0.81047783396E+01  0.16172166350E+02  0.51100000000E-03 0.  1.
        -12    1    4    4    0    0 -0.25032610444E+01  0.13726839733E+01 -0.12689240175E+01  0.31242191519E+01  0.00000000000E+00 0.  1.
</event>
<event>
 8    1  0.3776180E-010  0.9118800E+02  0.7816164E-02  0.1184000E+00
        -11   -1    0    0    0    0  0.00000000000E+00  0.00000000000E+00  0.45593999997E+02  0.45594000000E+02  0.51100000000E-03 0. -1.
         11   -1    0    0    0    0 -0.00000000000E+00 -0.00000000000E+00 -0.45593999997E+02  0.45594000000E+02  0.51100000000E-03 0.  1.
         23    2    1    2    0    0 -0.22204460493E-15 -0.71054273576E-14  0.00000000000E+00  0.91188000000E+02  0.91188000000E+02 0.  0.
    9900012    2    3    3    0    0 -0.59797893658E+00 -0.41056860300E+02 -0.14057004718E+02  0.47787277216E+02  0.20000028139E+02 0.  0.
         12    1    3    3    0    0  0.59797893658E+00  0.41056860300E+02  0.14057004718E+02  0.43400722784E+02  0.00000000000E+00 0. -1.
         11    1    4    4    0    0 -0.29187624308E+01 -0.29088847456E+02 -0.12390723407E+02  0.31752326643E+02  0.51100000000E-03 0.  1.
        -11    1    4    4    0    0  0.13915631962E+01 -0.12901557878E+02 -0.38053682094E+01  0.13522849969E+02  0.51100000000E-03 0. -1.
         12    1    4    4    0    0  0.92922029804E+00  0.93354503336E+00  0.21390868979E+01  0.25121006048E+01  0.00000000000E+00 0. -1.
</event>
<event>
 8    1  0.3776180E-010  0.9118800E+02  0.7816164E-02  0.1184000E+00
        -11   -1    0    0    0    0  0.00000000000E+00  0.00000000000E+00  0.45593999997E+02  0.45594000000E+02  0.51100000000E-03 0.  1.
         11   -1    0    0    0    0 -0.00000000000E+00 -0.00000000000E+00 -0.45593999997E+02  0.45594000000E+02  0.51100000000E-03 0. -1.
         23    2    1    2    0    0  0.00000000000E+00 -0.88817841970E-15 -0.44408920985E-15  0.91188000000E+02  0.91188000000E+02 0.  0.
    9900012    2    3    3    0    0 -0.43043650162E+02  0.46350201923E+01  0.30632858402E+01  0.47787274758E+02  0.20000016931E+02 0.  0.
        -12    1    3    3    0    0  0.43043650162E+02 -0.46350201923E+01 -0.30632858402E+01  0.43400725242E+02  0.00000000000E+00 0.  1.
         11    1    4    4    0    0 -0.59356977381E+00  0.43354927477E+01  0.23368719267E+00  0.43821721106E+01  0.51100000000E-03 0. -1.
        -11    1    4    4    0    0 -0.15162145900E+01 -0.10947284098E+01 -0.12429885653E+01  0.22455194964E+01  0.51100000000E-03 0.  1.
        -12    1    4    4    0    0 -0.40933865798E+02  0.13942558543E+01  0.40725872128E+01  0.41159583151E+02  0.00000000000E+00 0.  1.
</event>
<event>
 8    1  0.3776180E-010  0.9118800E+02  0.7816164E-02  0.1184000E+00
        -11   -1    0    0    0    0  0.00000000000E+00  0.00000000000E+00  0.45593999997E+02  0.45594000000E+02  0.51100000000E-03 0. -1.
         11   -1    0    0    0    0 -0.00000000000E+00 -0.00000000000E+00 -0.45593999997E+02  0.45594000000E+02  0.51100000000E-03 0.  1.
         23    2    1    2    0    0  0.00000000000E+00  0.00000000000E+00  0.00000000000E+00  0.91188000000E+02  0.91188000000E+02 0.  0.
    9900012    2    3    3    0    0 -0.23983784493E+02  0.21664345074E+02 -0.28966485967E+02  0.47787273331E+02  0.20000010428E+02 0.  0.
         12    1    3    3    0    0  0.23983784493E+02 -0.21664345074E+02  0.28966485967E+02  0.43400726669E+02  0.00000000000E+00 0. -1.
         11    1    4    4    0    0 -0.66747340886E+01  0.43598078285E+01 -0.64485004392E+01  0.10253933764E+02  0.51100000000E-03 0.  1.
        -11    1    4    4    0    0 -0.12433968356E+02  0.76961291759E+01 -0.25496959849E+01  0.14843682940E+02  0.51100000000E-03 0. -1.
         12    1    4    4    0    0 -0.48750820493E+01  0.96084080694E+01 -0.19968289543E+02  0.22689656627E+02  0.00000000000E+00 0. -1.
</event>
<event>
 8    1  0.3776180E-010  0.9118800E+02  0.7816164E-02  0.1184000E+00
        -11   -1    0    0    0    0  0.00000000000E+00  0.00000000000E+00  0.45593999997E+02  0.45594000000E+02  0.51100000000E-03 0. -1.
         11   -1    0    0    0    0 -0.00000000000E+00 -0.00000000000E+00 -0.45593999997E+02  0.45594000000E+02  0.51100000000E-03 0.  1.
         23    2    1    2    0    0  0.00000000000E+00  0.71054273576E-14  0.00000000000E+00  0.91188000000E+02  0.91188000000E+02 0.  0.
    9900012    2    3    3    0    0 -0.20056860458E+02  0.33297454219E+02 -0.19303502204E+02  0.47787270672E+02  0.19999998302E+02 0.  0.
         12    1    3    3    0    0  0.20056860458E+02 -0.33297454219E+02  0.19303502204E+02  0.43400729328E+02  0.00000000000E+00 0. -1.
         11    1    4    4    0    0 -0.15371603181E+01  0.99152292474E+01 -0.24239687136E+01  0.10322318415E+02  0.51100000000E-03 0. -1.
        -11    1    4    4    0    0 -0.25487368938E+01  0.14810034194E+02 -0.52004461592E+01  0.15902132344E+02  0.51100000000E-03 0.  1.
        -12    1    4    4    0    0 -0.15970963246E+02  0.85721907776E+01 -0.11679087331E+02  0.21562819913E+02  0.00000000000E+00 0.  1.
</event>
<event>
 8    1  0.3776180E-010  0.9118800E+02  0.7816164E-02  0.1184000E+00
        -11   -1    0    0    0    0  0.00000000000E+00  0.00000000000E+00  0.45593999997E+02  0.45594000000E+02  0.51100000000E-03 0. -1.
         11   -1    0    0    0    0 -0.00000000000E+00 -0.00000000000E+00 -0.45593999997E+02  0.45594000000E+02  0.51100000000E-03 0.  1.
         23    2    1    2    0    0  0.00000000000E+00  0.00000000000E+00  0.00000000000E+00  0.91188000000E+02  0.91188000000E+02 0.  0.
    9900012    2    3    3    0    0  0.25522480550E+01  0.14056714433E+01 -0.43302806024E+02  0.47787275445E+02  0.20000020065E+02 0.  0.
         12    1    3    3    0    0 -0.25522480550E+01 -0.14056714433E+01  0.43302806024E+02  0.43400724555E+02  0.00000000000E+00 0. -1.
         11    1    4    4    0    0 -0.13609311954E+01 -0.24432147146E+01 -0.22437164692E+01  0.35854840281E+01  0.51100000000E-03 0.  1.
        -11    1    4    4    0    0  0.57621383011E+01 -0.38226681926E+01 -0.28830161827E+02  0.29647820512E+02  0.51100000000E-03 0. -1.
         12    1    4    4    0    0 -0.18489590507E+01  0.76715543505E+01 -0.12228927728E+02  0.14553970905E+02  0.00000000000E+00 0. -1.
</event>
<event>
 8    1  0.3776180E-010  0.9118800E+02  0.7816164E-02  0.1184000E+00
        -11   -1    0    0    0    0  0.00000000000E+00  0.00000000000E+00  0.45593999997E+02  0.45594000000E+02  0.51100000000E-03 0. -1.
         11   -1    0    0    0    0 -0.00000000000E+00 -0.00000000000E+00 -0.45593999997E+02  0.45594000000E+02  0.51100000000E-03 0.  1.
         23    2    1    2    0    0  0.00000000000E+00 -0.17763568394E-14  0.00000000000E+00  0.91188000000E+02  0.91188000000E+02 0.  0.
    9900012    2    3    3    0    0 -0.24141777587E+02 -0.12346474039E+02 -0.33887497414E+02  0.47787270430E+02  0.19999997197E+02 0.  0.
         12    1    3    3    0    0  0.24141777587E+02  0.12346474039E+02  0.33887497414E+02  0.43400729570E+02  0.00000000000E+00 0. -1.
         11    1    4    4    0    0 -0.48078793475E+01 -0.11393123403E+02 -0.20854008157E+02  0.24244764820E+02  0.51100000000E-03 0. -1.
        -11    1    4    4    0    0 -0.50954540881E+01 -0.14724046595E+01 -0.27770290715E+01  0.59869456796E+01  0.51100000000E-03 0.  1.
         12    1    4    4    0    0 -0.14238444151E+02  0.51905402354E+00 -0.10256460186E+02  0.17555559930E+02  0.00000000000E+00 0. -1.
</event>
<event>
 8    1  0.3776180E-010  0.9118800E+02  0.7816164E-02  0.1184000E+00
        -11   -1    0    0    0    0  0.00000000000E+00  0.00000000000E+00  0.45593999997E+02  0.45594000000E+02  0.51100000000E-03 0. -1.
         11   -1    0    0    0    0 -0.00000000000E+00 -0.00000000000E+00 -0.45593999997E+02  0.45594000000E+02  0.51100000000E-03 0.  1.
         23    2    1    2    0    0 -0.17763568394E-14  0.00000000000E+00  0.71054273576E-14  0.91188000000E+02  0.91188000000E+02 0.  0.
    9900012    2    3    3    0    0  0.14380815246E+02  0.21793076789E+01 -0.40890903267E+02  0.47787271906E+02  0.20000003930E+02 0.  0.
         12    1    3    3    0    0 -0.14380815246E+02 -0.21793076789E+01  0.40890903267E+02  0.43400728094E+02  0.00000000000E+00 0. -1.
         11    1    4    4    0    0  0.33844083978E+01 -0.37479616803E+01 -0.10387179737E+02  0.11549672727E+02  0.51100000000E-03 0. -1.
        -11    1    4    4    0    0  0.43280893325E+01  0.16496890139E+01  0.92073146626E-01  0.46327431224E+01  0.51100000000E-03 0.  1.
        -12    1    4    4    0    0  0.66683175156E+01  0.42775803452E+01 -0.30595796676E+02  0.31604856057E+02  0.00000000000E+00 0.  1.
</event>
<event>
 8    1  0.3776180E-010  0.9118800E+02  0.7816164E-02  0.1184000E+00
        -11   -1    0    0    0    0  0.00000000000E+00  0.00000000000E+00  0.45593999997E+02  0.45594000000E+02  0.51100000000E-03 0. -1.
         11   -1    0    0    0    0 -0.00000000000E+00 -0.00000000000E+00 -0.45593999997E+02  0.45594000000E+02  0.51100000000E-03 0.  1.
         23    2    1    2    0    0  0.44408920985E-15  0.71054273576E-14 -0.35527136788E-14  0.91188000000E+02  0.91188000000E+02 0.  0.
    9900012    2    3    3    0    0 -0.39549722241E+01 -0.36763600918E+02  0.22724858122E+02  0.47787270347E+02  0.19999996820E+02 0.  0.
        -12    1    3    3    0    0  0.39549722241E+01  0.36763600918E+02 -0.22724858122E+02  0.43400729653E+02  0.00000000000E+00 0.  1.
         11    1    4    4    0    0 -0.56220831934E+01 -0.28343011226E+02  0.22429319820E+02  0.36578798403E+02  0.51100000000E-03 0. -1.
        -11    1    4    4    0    0  0.18529422408E+01 -0.38885202799E+01  0.35860157390E+01  0.56047742199E+01  0.51100000000E-03 0.  1.
         12    1    4    4    0    0 -0.18583127141E+00 -0.45320694127E+01 -0.32904774367E+01  0.56036977242E+01  0.00000000000E+00 0. -1.
</event>
<event>
 8    1  0.3776180E-010  0.9118800E+02  0.7816164E-02  0.1184000E+00
        -11   -1    0    0    0    0  0.00000000000E+00  0.00000000000E+00  0.45593999997E+02  0.45594000000E+02  0.51100000000E-03 0.  1.
         11   -1    0    0    0    0 -0.00000000000E+00 -0.00000000000E+00 -0.45593999997E+02  0.45594000000E+02  0.51100000000E-03 0. -1.
         23    2    1    2    0    0  0.00000000000E+00  0.17763568394E-14 -0.71054273576E-14  0.91188000000E+02  0.91188000000E+02 0.  0.
    9900012    2    3    3    0    0  0.22433341163E+02 -0.11961008020E+02  0.35175311775E+02  0.47787273427E+02  0.20000010862E+02 0.  0.
        -12    1    3    3    0    0 -0.22433341163E+02  0.11961008020E+02 -0.35175311775E+02  0.43400726573E+02  0.00000000000E+00 0.  1.
         11    1    4    4    0    0  0.61114128789E+01 -0.68715023974E+01  0.73713310054E+01  0.11785730085E+02  0.51100000000E-03 0. -1.
        -11    1    4    4    0    0  0.18026867231E+02 -0.18881603625E+01  0.17985346163E+02  0.25534403627E+02  0.51100000000E-03 0.  1.
        -12    1    4    4    0    0 -0.17049389465E+01 -0.32013452597E+01  0.98186346068E+01  0.10467139716E+02  0.00000000000E+00 0.  1.
</event>
<event>
 8    1  0.3776180E-010  0.9118800E+02  0.7816164E-02  0.1184000E+00
        -11   -1    0    0    0    0  0.00000000000E+00  0.00000000000E+00  0.45593999997E+02  0.45594000000E+02  0.51100000000E-03 0. -1.
         11   -1    0    0    0    0 -0.00000000000E+00 -0.00000000000E+00 -0.45593999997E+02  0.45594000000E+02  0.51100000000E-03 0.  1.
         23    2    1    2    0    0  0.00000000000E+00  0.00000000000E+00  0.00000000000E+00  0.91188000000E+02  0.91188000000E+02 0.  0.
    9900012    2    3    3    0    0 -0.16125906888E+02  0.31506222730E+02  0.25118447099E+02  0.47787270417E+02  0.19999997139E+02 0.  0.
        -12    1    3    3    0    0  0.16125906888E+02 -0.31506222730E+02 -0.25118447099E+02  0.43400729583E+02  0.00000000000E+00 0.  1.
         11    1    4    4    0    0  0.69273674796E+00  0.89169664090E+01  0.58910344431E+01  0.10709643375E+02  0.51100000000E-03 0. -1.
        -11    1    4    4    0    0 -0.90360449147E-01 -0.15566335848E+01  0.33305613709E+01  0.36774872447E+01  0.51100000000E-03 0.  1.
        -12    1    4    4    0    0 -0.16728283187E+02  0.24145889906E+02  0.15896851285E+02  0.33400139798E+02  0.00000000000E+00 0.  1.
</event>
<event>
 8    1  0.3776180E-010  0.9118800E+02  0.7816164E-02  0.1184000E+00
        -11   -1    0    0    0    0  0.00000000000E+00  0.00000000000E+00  0.45593999997E+02  0.45594000000E+02  0.51100000000E-03 0. -1.
         11   -1    0    0    0    0 -0.00000000000E+00 -0.00000000000E+00 -0.45593999997E+02  0.45594000000E+02  0.51100000000E-03 0.  1.
         23    2    1    2    0    0 -0.71054273576E-14  0.00000000000E+00  0.35527136788E-14  0.91188000000E+02  0.91188000000E+02 0.  0.
    9900012    2    3    3    0    0 -0.35861480263E+02  0.18681556754E+02  0.15766334524E+02  0.47787266899E+02  0.19999981097E+02 0.  0.
        -12    1    3    3    0    0  0.35861480263E+02 -0.18681556754E+02 -0.15766334524E+02  0.43400733101E+02  0.00000000000E+00 0.  1.
         11    1    4    4    0    0 -0.23719842362E+02  0.10250365347E+02  0.11489333694E+02  0.28279068239E+02  0.51100000000E-03 0. -1.
        -11    1    4    4    0    0 -0.92469497987E+01  0.49712986282E+01  0.83624925935E+01  0.13422040578E+02  0.51100000000E-03 0.  1.
         12    1    4    4    0    0 -0.28946881019E+01  0.34598927786E+01 -0.40854917639E+01  0.60861580820E+01  0.00000000000E+00 0. -1.
</event>
<event>
 8    1  0.3776180E-010  0.9118800E+02  0.7816164E-02  0.1184000E+00
        -11   -1    0    0    0    0  0.00000000000E+00  0.00000000000E+00  0.45593999997E+02  0.45594000000E+02  0.51100000000E-03 0. -1.
         11   -1    0    0    0    0 -0.00000000000E+00 -0.00000000000E+00 -0.45593999997E+02  0.45594000000E+02  0.51100000000E-03 0.  1.
         23    2    1    2    0    0  0.00000000000E+00  0.44408920985E-15  0.00000000000E+00  0.91188000000E+02  0.91188000000E+02 0.  0.
    9900012    2    3    3    0    0  0.24294840292E+02  0.20544763522E+01 -0.35904915519E+02  0.47787273090E+02  0.20000009326E+02 0.  0.
         12    1    3    3    0    0 -0.24294840292E+02 -0.20544763522E+01  0.35904915519E+02  0.43400726910E+02  0.00000000000E+00 0. -1.
         11    1    4    4    0    0  0.67975417622E+01 -0.14170434818E+00 -0.91870905817E+00  0.68608075856E+01  0.51100000000E-03 0. -1.
        -11    1    4    4    0    0 -0.73039981595E+00  0.28949120848E+01 -0.53375090586E+01  0.61157994638E+01  0.51100000000E-03 0.  1.
        -12    1    4    4    0    0  0.18227698345E+02 -0.69873138442E+00 -0.29648697402E+02  0.34810666040E+02  0.00000000000E+00 0.  1.
</event>
<event>
 8    1  0.3776180E-010  0.9118800E+02  0.7816164E-02  0.1184000E+00
        -11   -1    0    0    0    0  0.00000000000E+00  0.00000000000E+00  0.45593999997E+02  0.45594000000E+02  0.51100000000E-03 0. -1.
         11   -1    0    0    0    0 -0.00000000000E+00 -0.00000000000E+00 -0.45593999997E+02  0.45594000000E+02  0.51100000000E-03 0.  1.
         23    2    1    2    0    0  0.35527136788E-14 -0.35527136788E-14  0.00000000000E+00  0.91188000000E+02  0.91188000000E+02 0.  0.
    9900012    2    3    3    0    0  0.31452483327E+02 -0.28230826626E+02  0.98683745109E+01  0.47787273106E+02  0.20000009402E+02 0.  0.
        -12    1    3    3    0    0 -0.31452483327E+02  0.28230826626E+02 -0.98683745109E+01  0.43400726894E+02  0.00000000000E+00 0.  1.
         11    1    4    4    0    0  0.12566695647E+02 -0.93462828304E+01  0.43968978600E+01  0.16266762225E+02  0.51100000000E-03 0. -1.
        -11    1    4    4    0    0  0.65531809101E+01 -0.14883002101E+01 -0.43895152178E+01  0.80266469752E+01  0.51100000000E-03 0.  1.
        -12    1    4    4    0    0  0.12332606770E+02 -0.17396243585E+02  0.98609918688E+01  0.23493863906E+02  0.00000000000E+00 0.  1.
</event>
<event>
 8    1  0.3776180E-010  0.9118800E+02  0.7816164E-02  0.1184000E+00
        -11   -1    0    0    0    0  0.00000000000E+00  0.00000000000E+00  0.45593999997E+02  0.45594000000E+02  0.51100000000E-03 0. -1.
         11   -1    0    0    0    0 -0.00000000000E+00 -0.00000000000E+00 -0.45593999997E+02  0.45594000000E+02  0.51100000000E-03 0.  1.
         23    2    1    2    0    0  0.17763568394E-14  0.00000000000E+00  0.00000000000E+00  0.91188000000E+02  0.91188000000E+02 0.  0.
    9900012    2    3    3    0    0  0.13518107925E+02  0.58643768025E+01 -0.40822718076E+02  0.47787257284E+02  0.19999937261E+02 0.  0.
         12    1    3    3    0    0 -0.13518107925E+02 -0.58643768025E+01  0.40822718076E+02  0.43400742716E+02  0.00000000000E+00 0. -1.
         11    1    4    4    0    0  0.11158137118E+02 -0.17045134997E+01 -0.16500975052E+02  0.19992287717E+02  0.51100000000E-03 0. -1.
        -11    1    4    4    0    0  0.46903618418E+01  0.38017547415E+01 -0.21960322005E+02  0.22775174558E+02  0.51100000000E-03 0.  1.
        -12    1    4    4    0    0 -0.23303910349E+01  0.37671355607E+01 -0.23614210200E+01  0.50197950099E+01  0.00000000000E+00 0.  1.
</event>
<event>
 8    1  0.3776180E-010  0.9118800E+02  0.7816164E-02  0.1184000E+00
        -11   -1    0    0    0    0  0.00000000000E+00  0.00000000000E+00  0.45593999997E+02  0.45594000000E+02  0.51100000000E-03 0. -1.
         11   -1    0    0    0    0 -0.00000000000E+00 -0.00000000000E+00 -0.45593999997E+02  0.45594000000E+02  0.51100000000E-03 0.  1.
         23    2    1    2    0    0  0.00000000000E+00  0.14210854715E-13  0.17763568394E-14  0.91188000000E+02  0.91188000000E+02 0.  0.
    9900012    2    3    3    0    0 -0.71161364679E+01  0.40840384138E+02  0.12847050021E+02  0.47787273405E+02  0.20000010761E+02 0.  0.
        -12    1    3    3    0    0  0.71161364679E+01 -0.40840384138E+02 -0.12847050021E+02  0.43400726595E+02  0.00000000000E+00 0.  1.
         11    1    4    4    0    0 -0.43704957252E+01  0.93317890039E+01  0.83116359376E+01  0.13238837227E+02  0.51100000000E-03 0.  1.
        -11    1    4    4    0    0 -0.50282510595E+01  0.29552297547E+02  0.68556375408E+01  0.30750957146E+02  0.51100000000E-03 0. -1.
         12    1    4    4    0    0  0.22826103168E+01  0.19562975867E+01 -0.23202234574E+01  0.37974790320E+01  0.00000000000E+00 0. -1.
</event>
<event>
 8    1  0.3776180E-010  0.9118800E+02  0.7816164E-02  0.1184000E+00
        -11   -1    0    0    0    0  0.00000000000E+00  0.00000000000E+00  0.45593999997E+02  0.45594000000E+02  0.51100000000E-03 0. -1.
         11   -1    0    0    0    0 -0.00000000000E+00 -0.00000000000E+00 -0.45593999997E+02  0.45594000000E+02  0.51100000000E-03 0.  1.
         23    2    1    2    0    0 -0.17763568394E-14 -0.17763568394E-14  0.71054273576E-14  0.91188000000E+02  0.91188000000E+02 0.  0.
    9900012    2    3    3    0    0  0.95332979602E+01  0.13633461391E+02 -0.40085760890E+02  0.47787271140E+02  0.20000000434E+02 0.  0.
         12    1    3    3    0    0 -0.95332979602E+01 -0.13633461391E+02  0.40085760890E+02  0.43400728860E+02  0.00000000000E+00 0. -1.
         11    1    4    4    0    0 -0.61230643165E+00  0.46541889250E+01 -0.62506043445E+00  0.47357253429E+01  0.51100000000E-03 0. -1.
        -11    1    4    4    0    0  0.35088548641E+00  0.37323033889E+01 -0.26250856289E+01  0.45764925469E+01  0.51100000000E-03 0.  1.
        -12    1    4    4    0    0  0.97947189055E+01  0.52469690771E+01 -0.36835614826E+02  0.38475053250E+02  0.00000000000E+00 0.  1.
</event>
<event>
 8    1  0.3776180E-010  0.9118800E+02  0.7816164E-02  0.1184000E+00
        -11   -1    0    0    0    0  0.00000000000E+00  0.00000000000E+00  0.45593999997E+02  0.45594000000E+02  0.51100000000E-03 0. -1.
         11   -1    0    0    0    0 -0.00000000000E+00 -0.00000000000E+00 -0.45593999997E+02  0.45594000000E+02  0.51100000000E-03 0.  1.
         23    2    1    2    0    0  0.44408920985E-15  0.00000000000E+00  0.00000000000E+00  0.91188000000E+02  0.91188000000E+02 0.  0.
    9900012    2    3    3    0    0  0.12804171056E+01  0.36488414431E+02  0.23464430024E+02  0.47787270375E+02  0.19999996948E+02 0.  0.
        -12    1    3    3    0    0 -0.12804171056E+01 -0.36488414431E+02 -0.23464430024E+02  0.43400729625E+02  0.00000000000E+00 0.  1.
         11    1    4    4    0    0  0.16572836813E+01  0.92022769298E+01  0.11560057321E+01  0.94215094017E+01  0.51100000000E-03 0. -1.
        -11    1    4    4    0    0  0.54147891726E+01  0.91335838818E+01  0.25567469881E+01  0.10921504097E+02  0.51100000000E-03 0.  1.
         12    1    4    4    0    0 -0.57916557483E+01  0.18152553619E+02  0.19751677304E+02  0.27444256877E+02  0.00000000000E+00 0. -1.
</event>
<event>
 8    1  0.3776180E-010  0.9118800E+02  0.7816164E-02  0.1184000E+00
        -11   -1    0    0    0    0  0.00000000000E+00  0.00000000000E+00  0.45593999997E+02  0.45594000000E+02  0.51100000000E-03 0. -1.
         11   -1    0    0    0    0 -0.00000000000E+00 -0.00000000000E+00 -0.45593999997E+02  0.45594000000E+02  0.51100000000E-03 0.  1.
         23    2    1    2    0    0  0.44408920985E-15  0.00000000000E+00  0.00000000000E+00  0.91188000000E+02  0.91188000000E+02 0.  0.
    9900012    2    3    3    0    0  0.33523748018E+01  0.51517175758E+01 -0.42963290825E+02  0.47787274553E+02  0.20000015998E+02 0.  0.
         12    1    3    3    0    0 -0.33523748018E+01 -0.51517175758E+01  0.42963290825E+02  0.43400725447E+02  0.00000000000E+00 0. -1.
         11    1    4    4    0    0 -0.48877915785E+01 -0.12025360458E+01 -0.51397366002E+01  0.71939899942E+01  0.51100000000E-03 0. -1.
        -11    1    4    4    0    0 -0.10660663678E+01 -0.11644612113E+01 -0.12345347507E+02  0.12445885776E+02  0.51100000000E-03 0.  1.
        -12    1    4    4    0    0  0.93062327480E+01  0.75187148329E+01 -0.25478206718E+02  0.28147398783E+02  0.00000000000E+00 0.  1.
</event>
<event>
 8    1  0.3776180E-010  0.9118800E+02  0.7816164E-02  0.1184000E+00
        -11   -1    0    0    0    0  0.00000000000E+00  0.00000000000E+00  0.45593999997E+02  0.45594000000E+02  0.51100000000E-03 0. -1.
         11   -1    0    0    0    0 -0.00000000000E+00 -0.00000000000E+00 -0.45593999997E+02  0.45594000000E+02  0.51100000000E-03 0.  1.
         23    2    1    2    0    0  0.00000000000E+00  0.00000000000E+00 -0.35527136788E-14  0.91188000000E+02  0.91188000000E+02 0.  0.
    9900012    2    3    3    0    0 -0.67912365849E+01 -0.33441083835E+02 -0.26817830184E+02  0.47787274221E+02  0.20000014481E+02 0.  0.
         12    1    3    3    0    0  0.67912365849E+01  0.33441083835E+02  0.26817830184E+02  0.43400725779E+02  0.00000000000E+00 0. -1.
         11    1    4    4    0    0 -0.99909370948E+00 -0.92109355459E+01 -0.14034305536E+02  0.16816695692E+02  0.51100000000E-03 0. -1.
        -11    1    4    4    0    0 -0.56696412937E+01 -0.18242372481E+02 -0.15299482157E+02  0.24474540663E+02  0.51100000000E-03 0.  1.
         12    1    4    4    0    0 -0.12250158173E+00 -0.59877758077E+01  0.25159575087E+01  0.64960378652E+01  0.00000000000E+00 0. -1.
</event>
<event>
 8    1  0.3776180E-010  0.9118800E+02  0.7816164E-02  0.1184000E+00
        -11   -1    0    0    0    0  0.00000000000E+00  0.00000000000E+00  0.45593999997E+02  0.45594000000E+02  0.51100000000E-03 0. -1.
         11   -1    0    0    0    0 -0.00000000000E+00 -0.00000000000E+00 -0.45593999997E+02  0.45594000000E+02  0.51100000000E-03 0.  1.
         23    2    1    2    0    0 -0.17763568394E-14  0.00000000000E+00  0.35527136788E-14  0.91188000000E+02  0.91188000000E+02 0.  0.
    9900012    2    3    3    0    0  0.93521881226E+01  0.30402795702E+02 -0.29526773643E+02  0.47787265318E+02  0.19999973892E+02 0.  0.
         12    1    3    3    0    0 -0.93521881226E+01 -0.30402795702E+02  0.29526773643E+02  0.43400734682E+02  0.00000000000E+00 0. -1.
         11    1    4    4    0    0 -0.10573956301E+01  0.58907373289E+01 -0.45083255563E+01  0.74929214182E+01  0.51100000000E-03 0. -1.
        -11    1    4    4    0    0  0.17121786055E+01  0.13633975603E+01 -0.12287664576E+02  0.12481070046E+02  0.51100000000E-03 0.  1.
         12    1    4    4    0    0  0.86974051471E+01  0.23148660813E+02 -0.12730783510E+02  0.27813273854E+02  0.00000000000E+00 0. -1.
</event>
<event>
 8    1  0.3776180E-010  0.9118800E+02  0.7816164E-02  0.1184000E+00
        -11   -1    0    0    0    0  0.00000000000E+00  0.00000000000E+00  0.45593999997E+02  0.45594000000E+02  0.51100000000E-03 0.  1.
         11   -1    0    0    0    0 -0.00000000000E+00 -0.00000000000E+00 -0.45593999997E+02  0.45594000000E+02  0.51100000000E-03 0. -1.
         23    2    1    2    0    0  0.00000000000E+00  0.00000000000E+00  0.00000000000E+00  0.91188000000E+02  0.91188000000E+02 0.  0.
    9900012    2    3    3    0    0  0.28455753928E+02  0.28225546001E+02 -0.16649685739E+02  0.47787269432E+02  0.19999992649E+02 0.  0.
         12    1    3    3    0    0 -0.28455753928E+02 -0.28225546001E+02  0.16649685739E+02  0.43400730568E+02  0.00000000000E+00 0. -1.
         11    1    4    4    0    0 -0.27392577935E+01  0.13701653505E+01 -0.30854043562E+01  0.43474827946E+01  0.51100000000E-03 0. -1.
        -11    1    4    4    0    0  0.87621761367E+01  0.88727016527E+01 -0.31579151106E+01  0.12863630645E+02  0.51100000000E-03 0.  1.
        -12    1    4    4    0    0  0.22432835584E+02  0.17982678997E+02 -0.10406366272E+02  0.30576155992E+02  0.00000000000E+00 0.  1.
</event>
<event>
 8    1  0.3776180E-010  0.9118800E+02  0.7816164E-02  0.1184000E+00
        -11   -1    0    0    0    0  0.00000000000E+00  0.00000000000E+00  0.45593999997E+02  0.45594000000E+02  0.51100000000E-03 0. -1.
         11   -1    0    0    0    0 -0.00000000000E+00 -0.00000000000E+00 -0.45593999997E+02  0.45594000000E+02  0.51100000000E-03 0.  1.
         23    2    1    2    0    0 -0.35527136788E-14  0.00000000000E+00  0.00000000000E+00  0.91188000000E+02  0.91188000000E+02 0.  0.
    9900012    2    3    3    0    0  0.24593574958E+02  0.22373453057E+02  0.27896381261E+02  0.47787269379E+02  0.19999992409E+02 0.  0.
        -12    1    3    3    0    0 -0.24593574958E+02 -0.22373453057E+02 -0.27896381261E+02  0.43400730621E+02  0.00000000000E+00 0.  1.
         11    1    4    4    0    0  0.11507789763E+01  0.22674758449E+01  0.43175206465E+01  0.50106610097E+01  0.51100000000E-03 0. -1.
        -11    1    4    4    0    0  0.55783565668E+01  0.10927564714E+01 -0.22042401529E+01  0.60967904347E+01  0.51100000000E-03 0.  1.
        -12    1    4    4    0    0  0.17864439415E+02  0.19013220741E+02  0.25783100767E+02  0.36679817935E+02  0.00000000000E+00 0.  1.
</event>
<event>
 8    1  0.3776180E-010  0.9118800E+02  0.7816164E-02  0.1184000E+00
        -11   -1    0    0    0    0  0.00000000000E+00  0.00000000000E+00  0.45593999997E+02  0.45594000000E+02  0.51100000000E-03 0. -1.
         11   -1    0    0    0    0 -0.00000000000E+00 -0.00000000000E+00 -0.45593999997E+02  0.45594000000E+02  0.51100000000E-03 0.  1.
         23    2    1    2    0    0 -0.17763568394E-14  0.00000000000E+00  0.00000000000E+00  0.91188000000E+02  0.91188000000E+02 0.  0.
    9900012    2    3    3    0    0  0.12005719541E+02 -0.26123497489E+02 -0.32512310603E+02  0.47787253883E+02  0.19999921752E+02 0.  0.
         12    1    3    3    0    0 -0.12005719541E+02  0.26123497489E+02  0.32512310603E+02  0.43400746117E+02  0.00000000000E+00 0. -1.
         11    1    4    4    0    0  0.44248659106E+00 -0.12726571484E+01  0.67724090507E+00  0.15080139606E+01  0.51100000000E-03 0. -1.
        -11    1    4    4    0    0 -0.10935173403E-01 -0.16028551462E+02 -0.99712428471E+01  0.18876977134E+02  0.51100000000E-03 0.  1.
         12    1    4    4    0    0  0.11574168123E+02 -0.88222888794E+01 -0.23218308661E+02  0.27402262788E+02  0.00000000000E+00 0. -1.
</event>
<event>
 8    1  0.3776180E-010  0.9118800E+02  0.7816164E-02  0.1184000E+00
        -11   -1    0    0    0    0  0.00000000000E+00  0.00000000000E+00  0.45593999997E+02  0.45594000000E+02  0.51100000000E-03 0. -1.
         11   -1    0    0    0    0 -0.00000000000E+00 -0.00000000000E+00 -0.45593999997E+02  0.45594000000E+02  0.51100000000E-03 0.  1.
         23    2    1    2    0    0  0.17763568394E-14  0.00000000000E+00  0.00000000000E+00  0.91188000000E+02  0.91188000000E+02 0.  0.
    9900012    2    3    3    0    0  0.11262126166E+02  0.10121658270E+02 -0.40673584964E+02  0.47787263074E+02  0.19999963658E+02 0.  0.
         12    1    3    3    0    0 -0.11262126166E+02 -0.10121658270E+02  0.40673584964E+02  0.43400736926E+02  0.00000000000E+00 0. -1.
         11    1    4    4    0    0  0.59932385025E+00  0.69891109904E+00 -0.17094403193E+02  0.17119178911E+02  0.51100000000E-03 0. -1.
        -11    1    4    4    0    0  0.17457166559E+01  0.47121669636E+00 -0.15643487059E+02  0.15747642980E+02  0.51100000000E-03 0.  1.
         12    1    4    4    0    0  0.89170856600E+01  0.89515304742E+01 -0.79356947123E+01  0.14920441182E+02  0.00000000000E+00 0. -1.
</event>
<event>
 8    1  0.3776180E-010  0.9118800E+02  0.7816164E-02  0.1184000E+00
        -11   -1    0    0    0    0  0.00000000000E+00  0.00000000000E+00  0.45593999997E+02  0.45594000000E+02  0.51100000000E-03 0. -1.
         11   -1    0    0    0    0 -0.00000000000E+00 -0.00000000000E+00 -0.45593999997E+02  0.45594000000E+02  0.51100000000E-03 0.  1.
         23    2    1    2    0    0 -0.35527136788E-14  0.00000000000E+00  0.17763568394E-14  0.91188000000E+02  0.91188000000E+02 0.  0.
    9900012    2    3    3    0    0  0.29618771019E+02 -0.29748402472E+02  0.11017445266E+02  0.47787272511E+02  0.20000006688E+02 0.  0.
        -12    1    3    3    0    0 -0.29618771019E+02  0.29748402472E+02 -0.11017445266E+02  0.43400727489E+02  0.00000000000E+00 0.  1.
         11    1    4    4    0    0  0.60612800756E+00 -0.15078566195E+01 -0.31634144746E+01  0.35564327838E+01  0.51100000000E-03 0. -1.
        -11    1    4    4    0    0  0.19314297088E+00  0.89425277612E+00  0.27553909701E+00  0.95546548337E+00  0.51100000000E-03 0.  1.
         12    1    4    4    0    0  0.28819500041E+02 -0.29134798629E+02  0.13905320644E+02  0.43275374244E+02  0.00000000000E+00 0. -1.
</event>
<event>
 8    1  0.3776180E-010  0.9118800E+02  0.7816164E-02  0.1184000E+00
        -11   -1    0    0    0    0  0.00000000000E+00  0.00000000000E+00  0.45593999997E+02  0.45594000000E+02  0.51100000000E-03 0. -1.
         11   -1    0    0    0    0 -0.00000000000E+00 -0.00000000000E+00 -0.45593999997E+02  0.45594000000E+02  0.51100000000E-03 0.  1.
         23    2    1    2    0    0  0.00000000000E+00  0.00000000000E+00  0.00000000000E+00  0.91188000000E+02  0.91188000000E+02 0.  0.
    9900012    2    3    3    0    0 -0.33620474077E+02 -0.19151100168E+02 -0.19660155418E+02  0.47787278510E+02  0.20000034038E+02 0.  0.
         12    1    3    3    0    0  0.33620474077E+02  0.19151100168E+02  0.19660155418E+02  0.43400721490E+02  0.00000000000E+00 0. -1.
         11    1    4    4    0    0 -0.98783798000E+01  0.54208773983E+00 -0.10889537498E+02  0.14712520986E+02  0.51100000000E-03 0. -1.
        -11    1    4    4    0    0 -0.98769985433E+01 -0.40324245335E+01 -0.82631601957E+00  0.10700390005E+02  0.51100000000E-03 0.  1.
        -12    1    4    4    0    0 -0.13865095733E+02 -0.15660763374E+02 -0.79443019012E+01  0.22374367519E+02  0.00000000000E+00 0.  1.
</event>
<event>
 8    1  0.3776180E-010  0.9118800E+02  0.7816164E-02  0.1184000E+00
        -11   -1    0    0    0    0  0.00000000000E+00  0.00000000000E+00  0.45593999997E+02  0.45594000000E+02  0.51100000000E-03 0. -1.
         11   -1    0    0    0    0 -0.00000000000E+00 -0.00000000000E+00 -0.45593999997E+02  0.45594000000E+02  0.51100000000E-03 0.  1.
         23    2    1    2    0    0  0.00000000000E+00  0.17763568394E-14  0.71054273576E-14  0.91188000000E+02  0.91188000000E+02 0.  0.
    9900012    2    3    3    0    0 -0.19998177937E+02 -0.81548533769E+01  0.37645644479E+02  0.47787270713E+02  0.19999998488E+02 0.  0.
        -12    1    3    3    0    0  0.19998177937E+02  0.81548533769E+01 -0.37645644479E+02  0.43400729287E+02  0.00000000000E+00 0.  1.
         11    1    4    4    0    0 -0.11098611132E+02 -0.49163139100E+01  0.15358410179E+02  0.19576263050E+02  0.51100000000E-03 0.  1.
        -11    1    4    4    0    0 -0.10364710563E+02 -0.55600745125E+01  0.22570413327E+02  0.25451232027E+02  0.51100000000E-03 0. -1.
         12    1    4    4    0    0  0.14651437579E+01  0.23215350457E+01 -0.28317902758E+00  0.27597756360E+01  0.00000000000E+00 0. -1.
</event>
<event>
 8    1  0.3776180E-010  0.9118800E+02  0.7816164E-02  0.1184000E+00
        -11   -1    0    0    0    0  0.00000000000E+00  0.00000000000E+00  0.45593999997E+02  0.45594000000E+02  0.51100000000E-03 0. -1.
         11   -1    0    0    0    0 -0.00000000000E+00 -0.00000000000E+00 -0.45593999997E+02  0.45594000000E+02  0.51100000000E-03 0.  1.
         23    2    1    2    0    0  0.00000000000E+00  0.44408920985E-15 -0.71054273576E-14  0.91188000000E+02  0.91188000000E+02 0.  0.
    9900012    2    3    3    0    0 -0.15708000225E+02 -0.36251464698E+01 -0.40295658625E+02  0.47787273485E+02  0.20000011129E+02 0.  0.
         12    1    3    3    0    0  0.15708000225E+02  0.36251464698E+01  0.40295658625E+02  0.43400726515E+02  0.00000000000E+00 0. -1.
         11    1    4    4    0    0  0.15743194460E+01 -0.17718890233E+01 -0.72917595525E+00  0.24798730338E+01  0.51100000000E-03 0. -1.
        -11    1    4    4    0    0 -0.49122322965E+01  0.50618896673E+01 -0.19537241053E+02  0.20771531994E+02  0.51100000000E-03 0.  1.
        -12    1    4    4    0    0 -0.12370087374E+02 -0.69151471138E+01 -0.20029241616E+02  0.24535868458E+02  0.00000000000E+00 0.  1.
</event>
<event>
 8    1  0.3987061E-010  0.9118800E+02  0.7816164E-02  0.1184000E+00
        -11   -1    0    0    0    0  0.00000000000E+00  0.00000000000E+00  0.45593999997E+02  0.45594000000E+02  0.51100000000E-03 0. -1.
         11   -1    0    0    0    0 -0.00000000000E+00 -0.00000000000E+00 -0.45593999997E+02  0.45594000000E+02  0.51100000000E-03 0.  1.
         23    2    1    2    0    0  0.00000000000E+00  0.00000000000E+00  0.00000000000E+00  0.91188000000E+02  0.91188000000E+02 0.  0.
    9900012    2    3    3    0    0 -0.37221870196E+01  0.11118304269E+02  0.41786980543E+02  0.47787272945E+02  0.20000008666E+02 0.  0.
        -12    1    3    3    0    0  0.37221870196E+01 -0.11118304269E+02 -0.41786980543E+02  0.43400727055E+02  0.00000000000E+00 0.  1.
         11    1    4    4    0    0 -0.69542424121E+01  0.10496779663E+02  0.22492242855E+02  0.25776827960E+02  0.51100000000E-03 0. -1.
        -11    1    4    4    0    0  0.13386871984E+01  0.53373112351E+01  0.10426010309E+02  0.11789006144E+02  0.51100000000E-03 0.  1.
        -12    1    4    4    0    0  0.18933681942E+01 -0.47157866289E+01  0.88687273788E+01  0.10221438840E+02  0.00000000000E+00 0.  1.
</event>
<event>
 8    1  0.3776180E-010  0.9118800E+02  0.7816164E-02  0.1184000E+00
        -11   -1    0    0    0    0  0.00000000000E+00  0.00000000000E+00  0.45593999997E+02  0.45594000000E+02  0.51100000000E-03 0. -1.
         11   -1    0    0    0    0 -0.00000000000E+00 -0.00000000000E+00 -0.45593999997E+02  0.45594000000E+02  0.51100000000E-03 0.  1.
         23    2    1    2    0    0  0.00000000000E+00  0.00000000000E+00  0.00000000000E+00  0.91188000000E+02  0.91188000000E+02 0.  0.
    9900012    2    3    3    0    0 -0.14310539133E+02 -0.35825775314E+02 -0.19883293302E+02  0.47787273513E+02  0.20000011253E+02 0.  0.
         12    1    3    3    0    0  0.14310539133E+02  0.35825775314E+02  0.19883293302E+02  0.43400726487E+02  0.00000000000E+00 0. -1.
         11    1    4    4    0    0  0.23733140407E+00 -0.12022765486E+02 -0.33053855757E+00  0.12029649710E+02  0.51100000000E-03 0. -1.
        -11    1    4    4    0    0 -0.82561553317E+01 -0.20333364715E+02 -0.10877893302E+02  0.24493639673E+02  0.51100000000E-03 0.  1.
        -12    1    4    4    0    0 -0.62917152058E+01 -0.34696451122E+01 -0.86748614421E+01  0.11263984130E+02  0.00000000000E+00 0.  1.
</event>
<event>
 8    1  0.3776180E-010  0.9118800E+02  0.7816164E-02  0.1184000E+00
        -11   -1    0    0    0    0  0.00000000000E+00  0.00000000000E+00  0.45593999997E+02  0.45594000000E+02  0.51100000000E-03 0. -1.
         11   -1    0    0    0    0 -0.00000000000E+00 -0.00000000000E+00 -0.45593999997E+02  0.45594000000E+02  0.51100000000E-03 0.  1.
         23    2    1    2    0    0  0.00000000000E+00  0.00000000000E+00  0.00000000000E+00  0.91188000000E+02  0.91188000000E+02 0.  0.
    9900012    2    3    3    0    0  0.13764929597E+01  0.36396246033E+02 -0.23601728538E+02  0.47787273645E+02  0.20000011858E+02 0.  0.
         12    1    3    3    0    0 -0.13764929597E+01 -0.36396246033E+02  0.23601728538E+02  0.43400726355E+02  0.00000000000E+00 0. -1.
         11    1    4    4    0    0  0.13634394122E+01  0.23128883001E+01 -0.94234703762E+01  0.97984801634E+01  0.51100000000E-03 0. -1.
        -11    1    4    4    0    0 -0.11487618049E+01  0.72905883307E+01 -0.71256287681E+01  0.10258992031E+02  0.51100000000E-03 0.  1.
        -12    1    4    4    0    0  0.11618153524E+01  0.26792769402E+02 -0.70526293933E+01  0.27729801451E+02  0.00000000000E+00 0.  1.
</event>
<event>
 8    1  0.3776180E-010  0.9118800E+02  0.7816164E-02  0.1184000E+00
        -11   -1    0    0    0    0  0.00000000000E+00  0.00000000000E+00  0.45593999997E+02  0.45594000000E+02  0.51100000000E-03 0. -1.
         11   -1    0    0    0    0 -0.00000000000E+00 -0.00000000000E+00 -0.45593999997E+02  0.45594000000E+02  0.51100000000E-03 0.  1.
         23    2    1    2    0    0  0.00000000000E+00 -0.88817841970E-15  0.00000000000E+00  0.91188000000E+02  0.91188000000E+02 0.  0.
    9900012    2    3    3    0    0 -0.14470429950E+02 -0.30647639530E+01 -0.40802413831E+02  0.47787273100E+02  0.20000009374E+02 0.  0.
         12    1    3    3    0    0  0.14470429950E+02  0.30647639530E+01  0.40802413831E+02  0.43400726900E+02  0.00000000000E+00 0. -1.
         11    1    4    4    0    0 -0.18664771731E+01 -0.42937754071E+01 -0.44043017383E+01  0.64279171080E+01  0.51100000000E-03 0. -1.
        -11    1    4    4    0    0 -0.28871416832E+01 -0.65511963410E+01 -0.14480943557E+02  0.16153992917E+02  0.51100000000E-03 0.  1.
        -12    1    4    4    0    0 -0.97168110934E+01  0.77802077951E+01 -0.21917168535E+02  0.25205363075E+02  0.00000000000E+00 0.  1.
</event>
<event>
 8    1  0.3776180E-010  0.9118800E+02  0.7816164E-02  0.1184000E+00
        -11   -1    0    0    0    0  0.00000000000E+00  0.00000000000E+00  0.45593999997E+02  0.45594000000E+02  0.51100000000E-03 0. -1.
         11   -1    0    0    0    0 -0.00000000000E+00 -0.00000000000E+00 -0.45593999997E+02  0.45594000000E+02  0.51100000000E-03 0.  1.
         23    2    1    2    0    0  0.00000000000E+00  0.00000000000E+00  0.00000000000E+00  0.91188000000E+02  0.91188000000E+02 0.  0.
    9900012    2    3    3    0    0  0.99999574738E+01  0.26163485630E+02  0.33152618908E+02  0.47787271086E+02  0.20000000190E+02 0.  0.
        -12    1    3    3    0    0 -0.99999574738E+01 -0.26163485630E+02 -0.33152618908E+02  0.43400728914E+02  0.00000000000E+00 0.  1.
         11    1    4    4    0    0 -0.23713683690E-01  0.78244017245E+01  0.15191712148E+02  0.17088298422E+02  0.51100000000E-03 0. -1.
        -11    1    4    4    0    0 -0.28564364116E+01  0.15622298115E+01  0.47588612328E+01  0.57659822625E+01  0.51100000000E-03 0.  1.
        -12    1    4    4    0    0  0.12880107569E+02  0.16776854094E+02  0.13202045527E+02  0.24932990402E+02  0.00000000000E+00 0.  1.
</event>
<event>
 8    1  0.3776180E-010  0.9118800E+02  0.7816164E-02  0.1184000E+00
        -11   -1    0    0    0    0  0.00000000000E+00  0.00000000000E+00  0.45593999997E+02  0.45594000000E+02  0.51100000000E-03 0. -1.
         11   -1    0    0    0    0 -0.00000000000E+00 -0.00000000000E+00 -0.45593999997E+02  0.45594000000E+02  0.51100000000E-03 0.  1.
         23    2    1    2    0    0 -0.22204460493E-15  0.00000000000E+00  0.00000000000E+00  0.91188000000E+02  0.91188000000E+02 0.  0.
    9900012    2    3    3    0    0  0.13558951533E+01  0.18139500359E+02 -0.39404860864E+02  0.47787274376E+02  0.20000015190E+02 0.  0.
         12    1    3    3    0    0 -0.13558951533E+01 -0.18139500359E+02  0.39404860864E+02  0.43400725624E+02  0.00000000000E+00 0. -1.
         11    1    4    4    0    0  0.34339419125E+00 -0.18543893902E+01 -0.58340526384E-01  0.18868183429E+01  0.51100000000E-03 0. -1.
        -11    1    4    4    0    0  0.46359752664E+01  0.91574204983E+01 -0.96761757827E+01  0.14105991454E+02  0.51100000000E-03 0.  1.
        -12    1    4    4    0    0 -0.36234743044E+01  0.10836469251E+02 -0.29670344555E+02  0.31794464579E+02  0.00000000000E+00 0.  1.
</event>
<event>
 8    1  0.3776180E-010  0.9118800E+02  0.7816164E-02  0.1184000E+00
        -11   -1    0    0    0    0  0.00000000000E+00  0.00000000000E+00  0.45593999997E+02  0.45594000000E+02  0.51100000000E-03 0. -1.
         11   -1    0    0    0    0 -0.00000000000E+00 -0.00000000000E+00 -0.45593999997E+02  0.45594000000E+02  0.51100000000E-03 0.  1.
         23    2    1    2    0    0 -0.35527136788E-14  0.71054273576E-14 -0.35527136788E-14  0.91188000000E+02  0.91188000000E+02 0.  0.
    9900012    2    3    3    0    0  0.27727520214E+02 -0.28765558222E+02  0.16951419742E+02  0.47787270187E+02  0.19999996091E+02 0.  0.
        -12    1    3    3    0    0 -0.27727520214E+02  0.28765558222E+02 -0.16951419742E+02  0.43400729813E+02  0.00000000000E+00 0.  1.
         11    1    4    4    0    0  0.16075127701E+02 -0.17830710050E+02  0.57209981158E+01  0.24679419993E+02  0.51100000000E-03 0. -1.
        -11    1    4    4    0    0  0.77554805539E+01 -0.92941206647E+01  0.11292559883E+01  0.12157441215E+02  0.51100000000E-03 0.  1.
         12    1    4    4    0    0  0.38969119593E+01 -0.16407275074E+01  0.10101165638E+02  0.10950408979E+02  0.00000000000E+00 0. -1.
</event>
<event>
 8    1  0.3776180E-010  0.9118800E+02  0.7816164E-02  0.1184000E+00
        -11   -1    0    0    0    0  0.00000000000E+00  0.00000000000E+00  0.45593999997E+02  0.45594000000E+02  0.51100000000E-03 0.  1.
         11   -1    0    0    0    0 -0.00000000000E+00 -0.00000000000E+00 -0.45593999997E+02  0.45594000000E+02  0.51100000000E-03 0. -1.
         23    2    1    2    0    0  0.71054273576E-14  0.17763568394E-14  0.00000000000E+00  0.91188000000E+02  0.91188000000E+02 0.  0.
    9900012    2    3    3    0    0 -0.40955376956E+02 -0.11360753851E+02  0.87871293108E+01  0.47787271076E+02  0.20000000143E+02 0.  0.
        -12    1    3    3    0    0  0.40955376956E+02  0.11360753851E+02 -0.87871293108E+01  0.43400728924E+02  0.00000000000E+00 0.  1.
         11    1    4    4    0    0 -0.13622850914E+02 -0.70578416933E+01 -0.24257242655E+01  0.15533168861E+02  0.51100000000E-03 0. -1.
        -11    1    4    4    0    0 -0.10304333963E+02  0.49810005668E+00 -0.15592954834E+01  0.10433542292E+02  0.51100000000E-03 0.  1.
        -12    1    4    4    0    0 -0.17028192079E+02 -0.48010122139E+01  0.12772149060E+02  0.21820559923E+02  0.00000000000E+00 0.  1.
</event>
<event>
 8    1  0.3776180E-010  0.9118800E+02  0.7816164E-02  0.1184000E+00
        -11   -1    0    0    0    0  0.00000000000E+00  0.00000000000E+00  0.45593999997E+02  0.45594000000E+02  0.51100000000E-03 0. -1.
         11   -1    0    0    0    0 -0.00000000000E+00 -0.00000000000E+00 -0.45593999997E+02  0.45594000000E+02  0.51100000000E-03 0.  1.
         23    2    1    2    0    0 -0.88817841970E-15  0.00000000000E+00  0.00000000000E+00  0.91188000000E+02  0.91188000000E+02 0.  0.
    9900012    2    3    3    0    0 -0.78772789158E+01  0.29593592943E+01 -0.42577153989E+02  0.47787269910E+02  0.19999994827E+02 0.  0.
         12    1    3    3    0    0  0.78772789158E+01 -0.29593592943E+01  0.42577153989E+02  0.43400730090E+02  0.00000000000E+00 0. -1.
         11    1    4    4    0    0  0.40261102959E+01  0.41028478499E+01 -0.16399340835E+02  0.17377609291E+02  0.51100000000E-03 0. -1.
        -11    1    4    4    0    0 -0.47378068598E+01 -0.75392772045E+00 -0.21049835453E+02  0.21589599202E+02  0.51100000000E-03 0.  1.
        -12    1    4    4    0    0 -0.71655823519E+01 -0.38956083517E+00 -0.51279777012E+01  0.88200614165E+01  0.00000000000E+00 0.  1.
</event>
<event>
 8    1  0.3776180E-010  0.9118800E+02  0.7816164E-02  0.1184000E+00
        -11   -1    0    0    0    0  0.00000000000E+00  0.00000000000E+00  0.45593999997E+02  0.45594000000E+02  0.51100000000E-03 0.  1.
         11   -1    0    0    0    0 -0.00000000000E+00 -0.00000000000E+00 -0.45593999997E+02  0.45594000000E+02  0.51100000000E-03 0. -1.
         23    2    1    2    0    0  0.00000000000E+00 -0.35527136788E-14 -0.17763568394E-14  0.91188000000E+02  0.91188000000E+02 0.  0.
    9900012    2    3    3    0    0 -0.39590914718E+02 -0.15354917362E+02 -0.89671225710E+01  0.47787270713E+02  0.19999998489E+02 0.  0.
         12    1    3    3    0    0  0.39590914718E+02  0.15354917362E+02  0.89671225710E+01  0.43400729287E+02  0.00000000000E+00 0. -1.
         11    1    4    4    0    0 -0.69242240008E+01  0.11934053277E-01 -0.30086655030E+01  0.75496416342E+01  0.51100000000E-03 0. -1.
        -11    1    4    4    0    0 -0.29015728137E+02 -0.18375505786E+02 -0.76980183071E+01  0.35197033658E+02  0.51100000000E-03 0.  1.
        -12    1    4    4    0    0 -0.36509625811E+01  0.30086543708E+01  0.17395612391E+01  0.50405954208E+01  0.00000000000E+00 0.  1.
</event>
<event>
 8    1  0.3776180E-010  0.9118800E+02  0.7816164E-02  0.1184000E+00
        -11   -1    0    0    0    0  0.00000000000E+00  0.00000000000E+00  0.45593999997E+02  0.45594000000E+02  0.51100000000E-03 0. -1.
         11   -1    0    0    0    0 -0.00000000000E+00 -0.00000000000E+00 -0.45593999997E+02  0.45594000000E+02  0.51100000000E-03 0.  1.
         23    2    1    2    0    0  0.00000000000E+00  0.35527136788E-14  0.71054273576E-14  0.91188000000E+02  0.91188000000E+02 0.  0.
    9900012    2    3    3    0    0 -0.34533076945E+01  0.22945515553E+02  0.36676993599E+02  0.47787264091E+02  0.19999968294E+02 0.  0.
        -12    1    3    3    0    0  0.34533076945E+01 -0.22945515553E+02 -0.36676993599E+02  0.43400735909E+02  0.00000000000E+00 0.  1.
         11    1    4    4    0    0 -0.13232529798E+00  0.29635803140E+01  0.96386972281E+01  0.10084879909E+02  0.51100000000E-03 0. -1.
        -11    1    4    4    0    0 -0.16633529357E+01  0.22819052505E+02  0.24706311512E+02  0.33673100971E+02  0.51100000000E-03 0.  1.
        -12    1    4    4    0    0 -0.16576294608E+01 -0.28371172657E+01  0.23319848584E+01  0.40292832103E+01  0.00000000000E+00 0.  1.
</event>
<event>
 8    1  0.3776180E-010  0.9118800E+02  0.7816164E-02  0.1184000E+00
        -11   -1    0    0    0    0  0.00000000000E+00  0.00000000000E+00  0.45593999997E+02  0.45594000000E+02  0.51100000000E-03 0. -1.
         11   -1    0    0    0    0 -0.00000000000E+00 -0.00000000000E+00 -0.45593999997E+02  0.45594000000E+02  0.51100000000E-03 0.  1.
         23    2    1    2    0    0  0.35527136788E-14  0.00000000000E+00  0.00000000000E+00  0.91188000000E+02  0.91188000000E+02 0.  0.
    9900012    2    3    3    0    0 -0.26009272235E+02  0.18568100978E+02 -0.29366084617E+02  0.47787267957E+02  0.19999985924E+02 0.  0.
         12    1    3    3    0    0  0.26009272235E+02 -0.18568100978E+02  0.29366084617E+02  0.43400732043E+02  0.00000000000E+00 0. -1.
         11    1    4    4    0    0 -0.13852149158E+02  0.36649164976E+01 -0.29723313800E+01  0.14633810280E+02  0.51100000000E-03 0. -1.
        -11    1    4    4    0    0 -0.76631967930E+01  0.70960577276E+01 -0.10064136956E+02  0.14503981291E+02  0.51100000000E-03 0.  1.
        -12    1    4    4    0    0 -0.44939262842E+01  0.78071267526E+01 -0.16329616281E+02  0.18649476385E+02  0.00000000000E+00 0.  1.
</event>
<event>
 8    1  0.3776180E-010  0.9118800E+02  0.7816164E-02  0.1184000E+00
        -11   -1    0    0    0    0  0.00000000000E+00  0.00000000000E+00  0.45593999997E+02  0.45594000000E+02  0.51100000000E-03 0. -1.
         11   -1    0    0    0    0 -0.00000000000E+00 -0.00000000000E+00 -0.45593999997E+02  0.45594000000E+02  0.51100000000E-03 0.  1.
         23    2    1    2    0    0  0.35527136788E-14  0.44408920985E-15  0.71054273576E-14  0.91188000000E+02  0.91188000000E+02 0.  0.
    9900012    2    3    3    0    0  0.18054882745E+02 -0.25060617586E+01 -0.39387362379E+02  0.47787268997E+02  0.19999990663E+02 0.  0.
         12    1    3    3    0    0 -0.18054882745E+02  0.25060617586E+01  0.39387362379E+02  0.43400731003E+02  0.00000000000E+00 0. -1.
         11    1    4    4    0    0  0.57383372576E+01 -0.53329673637E+01 -0.20537456987E+02  0.21980814251E+02  0.51100000000E-03 0. -1.
        -11    1    4    4    0    0  0.10953917419E+02 -0.21583273394E+01 -0.16957457143E+02  0.20302759338E+02  0.51100000000E-03 0.  1.
         12    1    4    4    0    0  0.13626280693E+01  0.49852329444E+01 -0.18924482484E+01  0.55036954075E+01  0.00000000000E+00 0. -1.
</event>
<event>
 8    1  0.3776180E-010  0.9118800E+02  0.7816164E-02  0.1184000E+00
        -11   -1    0    0    0    0  0.00000000000E+00  0.00000000000E+00  0.45593999997E+02  0.45594000000E+02  0.51100000000E-03 0.  1.
         11   -1    0    0    0    0 -0.00000000000E+00 -0.00000000000E+00 -0.45593999997E+02  0.45594000000E+02  0.51100000000E-03 0. -1.
         23    2    1    2    0    0  0.35527136788E-14 -0.35527136788E-14  0.17763568394E-14  0.91188000000E+02  0.91188000000E+02 0.  0.
    9900012    2    3    3    0    0 -0.30946869091E+02  0.28047812514E+02  0.11799767386E+02  0.47787274157E+02  0.20000014190E+02 0.  0.
        -12    1    3    3    0    0  0.30946869091E+02 -0.28047812514E+02 -0.11799767386E+02  0.43400725843E+02  0.00000000000E+00 0.  1.
         11    1    4    4    0    0 -0.12066279035E+02  0.55796836746E+01  0.93138998542E+01  0.16231965082E+02  0.51100000000E-03 0. -1.
        -11    1    4    4    0    0 -0.11107367485E+02  0.14051937732E+02  0.70142309544E+01  0.19236163927E+02  0.51100000000E-03 0.  1.
         12    1    4    4    0    0 -0.77732225716E+01  0.84161911072E+01 -0.45283634229E+01  0.12319145149E+02  0.00000000000E+00 0. -1.
</event>
<event>
 8    1  0.3776180E-010  0.9118800E+02  0.7816164E-02  0.1184000E+00
        -11   -1    0    0    0    0  0.00000000000E+00  0.00000000000E+00  0.45593999997E+02  0.45594000000E+02  0.51100000000E-03 0. -1.
         11   -1    0    0    0    0 -0.00000000000E+00 -0.00000000000E+00 -0.45593999997E+02  0.45594000000E+02  0.51100000000E-03 0.  1.
         23    2    1    2    0    0 -0.88817841970E-15 -0.35527136788E-14  0.71054273576E-14  0.91188000000E+02  0.91188000000E+02 0.  0.
    9900012    2    3    3    0    0  0.58769000422E+01  0.17772342646E+02 -0.39156476655E+02  0.47787265199E+02  0.19999973349E+02 0.  0.
         12    1    3    3    0    0 -0.58769000422E+01 -0.17772342646E+02  0.39156476655E+02  0.43400734801E+02  0.00000000000E+00 0. -1.
         11    1    4    4    0    0  0.53886665163E+01  0.15817719444E+01 -0.43866116629E+01  0.71261554467E+01  0.51100000000E-03 0. -1.
        -11    1    4    4    0    0  0.30928534052E+01  0.53485056145E+01 -0.25264333348E+02  0.26008821470E+02  0.51100000000E-03 0.  1.
         12    1    4    4    0    0 -0.26046198793E+01  0.10842065087E+02 -0.95055316439E+01  0.14652288282E+02  0.00000000000E+00 0. -1.
</event>
<event>
 8    1  0.3776180E-010  0.9118800E+02  0.7816164E-02  0.1184000E+00
        -11   -1    0    0    0    0  0.00000000000E+00  0.00000000000E+00  0.45593999997E+02  0.45594000000E+02  0.51100000000E-03 0. -1.
         11   -1    0    0    0    0 -0.00000000000E+00 -0.00000000000E+00 -0.45593999997E+02  0.45594000000E+02  0.51100000000E-03 0.  1.
         23    2    1    2    0    0  0.00000000000E+00  0.00000000000E+00 -0.71054273576E-14  0.91188000000E+02  0.91188000000E+02 0.  0.
    9900012    2    3    3    0    0 -0.19459476070E+02 -0.60125615174E+01 -0.38324942622E+02  0.47787270376E+02  0.19999996953E+02 0.  0.
         12    1    3    3    0    0  0.19459476070E+02  0.60125615174E+01  0.38324942622E+02  0.43400729624E+02  0.00000000000E+00 0. -1.
         11    1    4    4    0    0 -0.32849047657E+01  0.62572418295E+00  0.25614148959E+00  0.33537648690E+01  0.51100000000E-03 0. -1.
        -11    1    4    4    0    0 -0.15524081027E+01 -0.31816735460E+01 -0.60293165807E+00  0.35911758960E+01  0.51100000000E-03 0.  1.
        -12    1    4    4    0    0 -0.14622163201E+02 -0.34566121543E+01 -0.37978152454E+02  0.40842329611E+02  0.00000000000E+00 0.  1.
</event>
<event>
 8    1  0.3776180E-010  0.9118800E+02  0.7816164E-02  0.1184000E+00
        -11   -1    0    0    0    0  0.00000000000E+00  0.00000000000E+00  0.45593999997E+02  0.45594000000E+02  0.51100000000E-03 0. -1.
         11   -1    0    0    0    0 -0.00000000000E+00 -0.00000000000E+00 -0.45593999997E+02  0.45594000000E+02  0.51100000000E-03 0.  1.
         23    2    1    2    0    0  0.88817841970E-15  0.00000000000E+00  0.00000000000E+00  0.91188000000E+02  0.91188000000E+02 0.  0.
    9900012    2    3    3    0    0 -0.62043017290E+01 -0.20980564427E+02  0.37482621282E+02  0.47787258741E+02  0.19999943904E+02 0.  0.
        -12    1    3    3    0    0  0.62043017290E+01  0.20980564427E+02 -0.37482621282E+02  0.43400741259E+02  0.00000000000E+00 0.  1.
         11    1    4    4    0    0  0.14277997757E+01 -0.11129714288E+02  0.19579877373E+02  0.22567249512E+02  0.51100000000E-03 0. -1.
        -11    1    4    4    0    0 -0.35656863097E+01 -0.56556462638E+01  0.18180472561E+02  0.19370855333E+02  0.51100000000E-03 0.  1.
        -12    1    4    4    0    0 -0.40664151951E+01 -0.41952038757E+01 -0.27772865215E+00  0.58491538962E+01  0.00000000000E+00 0.  1.
</event>
<event>
 8    1  0.3776180E-010  0.9118800E+02  0.7816164E-02  0.1184000E+00
        -11   -1    0    0    0    0  0.00000000000E+00  0.00000000000E+00  0.45593999997E+02  0.45594000000E+02  0.51100000000E-03 0. -1.
         11   -1    0    0    0    0 -0.00000000000E+00 -0.00000000000E+00 -0.45593999997E+02  0.45594000000E+02  0.51100000000E-03 0.  1.
         23    2    1    2    0    0  0.35527136788E-14  0.00000000000E+00 -0.71054273576E-14  0.91188000000E+02  0.91188000000E+02 0.  0.
    9900012    2    3    3    0    0 -0.22796211906E+02  0.45519623627E+01 -0.36650183008E+02  0.47787267827E+02  0.19999985329E+02 0.  0.
         12    1    3    3    0    0  0.22796211906E+02 -0.45519623627E+01  0.36650183008E+02  0.43400732173E+02  0.00000000000E+00 0. -1.
         11    1    4    4    0    0 -0.21356166044E+02  0.18650231392E+01 -0.23040344238E+02  0.31470964432E+02  0.51100000000E-03 0. -1.
        -11    1    4    4    0    0 -0.46616353058E+01  0.10893782396E+01 -0.10585354127E+02  0.11617543239E+02  0.51100000000E-03 0.  1.
        -12    1    4    4    0    0  0.32215894432E+01  0.15975609839E+01 -0.30244846434E+01  0.46987601551E+01  0.00000000000E+00 0.  1.
</event>
<event>
 8    1  0.3776180E-010  0.9118800E+02  0.7816164E-02  0.1184000E+00
        -11   -1    0    0    0    0  0.00000000000E+00  0.00000000000E+00  0.45593999997E+02  0.45594000000E+02  0.51100000000E-03 0. -1.
         11   -1    0    0    0    0 -0.00000000000E+00 -0.00000000000E+00 -0.45593999997E+02  0.45594000000E+02  0.51100000000E-03 0.  1.
         23    2    1    2    0    0 -0.35527136788E-14  0.00000000000E+00  0.35527136788E-14  0.91188000000E+02  0.91188000000E+02 0.  0.
    9900012    2    3    3    0    0 -0.19761494533E+02 -0.25175928666E+02  0.29313462399E+02  0.47787272723E+02  0.20000007652E+02 0.  0.
        -12    1    3    3    0    0  0.19761494533E+02  0.25175928666E+02 -0.29313462399E+02  0.43400727277E+02  0.00000000000E+00 0.  1.
         11    1    4    4    0    0 -0.91278834864E+01 -0.75397982408E+01  0.70098864875E+01  0.13758827104E+02  0.51100000000E-03 0. -1.
        -11    1    4    4    0    0 -0.11121717143E+02 -0.54344347753E+01  0.16167381353E+02  0.20361971751E+02  0.51100000000E-03 0.  1.
         12    1    4    4    0    0  0.48810609621E+00 -0.12201695650E+02  0.61361945583E+01  0.13666473867E+02  0.00000000000E+00 0. -1.
</event>
<event>
 8    1  0.3776180E-010  0.9118800E+02  0.7816164E-02  0.1184000E+00
        -11   -1    0    0    0    0  0.00000000000E+00  0.00000000000E+00  0.45593999997E+02  0.45594000000E+02  0.51100000000E-03 0. -1.
         11   -1    0    0    0    0 -0.00000000000E+00 -0.00000000000E+00 -0.45593999997E+02  0.45594000000E+02  0.51100000000E-03 0.  1.
         23    2    1    2    0    0  0.00000000000E+00  0.00000000000E+00 -0.71054273576E-14  0.91188000000E+02  0.91188000000E+02 0.  0.
    9900012    2    3    3    0    0  0.40595667262E+01  0.13059688158E+02  0.41189653249E+02  0.47787273375E+02  0.20000010628E+02 0.  0.
        -12    1    3    3    0    0 -0.40595667262E+01 -0.13059688158E+02 -0.41189653249E+02  0.43400726625E+02  0.00000000000E+00 0.  1.
         11    1    4    4    0    0  0.26917225645E+01 -0.85286397589E+00  0.18853798471E+02  0.19064062116E+02  0.51100000000E-03 0. -1.
        -11    1    4    4    0    0 -0.32881058250E+01  0.28959868611E+00  0.67000147222E+01  0.74689828527E+01  0.51100000000E-03 0.  1.
         12    1    4    4    0    0  0.46559499868E+01  0.13622953448E+02  0.15635840056E+02  0.21254228407E+02  0.00000000000E+00 0. -1.
</event>
<event>
 8    1  0.3776180E-010  0.9118800E+02  0.7816164E-02  0.1184000E+00
        -11   -1    0    0    0    0  0.00000000000E+00  0.00000000000E+00  0.45593999997E+02  0.45594000000E+02  0.51100000000E-03 0. -1.
         11   -1    0    0    0    0 -0.00000000000E+00 -0.00000000000E+00 -0.45593999997E+02  0.45594000000E+02  0.51100000000E-03 0.  1.
         23    2    1    2    0    0  0.00000000000E+00 -0.88817841970E-15  0.00000000000E+00  0.91188000000E+02  0.91188000000E+02 0.  0.
    9900012    2    3    3    0    0  0.19118426546E+02  0.52592459465E+01 -0.38606345916E+02  0.47787264448E+02  0.19999969923E+02 0.  0.
         12    1    3    3    0    0 -0.19118426546E+02 -0.52592459465E+01  0.38606345916E+02  0.43400735552E+02  0.00000000000E+00 0. -1.
         11    1    4    4    0    0 -0.36468811350E+00  0.24769248861E+01 -0.23653634290E+01  0.34442849365E+01  0.51100000000E-03 0. -1.
        -11    1    4    4    0    0  0.10579756813E+02  0.56838954803E+01 -0.31773748000E+02  0.33967763899E+02  0.51100000000E-03 0.  1.
         12    1    4    4    0    0  0.89033578459E+01 -0.29015744199E+01 -0.44672344866E+01  0.10375215612E+02  0.00000000000E+00 0. -1.
</event>
<event>
 8    1  0.3776180E-010  0.9118800E+02  0.7816164E-02  0.1184000E+00
        -11   -1    0    0    0    0  0.00000000000E+00  0.00000000000E+00  0.45593999997E+02  0.45594000000E+02  0.51100000000E-03 0. -1.
         11   -1    0    0    0    0 -0.00000000000E+00 -0.00000000000E+00 -0.45593999997E+02  0.45594000000E+02  0.51100000000E-03 0.  1.
         23    2    1    2    0    0  0.88817841970E-15 -0.35527136788E-14  0.00000000000E+00  0.91188000000E+02  0.91188000000E+02 0.  0.
    9900012    2    3    3    0    0  0.63374301778E+01 -0.31492059652E+02 -0.29184078533E+02  0.47787270949E+02  0.19999999563E+02 0.  0.
         12    1    3    3    0    0 -0.63374301778E+01  0.31492059652E+02  0.29184078533E+02  0.43400729051E+02  0.00000000000E+00 0. -1.
         11    1    4    4    0    0 -0.13237767743E+01 -0.12770005443E+02 -0.12882656803E+02  0.18187585616E+02  0.51100000000E-03 0. -1.
        -11    1    4    4    0    0  0.34077627713E+01 -0.19919903599E+02 -0.14248400278E+02  0.24727157484E+02  0.51100000000E-03 0.  1.
        -12    1    4    4    0    0  0.42534441808E+01  0.11978493896E+01 -0.20530214523E+01  0.48725278494E+01  0.00000000000E+00 0.  1.
</event>
<event>
 8    1  0.3776180E-010  0.9118800E+02  0.7816164E-02  0.1184000E+00
        -11   -1    0    0    0    0  0.00000000000E+00  0.00000000000E+00  0.45593999997E+02  0.45594000000E+02  0.51100000000E-03 0. -1.
         11   -1    0    0    0    0 -0.00000000000E+00 -0.00000000000E+00 -0.45593999997E+02  0.45594000000E+02  0.51100000000E-03 0.  1.
         23    2    1    2    0    0  0.00000000000E+00  0.88817841970E-15  0.71054273576E-14  0.91188000000E+02  0.91188000000E+02 0.  0.
    9900012    2    3    3    0    0  0.91229619287E+01  0.68295051813E+01  0.41877832739E+02  0.47787269012E+02  0.19999990734E+02 0.  0.
        -12    1    3    3    0    0 -0.91229619287E+01 -0.68295051813E+01 -0.41877832739E+02  0.43400730988E+02  0.00000000000E+00 0.  1.
         11    1    4    4    0    0  0.28952520021E+01  0.29292567906E+01  0.21963076650E+02  0.22345911610E+02  0.51100000000E-03 0. -1.
        -11    1    4    4    0    0  0.90755792592E+01  0.48487275330E+01  0.19941372903E+02  0.22439577784E+02  0.51100000000E-03 0.  1.
         12    1    4    4    0    0 -0.28478693327E+01 -0.94847914221E+00 -0.26616814565E-01  0.30017796178E+01  0.00000000000E+00 0. -1.
</event>
<event>
 8    1  0.3776180E-010  0.9118800E+02  0.7816164E-02  0.1184000E+00
        -11   -1    0    0    0    0  0.00000000000E+00  0.00000000000E+00  0.45593999997E+02  0.45594000000E+02  0.51100000000E-03 0. -1.
         11   -1    0    0    0    0 -0.00000000000E+00 -0.00000000000E+00 -0.45593999997E+02  0.45594000000E+02  0.51100000000E-03 0.  1.
         23    2    1    2    0    0  0.00000000000E+00  0.35527136788E-14  0.71054273576E-14  0.91188000000E+02  0.91188000000E+02 0.  0.
    9900012    2    3    3    0    0 -0.73864567650E+01  0.24629480951E+02  0.34963591091E+02  0.47787265243E+02  0.19999973547E+02 0.  0.
        -12    1    3    3    0    0  0.73864567650E+01 -0.24629480951E+02 -0.34963591091E+02  0.43400734757E+02  0.00000000000E+00 0.  1.
         11    1    4    4    0    0 -0.27597515080E+01  0.19266629482E+02  0.25330850112E+02  0.31944815035E+02  0.51100000000E-03 0. -1.
        -11    1    4    4    0    0  0.26155745895E+01  0.40448577918E+01  0.19335573298E+01  0.51904478803E+01  0.51100000000E-03 0.  1.
         12    1    4    4    0    0 -0.72422798464E+01  0.13179936779E+01  0.76991836499E+01  0.10652002327E+02  0.00000000000E+00 0. -1.
</event>
<event>
 8    1  0.3776180E-010  0.9118800E+02  0.7816164E-02  0.1184000E+00
        -11   -1    0    0    0    0  0.00000000000E+00  0.00000000000E+00  0.45593999997E+02  0.45594000000E+02  0.51100000000E-03 0. -1.
         11   -1    0    0    0    0 -0.00000000000E+00 -0.00000000000E+00 -0.45593999997E+02  0.45594000000E+02  0.51100000000E-03 0.  1.
         23    2    1    2    0    0  0.00000000000E+00  0.88817841970E-15  0.71054273576E-14  0.91188000000E+02  0.91188000000E+02 0.  0.
    9900012    2    3    3    0    0 -0.40156122438E+01 -0.70587506287E+01 -0.42634163984E+02  0.47787273731E+02  0.20000012247E+02 0.  0.
         12    1    3    3    0    0  0.40156122438E+01  0.70587506287E+01  0.42634163984E+02  0.43400726269E+02  0.00000000000E+00 0. -1.
         11    1    4    4    0    0 -0.19846013030E+01  0.26455213638E+01 -0.65394278349E+01  0.73281336155E+01  0.51100000000E-03 0. -1.
        -11    1    4    4    0    0 -0.45626277933E+01  0.19590439473E+01 -0.18809554634E+02  0.19453914037E+02  0.51100000000E-03 0.  1.
        -12    1    4    4    0    0  0.25316168525E+01 -0.11663315940E+02 -0.17285181515E+02  0.21005226079E+02  0.00000000000E+00 0.  1.
</event>
<event>
 8    1  0.3776180E-010  0.9118800E+02  0.7816164E-02  0.1184000E+00
        -11   -1    0    0    0    0  0.00000000000E+00  0.00000000000E+00  0.45593999997E+02  0.45594000000E+02  0.51100000000E-03 0. -1.
         11   -1    0    0    0    0 -0.00000000000E+00 -0.00000000000E+00 -0.45593999997E+02  0.45594000000E+02  0.51100000000E-03 0.  1.
         23    2    1    2    0    0  0.00000000000E+00 -0.17763568394E-14  0.14210854715E-13  0.91188000000E+02  0.91188000000E+02 0.  0.
    9900012    2    3    3    0    0 -0.23908656450E+01 -0.60223386462E+01  0.42914305507E+02  0.47787280899E+02  0.20000044930E+02 0.  0.
        -12    1    3    3    0    0  0.23908656450E+01  0.60223386462E+01 -0.42914305507E+02  0.43400719101E+02  0.00000000000E+00 0.  1.
         11    1    4    4    0    0 -0.21920178176E+01 -0.11196055762E+02  0.30053600378E+02  0.32146158443E+02  0.51100000000E-03 0. -1.
        -11    1    4    4    0    0  0.69617057013E+00  0.44528551560E+00  0.10017612572E+02  0.10051641386E+02  0.51100000000E-03 0.  1.
        -12    1    4    4    0    0 -0.89501839753E+00  0.47284316006E+01  0.28430925581E+01  0.55894810696E+01  0.00000000000E+00 0.  1.
</event>
<event>
 8    1  0.3776180E-010  0.9118800E+02  0.7816164E-02  0.1184000E+00
        -11   -1    0    0    0    0  0.00000000000E+00  0.00000000000E+00  0.45593999997E+02  0.45594000000E+02  0.51100000000E-03 0.  1.
         11   -1    0    0    0    0 -0.00000000000E+00 -0.00000000000E+00 -0.45593999997E+02  0.45594000000E+02  0.51100000000E-03 0. -1.
         23    2    1    2    0    0  0.35527136788E-14  0.00000000000E+00 -0.49960036108E-15  0.91188000000E+02  0.91188000000E+02 0.  0.
    9900012    2    3    3    0    0  0.31441104434E+02 -0.29916795798E+02  0.25548311980E+00  0.47787274310E+02  0.20000014888E+02 0.  0.
        -12    1    3    3    0    0 -0.31441104434E+02  0.29916795798E+02 -0.25548311980E+00  0.43400725690E+02  0.00000000000E+00 0.  1.
         11    1    4    4    0    0  0.85048077280E+01 -0.16513740032E+02  0.13279672449E+01  0.18622536390E+02  0.51100000000E-03 0. -1.
        -11    1    4    4    0    0  0.43352315719E+01 -0.69410345682E+01 -0.42452175730E+01  0.92192226441E+01  0.51100000000E-03 0.  1.
         12    1    4    4    0    0  0.18601065134E+02 -0.64620211973E+01  0.31727334478E+01  0.19945515275E+02  0.00000000000E+00 0. -1.
</event>
<event>
 8    1  0.3776180E-010  0.9118800E+02  0.7816164E-02  0.1184000E+00
        -11   -1    0    0    0    0  0.00000000000E+00  0.00000000000E+00  0.45593999997E+02  0.45594000000E+02  0.51100000000E-03 0. -1.
         11   -1    0    0    0    0 -0.00000000000E+00 -0.00000000000E+00 -0.45593999997E+02  0.45594000000E+02  0.51100000000E-03 0.  1.
         23    2    1    2    0    0  0.88817841970E-15  0.00000000000E+00 -0.35527136788E-14  0.91188000000E+02  0.91188000000E+02 0.  0.
    9900012    2    3    3    0    0  0.71323473515E+01  0.33081610856E+02  0.27172782175E+02  0.47787269053E+02  0.19999990922E+02 0.  0.
        -12    1    3    3    0    0 -0.71323473515E+01 -0.33081610856E+02 -0.27172782175E+02  0.43400730947E+02  0.00000000000E+00 0.  1.
         11    1    4    4    0    0 -0.25487891202E+01  0.93674780070E+01  0.13525619834E+02  0.16648974814E+02  0.51100000000E-03 0. -1.
        -11    1    4    4    0    0  0.72275147476E+01  0.89685100140E+01  0.11058354164E+02  0.15967414893E+02  0.51100000000E-03 0.  1.
        -12    1    4    4    0    0  0.24536217240E+01  0.14745622835E+02  0.25888081770E+01  0.15170879347E+02  0.00000000000E+00 0.  1.
</event>
<event>
 8    1  0.3776180E-010  0.9118800E+02  0.7816164E-02  0.1184000E+00
        -11   -1    0    0    0    0  0.00000000000E+00  0.00000000000E+00  0.45593999997E+02  0.45594000000E+02  0.51100000000E-03 0. -1.
         11   -1    0    0    0    0 -0.00000000000E+00 -0.00000000000E+00 -0.45593999997E+02  0.45594000000E+02  0.51100000000E-03 0.  1.
         23    2    1    2    0    0 -0.35527136788E-14  0.35527136788E-14  0.35527136788E-14  0.91188000000E+02  0.91188000000E+02 0.  0.
    9900012    2    3    3    0    0  0.28024498965E+02  0.16109888387E+02 -0.28960708476E+02  0.47787266349E+02  0.19999978589E+02 0.  0.
         12    1    3    3    0    0 -0.28024498965E+02 -0.16109888387E+02  0.28960708476E+02  0.43400733651E+02  0.00000000000E+00 0. -1.
         11    1    4    4    0    0  0.20518814107E+02  0.12630628774E+02 -0.20238837310E+02  0.31466888176E+02  0.51100000000E-03 0. -1.
        -11    1    4    4    0    0  0.97802608929E+01  0.50612915357E+01 -0.72303615536E+01  0.13173773324E+02  0.51100000000E-03 0.  1.
         12    1    4    4    0    0 -0.22745760352E+01 -0.15820319229E+01 -0.14915096126E+01  0.31466048480E+01  0.00000000000E+00 0. -1.
</event>
<event>
 8    1  0.3776180E-010  0.9118800E+02  0.7816164E-02  0.1184000E+00
        -11   -1    0    0    0    0  0.00000000000E+00  0.00000000000E+00  0.45593999997E+02  0.45594000000E+02  0.51100000000E-03 0. -1.
         11   -1    0    0    0    0 -0.00000000000E+00 -0.00000000000E+00 -0.45593999997E+02  0.45594000000E+02  0.51100000000E-03 0.  1.
         23    2    1    2    0    0  0.35527136788E-14  0.35527136788E-14  0.00000000000E+00  0.91188000000E+02  0.91188000000E+02 0.  0.
    9900012    2    3    3    0    0 -0.24238841795E+02  0.23542655655E+02  0.27236832512E+02  0.47787272677E+02  0.20000007443E+02 0.  0.
        -12    1    3    3    0    0  0.24238841795E+02 -0.23542655655E+02 -0.27236832512E+02  0.43400727323E+02  0.00000000000E+00 0.  1.
         11    1    4    4    0    0 -0.17791474233E+02  0.16087934830E+02  0.12681762644E+02  0.27132734962E+02  0.51100000000E-03 0. -1.
        -11    1    4    4    0    0 -0.70283736957E+00  0.21972332420E+01 -0.15406198436E+01  0.27740447097E+01  0.51100000000E-03 0.  1.
        -12    1    4    4    0    0 -0.57445301933E+01  0.52574875826E+01  0.16095689712E+02  0.17880493006E+02  0.00000000000E+00 0.  1.
</event>
<event>
 8    1  0.3776180E-010  0.9118800E+02  0.7816164E-02  0.1184000E+00
        -11   -1    0    0    0    0  0.00000000000E+00  0.00000000000E+00  0.45593999997E+02  0.45594000000E+02  0.51100000000E-03 0. -1.
         11   -1    0    0    0    0 -0.00000000000E+00 -0.00000000000E+00 -0.45593999997E+02  0.45594000000E+02  0.51100000000E-03 0.  1.
         23    2    1    2    0    0 -0.17763568394E-14  0.00000000000E+00  0.00000000000E+00  0.91188000000E+02  0.91188000000E+02 0.  0.
    9900012    2    3    3    0    0  0.10542572826E+02  0.20474374697E+02 -0.36786918748E+02  0.47787271297E+02  0.20000001152E+02 0.  0.
         12    1    3    3    0    0 -0.10542572826E+02 -0.20474374697E+02  0.36786918748E+02  0.43400728703E+02  0.00000000000E+00 0. -1.
         11    1    4    4    0    0 -0.23425010054E+01  0.69267401626E-01 -0.56709497367E-01  0.23442109891E+01  0.51100000000E-03 0. -1.
        -11    1    4    4    0    0  0.20012032575E+01  0.38576025220E+00 -0.10506598033E+02  0.10702440279E+02  0.51100000000E-03 0.  1.
         12    1    4    4    0    0  0.10883870574E+02  0.20019347043E+02 -0.26223611217E+02  0.34740620029E+02  0.00000000000E+00 0. -1.
</event>
<event>
 8    1  0.3776180E-010  0.9118800E+02  0.7816164E-02  0.1184000E+00
        -11   -1    0    0    0    0  0.00000000000E+00  0.00000000000E+00  0.45593999997E+02  0.45594000000E+02  0.51100000000E-03 0. -1.
         11   -1    0    0    0    0 -0.00000000000E+00 -0.00000000000E+00 -0.45593999997E+02  0.45594000000E+02  0.51100000000E-03 0.  1.
         23    2    1    2    0    0  0.00000000000E+00  0.35527136788E-14  0.00000000000E+00  0.91188000000E+02  0.91188000000E+02 0.  0.
    9900012    2    3    3    0    0 -0.97739362913E+01 -0.23359522592E+02  0.35248068354E+02  0.47787269027E+02  0.19999990800E+02 0.  0.
        -12    1    3    3    0    0  0.97739362913E+01  0.23359522592E+02 -0.35248068354E+02  0.43400730973E+02  0.00000000000E+00 0.  1.
         11    1    4    4    0    0 -0.41720627613E+00  0.17893321985E+00  0.18805291623E+01  0.19345460360E+01  0.51100000000E-03 0. -1.
        -11    1    4    4    0    0 -0.24887139929E+00 -0.21625363908E+02  0.26918487845E+02  0.34530034597E+02  0.51100000000E-03 0.  1.
         12    1    4    4    0    0 -0.91078586158E+01 -0.19130919039E+01  0.64490513464E+01  0.11322688394E+02  0.00000000000E+00 0. -1.
</event>
<event>
 8    1  0.3776180E-010  0.9118800E+02  0.7816164E-02  0.1184000E+00
        -11   -1    0    0    0    0  0.00000000000E+00  0.00000000000E+00  0.45593999997E+02  0.45594000000E+02  0.51100000000E-03 0. -1.
         11   -1    0    0    0    0 -0.00000000000E+00 -0.00000000000E+00 -0.45593999997E+02  0.45594000000E+02  0.51100000000E-03 0.  1.
         23    2    1    2    0    0  0.00000000000E+00 -0.35527136788E-14 -0.35527136788E-14  0.91188000000E+02  0.91188000000E+02 0.  0.
    9900012    2    3    3    0    0  0.20124702770E+02  0.26991519338E+02  0.27387554935E+02  0.47787263335E+02  0.19999964850E+02 0.  0.
        -12    1    3    3    0    0 -0.20124702770E+02 -0.26991519338E+02 -0.27387554935E+02  0.43400736665E+02  0.00000000000E+00 0.  1.
         11    1    4    4    0    0 -0.12104007770E+00  0.81152479354E+01  0.10812964567E+02  0.13520062971E+02  0.51100000000E-03 0. -1.
        -11    1    4    4    0    0 -0.15841377774E+00  0.49546534533E+01  0.97347660637E+00  0.50518652725E+01  0.51100000000E-03 0.  1.
        -12    1    4    4    0    0  0.20404156625E+02  0.13921617950E+02  0.15601113761E+02  0.29215335092E+02  0.00000000000E+00 0.  1.
</event>
<event>
 8    1  0.3776180E-010  0.9118800E+02  0.7816164E-02  0.1184000E+00
        -11   -1    0    0    0    0  0.00000000000E+00  0.00000000000E+00  0.45593999997E+02  0.45594000000E+02  0.51100000000E-03 0. -1.
         11   -1    0    0    0    0 -0.00000000000E+00 -0.00000000000E+00 -0.45593999997E+02  0.45594000000E+02  0.51100000000E-03 0.  1.
         23    2    1    2    0    0  0.00000000000E+00 -0.44408920985E-15  0.00000000000E+00  0.91188000000E+02  0.91188000000E+02 0.  0.
    9900012    2    3    3    0    0 -0.18047109006E+02 -0.30880918200E+01  0.39349572875E+02  0.47787270282E+02  0.19999996524E+02 0.  0.
        -12    1    3    3    0    0  0.18047109006E+02  0.30880918200E+01 -0.39349572875E+02  0.43400729718E+02  0.00000000000E+00 0.  1.
         11    1    4    4    0    0  0.62123880277E-01  0.61294036035E+01  0.12777548029E+02  0.14171774123E+02  0.51100000000E-03 0. -1.
        -11    1    4    4    0    0 -0.39387794993E+01 -0.21233665508E+01  0.37904980431E+01  0.58643452430E+01  0.51100000000E-03 0.  1.
         12    1    4    4    0    0 -0.14170453387E+02 -0.70941288727E+01  0.22781526803E+02  0.27751150916E+02  0.00000000000E+00 0. -1.
</event>
<event>
 8    1  0.3776180E-010  0.9118800E+02  0.7816164E-02  0.1184000E+00
        -11   -1    0    0    0    0  0.00000000000E+00  0.00000000000E+00  0.45593999997E+02  0.45594000000E+02  0.51100000000E-03 0. -1.
         11   -1    0    0    0    0 -0.00000000000E+00 -0.00000000000E+00 -0.45593999997E+02  0.45594000000E+02  0.51100000000E-03 0.  1.
         23    2    1    2    0    0  0.33306690739E-15  0.00000000000E+00  0.00000000000E+00  0.91188000000E+02  0.91188000000E+02 0.  0.
    9900012    2    3    3    0    0  0.62961747807E+00 -0.23387798527E+02  0.36554582008E+02  0.47787274155E+02  0.20000014181E+02 0.  0.
        -12    1    3    3    0    0 -0.62961747807E+00  0.23387798527E+02 -0.36554582008E+02  0.43400725845E+02  0.00000000000E+00 0.  1.
         11    1    4    4    0    0 -0.28789456551E+01 -0.23883412547E+01  0.13459238174E+02  0.13969380606E+02  0.51100000000E-03 0. -1.
        -11    1    4    4    0    0 -0.17939501900E+01  0.45808309017E+00  0.19078910343E-02  0.18515132467E+01  0.51100000000E-03 0.  1.
         12    1    4    4    0    0  0.53025133231E+01 -0.21457540362E+02  0.23093435943E+02  0.31966380302E+02  0.00000000000E+00 0. -1.
</event>
<event>
 8    1  0.3776180E-010  0.9118800E+02  0.7816164E-02  0.1184000E+00
        -11   -1    0    0    0    0  0.00000000000E+00  0.00000000000E+00  0.45593999997E+02  0.45594000000E+02  0.51100000000E-03 0. -1.
         11   -1    0    0    0    0 -0.00000000000E+00 -0.00000000000E+00 -0.45593999997E+02  0.45594000000E+02  0.51100000000E-03 0.  1.
         23    2    1    2    0    0  0.71054273576E-14  0.22204460493E-15 -0.35527136788E-14  0.91188000000E+02  0.91188000000E+02 0.  0.
    9900012    2    3    3    0    0 -0.39022825373E+02  0.11120960879E+01 -0.18963272766E+02  0.47787269916E+02  0.19999994857E+02 0.  0.
         12    1    3    3    0    0  0.39022825373E+02 -0.11120960879E+01  0.18963272766E+02  0.43400730084E+02  0.00000000000E+00 0. -1.
         11    1    4    4    0    0 -0.12290254436E+02  0.14995145379E+00  0.66911668292E+00  0.12309368666E+02  0.51100000000E-03 0. -1.
        -11    1    4    4    0    0 -0.13969468294E+02  0.35714080840E+01 -0.36777157688E+01  0.14880409728E+02  0.51100000000E-03 0.  1.
        -12    1    4    4    0    0 -0.12763102642E+02 -0.26092634500E+01 -0.15954673680E+02  0.20597491523E+02  0.00000000000E+00 0.  1.
</event>
<event>
 8    1  0.3776180E-010  0.9118800E+02  0.7816164E-02  0.1184000E+00
        -11   -1    0    0    0    0  0.00000000000E+00  0.00000000000E+00  0.45593999997E+02  0.45594000000E+02  0.51100000000E-03 0. -1.
         11   -1    0    0    0    0 -0.00000000000E+00 -0.00000000000E+00 -0.45593999997E+02  0.45594000000E+02  0.51100000000E-03 0.  1.
         23    2    1    2    0    0  0.00000000000E+00  0.00000000000E+00  0.00000000000E+00  0.91188000000E+02  0.91188000000E+02 0.  0.
    9900012    2    3    3    0    0  0.34515406110E+02  0.93098506916E+01 -0.24609684385E+02  0.47787272536E+02  0.20000006802E+02 0.  0.
         12    1    3    3    0    0 -0.34515406110E+02 -0.93098506916E+01  0.24609684385E+02  0.43400727464E+02  0.00000000000E+00 0. -1.
         11    1    4    4    0    0 -0.65644122797E+00  0.64896794785E+00  0.17521983041E+01  0.19804730851E+01  0.51100000000E-03 0. -1.
        -11    1    4    4    0    0  0.11364392266E+01 -0.15186838155E+01 -0.18207364037E+01  0.26292538790E+01  0.51100000000E-03 0.  1.
        -12    1    4    4    0    0  0.34035408111E+02  0.10179566559E+02 -0.24541146286E+02  0.43177545572E+02  0.00000000000E+00 0.  1.
</event>
<event>
 8    1  0.3776180E-010  0.9118800E+02  0.7816164E-02  0.1184000E+00
        -11   -1    0    0    0    0  0.00000000000E+00  0.00000000000E+00  0.45593999997E+02  0.45594000000E+02  0.51100000000E-03 0. -1.
         11   -1    0    0    0    0 -0.00000000000E+00 -0.00000000000E+00 -0.45593999997E+02  0.45594000000E+02  0.51100000000E-03 0.  1.
         23    2    1    2    0    0  0.00000000000E+00  0.35527136788E-14 -0.35527136788E-14  0.91188000000E+02  0.91188000000E+02 0.  0.
    9900012    2    3    3    0    0 -0.50044818623E+01 -0.29297144290E+02  0.31626814070E+02  0.47787275692E+02  0.20000021189E+02 0.  0.
        -12    1    3    3    0    0  0.50044818623E+01  0.29297144290E+02 -0.31626814070E+02  0.43400724308E+02  0.00000000000E+00 0.  1.
         11    1    4    4    0    0 -0.28776511540E+01 -0.23440651803E+02  0.13493852296E+02  0.27199799322E+02  0.51100000000E-03 0.  1.
        -11    1    4    4    0    0 -0.33779472991E+01 -0.58021106729E+01  0.83016275274E+01  0.10676705301E+02  0.51100000000E-03 0. -1.
        -12    1    4    4    0    0  0.12511165908E+01 -0.54381813498E-01  0.98313342466E+01  0.99107710686E+01  0.00000000000E+00 0.  1.
</event>
<event>
 8    1  0.3776180E-010  0.9118800E+02  0.7816164E-02  0.1184000E+00
        -11   -1    0    0    0    0  0.00000000000E+00  0.00000000000E+00  0.45593999997E+02  0.45594000000E+02  0.51100000000E-03 0. -1.
         11   -1    0    0    0    0 -0.00000000000E+00 -0.00000000000E+00 -0.45593999997E+02  0.45594000000E+02  0.51100000000E-03 0.  1.
         23    2    1    2    0    0  0.17763568394E-14  0.00000000000E+00  0.00000000000E+00  0.91188000000E+02  0.91188000000E+02 0.  0.
    9900012    2    3    3    0    0 -0.14551517104E+02  0.16632185420E+02  0.37353002814E+02  0.47787273496E+02  0.20000011179E+02 0.  0.
        -12    1    3    3    0    0  0.14551517104E+02 -0.16632185420E+02 -0.37353002814E+02  0.43400726504E+02  0.00000000000E+00 0.  1.
         11    1    4    4    0    0 -0.68770499617E+01  0.12148665845E+02  0.18406508706E+02  0.23101590010E+02  0.51100000000E-03 0. -1.
        -11    1    4    4    0    0 -0.10850145173E+01  0.79489725234E+01  0.12415067055E+02  0.14781654539E+02  0.51100000000E-03 0.  1.
         12    1    4    4    0    0 -0.65894526250E+01 -0.34654529487E+01  0.65314270529E+01  0.99040289471E+01  0.00000000000E+00 0. -1.
</event>
<event>
 8    1  0.3776180E-010  0.9118800E+02  0.7816164E-02  0.1184000E+00
        -11   -1    0    0    0    0  0.00000000000E+00  0.00000000000E+00  0.45593999997E+02  0.45594000000E+02  0.51100000000E-03 0. -1.
         11   -1    0    0    0    0 -0.00000000000E+00 -0.00000000000E+00 -0.45593999997E+02  0.45594000000E+02  0.51100000000E-03 0.  1.
         23    2    1    2    0    0 -0.35527136788E-14  0.00000000000E+00  0.35527136788E-14  0.91188000000E+02  0.91188000000E+02 0.  0.
    9900012    2    3    3    0    0  0.31800880466E+02  0.82759768519E+01 -0.28351987294E+02  0.47787274490E+02  0.20000015710E+02 0.  0.
         12    1    3    3    0    0 -0.31800880466E+02 -0.82759768519E+01  0.28351987294E+02  0.43400725510E+02  0.00000000000E+00 0. -1.
         11    1    4    4    0    0  0.16538528552E+02 -0.88482454696E+00 -0.19967716142E+02  0.25942542846E+02  0.51100000000E-03 0. -1.
        -11    1    4    4    0    0  0.45997087242E+01  0.31138315998E+01 -0.77963297383E+01  0.95726707469E+01  0.51100000000E-03 0.  1.
        -12    1    4    4    0    0  0.10662643190E+02  0.60469697990E+01 -0.58794141386E+00  0.12272060897E+02  0.00000000000E+00 0.  1.
</event>
<event>
 8    1  0.3776180E-010  0.9118800E+02  0.7816164E-02  0.1184000E+00
        -11   -1    0    0    0    0  0.00000000000E+00  0.00000000000E+00  0.45593999997E+02  0.45594000000E+02  0.51100000000E-03 0. -1.
         11   -1    0    0    0    0 -0.00000000000E+00 -0.00000000000E+00 -0.45593999997E+02  0.45594000000E+02  0.51100000000E-03 0.  1.
         23    2    1    2    0    0  0.00000000000E+00  0.00000000000E+00  0.00000000000E+00  0.91188000000E+02  0.91188000000E+02 0.  0.
    9900012    2    3    3    0    0  0.58999446710E+01 -0.33184641576E+02 -0.27342140301E+02  0.47787280883E+02  0.20000044859E+02 0.  0.
         12    1    3    3    0    0 -0.58999446710E+01  0.33184641576E+02  0.27342140301E+02  0.43400719117E+02  0.00000000000E+00 0. -1.
         11    1    4    4    0    0 -0.38355628543E+01 -0.16099072075E+02 -0.92898632179E+01  0.18978757150E+02  0.51100000000E-03 0. -1.
        -11    1    4    4    0    0  0.48961980245E+01 -0.19575991243E+01 -0.75785165726E+00  0.53272214918E+01  0.51100000000E-03 0.  1.
         12    1    4    4    0    0  0.48393095008E+01 -0.15127970376E+02 -0.17294425426E+02  0.23481302242E+02  0.00000000000E+00 0. -1.
</event>
<event>
 8    1  0.3776180E-010  0.9118800E+02  0.7816164E-02  0.1184000E+00
        -11   -1    0    0    0    0  0.00000000000E+00  0.00000000000E+00  0.45593999997E+02  0.45594000000E+02  0.51100000000E-03 0.  1.
         11   -1    0    0    0    0 -0.00000000000E+00 -0.00000000000E+00 -0.45593999997E+02  0.45594000000E+02  0.51100000000E-03 0. -1.
         23    2    1    2    0    0  0.00000000000E+00  0.55511151231E-15  0.35527136788E-14  0.91188000000E+02  0.91188000000E+02 0.  0.
    9900012    2    3    3    0    0  0.38331787924E+02 -0.47587844224E+00 -0.20348736953E+02  0.47787268193E+02  0.19999987000E+02 0.  0.
         12    1    3    3    0    0 -0.38331787924E+02  0.47587844224E+00  0.20348736953E+02  0.43400731807E+02  0.00000000000E+00 0. -1.
         11    1    4    4    0    0  0.76588490901E+01 -0.79240570934E+01 -0.63532461195E+01  0.12720549781E+02  0.51100000000E-03 0. -1.
        -11    1    4    4    0    0  0.69055293246E+01 -0.89136711221E+00 -0.28741302843E+01  0.75326951176E+01  0.51100000000E-03 0.  1.
         12    1    4    4    0    0  0.23767409510E+02  0.83395457634E+01 -0.11121360549E+02  0.27534023295E+02  0.00000000000E+00 0. -1.
</event>
<event>
 8    1  0.3776180E-010  0.9118800E+02  0.7816164E-02  0.1184000E+00
        -11   -1    0    0    0    0  0.00000000000E+00  0.00000000000E+00  0.45593999997E+02  0.45594000000E+02  0.51100000000E-03 0.  1.
         11   -1    0    0    0    0 -0.00000000000E+00 -0.00000000000E+00 -0.45593999997E+02  0.45594000000E+02  0.51100000000E-03 0. -1.
         23    2    1    2    0    0 -0.71054273576E-14  0.00000000000E+00  0.00000000000E+00  0.91188000000E+02  0.91188000000E+02 0.  0.
    9900012    2    3    3    0    0 -0.32021362804E+02  0.20825659665E+02  0.20604636737E+02  0.47787230060E+02  0.19999813134E+02 0.  0.
        -12    1    3    3    0    0  0.32021362804E+02 -0.20825659665E+02 -0.20604636737E+02  0.43400769940E+02  0.00000000000E+00 0.  1.
         11    1    4    4    0    0 -0.19655302783E+02  0.13833587764E+02  0.15766733353E+02  0.28745242368E+02  0.51100000000E-03 0. -1.
        -11    1    4    4    0    0 -0.72387318812E+01  0.97698894973E+01  0.13180393238E+01  0.12230584939E+02  0.51100000000E-03 0.  1.
         12    1    4    4    0    0 -0.51273281404E+01 -0.27778175961E+01  0.35198640598E+01  0.68114027524E+01  0.00000000000E+00 0. -1.
</event>
<event>
 8    1  0.3776180E-010  0.9118800E+02  0.7816164E-02  0.1184000E+00
        -11   -1    0    0    0    0  0.00000000000E+00  0.00000000000E+00  0.45593999997E+02  0.45594000000E+02  0.51100000000E-03 0. -1.
         11   -1    0    0    0    0 -0.00000000000E+00 -0.00000000000E+00 -0.45593999997E+02  0.45594000000E+02  0.51100000000E-03 0.  1.
         23    2    1    2    0    0 -0.22204460493E-15  0.00000000000E+00  0.35527136788E-14  0.91188000000E+02  0.91188000000E+02 0.  0.
    9900012    2    3    3    0    0  0.17047910333E+01 -0.36264650379E+02 -0.23782180866E+02  0.47787270670E+02  0.19999998295E+02 0.  0.
         12    1    3    3    0    0 -0.17047910333E+01  0.36264650379E+02  0.23782180866E+02  0.43400729330E+02  0.00000000000E+00 0. -1.
         11    1    4    4    0    0 -0.58616418187E+00 -0.17139989916E+02 -0.17049459251E+02  0.24182781142E+02  0.51100000000E-03 0. -1.
        -11    1    4    4    0    0  0.29216402522E+01 -0.17408733052E+02 -0.96831083361E+01  0.20133617548E+02  0.51100000000E-03 0.  1.
         12    1    4    4    0    0 -0.63068503703E+00 -0.17159274111E+01  0.29503867215E+01  0.34708719801E+01  0.00000000000E+00 0. -1.
</event>
<event>
 8    1  0.5402433E-010  0.9118800E+02  0.7816164E-02  0.1184000E+00
        -11   -1    0    0    0    0  0.00000000000E+00  0.00000000000E+00  0.45593999997E+02  0.45594000000E+02  0.51100000000E-03 0. -1.
         11   -1    0    0    0    0 -0.00000000000E+00 -0.00000000000E+00 -0.45593999997E+02  0.45594000000E+02  0.51100000000E-03 0.  1.
         23    2    1    2    0    0  0.00000000000E+00 -0.17763568394E-14  0.00000000000E+00  0.91188000000E+02  0.91188000000E+02 0.  0.
    9900012    2    3    3    0    0 -0.35495061142E+01  0.11711432959E+02  0.41639723829E+02  0.47787271248E+02  0.20000000929E+02 0.  0.
        -12    1    3    3    0    0  0.35495061142E+01 -0.11711432959E+02 -0.41639723829E+02  0.43400728752E+02  0.00000000000E+00 0.  1.
         11    1    4    4    0    0 -0.39168789156E+01  0.68189598333E+01  0.16126711110E+02  0.17941877414E+02  0.51100000000E-03 0. -1.
        -11    1    4    4    0    0 -0.48657662761E+01  0.17078107219E+01  0.22376725357E+02  0.22963234461E+02  0.51100000000E-03 0.  1.
        -12    1    4    4    0    0  0.52331390775E+01  0.31846624037E+01  0.31362873623E+01  0.68821593740E+01  0.00000000000E+00 0.  1.
</event>
<event>
 8    1  0.3776180E-010  0.9118800E+02  0.7816164E-02  0.1184000E+00
        -11   -1    0    0    0    0  0.00000000000E+00  0.00000000000E+00  0.45593999997E+02  0.45594000000E+02  0.51100000000E-03 0. -1.
         11   -1    0    0    0    0 -0.00000000000E+00 -0.00000000000E+00 -0.45593999997E+02  0.45594000000E+02  0.51100000000E-03 0.  1.
         23    2    1    2    0    0 -0.71054273576E-14  0.00000000000E+00  0.00000000000E+00  0.91188000000E+02  0.91188000000E+02 0.  0.
    9900012    2    3    3    0    0  0.40255646636E+02 -0.74312720317E+01 -0.14418165657E+02  0.47787258174E+02  0.19999941319E+02 0.  0.
         12    1    3    3    0    0 -0.40255646636E+02  0.74312720317E+01  0.14418165657E+02  0.43400741826E+02  0.00000000000E+00 0. -1.
         11    1    4    4    0    0  0.22515303408E+01 -0.46783498470E+01  0.88684777350E+00  0.52671477482E+01  0.51100000000E-03 0. -1.
        -11    1    4    4    0    0  0.41681312240E-01  0.31273525007E+00  0.10312000488E+01  0.10783851215E+01  0.51100000000E-03 0.  1.
        -12    1    4    4    0    0  0.37962434983E+02 -0.30656574348E+01 -0.16336213479E+02  0.41441725304E+02  0.00000000000E+00 0.  1.
</event>
<event>
 8    1  0.3776180E-010  0.9118800E+02  0.7816164E-02  0.1184000E+00
        -11   -1    0    0    0    0  0.00000000000E+00  0.00000000000E+00  0.45593999997E+02  0.45594000000E+02  0.51100000000E-03 0. -1.
         11   -1    0    0    0    0 -0.00000000000E+00 -0.00000000000E+00 -0.45593999997E+02  0.45594000000E+02  0.51100000000E-03 0.  1.
         23    2    1    2    0    0  0.00000000000E+00 -0.88817841970E-15  0.00000000000E+00  0.91188000000E+02  0.91188000000E+02 0.  0.
    9900012    2    3    3    0    0  0.21843671087E+02 -0.30424807602E+01  0.37379415132E+02  0.47787270382E+02  0.19999996979E+02 0.  0.
        -12    1    3    3    0    0 -0.21843671087E+02  0.30424807602E+01 -0.37379415132E+02  0.43400729618E+02  0.00000000000E+00 0.  1.
         11    1    4    4    0    0  0.12350900934E+02 -0.40855065795E+00  0.24593104634E+02  0.27523307638E+02  0.51100000000E-03 0. -1.
        -11    1    4    4    0    0  0.58877263912E+01 -0.72624946828E+01  0.10246858118E+02  0.13871094139E+02  0.51100000000E-03 0.  1.
        -12    1    4    4    0    0  0.36050437622E+01  0.46285645805E+01  0.25394523803E+01  0.63928686045E+01  0.00000000000E+00 0.  1.
</event>
<event>
 8    1  0.3776180E-010  0.9118800E+02  0.7816164E-02  0.1184000E+00
        -11   -1    0    0    0    0  0.00000000000E+00  0.00000000000E+00  0.45593999997E+02  0.45594000000E+02  0.51100000000E-03 0. -1.
         11   -1    0    0    0    0 -0.00000000000E+00 -0.00000000000E+00 -0.45593999997E+02  0.45594000000E+02  0.51100000000E-03 0.  1.
         23    2    1    2    0    0 -0.88817841970E-15  0.35527136788E-14 -0.35527136788E-14  0.91188000000E+02  0.91188000000E+02 0.  0.
    9900012    2    3    3    0    0 -0.54757882035E+01  0.30356125554E+02 -0.30531038781E+02  0.47787274844E+02  0.20000017321E+02 0.  0.
         12    1    3    3    0    0  0.54757882035E+01 -0.30356125554E+02  0.30531038781E+02  0.43400725156E+02  0.00000000000E+00 0. -1.
         11    1    4    4    0    0 -0.34303076006E+01  0.64788887544E+01 -0.14734107512E+02  0.16457124116E+02  0.51100000000E-03 0. -1.
        -11    1    4    4    0    0 -0.73588420039E+01  0.15055573142E+02 -0.98349409139E+01  0.19430617626E+02  0.51100000000E-03 0.  1.
        -12    1    4    4    0    0  0.53133614010E+01  0.88216636567E+01 -0.59619903551E+01  0.11899533102E+02  0.00000000000E+00 0.  1.
</event>
<event>
 8    1  0.3776180E-010  0.9118800E+02  0.7816164E-02  0.1184000E+00
        -11   -1    0    0    0    0  0.00000000000E+00  0.00000000000E+00  0.45593999997E+02  0.45594000000E+02  0.51100000000E-03 0. -1.
         11   -1    0    0    0    0 -0.00000000000E+00 -0.00000000000E+00 -0.45593999997E+02  0.45594000000E+02  0.51100000000E-03 0.  1.
         23    2    1    2    0    0  0.35527136788E-14  0.17763568394E-14  0.00000000000E+00  0.91188000000E+02  0.91188000000E+02 0.  0.
    9900012    2    3    3    0    0 -0.28072529395E+02 -0.11438022390E+02 -0.31060078422E+02  0.47787265738E+02  0.19999975808E+02 0.  0.
         12    1    3    3    0    0  0.28072529395E+02  0.11438022390E+02  0.31060078422E+02  0.43400734262E+02  0.00000000000E+00 0. -1.
         11    1    4    4    0    0 -0.17192548459E+02 -0.93572451536E+01 -0.14955190845E+02  0.24633300486E+02  0.51100000000E-03 0. -1.
        -11    1    4    4    0    0 -0.13522716965E+02 -0.29408801044E+01 -0.13796580640E+02  0.19541194629E+02  0.51100000000E-03 0.  1.
        -12    1    4    4    0    0  0.26427360286E+01  0.86010286796E+00 -0.23083069370E+01  0.36127706232E+01  0.00000000000E+00 0.  1.
</event>
<event>
 8    1  0.3776180E-010  0.9118800E+02  0.7816164E-02  0.1184000E+00
        -11   -1    0    0    0    0  0.00000000000E+00  0.00000000000E+00  0.45593999997E+02  0.45594000000E+02  0.51100000000E-03 0. -1.
         11   -1    0    0    0    0 -0.00000000000E+00 -0.00000000000E+00 -0.45593999997E+02  0.45594000000E+02  0.51100000000E-03 0.  1.
         23    2    1    2    0    0  0.00000000000E+00  0.00000000000E+00  0.00000000000E+00  0.91188000000E+02  0.91188000000E+02 0.  0.
    9900012    2    3    3    0    0  0.60968056306E+01 -0.18474532897E+02  0.38796184892E+02  0.47787269974E+02  0.19999995118E+02 0.  0.
        -12    1    3    3    0    0 -0.60968056306E+01  0.18474532897E+02 -0.38796184892E+02  0.43400730026E+02  0.00000000000E+00 0.  1.
         11    1    4    4    0    0 -0.62183984035E+00 -0.49993703015E+01  0.36591892741E+01  0.62265604152E+01  0.51100000000E-03 0. -1.
        -11    1    4    4    0    0 -0.20525527128E+01  0.15168488399E+01  0.21947079451E+00  0.25616343871E+01  0.51100000000E-03 0.  1.
         12    1    4    4    0    0  0.87711981838E+01 -0.14992011436E+02  0.34917524823E+02  0.38999075171E+02  0.00000000000E+00 0. -1.
</event>
<event>
 8    1  0.4055133E-010  0.9118800E+02  0.7816164E-02  0.1184000E+00
        -11   -1    0    0    0    0  0.00000000000E+00  0.00000000000E+00  0.45593999997E+02  0.45594000000E+02  0.51100000000E-03 0. -1.
         11   -1    0    0    0    0 -0.00000000000E+00 -0.00000000000E+00 -0.45593999997E+02  0.45594000000E+02  0.51100000000E-03 0.  1.
         23    2    1    2    0    0  0.71054273576E-14  0.00000000000E+00  0.00000000000E+00  0.91188000000E+02  0.91188000000E+02 0.  0.
    9900012    2    3    3    0    0  0.34157128536E+02  0.25249109731E+02  0.89104947794E+01  0.47787263955E+02  0.19999967675E+02 0.  0.
        -12    1    3    3    0    0 -0.34157128536E+02 -0.25249109731E+02 -0.89104947794E+01  0.43400736045E+02  0.00000000000E+00 0.  1.
         11    1    4    4    0    0  0.13260241759E+02  0.15123893339E+02  0.45160023313E+01  0.20614568600E+02  0.51100000000E-03 0. -1.
        -11    1    4    4    0    0  0.15593449870E+02  0.98773971141E+01  0.86344234087E+01  0.20378221720E+02  0.51100000000E-03 0.  1.
        -12    1    4    4    0    0  0.53034369077E+01  0.24781927755E+00 -0.42399309606E+01  0.67944736351E+01  0.00000000000E+00 0.  1.
</event>
<event>
 8    1  0.3776180E-010  0.9118800E+02  0.7816164E-02  0.1184000E+00
        -11   -1    0    0    0    0  0.00000000000E+00  0.00000000000E+00  0.45593999997E+02  0.45594000000E+02  0.51100000000E-03 0. -1.
         11   -1    0    0    0    0 -0.00000000000E+00 -0.00000000000E+00 -0.45593999997E+02  0.45594000000E+02  0.51100000000E-03 0.  1.
         23    2    1    2    0    0  0.00000000000E+00  0.00000000000E+00  0.00000000000E+00  0.91188000000E+02  0.91188000000E+02 0.  0.
    9900012    2    3    3    0    0  0.10870346929E+02  0.96639951665E+01 -0.40890904798E+02  0.47787270281E+02  0.19999996520E+02 0.  0.
         12    1    3    3    0    0 -0.10870346929E+02 -0.96639951665E+01  0.40890904798E+02  0.43400729719E+02  0.00000000000E+00 0. -1.
         11    1    4    4    0    0  0.13996405593E+02  0.12955034476E+02 -0.27225894207E+02  0.33241263565E+02  0.51100000000E-03 0. -1.
        -11    1    4    4    0    0 -0.11954011290E+01 -0.10415327210E+00 -0.43761957046E+01  0.45377219912E+01  0.51100000000E-03 0.  1.
         12    1    4    4    0    0 -0.19306575346E+01 -0.31868860379E+01 -0.92888148864E+01  0.10008284725E+02  0.00000000000E+00 0. -1.
</event>
<event>
 8    1  0.3776180E-010  0.9118800E+02  0.7816164E-02  0.1184000E+00
        -11   -1    0    0    0    0  0.00000000000E+00  0.00000000000E+00  0.45593999997E+02  0.45594000000E+02  0.51100000000E-03 0. -1.
         11   -1    0    0    0    0 -0.00000000000E+00 -0.00000000000E+00 -0.45593999997E+02  0.45594000000E+02  0.51100000000E-03 0.  1.
         23    2    1    2    0    0  0.00000000000E+00 -0.17763568394E-14  0.00000000000E+00  0.91188000000E+02  0.91188000000E+02 0.  0.
    9900012    2    3    3    0    0  0.20680852930E+02  0.11713038850E+02 -0.36314326346E+02  0.47787271262E+02  0.20000000990E+02 0.  0.
         12    1    3    3    0    0 -0.20680852930E+02 -0.11713038850E+02  0.36314326346E+02  0.43400728738E+02  0.00000000000E+00 0. -1.
         11    1    4    4    0    0 -0.10643946865E+01  0.42299266180E+01 -0.84690843199E+01  0.95263111812E+01  0.51100000000E-03 0. -1.
        -11    1    4    4    0    0  0.88774723254E+01  0.72917545965E+01 -0.20348260020E+02  0.23367303783E+02  0.51100000000E-03 0.  1.
        -12    1    4    4    0    0  0.12867775291E+02  0.19135763572E+00 -0.74969820065E+01  0.14893656297E+02  0.00000000000E+00 0.  1.
</event>
<event>
 8    1  0.3776180E-010  0.9118800E+02  0.7816164E-02  0.1184000E+00
        -11   -1    0    0    0    0  0.00000000000E+00  0.00000000000E+00  0.45593999997E+02  0.45594000000E+02  0.51100000000E-03 0. -1.
         11   -1    0    0    0    0 -0.00000000000E+00 -0.00000000000E+00 -0.45593999997E+02  0.45594000000E+02  0.51100000000E-03 0.  1.
         23    2    1    2    0    0  0.71054273576E-14  0.00000000000E+00  0.00000000000E+00  0.91188000000E+02  0.91188000000E+02 0.  0.
    9900012    2    3    3    0    0  0.35997592369E+02  0.17938096660E+02  0.16310086126E+02  0.47787298652E+02  0.20000125871E+02 0.  0.
        -12    1    3    3    0    0 -0.35997592369E+02 -0.17938096660E+02 -0.16310086126E+02  0.43400701348E+02  0.00000000000E+00 0.  1.
         11    1    4    4    0    0  0.82968559865E+01  0.90300049703E+01  0.14615150778E+01  0.12349689697E+02  0.51100000000E-03 0. -1.
        -11    1    4    4    0    0  0.19323518045E+02  0.90660673156E+01  0.39769931835E+01  0.21711941444E+02  0.51100000000E-03 0.  1.
        -12    1    4    4    0    0  0.83772183373E+01 -0.15797562630E+00  0.10871577864E+02  0.13725667511E+02  0.00000000000E+00 0.  1.
</event>
<event>
 8    1  0.4215034E-010  0.9118800E+02  0.7816164E-02  0.1184000E+00
        -11   -1    0    0    0    0  0.00000000000E+00  0.00000000000E+00  0.45593999997E+02  0.45594000000E+02  0.51100000000E-03 0. -1.
         11   -1    0    0    0    0 -0.00000000000E+00 -0.00000000000E+00 -0.45593999997E+02  0.45594000000E+02  0.51100000000E-03 0.  1.
         23    2    1    2    0    0  0.88817841970E-15  0.00000000000E+00  0.71054273576E-14  0.91188000000E+02  0.91188000000E+02 0.  0.
    9900012    2    3    3    0    0 -0.37662939212E+01 -0.10461114258E+02  0.41952395123E+02  0.47787270306E+02  0.19999996631E+02 0.  0.
        -12    1    3    3    0    0  0.37662939212E+01  0.10461114258E+02 -0.41952395123E+02  0.43400729694E+02  0.00000000000E+00 0.  1.
         11    1    4    4    0    0  0.13780410987E+01 -0.63336047564E+01  0.20863349026E+02  0.21847033650E+02  0.51100000000E-03 0. -1.
        -11    1    4    4    0    0  0.30745545209E+01  0.88896080796E+00  0.12927540968E+02  0.13317824618E+02  0.51100000000E-03 0.  1.
        -12    1    4    4    0    0 -0.82188895408E+01 -0.50164703094E+01  0.81615051291E+01  0.12622412037E+02  0.00000000000E+00 0.  1.
</event>
<event>
 8    1  0.3776180E-010  0.9118800E+02  0.7816164E-02  0.1184000E+00
        -11   -1    0    0    0    0  0.00000000000E+00  0.00000000000E+00  0.45593999997E+02  0.45594000000E+02  0.51100000000E-03 0. -1.
         11   -1    0    0    0    0 -0.00000000000E+00 -0.00000000000E+00 -0.45593999997E+02  0.45594000000E+02  0.51100000000E-03 0.  1.
         23    2    1    2    0    0  0.35527136788E-14  0.17763568394E-14  0.00000000000E+00  0.91188000000E+02  0.91188000000E+02 0.  0.
    9900012    2    3    3    0    0  0.26043247297E+02 -0.15379331665E+02  0.31126335856E+02  0.47787270098E+02  0.19999995684E+02 0.  0.
        -12    1    3    3    0    0 -0.26043247297E+02  0.15379331665E+02 -0.31126335856E+02  0.43400729902E+02  0.00000000000E+00 0.  1.
         11    1    4    4    0    0  0.47720651212E+00  0.33771301949E+01  0.67528031418E+00  0.34768862754E+01  0.51100000000E-03 0. -1.
        -11    1    4    4    0    0  0.76749683501E+01 -0.29195533589E+01  0.64288655307E+01  0.10428769978E+02  0.51100000000E-03 0.  1.
         12    1    4    4    0    0  0.17891072434E+02 -0.15836908501E+02  0.24022190011E+02  0.33881613844E+02  0.00000000000E+00 0. -1.
</event>
<event>
 8    1  0.3776180E-010  0.9118800E+02  0.7816164E-02  0.1184000E+00
        -11   -1    0    0    0    0  0.00000000000E+00  0.00000000000E+00  0.45593999997E+02  0.45594000000E+02  0.51100000000E-03 0. -1.
         11   -1    0    0    0    0 -0.00000000000E+00 -0.00000000000E+00 -0.45593999997E+02  0.45594000000E+02  0.51100000000E-03 0.  1.
         23    2    1    2    0    0  0.00000000000E+00  0.00000000000E+00  0.35527136788E-14  0.91188000000E+02  0.91188000000E+02 0.  0.
    9900012    2    3    3    0    0 -0.30596579539E+02  0.12328569308E+02 -0.28204241264E+02  0.47787268141E+02  0.19999986760E+02 0.  0.
         12    1    3    3    0    0  0.30596579539E+02 -0.12328569308E+02  0.28204241264E+02  0.43400731859E+02  0.00000000000E+00 0. -1.
         11    1    4    4    0    0  0.95218346710E+00 -0.32541675394E+00 -0.46008909465E+01  0.47096440610E+01  0.51100000000E-03 0. -1.
        -11    1    4    4    0    0 -0.64965922773E+01  0.26128916318E+01 -0.11576866449E+02  0.13529846671E+02  0.51100000000E-03 0.  1.
         12    1    4    4    0    0 -0.25052170729E+02  0.10041094430E+02 -0.12026483869E+02  0.29547777409E+02  0.00000000000E+00 0. -1.
</event>
<event>
 8    1  0.3776180E-010  0.9118800E+02  0.7816164E-02  0.1184000E+00
        -11   -1    0    0    0    0  0.00000000000E+00  0.00000000000E+00  0.45593999997E+02  0.45594000000E+02  0.51100000000E-03 0. -1.
         11   -1    0    0    0    0 -0.00000000000E+00 -0.00000000000E+00 -0.45593999997E+02  0.45594000000E+02  0.51100000000E-03 0.  1.
         23    2    1    2    0    0  0.00000000000E+00 -0.88817841970E-15  0.00000000000E+00  0.91188000000E+02  0.91188000000E+02 0.  0.
    9900012    2    3    3    0    0  0.47514879260E+01 -0.58102015333E+01  0.42746791092E+02  0.47787271573E+02  0.20000002410E+02 0.  0.
        -12    1    3    3    0    0 -0.47514879260E+01  0.58102015333E+01 -0.42746791092E+02  0.43400728427E+02  0.00000000000E+00 0.  1.
         11    1    4    4    0    0 -0.24151552436E+01 -0.15631633358E+01  0.67607737433E+01  0.73474156228E+01  0.51100000000E-03 0. -1.
        -11    1    4    4    0    0 -0.21869025836E+01 -0.20184738614E+01  0.27362788621E+02  0.27524152685E+02  0.51100000000E-03 0.  1.
        -12    1    4    4    0    0  0.93535457532E+01 -0.22285643361E+01  0.86232287271E+01  0.12915703265E+02  0.00000000000E+00 0.  1.
</event>
<event>
 8    1  0.3776180E-010  0.9118800E+02  0.7816164E-02  0.1184000E+00
        -11   -1    0    0    0    0  0.00000000000E+00  0.00000000000E+00  0.45593999997E+02  0.45594000000E+02  0.51100000000E-03 0.  1.
         11   -1    0    0    0    0 -0.00000000000E+00 -0.00000000000E+00 -0.45593999997E+02  0.45594000000E+02  0.51100000000E-03 0. -1.
         23    2    1    2    0    0  0.71054273576E-14  0.00000000000E+00  0.00000000000E+00  0.91188000000E+02  0.91188000000E+02 0.  0.
    9900012    2    3    3    0    0 -0.35037407158E+02 -0.17802942885E+02 -0.18413539800E+02  0.47787272775E+02  0.20000007890E+02 0.  0.
         12    1    3    3    0    0  0.35037407158E+02  0.17802942885E+02  0.18413539800E+02  0.43400727225E+02  0.00000000000E+00 0. -1.
         11    1    4    4    0    0  0.21100447413E+00  0.22574906309E+01 -0.40828348591E+00  0.23037974092E+01  0.51100000000E-03 0. -1.
        -11    1    4    4    0    0 -0.57424129320E+01 -0.80114357785E+01 -0.51041815271E+01  0.11100048596E+02  0.51100000000E-03 0.  1.
         12    1    4    4    0    0 -0.29505998700E+02 -0.12048997737E+02 -0.12901074787E+02  0.34383426769E+02  0.00000000000E+00 0. -1.
</event>
<event>
 8    1  0.3776180E-010  0.9118800E+02  0.7816164E-02  0.1184000E+00
        -11   -1    0    0    0    0  0.00000000000E+00  0.00000000000E+00  0.45593999997E+02  0.45594000000E+02  0.51100000000E-03 0.  1.
         11   -1    0    0    0    0 -0.00000000000E+00 -0.00000000000E+00 -0.45593999997E+02  0.45594000000E+02  0.51100000000E-03 0. -1.
         23    2    1    2    0    0  0.00000000000E+00 -0.17763568394E-14  0.00000000000E+00  0.91188000000E+02  0.91188000000E+02 0.  0.
    9900012    2    3    3    0    0  0.28130597216E+02  0.10681494271E+02  0.31276162618E+02  0.47787272267E+02  0.20000005574E+02 0.  0.
        -12    1    3    3    0    0 -0.28130597216E+02 -0.10681494271E+02 -0.31276162618E+02  0.43400727733E+02  0.00000000000E+00 0.  1.
         11    1    4    4    0    0  0.14883335900E+02 -0.75899356060E-01  0.13117889975E+02  0.19839316669E+02  0.51100000000E-03 0. -1.
        -11    1    4    4    0    0  0.38605811630E+01  0.21171336683E+01  0.13769428140E+02  0.14456261392E+02  0.51100000000E-03 0.  1.
         12    1    4    4    0    0  0.93866801531E+01  0.86402599591E+01  0.43888445035E+01  0.13491694205E+02  0.00000000000E+00 0. -1.
</event>
<event>
 8    1  0.3776180E-010  0.9118800E+02  0.7816164E-02  0.1184000E+00
        -11   -1    0    0    0    0  0.00000000000E+00  0.00000000000E+00  0.45593999997E+02  0.45594000000E+02  0.51100000000E-03 0. -1.
         11   -1    0    0    0    0 -0.00000000000E+00 -0.00000000000E+00 -0.45593999997E+02  0.45594000000E+02  0.51100000000E-03 0.  1.
         23    2    1    2    0    0 -0.17763568394E-14 -0.55511151231E-16  0.71054273576E-14  0.91188000000E+02  0.91188000000E+02 0.  0.
    9900012    2    3    3    0    0  0.50289574503E+01  0.32300558067E+00 -0.43107166640E+02  0.47787279253E+02  0.20000037426E+02 0.  0.
         12    1    3    3    0    0 -0.50289574503E+01 -0.32300558067E+00  0.43107166640E+02  0.43400720747E+02  0.00000000000E+00 0. -1.
         11    1    4    4    0    0  0.11177683776E+02 -0.42050767581E+00 -0.22400206758E+02  0.25037705653E+02  0.51100000000E-03 0. -1.
        -11    1    4    4    0    0 -0.28626906608E+00 -0.65721292034E+00 -0.12736425731E+02  0.12756583377E+02  0.51100000000E-03 0.  1.
        -12    1    4    4    0    0 -0.58624572596E+01  0.14007261768E+01 -0.79705341512E+01  0.99929902231E+01  0.00000000000E+00 0.  1.
</event>
<event>
 8    1  0.3776180E-010  0.9118800E+02  0.7816164E-02  0.1184000E+00
        -11   -1    0    0    0    0  0.00000000000E+00  0.00000000000E+00  0.45593999997E+02  0.45594000000E+02  0.51100000000E-03 0. -1.
         11   -1    0    0    0    0 -0.00000000000E+00 -0.00000000000E+00 -0.45593999997E+02  0.45594000000E+02  0.51100000000E-03 0.  1.
         23    2    1    2    0    0 -0.35527136788E-14 -0.35527136788E-14  0.35527136788E-14  0.91188000000E+02  0.91188000000E+02 0.  0.
    9900012    2    3    3    0    0  0.28658342141E+02  0.17776725363E+02  0.27318684441E+02  0.47787273525E+02  0.20000011311E+02 0.  0.
        -12    1    3    3    0    0 -0.28658342141E+02 -0.17776725363E+02 -0.27318684441E+02  0.43400726475E+02  0.00000000000E+00 0.  1.
         11    1    4    4    0    0  0.14096892801E+02  0.12279006101E+02  0.11144018839E+02  0.21764317899E+02  0.51100000000E-03 0. -1.
        -11    1    4    4    0    0  0.64197350166E+01  0.58872460246E+01  0.96102419044E+00  0.87633458903E+01  0.51100000000E-03 0.  1.
        -12    1    4    4    0    0  0.81417143239E+01 -0.38952676202E+00  0.15213641412E+02  0.17259609736E+02  0.00000000000E+00 0.  1.
</event>
<event>
 8    1  0.3776180E-010  0.9118800E+02  0.7816164E-02  0.1184000E+00
        -11   -1    0    0    0    0  0.00000000000E+00  0.00000000000E+00  0.45593999997E+02  0.45594000000E+02  0.51100000000E-03 0. -1.
         11   -1    0    0    0    0 -0.00000000000E+00 -0.00000000000E+00 -0.45593999997E+02  0.45594000000E+02  0.51100000000E-03 0.  1.
         23    2    1    2    0    0  0.00000000000E+00  0.00000000000E+00  0.00000000000E+00  0.91188000000E+02  0.91188000000E+02 0.  0.
    9900012    2    3    3    0    0 -0.24604492056E+02 -0.77294695624E+01  0.34906981730E+02  0.47787273018E+02  0.20000008999E+02 0.  0.
        -12    1    3    3    0    0  0.24604492056E+02  0.77294695624E+01 -0.34906981730E+02  0.43400726982E+02  0.00000000000E+00 0.  1.
         11    1    4    4    0    0 -0.19478212208E+02 -0.27127360770E+01  0.21782659834E+02  0.29346958234E+02  0.51100000000E-03 0. -1.
        -11    1    4    4    0    0 -0.72241780167E+01 -0.23003629457E+01  0.37517414493E+01  0.84590768918E+01  0.51100000000E-03 0.  1.
        -12    1    4    4    0    0  0.20978981693E+01 -0.27163705397E+01  0.93725804469E+01  0.99812378927E+01  0.00000000000E+00 0.  1.
</event>
<event>
 8    1  0.3776180E-010  0.9118800E+02  0.7816164E-02  0.1184000E+00
        -11   -1    0    0    0    0  0.00000000000E+00  0.00000000000E+00  0.45593999997E+02  0.45594000000E+02  0.51100000000E-03 0. -1.
         11   -1    0    0    0    0 -0.00000000000E+00 -0.00000000000E+00 -0.45593999997E+02  0.45594000000E+02  0.51100000000E-03 0.  1.
         23    2    1    2    0    0  0.00000000000E+00  0.17763568394E-14  0.00000000000E+00  0.91188000000E+02  0.91188000000E+02 0.  0.
    9900012    2    3    3    0    0  0.17258062905E+02 -0.14447911593E+02 -0.37108498378E+02  0.47787268019E+02  0.19999986204E+02 0.  0.
         12    1    3    3    0    0 -0.17258062905E+02  0.14447911593E+02  0.37108498378E+02  0.43400731981E+02  0.00000000000E+00 0. -1.
         11    1    4    4    0    0  0.30825051278E+01  0.54669754120E+00 -0.84514978603E+00  0.32426832233E+01  0.51100000000E-03 0. -1.
        -11    1    4    4    0    0 -0.61365865845E+00 -0.23325831328E+01 -0.16950864537E+02  0.17121604184E+02  0.51100000000E-03 0.  1.
        -12    1    4    4    0    0  0.14789216436E+02 -0.12662026001E+02 -0.19312484055E+02  0.27422980612E+02  0.00000000000E+00 0.  1.
</event>
<event>
 8    1  0.3776180E-010  0.9118800E+02  0.7816164E-02  0.1184000E+00
        -11   -1    0    0    0    0  0.00000000000E+00  0.00000000000E+00  0.45593999997E+02  0.45594000000E+02  0.51100000000E-03 0. -1.
         11   -1    0    0    0    0 -0.00000000000E+00 -0.00000000000E+00 -0.45593999997E+02  0.45594000000E+02  0.51100000000E-03 0.  1.
         23    2    1    2    0    0 -0.35527136788E-14  0.00000000000E+00  0.00000000000E+00  0.91188000000E+02  0.91188000000E+02 0.  0.
    9900012    2    3    3    0    0  0.23378281257E+02 -0.27325529877E+02  0.24298042944E+02  0.47787268341E+02  0.19999987676E+02 0.  0.
        -12    1    3    3    0    0 -0.23378281257E+02  0.27325529877E+02 -0.24298042944E+02  0.43400731659E+02  0.00000000000E+00 0.  1.
         11    1    4    4    0    0  0.11741866913E+02 -0.12930502064E+02  0.75005237481E+01  0.19008608023E+02  0.51100000000E-03 0. -1.
        -11    1    4    4    0    0  0.89639070642E+01 -0.84768756355E+01  0.18340827289E+02  0.22104185041E+02  0.51100000000E-03 0.  1.
        -12    1    4    4    0    0  0.26725072805E+01 -0.59181521771E+01 -0.15433080935E+01  0.66744752773E+01  0.00000000000E+00 0.  1.
</event>
<event>
 8    1  0.3776180E-010  0.9118800E+02  0.7816164E-02  0.1184000E+00
        -11   -1    0    0    0    0  0.00000000000E+00  0.00000000000E+00  0.45593999997E+02  0.45594000000E+02  0.51100000000E-03 0. -1.
         11   -1    0    0    0    0 -0.00000000000E+00 -0.00000000000E+00 -0.45593999997E+02  0.45594000000E+02  0.51100000000E-03 0.  1.
         23    2    1    2    0    0  0.00000000000E+00  0.00000000000E+00  0.88817841970E-15  0.91188000000E+02  0.91188000000E+02 0.  0.
    9900012    2    3    3    0    0  0.14507126169E+02 -0.40364314368E+02  0.66248760951E+01  0.47787267664E+02  0.19999984586E+02 0.  0.
        -12    1    3    3    0    0 -0.14507126169E+02  0.40364314368E+02 -0.66248760951E+01  0.43400732336E+02  0.00000000000E+00 0.  1.
         11    1    4    4    0    0  0.10409097894E+02 -0.17854223170E+02 -0.22076668024E+01  0.20784523015E+02  0.51100000000E-03 0. -1.
        -11    1    4    4    0    0 -0.18836695841E+01 -0.48140803277E+01 -0.18424227225E+01  0.54879961965E+01  0.51100000000E-03 0.  1.
         12    1    4    4    0    0  0.59816978588E+01 -0.17696010869E+02  0.10674965620E+02  0.21514748452E+02  0.00000000000E+00 0. -1.
</event>
<event>
 8    1  0.3776180E-010  0.9118800E+02  0.7816164E-02  0.1184000E+00
        -11   -1    0    0    0    0  0.00000000000E+00  0.00000000000E+00  0.45593999997E+02  0.45594000000E+02  0.51100000000E-03 0. -1.
         11   -1    0    0    0    0 -0.00000000000E+00 -0.00000000000E+00 -0.45593999997E+02  0.45594000000E+02  0.51100000000E-03 0.  1.
         23    2    1    2    0    0 -0.33306690739E-15  0.00000000000E+00 -0.71054273576E-14  0.91188000000E+02  0.91188000000E+02 0.  0.
    9900012    2    3    3    0    0  0.70502826256E+00 -0.92331098852E+01  0.42401369401E+02  0.47787268323E+02  0.19999987593E+02 0.  0.
        -12    1    3    3    0    0 -0.70502826256E+00  0.92331098852E+01 -0.42401369401E+02  0.43400731677E+02  0.00000000000E+00 0.  1.
         11    1    4    4    0    0 -0.49371021140E+01 -0.15393679266E+01  0.33017986903E+02  0.33420533962E+02  0.51100000000E-03 0. -1.
        -11    1    4    4    0    0 -0.91977496200E+00 -0.30043989601E+00  0.11404990319E+01  0.14956565163E+01  0.51100000000E-03 0.  1.
        -12    1    4    4    0    0  0.65619053385E+01 -0.73933020627E+01  0.82428834655E+01  0.12871077845E+02  0.00000000000E+00 0.  1.
</event>
<event>
 8    1  0.3776180E-010  0.9118800E+02  0.7816164E-02  0.1184000E+00
        -11   -1    0    0    0    0  0.00000000000E+00  0.00000000000E+00  0.45593999997E+02  0.45594000000E+02  0.51100000000E-03 0. -1.
         11   -1    0    0    0    0 -0.00000000000E+00 -0.00000000000E+00 -0.45593999997E+02  0.45594000000E+02  0.51100000000E-03 0.  1.
         23    2    1    2    0    0  0.17763568394E-14  0.00000000000E+00  0.35527136788E-14  0.91188000000E+02  0.91188000000E+02 0.  0.
    9900012    2    3    3    0    0 -0.14307420069E+02 -0.29760915964E+02  0.28163963457E+02  0.47787271600E+02  0.20000002533E+02 0.  0.
        -12    1    3    3    0    0  0.14307420069E+02  0.29760915964E+02 -0.28163963457E+02  0.43400728400E+02  0.00000000000E+00 0.  1.
         11    1    4    4    0    0 -0.80115611567E+01 -0.79743523224E+01  0.15848376980E+01  0.11414338260E+02  0.51100000000E-03 0.  1.
        -11    1    4    4    0    0 -0.63288353976E+01 -0.14803205228E+02  0.11591313596E+02  0.19838034017E+02  0.51100000000E-03 0. -1.
        -12    1    4    4    0    0  0.32976485718E-01 -0.69833584135E+01  0.14987812163E+02  0.16534899323E+02  0.00000000000E+00 0.  1.
</event>
<event>
 8    1  0.3776180E-010  0.9118800E+02  0.7816164E-02  0.1184000E+00
        -11   -1    0    0    0    0  0.00000000000E+00  0.00000000000E+00  0.45593999997E+02  0.45594000000E+02  0.51100000000E-03 0.  1.
         11   -1    0    0    0    0 -0.00000000000E+00 -0.00000000000E+00 -0.45593999997E+02  0.45594000000E+02  0.51100000000E-03 0. -1.
         23    2    1    2    0    0 -0.71054273576E-14  0.00000000000E+00  0.35527136788E-14  0.91188000000E+02  0.91188000000E+02 0.  0.
    9900012    2    3    3    0    0  0.35768181300E+02 -0.10966661583E+02 -0.21999842263E+02  0.47787268216E+02  0.19999987102E+02 0.  0.
         12    1    3    3    0    0 -0.35768181300E+02  0.10966661583E+02  0.21999842263E+02  0.43400731784E+02  0.00000000000E+00 0. -1.
         11    1    4    4    0    0  0.17373803109E+02 -0.11577115916E+01 -0.14934695203E+02  0.22939800602E+02  0.51100000000E-03 0. -1.
        -11    1    4    4    0    0  0.23386502067E+01 -0.54587501526E+01 -0.55763690871E+01  0.81463568836E+01  0.51100000000E-03 0.  1.
        -12    1    4    4    0    0  0.16055727984E+02 -0.43501998387E+01 -0.14887779732E+01  0.16701110730E+02  0.00000000000E+00 0.  1.
</event>
<event>
 8    1  0.3776180E-010  0.9118800E+02  0.7816164E-02  0.1184000E+00
        -11   -1    0    0    0    0  0.00000000000E+00  0.00000000000E+00  0.45593999997E+02  0.45594000000E+02  0.51100000000E-03 0. -1.
         11   -1    0    0    0    0 -0.00000000000E+00 -0.00000000000E+00 -0.45593999997E+02  0.45594000000E+02  0.51100000000E-03 0.  1.
         23    2    1    2    0    0  0.13322676296E-14  0.00000000000E+00  0.35527136788E-14  0.91188000000E+02  0.91188000000E+02 0.  0.
    9900012    2    3    3    0    0 -0.20076285384E+01  0.34242004395E+02 -0.26590953521E+02  0.47787259839E+02  0.19999948912E+02 0.  0.
         12    1    3    3    0    0  0.20076285384E+01 -0.34242004395E+02  0.26590953521E+02  0.43400740161E+02  0.00000000000E+00 0. -1.
         11    1    4    4    0    0  0.33694982222E+01  0.86895051985E+01 -0.16051472669E+01  0.94571410518E+01  0.51100000000E-03 0. -1.
        -11    1    4    4    0    0  0.35648179708E+01  0.56754066412E+01 -0.29068701477E+01  0.73053447574E+01  0.51100000000E-03 0.  1.
         12    1    4    4    0    0 -0.89419447315E+01  0.19877092555E+02 -0.22078936107E+02  0.31024774030E+02  0.00000000000E+00 0. -1.
</event>
<event>
 8    1  0.3776180E-010  0.9118800E+02  0.7816164E-02  0.1184000E+00
        -11   -1    0    0    0    0  0.00000000000E+00  0.00000000000E+00  0.45593999997E+02  0.45594000000E+02  0.51100000000E-03 0. -1.
         11   -1    0    0    0    0 -0.00000000000E+00 -0.00000000000E+00 -0.45593999997E+02  0.45594000000E+02  0.51100000000E-03 0.  1.
         23    2    1    2    0    0 -0.17763568394E-14 -0.35527136788E-14  0.00000000000E+00  0.91188000000E+02  0.91188000000E+02 0.  0.
    9900012    2    3    3    0    0 -0.11412725636E+02  0.25895896625E+02  0.32905551830E+02  0.47787272936E+02  0.20000008626E+02 0.  0.
        -12    1    3    3    0    0  0.11412725636E+02 -0.25895896625E+02 -0.32905551830E+02  0.43400727064E+02  0.00000000000E+00 0.  1.
         11    1    4    4    0    0 -0.41238991656E+01  0.57460908068E+01 -0.47442663506E+00  0.70886659381E+01  0.51100000000E-03 0. -1.
        -11    1    4    4    0    0 -0.42019703061E+01  0.12176440642E+02  0.11730817621E+02  0.17422237040E+02  0.51100000000E-03 0.  1.
        -12    1    4    4    0    0 -0.30868561643E+01  0.79733651762E+01  0.21649160844E+02  0.23276369959E+02  0.00000000000E+00 0.  1.
</event>
<event>
 8    1  0.3776180E-010  0.9118800E+02  0.7816164E-02  0.1184000E+00
        -11   -1    0    0    0    0  0.00000000000E+00  0.00000000000E+00  0.45593999997E+02  0.45594000000E+02  0.51100000000E-03 0. -1.
         11   -1    0    0    0    0 -0.00000000000E+00 -0.00000000000E+00 -0.45593999997E+02  0.45594000000E+02  0.51100000000E-03 0.  1.
         23    2    1    2    0    0  0.44408920985E-15  0.00000000000E+00  0.00000000000E+00  0.91188000000E+02  0.91188000000E+02 0.  0.
    9900012    2    3    3    0    0  0.26572167294E+01  0.38413026322E+02  0.20025037044E+02  0.47787268433E+02  0.19999988092E+02 0.  0.
        -12    1    3    3    0    0 -0.26572167294E+01 -0.38413026322E+02 -0.20025037044E+02  0.43400731567E+02  0.00000000000E+00 0.  1.
         11    1    4    4    0    0  0.88059755035E+01  0.14741263785E+02  0.10868350836E+02  0.20321690695E+02  0.51100000000E-03 0. -1.
        -11    1    4    4    0    0 -0.13148069449E+01  0.14189415468E+02  0.89353201738E+01  0.16819874420E+02  0.51100000000E-03 0.  1.
        -12    1    4    4    0    0 -0.48339518292E+01  0.94823470687E+01  0.22136603495E+00  0.10645703318E+02  0.00000000000E+00 0.  1.
</event>
<event>
 8    1  0.3776180E-010  0.9118800E+02  0.7816164E-02  0.1184000E+00
        -11   -1    0    0    0    0  0.00000000000E+00  0.00000000000E+00  0.45593999997E+02  0.45594000000E+02  0.51100000000E-03 0. -1.
         11   -1    0    0    0    0 -0.00000000000E+00 -0.00000000000E+00 -0.45593999997E+02  0.45594000000E+02  0.51100000000E-03 0.  1.
         23    2    1    2    0    0 -0.88817841970E-15  0.00000000000E+00  0.00000000000E+00  0.91188000000E+02  0.91188000000E+02 0.  0.
    9900012    2    3    3    0    0  0.51163389756E+01  0.17745907466E+02 -0.39275043519E+02  0.47787271899E+02  0.20000003894E+02 0.  0.
         12    1    3    3    0    0 -0.51163389756E+01 -0.17745907466E+02  0.39275043519E+02  0.43400728101E+02  0.00000000000E+00 0. -1.
         11    1    4    4    0    0  0.31107702786E+01 -0.16859773251E+01 -0.23779894960E+01  0.42631262673E+01  0.51100000000E-03 0. -1.
        -11    1    4    4    0    0 -0.47641762284E+01  0.12548863586E+02 -0.22051949484E+02  0.25815883264E+02  0.51100000000E-03 0.  1.
        -12    1    4    4    0    0  0.67697449254E+01  0.68830212056E+01 -0.14845104540E+02  0.17708262367E+02  0.00000000000E+00 0.  1.
</event>
<event>
 8    1  0.3776180E-010  0.9118800E+02  0.7816164E-02  0.1184000E+00
        -11   -1    0    0    0    0  0.00000000000E+00  0.00000000000E+00  0.45593999997E+02  0.45594000000E+02  0.51100000000E-03 0. -1.
         11   -1    0    0    0    0 -0.00000000000E+00 -0.00000000000E+00 -0.45593999997E+02  0.45594000000E+02  0.51100000000E-03 0.  1.
         23    2    1    2    0    0  0.00000000000E+00 -0.17763568394E-14  0.00000000000E+00  0.91188000000E+02  0.91188000000E+02 0.  0.
    9900012    2    3    3    0    0 -0.55291058433E+01 -0.15495368040E+02  0.40161497544E+02  0.47787270431E+02  0.19999997205E+02 0.  0.
        -12    1    3    3    0    0  0.55291058433E+01  0.15495368040E+02 -0.40161497544E+02  0.43400729569E+02  0.00000000000E+00 0.  1.
         11    1    4    4    0    0 -0.35876149692E+01 -0.48478981764E+01  0.15027544511E+02  0.16192596833E+02  0.51100000000E-03 0. -1.
        -11    1    4    4    0    0  0.48866123566E+01 -0.16560599134E+01  0.16764789930E+02  0.17540800906E+02  0.51100000000E-03 0.  1.
         12    1    4    4    0    0 -0.68281032307E+01 -0.89914099500E+01  0.83691631028E+01  0.14053872693E+02  0.00000000000E+00 0. -1.
</event>
<event>
 8    1  0.3776180E-010  0.9118800E+02  0.7816164E-02  0.1184000E+00
        -11   -1    0    0    0    0  0.00000000000E+00  0.00000000000E+00  0.45593999997E+02  0.45594000000E+02  0.51100000000E-03 0. -1.
         11   -1    0    0    0    0 -0.00000000000E+00 -0.00000000000E+00 -0.45593999997E+02  0.45594000000E+02  0.51100000000E-03 0.  1.
         23    2    1    2    0    0  0.00000000000E+00  0.00000000000E+00  0.00000000000E+00  0.91188000000E+02  0.91188000000E+02 0.  0.
    9900012    2    3    3    0    0 -0.21574422665E+02  0.98860471193E+01 -0.36337771032E+02  0.47787271382E+02  0.20000001539E+02 0.  0.
         12    1    3    3    0    0  0.21574422665E+02 -0.98860471193E+01  0.36337771032E+02  0.43400728618E+02  0.00000000000E+00 0. -1.
         11    1    4    4    0    0 -0.29984280817E+01  0.46318129174E+01 -0.94138088057E+00  0.55973618863E+01  0.51100000000E-03 0. -1.
        -11    1    4    4    0    0 -0.64829686187E+01  0.37781619373E+00 -0.27805262325E+01  0.70642022605E+01  0.51100000000E-03 0.  1.
         12    1    4    4    0    0 -0.12093025965E+02  0.48764180082E+01 -0.32615863919E+02  0.35125707235E+02  0.00000000000E+00 0. -1.
</event>
<event>
 8    1  0.3776180E-010  0.9118800E+02  0.7816164E-02  0.1184000E+00
        -11   -1    0    0    0    0  0.00000000000E+00  0.00000000000E+00  0.45593999997E+02  0.45594000000E+02  0.51100000000E-03 0. -1.
         11   -1    0    0    0    0 -0.00000000000E+00 -0.00000000000E+00 -0.45593999997E+02  0.45594000000E+02  0.51100000000E-03 0.  1.
         23    2    1    2    0    0  0.00000000000E+00  0.00000000000E+00  0.00000000000E+00  0.91188000000E+02  0.91188000000E+02 0.  0.
    9900012    2    3    3    0    0 -0.36259508870E+02 -0.10416670958E+01 -0.23828271428E+02  0.47787267597E+02  0.19999984284E+02 0.  0.
         12    1    3    3    0    0  0.36259508870E+02  0.10416670958E+01  0.23828271428E+02  0.43400732403E+02  0.00000000000E+00 0. -1.
         11    1    4    4    0    0 -0.11926162859E+02 -0.16774916759E+01 -0.82198854995E+01  0.14581284468E+02  0.51100000000E-03 0. -1.
        -11    1    4    4    0    0 -0.24732829735E+02  0.40669398290E+01 -0.15989481981E+02  0.29730731584E+02  0.51100000000E-03 0.  1.
         12    1    4    4    0    0  0.39948372429E+00 -0.34311152489E+01  0.38109605183E+00  0.34752515445E+01  0.00000000000E+00 0. -1.
</event>
<event>
 8    1  0.3776180E-010  0.9118800E+02  0.7816164E-02  0.1184000E+00
        -11   -1    0    0    0    0  0.00000000000E+00  0.00000000000E+00  0.45593999997E+02  0.45594000000E+02  0.51100000000E-03 0. -1.
         11   -1    0    0    0    0 -0.00000000000E+00 -0.00000000000E+00 -0.45593999997E+02  0.45594000000E+02  0.51100000000E-03 0.  1.
         23    2    1    2    0    0  0.00000000000E+00 -0.11102230246E-15  0.00000000000E+00  0.91188000000E+02  0.91188000000E+02 0.  0.
    9900012    2    3    3    0    0  0.39723733015E+02 -0.67736538002E+00 -0.17469683803E+02  0.47787266819E+02  0.19999980732E+02 0.  0.
         12    1    3    3    0    0 -0.39723733015E+02  0.67736538002E+00  0.17469683803E+02  0.43400733181E+02  0.00000000000E+00 0. -1.
         11    1    4    4    0    0  0.24216860900E+02  0.39408523515E+01 -0.10611215445E+02  0.26731714547E+02  0.51100000000E-03 0. -1.
        -11    1    4    4    0    0  0.94928860686E+01 -0.37429582019E+00 -0.93059203856E+01  0.13298689325E+02  0.51100000000E-03 0.  1.
         12    1    4    4    0    0  0.60139860462E+01 -0.42439219113E+01  0.24474520276E+01  0.77568629471E+01  0.00000000000E+00 0. -1.
</event>
<event>
 8    1  0.3776180E-010  0.9118800E+02  0.7816164E-02  0.1184000E+00
        -11   -1    0    0    0    0  0.00000000000E+00  0.00000000000E+00  0.45593999997E+02  0.45594000000E+02  0.51100000000E-03 0. -1.
         11   -1    0    0    0    0 -0.00000000000E+00 -0.00000000000E+00 -0.45593999997E+02  0.45594000000E+02  0.51100000000E-03 0.  1.
         23    2    1    2    0    0  0.00000000000E+00  0.00000000000E+00  0.00000000000E+00  0.91188000000E+02  0.91188000000E+02 0.  0.
    9900012    2    3    3    0    0  0.18973962658E+02 -0.24350009151E+02 -0.30507198307E+02  0.47787270131E+02  0.19999995835E+02 0.  0.
         12    1    3    3    0    0 -0.18973962658E+02  0.24350009151E+02  0.30507198307E+02  0.43400729869E+02  0.00000000000E+00 0. -1.
         11    1    4    4    0    0  0.80273240496E+01 -0.11242262897E+02 -0.15215565459E+02  0.20550908470E+02  0.51100000000E-03 0.  1.
        -11    1    4    4    0    0 -0.74141074827E+00 -0.10199426139E+02 -0.49503637769E+01  0.11361517736E+02  0.51100000000E-03 0. -1.
         12    1    4    4    0    0  0.11688049357E+02 -0.29083201145E+01 -0.10341269071E+02  0.15874843925E+02  0.00000000000E+00 0. -1.
</event>
<event>
 8    1  0.3776180E-010  0.9118800E+02  0.7816164E-02  0.1184000E+00
        -11   -1    0    0    0    0  0.00000000000E+00  0.00000000000E+00  0.45593999997E+02  0.45594000000E+02  0.51100000000E-03 0. -1.
         11   -1    0    0    0    0 -0.00000000000E+00 -0.00000000000E+00 -0.45593999997E+02  0.45594000000E+02  0.51100000000E-03 0.  1.
         23    2    1    2    0    0  0.00000000000E+00  0.00000000000E+00  0.00000000000E+00  0.91188000000E+02  0.91188000000E+02 0.  0.
    9900012    2    3    3    0    0  0.24288253216E+02  0.11349840736E+02  0.34130412630E+02  0.47787271949E+02  0.20000004125E+02 0.  0.
        -12    1    3    3    0    0 -0.24288253216E+02 -0.11349840736E+02 -0.34130412630E+02  0.43400728051E+02  0.00000000000E+00 0.  1.
         11    1    4    4    0    0  0.32491674623E+01  0.61496656548E+01  0.37584656489E+01  0.79057916213E+01  0.51100000000E-03 0.  1.
        -11    1    4    4    0    0  0.18861029190E+02  0.92597646739E+01  0.22693156961E+02  0.30926704271E+02  0.51100000000E-03 0. -1.
         12    1    4    4    0    0  0.21780565634E+01 -0.40595895925E+01  0.76787900208E+01  0.89547760573E+01  0.00000000000E+00 0. -1.
</event>
<event>
 8    1  0.3776180E-010  0.9118800E+02  0.7816164E-02  0.1184000E+00
        -11   -1    0    0    0    0  0.00000000000E+00  0.00000000000E+00  0.45593999997E+02  0.45594000000E+02  0.51100000000E-03 0. -1.
         11   -1    0    0    0    0 -0.00000000000E+00 -0.00000000000E+00 -0.45593999997E+02  0.45594000000E+02  0.51100000000E-03 0.  1.
         23    2    1    2    0    0  0.00000000000E+00  0.00000000000E+00  0.00000000000E+00  0.91188000000E+02  0.91188000000E+02 0.  0.
    9900012    2    3    3    0    0  0.18106029757E+02  0.21555267623E+02 -0.33032788610E+02  0.47787274208E+02  0.20000014426E+02 0.  0.
         12    1    3    3    0    0 -0.18106029757E+02 -0.21555267623E+02  0.33032788610E+02  0.43400725792E+02  0.00000000000E+00 0. -1.
         11    1    4    4    0    0  0.21860382011E+01 -0.18384324022E+01 -0.63372515008E+01  0.69512123805E+01  0.51100000000E-03 0. -1.
        -11    1    4    4    0    0  0.13009776826E+02  0.81497424031E+01 -0.14190954738E+02  0.20905879339E+02  0.51100000000E-03 0.  1.
         12    1    4    4    0    0  0.29102147299E+01  0.15243957622E+02 -0.12504582371E+02  0.19930182489E+02  0.00000000000E+00 0. -1.
</event>
<event>
 8    1  0.3776180E-010  0.9118800E+02  0.7816164E-02  0.1184000E+00
        -11   -1    0    0    0    0  0.00000000000E+00  0.00000000000E+00  0.45593999997E+02  0.45594000000E+02  0.51100000000E-03 0. -1.
         11   -1    0    0    0    0 -0.00000000000E+00 -0.00000000000E+00 -0.45593999997E+02  0.45594000000E+02  0.51100000000E-03 0.  1.
         23    2    1    2    0    0  0.00000000000E+00 -0.11102230246E-15  0.71054273576E-14  0.91188000000E+02  0.91188000000E+02 0.  0.
    9900012    2    3    3    0    0  0.90414292682E+01 -0.17827360821E+00 -0.42448133888E+02  0.47787270798E+02  0.19999998876E+02 0.  0.
         12    1    3    3    0    0 -0.90414292682E+01  0.17827360821E+00  0.42448133888E+02  0.43400729202E+02  0.00000000000E+00 0. -1.
         11    1    4    4    0    0 -0.44537913131E+00  0.16995924209E+01  0.28086840676E+00  0.17792875796E+01  0.51100000000E-03 0. -1.
        -11    1    4    4    0    0 -0.14036202433E+01 -0.54172473915E+01 -0.14792807328E+02  0.15815937151E+02  0.51100000000E-03 0.  1.
        -12    1    4    4    0    0  0.10890428643E+02  0.35393813624E+01 -0.27936194967E+02  0.30192046067E+02  0.00000000000E+00 0.  1.
</event>
<event>
 8    1  0.3776180E-010  0.9118800E+02  0.7816164E-02  0.1184000E+00
        -11   -1    0    0    0    0  0.00000000000E+00  0.00000000000E+00  0.45593999997E+02  0.45594000000E+02  0.51100000000E-03 0. -1.
         11   -1    0    0    0    0 -0.00000000000E+00 -0.00000000000E+00 -0.45593999997E+02  0.45594000000E+02  0.51100000000E-03 0.  1.
         23    2    1    2    0    0  0.71054273576E-14  0.00000000000E+00  0.17763568394E-14  0.91188000000E+02  0.91188000000E+02 0.  0.
    9900012    2    3    3    0    0  0.40884426348E+02 -0.81306223922E+01  0.12082214622E+02  0.47787271337E+02  0.20000001336E+02 0.  0.
        -12    1    3    3    0    0 -0.40884426348E+02  0.81306223922E+01 -0.12082214622E+02  0.43400728663E+02  0.00000000000E+00 0.  1.
         11    1    4    4    0    0  0.25583612668E+02 -0.27784605905E+01  0.12520226718E+02  0.28618126384E+02  0.51100000000E-03 0. -1.
        -11    1    4    4    0    0  0.58399838551E+00  0.20306418264E+01 -0.16191737652E+01  0.26620075666E+01  0.51100000000E-03 0.  1.
         12    1    4    4    0    0  0.14716815294E+02 -0.73828036280E+01  0.11811616688E+01  0.16507137386E+02  0.00000000000E+00 0. -1.
</event>
<event>
 8    1  0.3776180E-010  0.9118800E+02  0.7816164E-02  0.1184000E+00
        -11   -1    0    0    0    0  0.00000000000E+00  0.00000000000E+00  0.45593999997E+02  0.45594000000E+02  0.51100000000E-03 0.  1.
         11   -1    0    0    0    0 -0.00000000000E+00 -0.00000000000E+00 -0.45593999997E+02  0.45594000000E+02  0.51100000000E-03 0. -1.
         23    2    1    2    0    0  0.00000000000E+00 -0.35527136788E-14 -0.35527136788E-14  0.91188000000E+02  0.91188000000E+02 0.  0.
    9900012    2    3    3    0    0  0.16691465018E+02  0.28425031346E+02  0.28231829169E+02  0.47787267406E+02  0.19999983411E+02 0.  0.
        -12    1    3    3    0    0 -0.16691465018E+02 -0.28425031346E+02 -0.28231829169E+02  0.43400732594E+02  0.00000000000E+00 0.  1.
         11    1    4    4    0    0  0.37954695256E+01  0.46243893970E+01 -0.19567090572E+01  0.62943845459E+01  0.51100000000E-03 0. -1.
        -11    1    4    4    0    0  0.55955680365E+01  0.14573541376E+02  0.11423010476E+02  0.19343827400E+02  0.51100000000E-03 0.  1.
        -12    1    4    4    0    0  0.73004274556E+01  0.92271005728E+01  0.18765527750E+02  0.22149055460E+02  0.00000000000E+00 0.  1.
</event>
<event>
 8    1  0.3776180E-010  0.9118800E+02  0.7816164E-02  0.1184000E+00
        -11   -1    0    0    0    0  0.00000000000E+00  0.00000000000E+00  0.45593999997E+02  0.45594000000E+02  0.51100000000E-03 0.  1.
         11   -1    0    0    0    0 -0.00000000000E+00 -0.00000000000E+00 -0.45593999997E+02  0.45594000000E+02  0.51100000000E-03 0. -1.
         23    2    1    2    0    0  0.00000000000E+00 -0.35527136788E-14  0.88817841970E-15  0.91188000000E+02  0.91188000000E+02 0.  0.
    9900012    2    3    3    0    0 -0.30809404611E+02  0.29517435783E+02  0.79451213863E+01  0.47787269804E+02  0.19999994344E+02 0.  0.
         12    1    3    3    0    0  0.30809404611E+02 -0.29517435783E+02 -0.79451213863E+01  0.43400730196E+02  0.00000000000E+00 0. -1.
         11    1    4    4    0    0 -0.62401683846E+01  0.35660441009E+01  0.40764014787E+01  0.82627732193E+01  0.51100000000E-03 0. -1.
        -11    1    4    4    0    0  0.15960815467E+01  0.50822473984E+01 -0.17088414000E+01  0.55943591334E+01  0.51100000000E-03 0.  1.
        -12    1    4    4    0    0 -0.26165317774E+02  0.20869144284E+02  0.55775613077E+01  0.33930137451E+02  0.00000000000E+00 0.  1.
</event>
<event>
 8    1  0.3776180E-010  0.9118800E+02  0.7816164E-02  0.1184000E+00
        -11   -1    0    0    0    0  0.00000000000E+00  0.00000000000E+00  0.45593999997E+02  0.45594000000E+02  0.51100000000E-03 0.  1.
         11   -1    0    0    0    0 -0.00000000000E+00 -0.00000000000E+00 -0.45593999997E+02  0.45594000000E+02  0.51100000000E-03 0. -1.
         23    2    1    2    0    0  0.00000000000E+00  0.00000000000E+00 -0.88817841970E-15  0.91188000000E+02  0.91188000000E+02 0.  0.
    9900012    2    3    3    0    0 -0.10385495917E+01  0.42979604882E+02 -0.59412417284E+01  0.47787269887E+02  0.19999994724E+02 0.  0.
        -12    1    3    3    0    0  0.10385495917E+01 -0.42979604882E+02  0.59412417284E+01  0.43400730113E+02  0.00000000000E+00 0.  1.
         11    1    4    4    0    0 -0.98225023134E+00  0.91794814126E+01 -0.17768964445E+01  0.94013326586E+01  0.51100000000E-03 0. -1.
        -11    1    4    4    0    0 -0.39322412795E+01  0.64191512909E+01  0.52452051045E+01  0.91749769277E+01  0.51100000000E-03 0.  1.
        -12    1    4    4    0    0  0.38759419191E+01  0.27380972178E+02 -0.94095503884E+01  0.29210960301E+02  0.00000000000E+00 0.  1.
</event>
<event>
 8    1  0.3776180E-010  0.9118800E+02  0.7816164E-02  0.1184000E+00
        -11   -1    0    0    0    0  0.00000000000E+00  0.00000000000E+00  0.45593999997E+02  0.45594000000E+02  0.51100000000E-03 0.  1.
         11   -1    0    0    0    0 -0.00000000000E+00 -0.00000000000E+00 -0.45593999997E+02  0.45594000000E+02  0.51100000000E-03 0. -1.
         23    2    1    2    0    0  0.00000000000E+00 -0.88817841970E-15  0.00000000000E+00  0.91188000000E+02  0.91188000000E+02 0.  0.
    9900012    2    3    3    0    0 -0.37209261727E+02 -0.74180773206E+01 -0.21072874579E+02  0.47787273366E+02  0.20000010584E+02 0.  0.
         12    1    3    3    0    0  0.37209261727E+02  0.74180773206E+01  0.21072874579E+02  0.43400726634E+02  0.00000000000E+00 0. -1.
         11    1    4    4    0    0 -0.37892897483E+01 -0.32365490789E+01 -0.59739562671E+01  0.77795964214E+01  0.51100000000E-03 0. -1.
        -11    1    4    4    0    0 -0.84841105013E+01 -0.63367075114E+01  0.34962394457E+00  0.10595104070E+02  0.51100000000E-03 0.  1.
        -12    1    4    4    0    0 -0.24935861477E+02  0.21551792698E+01 -0.15448542256E+02  0.29412572875E+02  0.00000000000E+00 0.  1.
</event>
<event>
 8    1  0.3776180E-010  0.9118800E+02  0.7816164E-02  0.1184000E+00
        -11   -1    0    0    0    0  0.00000000000E+00  0.00000000000E+00  0.45593999997E+02  0.45594000000E+02  0.51100000000E-03 0. -1.
         11   -1    0    0    0    0 -0.00000000000E+00 -0.00000000000E+00 -0.45593999997E+02  0.45594000000E+02  0.51100000000E-03 0.  1.
         23    2    1    2    0    0  0.00000000000E+00 -0.33306690739E-15  0.00000000000E+00  0.91188000000E+02  0.91188000000E+02 0.  0.
    9900012    2    3    3    0    0 -0.25964088952E+02  0.54896468503E+00 -0.34773384303E+02  0.47787268056E+02  0.19999986376E+02 0.  0.
         12    1    3    3    0    0  0.25964088952E+02 -0.54896468503E+00  0.34773384303E+02  0.43400731944E+02  0.00000000000E+00 0. -1.
         11    1    4    4    0    0  0.11404578357E+01 -0.19747161931E+01 -0.45109413175E+01  0.50545761394E+01  0.51100000000E-03 0. -1.
        -11    1    4    4    0    0 -0.82078436501E+01  0.68104728340E+01 -0.12665927541E+02  0.16558289716E+02  0.51100000000E-03 0.  1.
         12    1    4    4    0    0 -0.18896703138E+02 -0.42867919559E+01 -0.17596515445E+02  0.26174402201E+02  0.00000000000E+00 0. -1.
</event>
<event>
 8    1  0.3776180E-010  0.9118800E+02  0.7816164E-02  0.1184000E+00
        -11   -1    0    0    0    0  0.00000000000E+00  0.00000000000E+00  0.45593999997E+02  0.45594000000E+02  0.51100000000E-03 0. -1.
         11   -1    0    0    0    0 -0.00000000000E+00 -0.00000000000E+00 -0.45593999997E+02  0.45594000000E+02  0.51100000000E-03 0.  1.
         23    2    1    2    0    0  0.00000000000E+00  0.35527136788E-14  0.00000000000E+00  0.91188000000E+02  0.91188000000E+02 0.  0.
    9900012    2    3    3    0    0 -0.96113373101E+01  0.31525559380E+02 -0.28237998550E+02  0.47787271190E+02  0.20000000665E+02 0.  0.
         12    1    3    3    0    0  0.96113373101E+01 -0.31525559380E+02  0.28237998550E+02  0.43400728810E+02  0.00000000000E+00 0. -1.
         11    1    4    4    0    0 -0.33835050606E+01 -0.13598702361E+00 -0.25841781933E+01  0.42596450746E+01  0.51100000000E-03 0. -1.
        -11    1    4    4    0    0 -0.59186608599E+01  0.64266544969E+01 -0.20529072626E+01  0.89747904090E+01  0.51100000000E-03 0.  1.
        -12    1    4    4    0    0 -0.30917138971E+00  0.25234891906E+02 -0.23600913094E+02  0.34552835707E+02  0.00000000000E+00 0.  1.
</event>
<event>
 8    1  0.3776180E-010  0.9118800E+02  0.7816164E-02  0.1184000E+00
        -11   -1    0    0    0    0  0.00000000000E+00  0.00000000000E+00  0.45593999997E+02  0.45594000000E+02  0.51100000000E-03 0. -1.
         11   -1    0    0    0    0 -0.00000000000E+00 -0.00000000000E+00 -0.45593999997E+02  0.45594000000E+02  0.51100000000E-03 0.  1.
         23    2    1    2    0    0  0.35527136788E-14  0.00000000000E+00 -0.71054273576E-14  0.91188000000E+02  0.91188000000E+02 0.  0.
    9900012    2    3    3    0    0  0.17497688647E+02 -0.11306299455E+02 -0.38073902731E+02  0.47787267466E+02  0.19999983686E+02 0.  0.
         12    1    3    3    0    0 -0.17497688647E+02  0.11306299455E+02  0.38073902731E+02  0.43400732534E+02  0.00000000000E+00 0. -1.
         11    1    4    4    0    0  0.21836153014E+01  0.26602935171E+01 -0.15938286444E+01  0.37928389619E+01  0.51100000000E-03 0. -1.
        -11    1    4    4    0    0  0.12803361419E+02 -0.46095020406E+01 -0.27948586738E+02  0.31085319262E+02  0.51100000000E-03 0.  1.
         12    1    4    4    0    0  0.25107119258E+01 -0.93570909311E+01 -0.85314873484E+01  0.12909109243E+02  0.00000000000E+00 0. -1.
</event>
<event>
 8    1  0.3776180E-010  0.9118800E+02  0.7816164E-02  0.1184000E+00
        -11   -1    0    0    0    0  0.00000000000E+00  0.00000000000E+00  0.45593999997E+02  0.45594000000E+02  0.51100000000E-03 0. -1.
         11   -1    0    0    0    0 -0.00000000000E+00 -0.00000000000E+00 -0.45593999997E+02  0.45594000000E+02  0.51100000000E-03 0.  1.
         23    2    1    2    0    0 -0.17763568394E-14  0.35527136788E-14  0.00000000000E+00  0.91188000000E+02  0.91188000000E+02 0.  0.
    9900012    2    3    3    0    0 -0.14540624164E+02  0.14642132017E+02  0.38181168491E+02  0.47787269494E+02  0.19999992931E+02 0.  0.
        -12    1    3    3    0    0  0.14540624164E+02 -0.14642132017E+02 -0.38181168491E+02  0.43400730506E+02  0.00000000000E+00 0.  1.
         11    1    4    4    0    0 -0.68836139686E+01  0.50922513255E+01  0.11531357256E+02  0.14362707449E+02  0.51100000000E-03 0. -1.
        -11    1    4    4    0    0 -0.48535782211E+01  0.11301428189E+02  0.84393423842E+01  0.14916500957E+02  0.51100000000E-03 0.  1.
         12    1    4    4    0    0 -0.28034319744E+01 -0.17515474974E+01  0.18210468851E+02  0.18508061089E+02  0.00000000000E+00 0. -1.
</event>
<event>
 8    1  0.3776180E-010  0.9118800E+02  0.7816164E-02  0.1184000E+00
        -11   -1    0    0    0    0  0.00000000000E+00  0.00000000000E+00  0.45593999997E+02  0.45594000000E+02  0.51100000000E-03 0. -1.
         11   -1    0    0    0    0 -0.00000000000E+00 -0.00000000000E+00 -0.45593999997E+02  0.45594000000E+02  0.51100000000E-03 0.  1.
         23    2    1    2    0    0  0.00000000000E+00  0.35527136788E-14  0.00000000000E+00  0.91188000000E+02  0.91188000000E+02 0.  0.
    9900012    2    3    3    0    0 -0.20661249575E+02 -0.29799778356E+02 -0.23847623093E+02  0.47787272457E+02  0.20000006440E+02 0.  0.
         12    1    3    3    0    0  0.20661249575E+02  0.29799778356E+02  0.23847623093E+02  0.43400727543E+02  0.00000000000E+00 0. -1.
         11    1    4    4    0    0 -0.18661834558E+02 -0.13347961947E+02 -0.14955885274E+02  0.27388148200E+02  0.51100000000E-03 0. -1.
        -11    1    4    4    0    0 -0.30938445323E+01 -0.83232656593E+01 -0.83344304462E+01  0.12178315004E+02  0.51100000000E-03 0.  1.
        -12    1    4    4    0    0  0.10944295159E+01 -0.81285507503E+01 -0.55730737304E+00  0.82208092529E+01  0.00000000000E+00 0.  1.
</event>
<event>
 8    1  0.3776180E-010  0.9118800E+02  0.7816164E-02  0.1184000E+00
        -11   -1    0    0    0    0  0.00000000000E+00  0.00000000000E+00  0.45593999997E+02  0.45594000000E+02  0.51100000000E-03 0. -1.
         11   -1    0    0    0    0 -0.00000000000E+00 -0.00000000000E+00 -0.45593999997E+02  0.45594000000E+02  0.51100000000E-03 0.  1.
         23    2    1    2    0    0  0.35527136788E-14  0.35527136788E-14  0.00000000000E+00  0.91188000000E+02  0.91188000000E+02 0.  0.
    9900012    2    3    3    0    0  0.24195944034E+02  0.30084097471E+02 -0.19827422280E+02  0.47787270713E+02  0.19999998488E+02 0.  0.
         12    1    3    3    0    0 -0.24195944034E+02 -0.30084097471E+02  0.19827422280E+02  0.43400729287E+02  0.00000000000E+00 0. -1.
         11    1    4    4    0    0  0.42533494818E+01  0.11836108591E+02  0.17952215712E+00  0.12578421080E+02  0.51100000000E-03 0. -1.
        -11    1    4    4    0    0  0.42797472191E+01  0.39792417847E+01  0.31275263793E+00  0.58522146163E+01  0.51100000000E-03 0.  1.
        -12    1    4    4    0    0  0.15662847333E+02  0.14268747095E+02 -0.20319697075E+02  0.29356635016E+02  0.00000000000E+00 0.  1.
</event>
<event>
 8    1  0.3776180E-010  0.9118800E+02  0.7816164E-02  0.1184000E+00
        -11   -1    0    0    0    0  0.00000000000E+00  0.00000000000E+00  0.45593999997E+02  0.45594000000E+02  0.51100000000E-03 0. -1.
         11   -1    0    0    0    0 -0.00000000000E+00 -0.00000000000E+00 -0.45593999997E+02  0.45594000000E+02  0.51100000000E-03 0.  1.
         23    2    1    2    0    0  0.58980598183E-16  0.00000000000E+00  0.71054273576E-14  0.91188000000E+02  0.91188000000E+02 0.  0.
    9900012    2    3    3    0    0 -0.18187079072E-01 -0.23608291453E+02 -0.36417990365E+02  0.47787288275E+02  0.20000078559E+02 0.  0.
         12    1    3    3    0    0  0.18187079072E-01  0.23608291453E+02  0.36417990365E+02  0.43400711725E+02  0.00000000000E+00 0. -1.
         11    1    4    4    0    0 -0.35236551591E+01 -0.42799131872E+01 -0.50011738321E+00  0.55663201694E+01  0.51100000000E-03 0. -1.
        -11    1    4    4    0    0  0.10204881556E+01 -0.53888459042E+00 -0.10245541117E+02  0.10310330049E+02  0.51100000000E-03 0.  1.
        -12    1    4    4    0    0  0.24849799245E+01 -0.18789493675E+02 -0.25672331864E+02  0.31910638056E+02  0.00000000000E+00 0.  1.
</event>
<event>
 8    1  0.3776180E-010  0.9118800E+02  0.7816164E-02  0.1184000E+00
        -11   -1    0    0    0    0  0.00000000000E+00  0.00000000000E+00  0.45593999997E+02  0.45594000000E+02  0.51100000000E-03 0. -1.
         11   -1    0    0    0    0 -0.00000000000E+00 -0.00000000000E+00 -0.45593999997E+02  0.45594000000E+02  0.51100000000E-03 0.  1.
         23    2    1    2    0    0  0.00000000000E+00  0.00000000000E+00 -0.35527136788E-14  0.91188000000E+02  0.91188000000E+02 0.  0.
    9900012    2    3    3    0    0 -0.32554677958E+02  0.81576597362E+01 -0.27518518468E+02  0.47787270421E+02  0.19999997158E+02 0.  0.
         12    1    3    3    0    0  0.32554677958E+02 -0.81576597362E+01  0.27518518468E+02  0.43400729579E+02  0.00000000000E+00 0. -1.
         11    1    4    4    0    0 -0.11548326178E+02  0.14397071088E+01 -0.91659399688E+01  0.14813880310E+02  0.51100000000E-03 0. -1.
        -11    1    4    4    0    0 -0.17549307076E+02  0.30101601469E+00 -0.58497465534E+01  0.18501035768E+02  0.51100000000E-03 0.  1.
         12    1    4    4    0    0 -0.34570447048E+01  0.64169366128E+01 -0.12502831945E+02  0.14472354343E+02  0.00000000000E+00 0. -1.
</event>
<event>
 8    1  0.3776180E-010  0.9118800E+02  0.7816164E-02  0.1184000E+00
        -11   -1    0    0    0    0  0.00000000000E+00  0.00000000000E+00  0.45593999997E+02  0.45594000000E+02  0.51100000000E-03 0. -1.
         11   -1    0    0    0    0 -0.00000000000E+00 -0.00000000000E+00 -0.45593999997E+02  0.45594000000E+02  0.51100000000E-03 0.  1.
         23    2    1    2    0    0  0.00000000000E+00  0.00000000000E+00  0.00000000000E+00  0.91188000000E+02  0.91188000000E+02 0.  0.
    9900012    2    3    3    0    0 -0.13398376945E+02 -0.33717182227E+02 -0.23817190092E+02  0.47787269292E+02  0.19999992009E+02 0.  0.
         12    1    3    3    0    0  0.13398376945E+02  0.33717182227E+02  0.23817190092E+02  0.43400730708E+02  0.00000000000E+00 0. -1.
         11    1    4    4    0    0 -0.41877319183E+01 -0.62723274949E+01 -0.57502460840E+01  0.94839085355E+01  0.51100000000E-03 0.  1.
        -11    1    4    4    0    0  0.11826473375E+01 -0.81147720235E+01  0.21351369519E+01  0.84739005059E+01  0.51100000000E-03 0. -1.
         12    1    4    4    0    0 -0.10393292364E+02 -0.19330082709E+02 -0.20202080960E+02  0.29829460250E+02  0.00000000000E+00 0. -1.
</event>
<event>
 8    1  0.3776180E-010  0.9118800E+02  0.7816164E-02  0.1184000E+00
        -11   -1    0    0    0    0  0.00000000000E+00  0.00000000000E+00  0.45593999997E+02  0.45594000000E+02  0.51100000000E-03 0. -1.
         11   -1    0    0    0    0 -0.00000000000E+00 -0.00000000000E+00 -0.45593999997E+02  0.45594000000E+02  0.51100000000E-03 0.  1.
         23    2    1    2    0    0  0.00000000000E+00  0.35527136788E-14  0.00000000000E+00  0.91188000000E+02  0.91188000000E+02 0.  0.
    9900012    2    3    3    0    0  0.10848431355E+02  0.25984213129E+02  0.33026583624E+02  0.47787273961E+02  0.20000013297E+02 0.  0.
        -12    1    3    3    0    0 -0.10848431355E+02 -0.25984213129E+02 -0.33026583624E+02  0.43400726039E+02  0.00000000000E+00 0.  1.
         11    1    4    4    0    0  0.17633287053E+01  0.95749199932E+01  0.14258982164E+02  0.17265775211E+02  0.51100000000E-03 0. -1.
        -11    1    4    4    0    0  0.22110442934E+01  0.61810161508E+01  0.16806247110E+02  0.18042827376E+02  0.51100000000E-03 0.  1.
         12    1    4    4    0    0  0.68740583567E+01  0.10228276985E+02  0.19613543495E+01  0.12478671374E+02  0.00000000000E+00 0. -1.
</event>
<event>
 8    1  0.3776180E-010  0.9118800E+02  0.7816164E-02  0.1184000E+00
        -11   -1    0    0    0    0  0.00000000000E+00  0.00000000000E+00  0.45593999997E+02  0.45594000000E+02  0.51100000000E-03 0. -1.
         11   -1    0    0    0    0 -0.00000000000E+00 -0.00000000000E+00 -0.45593999997E+02  0.45594000000E+02  0.51100000000E-03 0.  1.
         23    2    1    2    0    0  0.00000000000E+00  0.00000000000E+00  0.35527136788E-14  0.91188000000E+02  0.91188000000E+02 0.  0.
    9900012    2    3    3    0    0 -0.32773867518E+02 -0.14659299013E+02  0.24384465310E+02  0.47787267424E+02  0.19999983494E+02 0.  0.
        -12    1    3    3    0    0  0.32773867518E+02  0.14659299013E+02 -0.24384465310E+02  0.43400732576E+02  0.00000000000E+00 0.  1.
         11    1    4    4    0    0 -0.19132030118E+01 -0.21927754800E+01 -0.22152572732E+00  0.29185071490E+01  0.51100000000E-03 0. -1.
        -11    1    4    4    0    0 -0.49884747213E+01 -0.19264015260E+01  0.13999902354E+02  0.14986432833E+02  0.51100000000E-03 0.  1.
         12    1    4    4    0    0 -0.25872189785E+02 -0.10540122007E+02  0.10606088684E+02  0.29882327442E+02  0.00000000000E+00 0. -1.
</event>
<event>
 8    1  0.5208529E-010  0.9118800E+02  0.7816164E-02  0.1184000E+00
        -11   -1    0    0    0    0  0.00000000000E+00  0.00000000000E+00  0.45593999997E+02  0.45594000000E+02  0.51100000000E-03 0. -1.
         11   -1    0    0    0    0 -0.00000000000E+00 -0.00000000000E+00 -0.45593999997E+02  0.45594000000E+02  0.51100000000E-03 0.  1.
         23    2    1    2    0    0 -0.17763568394E-14  0.00000000000E+00  0.00000000000E+00  0.91188000000E+02  0.91188000000E+02 0.  0.
    9900012    2    3    3    0    0  0.12355135450E+02 -0.37207382336E+02  0.18616790124E+02  0.47787267900E+02  0.19999985663E+02 0.  0.
        -12    1    3    3    0    0 -0.12355135450E+02  0.37207382336E+02 -0.18616790124E+02  0.43400732100E+02  0.00000000000E+00 0.  1.
         11    1    4    4    0    0  0.59876178452E+01 -0.18776646480E+02  0.71086073323E+01  0.20951045772E+02  0.51100000000E-03 0. -1.
        -11    1    4    4    0    0  0.10884127136E+01 -0.14649003554E+02  0.13595239728E+02  0.20015206491E+02  0.51100000000E-03 0.  1.
        -12    1    4    4    0    0  0.52791048915E+01 -0.37817323026E+01 -0.20870569360E+01  0.68210156368E+01  0.00000000000E+00 0.  1.
</event>
<event>
 8    1  0.3776180E-010  0.9118800E+02  0.7816164E-02  0.1184000E+00
        -11   -1    0    0    0    0  0.00000000000E+00  0.00000000000E+00  0.45593999997E+02  0.45594000000E+02  0.51100000000E-03 0. -1.
         11   -1    0    0    0    0 -0.00000000000E+00 -0.00000000000E+00 -0.45593999997E+02  0.45594000000E+02  0.51100000000E-03 0.  1.
         23    2    1    2    0    0  0.35527136788E-14 -0.71054273576E-14  0.00000000000E+00  0.91188000000E+02  0.91188000000E+02 0.  0.
    9900012    2    3    3    0    0 -0.21101160306E+02 -0.37223323017E+02  0.72655495690E+01  0.47787274739E+02  0.20000016843E+02 0.  0.
        -12    1    3    3    0    0  0.21101160306E+02  0.37223323017E+02 -0.72655495690E+01  0.43400725261E+02  0.00000000000E+00 0.  1.
         11    1    4    4    0    0 -0.16624013917E+02 -0.32382728864E+02  0.42277600936E+01  0.36645230564E+02  0.51100000000E-03 0.  1.
        -11    1    4    4    0    0 -0.63913374818E+00 -0.53152769384E+01  0.45139842632E+01  0.70026220138E+01  0.51100000000E-03 0. -1.
        -12    1    4    4    0    0 -0.38380126403E+01  0.47468278572E+00 -0.14761947877E+01  0.41394221608E+01  0.00000000000E+00 0.  1.
</event>
<event>
 8    1  0.3776180E-010  0.9118800E+02  0.7816164E-02  0.1184000E+00
        -11   -1    0    0    0    0  0.00000000000E+00  0.00000000000E+00  0.45593999997E+02  0.45594000000E+02  0.51100000000E-03 0. -1.
         11   -1    0    0    0    0 -0.00000000000E+00 -0.00000000000E+00 -0.45593999997E+02  0.45594000000E+02  0.51100000000E-03 0.  1.
         23    2    1    2    0    0  0.88817841970E-15  0.00000000000E+00  0.35527136788E-14  0.91188000000E+02  0.91188000000E+02 0.  0.
    9900012    2    3    3    0    0 -0.74063432671E+01 -0.39238995196E+02  0.17002094609E+02  0.47787263996E+02  0.19999967863E+02 0.  0.
        -12    1    3    3    0    0  0.74063432671E+01  0.39238995196E+02 -0.17002094609E+02  0.43400736004E+02  0.00000000000E+00 0.  1.
         11    1    4    4    0    0  0.65545473614E+00 -0.16246762317E+01 -0.19331586444E+01  0.26088879575E+01  0.51100000000E-03 0. -1.
        -11    1    4    4    0    0 -0.64684977536E+01 -0.90890090055E+01  0.47981903127E+00  0.11166099339E+02  0.51100000000E-03 0.  1.
         12    1    4    4    0    0 -0.15933002497E+01 -0.28525309959E+02  0.18455434222E+02  0.34012276699E+02  0.00000000000E+00 0. -1.
</event>
<event>
 8    1  0.3776180E-010  0.9118800E+02  0.7816164E-02  0.1184000E+00
        -11   -1    0    0    0    0  0.00000000000E+00  0.00000000000E+00  0.45593999997E+02  0.45594000000E+02  0.51100000000E-03 0. -1.
         11   -1    0    0    0    0 -0.00000000000E+00 -0.00000000000E+00 -0.45593999997E+02  0.45594000000E+02  0.51100000000E-03 0.  1.
         23    2    1    2    0    0  0.00000000000E+00  0.00000000000E+00  0.71054273576E-14  0.91188000000E+02  0.91188000000E+02 0.  0.
    9900012    2    3    3    0    0  0.51858018768E+01  0.13165666817E+02  0.41029209481E+02  0.47787270116E+02  0.19999995767E+02 0.  0.
        -12    1    3    3    0    0 -0.51858018768E+01 -0.13165666817E+02 -0.41029209481E+02  0.43400729884E+02  0.00000000000E+00 0.  1.
         11    1    4    4    0    0 -0.16044692198E+01  0.48253727013E+01  0.24496116783E+02  0.25018358877E+02  0.51100000000E-03 0. -1.
        -11    1    4    4    0    0  0.90039033353E+00 -0.27287596335E+01  0.48141505074E+01  0.56065031222E+01  0.51100000000E-03 0.  1.
         12    1    4    4    0    0  0.58898807630E+01  0.11069053749E+02  0.11718942190E+02  0.17162408117E+02  0.00000000000E+00 0. -1.
</event>
<event>
 8    1  0.3776180E-010  0.9118800E+02  0.7816164E-02  0.1184000E+00
        -11   -1    0    0    0    0  0.00000000000E+00  0.00000000000E+00  0.45593999997E+02  0.45594000000E+02  0.51100000000E-03 0. -1.
         11   -1    0    0    0    0 -0.00000000000E+00 -0.00000000000E+00 -0.45593999997E+02  0.45594000000E+02  0.51100000000E-03 0.  1.
         23    2    1    2    0    0  0.35527136788E-14 -0.17763568394E-14  0.00000000000E+00  0.91188000000E+02  0.91188000000E+02 0.  0.
    9900012    2    3    3    0    0  0.21272449241E+02 -0.74240852831E+01 -0.37094334864E+02  0.47787264776E+02  0.19999971418E+02 0.  0.
         12    1    3    3    0    0 -0.21272449241E+02  0.74240852831E+01  0.37094334864E+02  0.43400735224E+02  0.00000000000E+00 0. -1.
         11    1    4    4    0    0  0.43886896218E+01 -0.46860269153E+01 -0.11725542868E+02  0.13368163698E+02  0.51100000000E-03 0. -1.
        -11    1    4    4    0    0  0.16053407939E+02 -0.58102611316E+01 -0.26067711740E+02  0.31160818931E+02  0.51100000000E-03 0.  1.
         12    1    4    4    0    0  0.83035168033E+00  0.30722027638E+01  0.69891974395E+00  0.32582821460E+01  0.00000000000E+00 0. -1.
</event>
<event>
 8    1  0.3776180E-010  0.9118800E+02  0.7816164E-02  0.1184000E+00
        -11   -1    0    0    0    0  0.00000000000E+00  0.00000000000E+00  0.45593999997E+02  0.45594000000E+02  0.51100000000E-03 0. -1.
         11   -1    0    0    0    0 -0.00000000000E+00 -0.00000000000E+00 -0.45593999997E+02  0.45594000000E+02  0.51100000000E-03 0.  1.
         23    2    1    2    0    0  0.00000000000E+00  0.35527136788E-14  0.00000000000E+00  0.91188000000E+02  0.91188000000E+02 0.  0.
    9900012    2    3    3    0    0 -0.13218735662E+02  0.21965960183E+02 -0.35019775255E+02  0.47787273760E+02  0.20000012381E+02 0.  0.
         12    1    3    3    0    0  0.13218735662E+02 -0.21965960183E+02  0.35019775255E+02  0.43400726240E+02  0.00000000000E+00 0. -1.
         11    1    4    4    0    0 -0.71764420483E+01  0.15563312749E+02 -0.32450165706E+02  0.36697837522E+02  0.51100000000E-03 0. -1.
        -11    1    4    4    0    0 -0.20741699388E+01  0.42691833240E+01 -0.41602807273E+01  0.63115800859E+01  0.51100000000E-03 0.  1.
         12    1    4    4    0    0 -0.39681236748E+01  0.21334641103E+01  0.15906711788E+01  0.47778561518E+01  0.00000000000E+00 0. -1.
</event>
<event>
 8    1  0.3776180E-010  0.9118800E+02  0.7816164E-02  0.1184000E+00
        -11   -1    0    0    0    0  0.00000000000E+00  0.00000000000E+00  0.45593999997E+02  0.45594000000E+02  0.51100000000E-03 0. -1.
         11   -1    0    0    0    0 -0.00000000000E+00 -0.00000000000E+00 -0.45593999997E+02  0.45594000000E+02  0.51100000000E-03 0.  1.
         23    2    1    2    0    0  0.00000000000E+00  0.17763568394E-14  0.00000000000E+00  0.91188000000E+02  0.91188000000E+02 0.  0.
    9900012    2    3    3    0    0 -0.37493918653E+02 -0.15274652733E+02 -0.15636979040E+02  0.47787261924E+02  0.19999958415E+02 0.  0.
         12    1    3    3    0    0  0.37493918653E+02  0.15274652733E+02  0.15636979040E+02  0.43400738076E+02  0.00000000000E+00 0. -1.
         11    1    4    4    0    0 -0.45235023455E+01  0.25795925518E+01 -0.14042911968E+01  0.53933667806E+01  0.51100000000E-03 0. -1.
        -11    1    4    4    0    0 -0.50636944225E+01 -0.80688168282E+01  0.10989820379E+00  0.95267457239E+01  0.51100000000E-03 0.  1.
        -12    1    4    4    0    0 -0.27906721885E+02 -0.97854284565E+01 -0.14342586047E+02  0.32867149419E+02  0.00000000000E+00 0.  1.
</event>
<event>
 8    1  0.3776180E-010  0.9118800E+02  0.7816164E-02  0.1184000E+00
        -11   -1    0    0    0    0  0.00000000000E+00  0.00000000000E+00  0.45593999997E+02  0.45594000000E+02  0.51100000000E-03 0.  1.
         11   -1    0    0    0    0 -0.00000000000E+00 -0.00000000000E+00 -0.45593999997E+02  0.45594000000E+02  0.51100000000E-03 0. -1.
         23    2    1    2    0    0  0.00000000000E+00  0.44408920985E-15  0.00000000000E+00  0.91188000000E+02  0.91188000000E+02 0.  0.
    9900012    2    3    3    0    0 -0.39311129447E+02 -0.30740383754E+01 -0.18133077326E+02  0.47787273005E+02  0.20000008940E+02 0.  0.
         12    1    3    3    0    0  0.39311129447E+02  0.30740383754E+01  0.18133077326E+02  0.43400726995E+02  0.00000000000E+00 0. -1.
         11    1    4    4    0    0 -0.63643396344E+01  0.66653876677E+00 -0.83520628105E+01  0.10521694082E+02  0.51100000000E-03 0. -1.
        -11    1    4    4    0    0 -0.63352000617E+01 -0.46783483297E+00 -0.82466235783E+01  0.10409631596E+02  0.51100000000E-03 0.  1.
         12    1    4    4    0    0 -0.26611589751E+02 -0.32727423092E+01 -0.15343909374E+01  0.26855947327E+02  0.00000000000E+00 0. -1.
</event>
<event>
 8    1  0.3776180E-010  0.9118800E+02  0.7816164E-02  0.1184000E+00
        -11   -1    0    0    0    0  0.00000000000E+00  0.00000000000E+00  0.45593999997E+02  0.45594000000E+02  0.51100000000E-03 0. -1.
         11   -1    0    0    0    0 -0.00000000000E+00 -0.00000000000E+00 -0.45593999997E+02  0.45594000000E+02  0.51100000000E-03 0.  1.
         23    2    1    2    0    0  0.00000000000E+00  0.00000000000E+00  0.00000000000E+00  0.91188000000E+02  0.91188000000E+02 0.  0.
    9900012    2    3    3    0    0 -0.15773782081E+02 -0.37401169120E+01 -0.40259441085E+02  0.47787271064E+02  0.20000000090E+02 0.  0.
         12    1    3    3    0    0  0.15773782081E+02  0.37401169120E+01  0.40259441085E+02  0.43400728936E+02  0.00000000000E+00 0. -1.
         11    1    4    4    0    0 -0.67094493034E+01  0.13076115553E+01 -0.24345017619E+01  0.72562632963E+01  0.51100000000E-03 0. -1.
        -11    1    4    4    0    0 -0.47620976101E+00 -0.93693772281E+00  0.41018981583E+00  0.11282216001E+01  0.51100000000E-03 0.  1.
        -12    1    4    4    0    0 -0.85881230168E+01 -0.41107907445E+01 -0.38235129139E+02  0.39402786168E+02  0.00000000000E+00 0.  1.
</event>
<event>
 8    1  0.3776180E-010  0.9118800E+02  0.7816164E-02  0.1184000E+00
        -11   -1    0    0    0    0  0.00000000000E+00  0.00000000000E+00  0.45593999997E+02  0.45594000000E+02  0.51100000000E-03 0. -1.
         11   -1    0    0    0    0 -0.00000000000E+00 -0.00000000000E+00 -0.45593999997E+02  0.45594000000E+02  0.51100000000E-03 0.  1.
         23    2    1    2    0    0  0.17763568394E-14  0.00000000000E+00  0.00000000000E+00  0.91188000000E+02  0.91188000000E+02 0.  0.
    9900012    2    3    3    0    0 -0.94653437571E+01  0.37485379387E+02  0.19719961288E+02  0.47787271049E+02  0.20000000022E+02 0.  0.
        -12    1    3    3    0    0  0.94653437571E+01 -0.37485379387E+02 -0.19719961288E+02  0.43400728951E+02  0.00000000000E+00 0.  1.
         11    1    4    4    0    0 -0.48275053573E+00  0.46089631460E+01 -0.37293040930E+01  0.59483862215E+01  0.51100000000E-03 0. -1.
        -11    1    4    4    0    0 -0.15951638908E+01  0.43311327907E+01  0.86040355552E+00  0.46950562966E+01  0.51100000000E-03 0.  1.
         12    1    4    4    0    0 -0.73874293306E+01  0.28545283451E+02  0.22588861825E+02  0.37143828531E+02  0.00000000000E+00 0. -1.
</event>
<event>
 8    1  0.3776180E-010  0.9118800E+02  0.7816164E-02  0.1184000E+00
        -11   -1    0    0    0    0  0.00000000000E+00  0.00000000000E+00  0.45593999997E+02  0.45594000000E+02  0.51100000000E-03 0. -1.
         11   -1    0    0    0    0 -0.00000000000E+00 -0.00000000000E+00 -0.45593999997E+02  0.45594000000E+02  0.51100000000E-03 0.  1.
         23    2    1    2    0    0  0.00000000000E+00  0.17763568394E-14  0.00000000000E+00  0.91188000000E+02  0.91188000000E+02 0.  0.
    9900012    2    3    3    0    0 -0.17982118528E+02 -0.93557235922E+01  0.38376186140E+02  0.47787333953E+02  0.20000286824E+02 0.  0.
        -12    1    3    3    0    0  0.17982118528E+02  0.93557235922E+01 -0.38376186140E+02  0.43400666047E+02  0.00000000000E+00 0.  1.
         11    1    4    4    0    0 -0.69258269900E+01 -0.83711632716E+01  0.89435624225E+01  0.14072340355E+02  0.51100000000E-03 0. -1.
        -11    1    4    4    0    0  0.23834533783E+01  0.14726422022E+00  0.18830672789E+01  0.30411312689E+01  0.51100000000E-03 0.  1.
        -12    1    4    4    0    0 -0.13439744916E+02 -0.11318245408E+01  0.27549556438E+02  0.30673862329E+02  0.00000000000E+00 0.  1.
</event>
<event>
 8    1  0.3776180E-010  0.9118800E+02  0.7816164E-02  0.1184000E+00
        -11   -1    0    0    0    0  0.00000000000E+00  0.00000000000E+00  0.45593999997E+02  0.45594000000E+02  0.51100000000E-03 0.  1.
         11   -1    0    0    0    0 -0.00000000000E+00 -0.00000000000E+00 -0.45593999997E+02  0.45594000000E+02  0.51100000000E-03 0. -1.
         23    2    1    2    0    0  0.00000000000E+00 -0.17763568394E-14 -0.35527136788E-14  0.91188000000E+02  0.91188000000E+02 0.  0.
    9900012    2    3    3    0    0  0.34392721386E+02  0.89387777779E+01  0.24917105845E+02  0.47787271939E+02  0.20000004078E+02 0.  0.
        -12    1    3    3    0    0 -0.34392721386E+02 -0.89387777779E+01 -0.24917105845E+02  0.43400728061E+02  0.00000000000E+00 0.  1.
         11    1    4    4    0    0  0.55438957736E+01  0.73404949533E+01  0.34137722412E+01  0.98118034878E+01  0.51100000000E-03 0. -1.
        -11    1    4    4    0    0  0.32402179142E-01 -0.17071625610E+01  0.33434805413E+01  0.37542397768E+01  0.51100000000E-03 0.  1.
         12    1    4    4    0    0  0.28816423434E+02  0.33054453856E+01  0.18159853063E+02  0.34221228674E+02  0.00000000000E+00 0. -1.
</event>
<event>
 8    1  0.3776180E-010  0.9118800E+02  0.7816164E-02  0.1184000E+00
        -11   -1    0    0    0    0  0.00000000000E+00  0.00000000000E+00  0.45593999997E+02  0.45594000000E+02  0.51100000000E-03 0. -1.
         11   -1    0    0    0    0 -0.00000000000E+00 -0.00000000000E+00 -0.45593999997E+02  0.45594000000E+02  0.51100000000E-03 0.  1.
         23    2    1    2    0    0  0.00000000000E+00  0.00000000000E+00  0.00000000000E+00  0.91188000000E+02  0.91188000000E+02 0.  0.
    9900012    2    3    3    0    0 -0.10839932884E+02  0.25447657069E+02 -0.33444521382E+02  0.47787269526E+02  0.19999993075E+02 0.  0.
         12    1    3    3    0    0  0.10839932884E+02 -0.25447657069E+02  0.33444521382E+02  0.43400730474E+02  0.00000000000E+00 0. -1.
         11    1    4    4    0    0 -0.11251983139E+02  0.79931778328E+01 -0.13423185881E+02  0.19253050041E+02  0.51100000000E-03 0. -1.
        -11    1    4    4    0    0  0.11124174672E+01 -0.65685650341E+00  0.27725177139E+00  0.13212879676E+01  0.51100000000E-03 0.  1.
        -12    1    4    4    0    0 -0.70036721233E+00  0.18111335739E+02 -0.20298587272E+02  0.27212931517E+02  0.00000000000E+00 0.  1.
</event>
<event>
 8    1  0.3776180E-010  0.9118800E+02  0.7816164E-02  0.1184000E+00
        -11   -1    0    0    0    0  0.00000000000E+00  0.00000000000E+00  0.45593999997E+02  0.45594000000E+02  0.51100000000E-03 0. -1.
         11   -1    0    0    0    0 -0.00000000000E+00 -0.00000000000E+00 -0.45593999997E+02  0.45594000000E+02  0.51100000000E-03 0.  1.
         23    2    1    2    0    0  0.00000000000E+00  0.00000000000E+00  0.00000000000E+00  0.91188000000E+02  0.91188000000E+02 0.  0.
    9900012    2    3    3    0    0  0.23180933916E+01 -0.36629203384E+02 -0.23163574236E+02  0.47787271102E+02  0.20000000261E+02 0.  0.
         12    1    3    3    0    0 -0.23180933916E+01  0.36629203384E+02  0.23163574236E+02  0.43400728898E+02  0.00000000000E+00 0. -1.
         11    1    4    4    0    0 -0.18389372634E+01 -0.32620124892E+01  0.20505149122E+01  0.42693122871E+01  0.51100000000E-03 0. -1.
        -11    1    4    4    0    0  0.20993382975E+01 -0.15915835485E+01 -0.54161316092E+01  0.60228598978E+01  0.51100000000E-03 0.  1.
        -12    1    4    4    0    0  0.20576923576E+01 -0.31775607346E+02 -0.19797957539E+02  0.37495098917E+02  0.00000000000E+00 0.  1.
</event>
<event>
 8    1  0.3776180E-010  0.9118800E+02  0.7816164E-02  0.1184000E+00
        -11   -1    0    0    0    0  0.00000000000E+00  0.00000000000E+00  0.45593999997E+02  0.45594000000E+02  0.51100000000E-03 0. -1.
         11   -1    0    0    0    0 -0.00000000000E+00 -0.00000000000E+00 -0.45593999997E+02  0.45594000000E+02  0.51100000000E-03 0.  1.
         23    2    1    2    0    0  0.71054273576E-14  0.00000000000E+00  0.17763568394E-14  0.91188000000E+02  0.91188000000E+02 0.  0.
    9900012    2    3    3    0    0  0.39787516714E+02 -0.94339719635E+01  0.14545687137E+02  0.47787270426E+02  0.19999997180E+02 0.  0.
        -12    1    3    3    0    0 -0.39787516714E+02  0.94339719635E+01 -0.14545687137E+02  0.43400729574E+02  0.00000000000E+00 0.  1.
         11    1    4    4    0    0  0.19789776331E+02  0.13427857709E+01  0.59000612585E+01  0.20694178988E+02  0.51100000000E-03 0.  1.
        -11    1    4    4    0    0  0.14336479238E+02 -0.55074433943E+01  0.11133256382E+02  0.18968815662E+02  0.51100000000E-03 0. -1.
         12    1    4    4    0    0  0.56612611453E+01 -0.52693143401E+01 -0.24876305039E+01  0.81242757766E+01  0.00000000000E+00 0. -1.
</event>
<event>
 8    1  0.3776180E-010  0.9118800E+02  0.7816164E-02  0.1184000E+00
        -11   -1    0    0    0    0  0.00000000000E+00  0.00000000000E+00  0.45593999997E+02  0.45594000000E+02  0.51100000000E-03 0. -1.
         11   -1    0    0    0    0 -0.00000000000E+00 -0.00000000000E+00 -0.45593999997E+02  0.45594000000E+02  0.51100000000E-03 0.  1.
         23    2    1    2    0    0  0.00000000000E+00  0.00000000000E+00 -0.35527136788E-14  0.91188000000E+02  0.91188000000E+02 0.  0.
    9900012    2    3    3    0    0  0.63316780589E+01  0.39863038994E+02  0.15952151999E+02  0.47787272146E+02  0.20000005024E+02 0.  0.
        -12    1    3    3    0    0 -0.63316780589E+01 -0.39863038994E+02 -0.15952151999E+02  0.43400727854E+02  0.00000000000E+00 0.  1.
         11    1    4    4    0    0  0.34636227017E+01  0.97951742223E+01  0.99536855310E+01  0.14388119272E+02  0.51100000000E-03 0. -1.
        -11    1    4    4    0    0 -0.17086023628E+01 -0.62754150468E+00  0.39666229314E+00  0.18629201835E+01  0.51100000000E-03 0.  1.
        -12    1    4    4    0    0  0.45766577200E+01  0.30695406276E+02  0.56018041745E+01  0.31536232691E+02  0.00000000000E+00 0.  1.
</event>
<event>
 8    1  0.3776180E-010  0.9118800E+02  0.7816164E-02  0.1184000E+00
        -11   -1    0    0    0    0  0.00000000000E+00  0.00000000000E+00  0.45593999997E+02  0.45594000000E+02  0.51100000000E-03 0. -1.
         11   -1    0    0    0    0 -0.00000000000E+00 -0.00000000000E+00 -0.45593999997E+02  0.45594000000E+02  0.51100000000E-03 0.  1.
         23    2    1    2    0    0  0.00000000000E+00  0.00000000000E+00 -0.88817841970E-15  0.91188000000E+02  0.91188000000E+02 0.  0.
    9900012    2    3    3    0    0 -0.36264833430E+01 -0.43017901893E+02 -0.44640491852E+01  0.47787320284E+02  0.20000224501E+02 0.  0.
         12    1    3    3    0    0  0.36264833430E+01  0.43017901893E+02  0.44640491852E+01  0.43400679716E+02  0.00000000000E+00 0. -1.
         11    1    4    4    0    0 -0.48740837796E+00 -0.23655157439E+02  0.17513644359E+01  0.23724909232E+02  0.51100000000E-03 0. -1.
        -11    1    4    4    0    0 -0.27010054584E+01 -0.20864736943E+02 -0.71730498367E+01  0.22228030107E+02  0.51100000000E-03 0.  1.
         12    1    4    4    0    0 -0.43806950670E+00  0.15019924897E+01  0.95763621567E+00  0.18343809455E+01  0.00000000000E+00 0. -1.
</event>
<event>
 8    1  0.3776180E-010  0.9118800E+02  0.7816164E-02  0.1184000E+00
        -11   -1    0    0    0    0  0.00000000000E+00  0.00000000000E+00  0.45593999997E+02  0.45594000000E+02  0.51100000000E-03 0. -1.
         11   -1    0    0    0    0 -0.00000000000E+00 -0.00000000000E+00 -0.45593999997E+02  0.45594000000E+02  0.51100000000E-03 0.  1.
         23    2    1    2    0    0  0.66613381478E-15  0.00000000000E+00  0.00000000000E+00  0.91188000000E+02  0.91188000000E+02 0.  0.
    9900012    2    3    3    0    0 -0.19943687889E+01 -0.27458944536E+02  0.33550702138E+02  0.47787300054E+02  0.20000132264E+02 0.  0.
        -12    1    3    3    0    0  0.19943687889E+01  0.27458944536E+02 -0.33550702138E+02  0.43400699946E+02  0.00000000000E+00 0.  1.
         11    1    4    4    0    0 -0.39768239459E+00 -0.22932647300E+01 -0.11652194236E+01  0.26028735995E+01  0.51100000000E-03 0.  1.
        -11    1    4    4    0    0 -0.77194258080E+01 -0.11448474139E+02  0.14835520256E+02  0.20266962191E+02  0.51100000000E-03 0. -1.
         12    1    4    4    0    0  0.61227394137E+01 -0.13717205668E+02  0.19880401305E+02  0.24917464263E+02  0.00000000000E+00 0. -1.
</event>
<event>
 8    1  0.3776180E-010  0.9118800E+02  0.7816164E-02  0.1184000E+00
        -11   -1    0    0    0    0  0.00000000000E+00  0.00000000000E+00  0.45593999997E+02  0.45594000000E+02  0.51100000000E-03 0. -1.
         11   -1    0    0    0    0 -0.00000000000E+00 -0.00000000000E+00 -0.45593999997E+02  0.45594000000E+02  0.51100000000E-03 0.  1.
         23    2    1    2    0    0  0.00000000000E+00  0.00000000000E+00  0.00000000000E+00  0.91188000000E+02  0.91188000000E+02 0.  0.
    9900012    2    3    3    0    0 -0.35990060854E+02  0.17171899488E+02  0.17130809471E+02  0.47787271372E+02  0.20000001493E+02 0.  0.
        -12    1    3    3    0    0  0.35990060854E+02 -0.17171899488E+02 -0.17130809471E+02  0.43400728628E+02  0.00000000000E+00 0.  1.
         11    1    4    4    0    0 -0.77045636011E+01  0.13625203821E+02  0.78405917419E+01  0.17506608997E+02  0.51100000000E-03 0. -1.
        -11    1    4    4    0    0 -0.23926445554E+02  0.41498944223E+01  0.88983616170E+01  0.25862661508E+02  0.51100000000E-03 0.  1.
         12    1    4    4    0    0 -0.43590516986E+01 -0.60319875448E+00  0.39185611257E+00  0.44180008670E+01  0.00000000000E+00 0. -1.
</event>
<event>
 8    1  0.3776180E-010  0.9118800E+02  0.7816164E-02  0.1184000E+00
        -11   -1    0    0    0    0  0.00000000000E+00  0.00000000000E+00  0.45593999997E+02  0.45594000000E+02  0.51100000000E-03 0. -1.
         11   -1    0    0    0    0 -0.00000000000E+00 -0.00000000000E+00 -0.45593999997E+02  0.45594000000E+02  0.51100000000E-03 0.  1.
         23    2    1    2    0    0  0.35527136788E-14  0.35527136788E-14  0.00000000000E+00  0.91188000000E+02  0.91188000000E+02 0.  0.
    9900012    2    3    3    0    0  0.16169141419E+02  0.31892468614E+02  0.24597819666E+02  0.47787269351E+02  0.19999992280E+02 0.  0.
        -12    1    3    3    0    0 -0.16169141419E+02 -0.31892468614E+02 -0.24597819666E+02  0.43400730649E+02  0.00000000000E+00 0.  1.
         11    1    4    4    0    0  0.60292593083E+01  0.42957358107E+01  0.48128508183E+01  0.88299970115E+01  0.51100000000E-03 0. -1.
        -11    1    4    4    0    0  0.20799535081E+01  0.12273010054E+01 -0.25208159919E+01  0.34909866628E+01  0.51100000000E-03 0.  1.
         12    1    4    4    0    0  0.80599286031E+01  0.26369431798E+02  0.22305784840E+02  0.35466285677E+02  0.00000000000E+00 0. -1.
</event>
<event>
 8    1  0.3776180E-010  0.9118800E+02  0.7816164E-02  0.1184000E+00
        -11   -1    0    0    0    0  0.00000000000E+00  0.00000000000E+00  0.45593999997E+02  0.45594000000E+02  0.51100000000E-03 0. -1.
         11   -1    0    0    0    0 -0.00000000000E+00 -0.00000000000E+00 -0.45593999997E+02  0.45594000000E+02  0.51100000000E-03 0.  1.
         23    2    1    2    0    0  0.00000000000E+00  0.88817841970E-15  0.00000000000E+00  0.91188000000E+02  0.91188000000E+02 0.  0.
    9900012    2    3    3    0    0 -0.29027474331E+02 -0.10095805634E+01  0.32249178009E+02  0.47787274186E+02  0.20000014323E+02 0.  0.
        -12    1    3    3    0    0  0.29027474331E+02  0.10095805634E+01 -0.32249178009E+02  0.43400725814E+02  0.00000000000E+00 0.  1.
         11    1    4    4    0    0 -0.60542363826E+00 -0.92149405086E+00 -0.16922260856E+00  0.11154934423E+01  0.51100000000E-03 0. -1.
        -11    1    4    4    0    0  0.15251950306E+01 -0.29505098217E+01  0.47716553389E+01  0.58138131225E+01  0.51100000000E-03 0.  1.
         12    1    4    4    0    0 -0.29947245723E+02  0.28624233092E+01  0.27646745279E+02  0.40857967621E+02  0.00000000000E+00 0. -1.
</event>
<event>
 8    1  0.3776180E-010  0.9118800E+02  0.7816164E-02  0.1184000E+00
        -11   -1    0    0    0    0  0.00000000000E+00  0.00000000000E+00  0.45593999997E+02  0.45594000000E+02  0.51100000000E-03 0. -1.
         11   -1    0    0    0    0 -0.00000000000E+00 -0.00000000000E+00 -0.45593999997E+02  0.45594000000E+02  0.51100000000E-03 0.  1.
         23    2    1    2    0    0  0.88817841970E-15  0.35527136788E-14 -0.71054273576E-14  0.91188000000E+02  0.91188000000E+02 0.  0.
    9900012    2    3    3    0    0  0.67991899094E+01  0.28563767781E+02 -0.31960998428E+02  0.47787271506E+02  0.20000002104E+02 0.  0.
         12    1    3    3    0    0 -0.67991899094E+01 -0.28563767781E+02  0.31960998428E+02  0.43400728494E+02  0.00000000000E+00 0. -1.
         11    1    4    4    0    0 -0.57497455021E+00 -0.54106598168E+00 -0.17496342662E+00  0.80867829926E+00  0.51100000000E-03 0. -1.
        -11    1    4    4    0    0  0.42464000383E+01  0.10319067595E+02 -0.23879803117E+02  0.26358301661E+02  0.51100000000E-03 0.  1.
         12    1    4    4    0    0  0.31277644214E+01  0.18785766168E+02 -0.79062318847E+01  0.20620291545E+02  0.00000000000E+00 0. -1.
</event>
<event>
 8    1  0.3776180E-010  0.9118800E+02  0.7816164E-02  0.1184000E+00
        -11   -1    0    0    0    0  0.00000000000E+00  0.00000000000E+00  0.45593999997E+02  0.45594000000E+02  0.51100000000E-03 0. -1.
         11   -1    0    0    0    0 -0.00000000000E+00 -0.00000000000E+00 -0.45593999997E+02  0.45594000000E+02  0.51100000000E-03 0.  1.
         23    2    1    2    0    0  0.00000000000E+00  0.22204460493E-15  0.00000000000E+00  0.91188000000E+02  0.91188000000E+02 0.  0.
    9900012    2    3    3    0    0 -0.40841248504E+02  0.14956746846E+01  0.14607484642E+02  0.47787271553E+02  0.20000002320E+02 0.  0.
        -12    1    3    3    0    0  0.40841248504E+02 -0.14956746846E+01 -0.14607484642E+02  0.43400728447E+02  0.00000000000E+00 0.  1.
         11    1    4    4    0    0 -0.21073209173E+02 -0.33903546809E+01  0.80655451346E+01  0.22817266889E+02  0.51100000000E-03 0. -1.
        -11    1    4    4    0    0 -0.16669233868E+02 -0.42848568750E+00  0.82236164650E+01  0.18592332445E+02  0.51100000000E-03 0.  1.
        -12    1    4    4    0    0 -0.30988054633E+01  0.53145150530E+01 -0.16816769571E+01  0.63776722193E+01  0.00000000000E+00 0.  1.
</event>
<event>
 8    1  0.3776180E-010  0.9118800E+02  0.7816164E-02  0.1184000E+00
        -11   -1    0    0    0    0  0.00000000000E+00  0.00000000000E+00  0.45593999997E+02  0.45594000000E+02  0.51100000000E-03 0. -1.
         11   -1    0    0    0    0 -0.00000000000E+00 -0.00000000000E+00 -0.45593999997E+02  0.45594000000E+02  0.51100000000E-03 0.  1.
         23    2    1    2    0    0  0.00000000000E+00  0.00000000000E+00  0.00000000000E+00  0.91188000000E+02  0.91188000000E+02 0.  0.
    9900012    2    3    3    0    0  0.53475108025E+01 -0.27220807164E+02  0.33377458672E+02  0.47787274639E+02  0.20000016389E+02 0.  0.
        -12    1    3    3    0    0 -0.53475108025E+01  0.27220807164E+02 -0.33377458672E+02  0.43400725361E+02  0.00000000000E+00 0.  1.
         11    1    4    4    0    0  0.35438866465E+01 -0.33148847385E+01  0.40352017272E+01  0.63111367148E+01  0.51100000000E-03 0. -1.
        -11    1    4    4    0    0  0.64422981588E+01 -0.37496666192E+01  0.31253688782E+01  0.80827678556E+01  0.51100000000E-03 0.  1.
        -12    1    4    4    0    0 -0.46386740028E+01 -0.20156255806E+02  0.26216888067E+02  0.33393370069E+02  0.00000000000E+00 0.  1.
</event>
<event>
 8    1  0.3776180E-010  0.9118800E+02  0.7816164E-02  0.1184000E+00
        -11   -1    0    0    0    0  0.00000000000E+00  0.00000000000E+00  0.45593999997E+02  0.45594000000E+02  0.51100000000E-03 0. -1.
         11   -1    0    0    0    0 -0.00000000000E+00 -0.00000000000E+00 -0.45593999997E+02  0.45594000000E+02  0.51100000000E-03 0.  1.
         23    2    1    2    0    0  0.00000000000E+00  0.88817841970E-15  0.00000000000E+00  0.91188000000E+02  0.91188000000E+02 0.  0.
    9900012    2    3    3    0    0 -0.32009309501E+02 -0.42157112963E+01  0.29004438980E+02  0.47787244281E+02  0.19999877974E+02 0.  0.
        -12    1    3    3    0    0  0.32009309501E+02  0.42157112963E+01 -0.29004438980E+02  0.43400755719E+02  0.00000000000E+00 0.  1.
         11    1    4    4    0    0 -0.20148968156E+02 -0.44483503924E+01  0.11063097371E+02  0.23412835425E+02  0.51100000000E-03 0. -1.
        -11    1    4    4    0    0 -0.65633055976E+01  0.18473370455E+01  0.14400987253E+01  0.69687530540E+01  0.51100000000E-03 0.  1.
         12    1    4    4    0    0 -0.52970357475E+01 -0.16146979494E+01  0.16501242884E+02  0.17405655802E+02  0.00000000000E+00 0. -1.
</event>
<event>
 8    1  0.3776180E-010  0.9118800E+02  0.7816164E-02  0.1184000E+00
        -11   -1    0    0    0    0  0.00000000000E+00  0.00000000000E+00  0.45593999997E+02  0.45594000000E+02  0.51100000000E-03 0. -1.
         11   -1    0    0    0    0 -0.00000000000E+00 -0.00000000000E+00 -0.45593999997E+02  0.45594000000E+02  0.51100000000E-03 0.  1.
         23    2    1    2    0    0 -0.22204460493E-15 -0.71054273576E-14 -0.35527136788E-14  0.91188000000E+02  0.91188000000E+02 0.  0.
    9900012    2    3    3    0    0 -0.16746900374E+01 -0.34135299419E+02 -0.26750699798E+02  0.47787271978E+02  0.20000004257E+02 0.  0.
         12    1    3    3    0    0  0.16746900374E+01  0.34135299419E+02  0.26750699798E+02  0.43400728022E+02  0.00000000000E+00 0. -1.
         11    1    4    4    0    0 -0.64360665837E+01 -0.10368991854E+02 -0.14910458521E+01  0.12294802281E+02  0.51100000000E-03 0.  1.
        -11    1    4    4    0    0  0.12906875594E+01 -0.13649120107E+01 -0.39788570261E+01  0.44000184850E+01  0.51100000000E-03 0. -1.
        -12    1    4    4    0    0  0.34706889868E+01 -0.22401395555E+02 -0.21280796919E+02  0.31092451212E+02  0.00000000000E+00 0.  1.
</event>
<event>
 8    1  0.3776180E-010  0.9118800E+02  0.7816164E-02  0.1184000E+00
        -11   -1    0    0    0    0  0.00000000000E+00  0.00000000000E+00  0.45593999997E+02  0.45594000000E+02  0.51100000000E-03 0. -1.
         11   -1    0    0    0    0 -0.00000000000E+00 -0.00000000000E+00 -0.45593999997E+02  0.45594000000E+02  0.51100000000E-03 0.  1.
         23    2    1    2    0    0  0.00000000000E+00  0.35527136788E-14  0.00000000000E+00  0.91188000000E+02  0.91188000000E+02 0.  0.
    9900012    2    3    3    0    0  0.30914927075E+02 -0.30371948102E+02  0.23318223385E+01  0.47787247207E+02  0.19999891317E+02 0.  0.
        -12    1    3    3    0    0 -0.30914927075E+02  0.30371948102E+02 -0.23318223385E+01  0.43400752793E+02  0.00000000000E+00 0.  1.
         11    1    4    4    0    0  0.42093183997E+01 -0.69521977892E+01 -0.31538869923E+01  0.87177072050E+01  0.51100000000E-03 0. -1.
        -11    1    4    4    0    0  0.12469588506E+01 -0.86217346025E+01  0.39978910805E+01  0.95850063789E+01  0.51100000000E-03 0.  1.
         12    1    4    4    0    0  0.25458649825E+02 -0.14798015710E+02  0.14878182502E+01  0.29484533624E+02  0.00000000000E+00 0. -1.
</event>
<event>
 8    1  0.3776180E-010  0.9118800E+02  0.7816164E-02  0.1184000E+00
        -11   -1    0    0    0    0  0.00000000000E+00  0.00000000000E+00  0.45593999997E+02  0.45594000000E+02  0.51100000000E-03 0. -1.
         11   -1    0    0    0    0 -0.00000000000E+00 -0.00000000000E+00 -0.45593999997E+02  0.45594000000E+02  0.51100000000E-03 0.  1.
         23    2    1    2    0    0  0.00000000000E+00 -0.17763568394E-14 -0.71054273576E-14  0.91188000000E+02  0.91188000000E+02 0.  0.
    9900012    2    3    3    0    0  0.18649646844E+02  0.89471270907E+01  0.38154462264E+02  0.47787269577E+02  0.19999993310E+02 0.  0.
        -12    1    3    3    0    0 -0.18649646844E+02 -0.89471270907E+01 -0.38154462264E+02  0.43400730423E+02  0.00000000000E+00 0.  1.
         11    1    4    4    0    0  0.54436224985E+00  0.67482345774E+01  0.11215452951E+02  0.13100434548E+02  0.51100000000E-03 0. -1.
        -11    1    4    4    0    0  0.16622455485E+02  0.43802501820E+01  0.27046593360E+02  0.32047009699E+02  0.51100000000E-03 0.  1.
         12    1    4    4    0    0  0.14828291096E+01 -0.21813576688E+01 -0.10758404764E+00  0.26398253303E+01  0.00000000000E+00 0. -1.
</event>
<event>
 8    1  0.3776180E-010  0.9118800E+02  0.7816164E-02  0.1184000E+00
        -11   -1    0    0    0    0  0.00000000000E+00  0.00000000000E+00  0.45593999997E+02  0.45594000000E+02  0.51100000000E-03 0. -1.
         11   -1    0    0    0    0 -0.00000000000E+00 -0.00000000000E+00 -0.45593999997E+02  0.45594000000E+02  0.51100000000E-03 0.  1.
         23    2    1    2    0    0  0.00000000000E+00 -0.35527136788E-14  0.00000000000E+00  0.91188000000E+02  0.91188000000E+02 0.  0.
    9900012    2    3    3    0    0 -0.17336519456E+02  0.19765508269E+02 -0.34531078607E+02  0.47787244088E+02  0.19999877097E+02 0.  0.
         12    1    3    3    0    0  0.17336519456E+02 -0.19765508269E+02  0.34531078607E+02  0.43400755912E+02  0.00000000000E+00 0. -1.
         11    1    4    4    0    0 -0.66208672719E+01  0.27750705452E+01 -0.13706964843E+02  0.15473131080E+02  0.51100000000E-03 0.  1.
        -11    1    4    4    0    0  0.19569824924E+01  0.63984275472E+01 -0.11613829637E+02  0.13403383702E+02  0.51100000000E-03 0. -1.
         12    1    4    4    0    0 -0.12672634676E+02  0.10592010176E+02 -0.92102841266E+01  0.18910729307E+02  0.00000000000E+00 0. -1.
</event>
<event>
 8    1  0.3776180E-010  0.9118800E+02  0.7816164E-02  0.1184000E+00
        -11   -1    0    0    0    0  0.00000000000E+00  0.00000000000E+00  0.45593999997E+02  0.45594000000E+02  0.51100000000E-03 0. -1.
         11   -1    0    0    0    0 -0.00000000000E+00 -0.00000000000E+00 -0.45593999997E+02  0.45594000000E+02  0.51100000000E-03 0.  1.
         23    2    1    2    0    0  0.00000000000E+00  0.00000000000E+00  0.00000000000E+00  0.91188000000E+02  0.91188000000E+02 0.  0.
    9900012    2    3    3    0    0 -0.63270783957E+01  0.32597863685E+02 -0.27945777682E+02  0.47787318806E+02  0.20000217763E+02 0.  0.
         12    1    3    3    0    0  0.63270783957E+01 -0.32597863685E+02  0.27945777682E+02  0.43400681194E+02  0.00000000000E+00 0. -1.
         11    1    4    4    0    0 -0.13696661779E+01 -0.40593869687E+00 -0.10791033635E+01  0.17903172889E+01  0.51100000000E-03 0. -1.
        -11    1    4    4    0    0 -0.81989942472E+01  0.65282369550E+01 -0.55959004888E+01  0.11880887465E+02  0.51100000000E-03 0.  1.
         12    1    4    4    0    0  0.32415820294E+01  0.26475565427E+02 -0.21270773829E+02  0.34116114052E+02  0.00000000000E+00 0. -1.
</event>
<event>
 8    1  0.3776180E-010  0.9118800E+02  0.7816164E-02  0.1184000E+00
        -11   -1    0    0    0    0  0.00000000000E+00  0.00000000000E+00  0.45593999997E+02  0.45594000000E+02  0.51100000000E-03 0. -1.
         11   -1    0    0    0    0 -0.00000000000E+00 -0.00000000000E+00 -0.45593999997E+02  0.45594000000E+02  0.51100000000E-03 0.  1.
         23    2    1    2    0    0  0.00000000000E+00  0.00000000000E+00  0.00000000000E+00  0.91188000000E+02  0.91188000000E+02 0.  0.
    9900012    2    3    3    0    0 -0.21490230704E+02 -0.57655461087E+01  0.37263266189E+02  0.47787279445E+02  0.20000038299E+02 0.  0.
        -12    1    3    3    0    0  0.21490230704E+02  0.57655461087E+01 -0.37263266189E+02  0.43400720555E+02  0.00000000000E+00 0.  1.
         11    1    4    4    0    0 -0.38937028320E+01 -0.11568560055E+01  0.12249578816E+02  0.12905480192E+02  0.51100000000E-03 0. -1.
        -11    1    4    4    0    0 -0.11782269112E+02 -0.31863703813E+00  0.25018764017E+02  0.27656137622E+02  0.51100000000E-03 0.  1.
        -12    1    4    4    0    0 -0.58142587600E+01 -0.42900530651E+01 -0.50766428180E-02  0.72256616307E+01  0.00000000000E+00 0.  1.
</event>
<event>
 8    1  0.3776180E-010  0.9118800E+02  0.7816164E-02  0.1184000E+00
        -11   -1    0    0    0    0  0.00000000000E+00  0.00000000000E+00  0.45593999997E+02  0.45594000000E+02  0.51100000000E-03 0. -1.
         11   -1    0    0    0    0 -0.00000000000E+00 -0.00000000000E+00 -0.45593999997E+02  0.45594000000E+02  0.51100000000E-03 0.  1.
         23    2    1    2    0    0  0.00000000000E+00  0.00000000000E+00 -0.35527136788E-14  0.91188000000E+02  0.91188000000E+02 0.  0.
    9900012    2    3    3    0    0  0.14170058292E+02  0.25831310584E+02  0.31868117659E+02  0.47787261739E+02  0.19999957572E+02 0.  0.
        -12    1    3    3    0    0 -0.14170058292E+02 -0.25831310584E+02 -0.31868117659E+02  0.43400738261E+02  0.00000000000E+00 0.  1.
         11    1    4    4    0    0  0.48099130468E+01  0.13112297012E+02  0.19196514731E+02  0.23739708813E+02  0.51100000000E-03 0. -1.
        -11    1    4    4    0    0  0.23589907343E+01  0.12365337741E+02  0.11275497869E+02  0.16899800803E+02  0.51100000000E-03 0.  1.
        -12    1    4    4    0    0  0.70011545106E+01  0.35367583122E+00  0.13961050595E+01  0.71477521230E+01  0.00000000000E+00 0.  1.
</event>
<event>
 8    1  0.3776180E-010  0.9118800E+02  0.7816164E-02  0.1184000E+00
        -11   -1    0    0    0    0  0.00000000000E+00  0.00000000000E+00  0.45593999997E+02  0.45594000000E+02  0.51100000000E-03 0. -1.
         11   -1    0    0    0    0 -0.00000000000E+00 -0.00000000000E+00 -0.45593999997E+02  0.45594000000E+02  0.51100000000E-03 0.  1.
         23    2    1    2    0    0  0.00000000000E+00  0.00000000000E+00  0.00000000000E+00  0.91188000000E+02  0.91188000000E+02 0.  0.
    9900012    2    3    3    0    0 -0.85036275541E+01  0.52996420104E+01  0.42228257522E+02  0.47787267053E+02  0.19999981802E+02 0.  0.
        -12    1    3    3    0    0  0.85036275541E+01 -0.52996420104E+01 -0.42228257522E+02  0.43400732947E+02  0.00000000000E+00 0.  1.
         11    1    4    4    0    0 -0.10877960373E+02  0.12321191091E+01  0.12407289464E+02  0.16546569780E+02  0.51100000000E-03 0. -1.
        -11    1    4    4    0    0  0.49285153850E+00  0.37616366830E+01  0.46663269250E+01  0.60139355173E+01  0.51100000000E-03 0.  1.
        -12    1    4    4    0    0  0.18814812803E+01  0.30588621833E+00  0.25154641133E+02  0.25226761756E+02  0.00000000000E+00 0.  1.
</event>
<event>
 8    1  0.3776180E-010  0.9118800E+02  0.7816164E-02  0.1184000E+00
        -11   -1    0    0    0    0  0.00000000000E+00  0.00000000000E+00  0.45593999997E+02  0.45594000000E+02  0.51100000000E-03 0. -1.
         11   -1    0    0    0    0 -0.00000000000E+00 -0.00000000000E+00 -0.45593999997E+02  0.45594000000E+02  0.51100000000E-03 0.  1.
         23    2    1    2    0    0  0.35527136788E-14  0.35527136788E-14  0.00000000000E+00  0.91188000000E+02  0.91188000000E+02 0.  0.
    9900012    2    3    3    0    0  0.20521491106E+02  0.16815007364E+02 -0.34347451244E+02  0.47787268706E+02  0.19999989337E+02 0.  0.
         12    1    3    3    0    0 -0.20521491106E+02 -0.16815007364E+02  0.34347451244E+02  0.43400731294E+02  0.00000000000E+00 0. -1.
         11    1    4    4    0    0  0.96790135056E+00  0.66983396222E+01 -0.73077402326E+01  0.99603039255E+01  0.51100000000E-03 0. -1.
        -11    1    4    4    0    0  0.31680961983E+01  0.82669699143E+01 -0.45908118022E+01  0.99727217122E+01  0.51100000000E-03 0.  1.
        -12    1    4    4    0    0  0.16385493557E+02  0.18496978277E+01 -0.22448899210E+02  0.27854243068E+02  0.00000000000E+00 0.  1.
</event>
<event>
 8    1  0.3776180E-010  0.9118800E+02  0.7816164E-02  0.1184000E+00
        -11   -1    0    0    0    0  0.00000000000E+00  0.00000000000E+00  0.45593999997E+02  0.45594000000E+02  0.51100000000E-03 0.  1.
         11   -1    0    0    0    0 -0.00000000000E+00 -0.00000000000E+00 -0.45593999997E+02  0.45594000000E+02  0.51100000000E-03 0. -1.
         23    2    1    2    0    0  0.00000000000E+00  0.71054273576E-14  0.17763568394E-14  0.91188000000E+02  0.91188000000E+02 0.  0.
    9900012    2    3    3    0    0 -0.64696089083E+01 -0.41442449513E+02 -0.11148590187E+02  0.47787268160E+02  0.19999986849E+02 0.  0.
        -12    1    3    3    0    0  0.64696089083E+01  0.41442449513E+02  0.11148590187E+02  0.43400731840E+02  0.00000000000E+00 0.  1.
         11    1    4    4    0    0 -0.10113549192E+01 -0.96525120408E+00 -0.30642325976E+01  0.33680959507E+01  0.51100000000E-03 0. -1.
        -11    1    4    4    0    0 -0.94559414593E+00 -0.21157995138E+01 -0.51912633692E+01  0.56850656549E+01  0.51100000000E-03 0.  1.
         12    1    4    4    0    0 -0.45126598432E+01 -0.38361398795E+02 -0.28930942199E+01  0.38734106554E+02  0.00000000000E+00 0. -1.
</event>
<event>
 8    1  0.3776180E-010  0.9118800E+02  0.7816164E-02  0.1184000E+00
        -11   -1    0    0    0    0  0.00000000000E+00  0.00000000000E+00  0.45593999997E+02  0.45594000000E+02  0.51100000000E-03 0. -1.
         11   -1    0    0    0    0 -0.00000000000E+00 -0.00000000000E+00 -0.45593999997E+02  0.45594000000E+02  0.51100000000E-03 0.  1.
         23    2    1    2    0    0 -0.35527136788E-14  0.33306690739E-15  0.71054273576E-14  0.91188000000E+02  0.91188000000E+02 0.  0.
    9900012    2    3    3    0    0  0.16791978740E+02 -0.52501744896E+00 -0.40017223839E+02  0.47787258104E+02  0.19999941000E+02 0.  0.
         12    1    3    3    0    0 -0.16791978740E+02  0.52501744896E+00  0.40017223839E+02  0.43400741896E+02  0.00000000000E+00 0. -1.
         11    1    4    4    0    0 -0.14974154491E+01 -0.29153992024E+01 -0.11246405012E+01  0.34650572946E+01  0.51100000000E-03 0. -1.
        -11    1    4    4    0    0  0.15188119359E+02  0.61336966616E+01 -0.29273540412E+02  0.33544617644E+02  0.51100000000E-03 0.  1.
         12    1    4    4    0    0  0.31012748305E+01 -0.37433149082E+01 -0.96190429261E+01  0.10777583166E+02  0.00000000000E+00 0. -1.
</event>
<event>
 8    1  0.3776180E-010  0.9118800E+02  0.7816164E-02  0.1184000E+00
        -11   -1    0    0    0    0  0.00000000000E+00  0.00000000000E+00  0.45593999997E+02  0.45594000000E+02  0.51100000000E-03 0. -1.
         11   -1    0    0    0    0 -0.00000000000E+00 -0.00000000000E+00 -0.45593999997E+02  0.45594000000E+02  0.51100000000E-03 0.  1.
         23    2    1    2    0    0  0.00000000000E+00  0.00000000000E+00  0.00000000000E+00  0.91188000000E+02  0.91188000000E+02 0.  0.
    9900012    2    3    3    0    0  0.19859779228E+02  0.28150889243E+01 -0.38487503396E+02  0.47787268735E+02  0.19999989471E+02 0.  0.
         12    1    3    3    0    0 -0.19859779228E+02 -0.28150889243E+01  0.38487503396E+02  0.43400731265E+02  0.00000000000E+00 0. -1.
         11    1    4    4    0    0  0.20700509684E+01  0.24145629831E+01 -0.12606190356E+01  0.34211673483E+01  0.51100000000E-03 0. -1.
        -11    1    4    4    0    0  0.55380714818E+01 -0.10102948747E+01 -0.28999868250E+02  0.29541213419E+02  0.51100000000E-03 0.  1.
        -12    1    4    4    0    0  0.12251656778E+02  0.14108208160E+01 -0.82270161104E+01  0.14824887968E+02  0.00000000000E+00 0.  1.
</event>
<event>
 8    1  0.3776180E-010  0.9118800E+02  0.7816164E-02  0.1184000E+00
        -11   -1    0    0    0    0  0.00000000000E+00  0.00000000000E+00  0.45593999997E+02  0.45594000000E+02  0.51100000000E-03 0. -1.
         11   -1    0    0    0    0 -0.00000000000E+00 -0.00000000000E+00 -0.45593999997E+02  0.45594000000E+02  0.51100000000E-03 0.  1.
         23    2    1    2    0    0  0.35527136788E-14  0.00000000000E+00  0.17763568394E-14  0.91188000000E+02  0.91188000000E+02 0.  0.
    9900012    2    3    3    0    0  0.16866295063E+02 -0.38279378573E+02 -0.11568943556E+02  0.47787272033E+02  0.20000004506E+02 0.  0.
         12    1    3    3    0    0 -0.16866295063E+02  0.38279378573E+02  0.11568943556E+02  0.43400727967E+02  0.00000000000E+00 0. -1.
         11    1    4    4    0    0  0.67605318256E+00 -0.40184763121E+01 -0.53058857570E+01  0.66901138782E+01  0.51100000000E-03 0. -1.
        -11    1    4    4    0    0  0.23159692352E+01 -0.21935310300E+02 -0.35741603585E+01  0.22344936205E+02  0.51100000000E-03 0.  1.
        -12    1    4    4    0    0  0.13874272645E+02 -0.12325591961E+02 -0.26888974401E+01  0.18752221950E+02  0.00000000000E+00 0.  1.
</event>
<event>
 8    1  0.3776180E-010  0.9118800E+02  0.7816164E-02  0.1184000E+00
        -11   -1    0    0    0    0  0.00000000000E+00  0.00000000000E+00  0.45593999997E+02  0.45594000000E+02  0.51100000000E-03 0. -1.
         11   -1    0    0    0    0 -0.00000000000E+00 -0.00000000000E+00 -0.45593999997E+02  0.45594000000E+02  0.51100000000E-03 0.  1.
         23    2    1    2    0    0  0.17763568394E-14  0.00000000000E+00  0.00000000000E+00  0.91188000000E+02  0.91188000000E+02 0.  0.
    9900012    2    3    3    0    0 -0.48967436466E+01 -0.16474360030E+02 -0.39852735096E+02  0.47787272687E+02  0.20000007487E+02 0.  0.
         12    1    3    3    0    0  0.48967436466E+01  0.16474360030E+02  0.39852735096E+02  0.43400727313E+02  0.00000000000E+00 0. -1.
         11    1    4    4    0    0 -0.18243092269E+00 -0.17456375239E+01 -0.19370486933E+01  0.26139413359E+01  0.51100000000E-03 0. -1.
        -11    1    4    4    0    0 -0.10376017381E+02 -0.15674042114E+02 -0.29788972634E+02  0.35223858728E+02  0.51100000000E-03 0.  1.
         12    1    4    4    0    0  0.56617046571E+01  0.94531960779E+00 -0.81267137685E+01  0.99494726223E+01  0.00000000000E+00 0. -1.
</event>
<event>
 8    1  0.3776180E-010  0.9118800E+02  0.7816164E-02  0.1184000E+00
        -11   -1    0    0    0    0  0.00000000000E+00  0.00000000000E+00  0.45593999997E+02  0.45594000000E+02  0.51100000000E-03 0. -1.
         11   -1    0    0    0    0 -0.00000000000E+00 -0.00000000000E+00 -0.45593999997E+02  0.45594000000E+02  0.51100000000E-03 0.  1.
         23    2    1    2    0    0  0.00000000000E+00 -0.88817841970E-15  0.71054273576E-14  0.91188000000E+02  0.91188000000E+02 0.  0.
    9900012    2    3    3    0    0 -0.22871862963E+02  0.14124592796E+01 -0.36857911314E+02  0.47787276699E+02  0.20000025783E+02 0.  0.
         12    1    3    3    0    0  0.22871862963E+02 -0.14124592796E+01  0.36857911314E+02  0.43400723301E+02  0.00000000000E+00 0. -1.
         11    1    4    4    0    0 -0.66771869968E+01 -0.21504992408E+01 -0.21288680070E+02  0.22414668692E+02  0.51100000000E-03 0. -1.
        -11    1    4    4    0    0 -0.10315927752E+02  0.75328490198E+01 -0.11540968393E+02  0.17214997283E+02  0.51100000000E-03 0.  1.
         12    1    4    4    0    0 -0.58787482145E+01 -0.39698904993E+01 -0.40282628507E+01  0.81576107250E+01  0.00000000000E+00 0. -1.
</event>
<event>
 8    1  0.3776180E-010  0.9118800E+02  0.7816164E-02  0.1184000E+00
        -11   -1    0    0    0    0  0.00000000000E+00  0.00000000000E+00  0.45593999997E+02  0.45594000000E+02  0.51100000000E-03 0. -1.
         11   -1    0    0    0    0 -0.00000000000E+00 -0.00000000000E+00 -0.45593999997E+02  0.45594000000E+02  0.51100000000E-03 0.  1.
         23    2    1    2    0    0 -0.35527136788E-14  0.00000000000E+00  0.00000000000E+00  0.91188000000E+02  0.91188000000E+02 0.  0.
    9900012    2    3    3    0    0  0.24851885890E+02  0.34042076881E+02  0.10351045700E+02  0.47787269848E+02  0.19999994544E+02 0.  0.
        -12    1    3    3    0    0 -0.24851885890E+02 -0.34042076881E+02 -0.10351045700E+02  0.43400730152E+02  0.00000000000E+00 0.  1.
         11    1    4    4    0    0  0.39228754194E+01  0.14688764067E+02  0.27013682375E+00  0.15205976310E+02  0.51100000000E-03 0. -1.
        -11    1    4    4    0    0  0.35803329935E+01  0.13767642372E+01 -0.25310305234E+01  0.45956914475E+01  0.51100000000E-03 0.  1.
         12    1    4    4    0    0  0.17348677477E+02  0.17976548577E+02  0.12611939400E+02  0.27985602090E+02  0.00000000000E+00 0. -1.
</event>
<event>
 8    1  0.4949532E-010  0.9118800E+02  0.7816164E-02  0.1184000E+00
        -11   -1    0    0    0    0  0.00000000000E+00  0.00000000000E+00  0.45593999997E+02  0.45594000000E+02  0.51100000000E-03 0. -1.
         11   -1    0    0    0    0 -0.00000000000E+00 -0.00000000000E+00 -0.45593999997E+02  0.45594000000E+02  0.51100000000E-03 0.  1.
         23    2    1    2    0    0  0.00000000000E+00 -0.22204460493E-15 -0.71054273576E-14  0.91188000000E+02  0.91188000000E+02 0.  0.
    9900012    2    3    3    0    0  0.10832568876E+02 -0.10924081228E+01  0.42012919330E+02  0.47787270806E+02  0.19999998914E+02 0.  0.
        -12    1    3    3    0    0 -0.10832568876E+02  0.10924081228E+01 -0.42012919330E+02  0.43400729194E+02  0.00000000000E+00 0.  1.
         11    1    4    4    0    0  0.62203006985E+01  0.12107592035E+01  0.24358844346E+02  0.25169651900E+02  0.51100000000E-03 0.  1.
        -11    1    4    4    0    0  0.71733297528E+01 -0.24369069381E+00  0.17936332722E+02  0.19319111695E+02  0.51100000000E-03 0. -1.
        -12    1    4    4    0    0 -0.25610615756E+01 -0.20594766325E+01 -0.28225773845E+00  0.32985072116E+01  0.00000000000E+00 0.  1.
</event>
<event>
 8    1  0.3776180E-010  0.9118800E+02  0.7816164E-02  0.1184000E+00
        -11   -1    0    0    0    0  0.00000000000E+00  0.00000000000E+00  0.45593999997E+02  0.45594000000E+02  0.51100000000E-03 0. -1.
         11   -1    0    0    0    0 -0.00000000000E+00 -0.00000000000E+00 -0.45593999997E+02  0.45594000000E+02  0.51100000000E-03 0.  1.
         23    2    1    2    0    0 -0.17763568394E-14  0.00000000000E+00  0.00000000000E+00  0.91188000000E+02  0.91188000000E+02 0.  0.
    9900012    2    3    3    0    0 -0.14707537032E+02 -0.38795688924E+02 -0.12736026061E+02  0.47787268618E+02  0.19999988937E+02 0.  0.
         12    1    3    3    0    0  0.14707537032E+02  0.38795688924E+02  0.12736026061E+02  0.43400731382E+02  0.00000000000E+00 0. -1.
         11    1    4    4    0    0 -0.44631706782E+01 -0.18396516455E+02 -0.28212380919E+01  0.19139255336E+02  0.51100000000E-03 0. -1.
        -11    1    4    4    0    0 -0.11869495846E+00 -0.15438820774E+02 -0.72765884538E+01  0.17068099343E+02  0.51100000000E-03 0.  1.
         12    1    4    4    0    0 -0.10125671396E+02 -0.49603516947E+01 -0.26381995154E+01  0.11579913939E+02  0.00000000000E+00 0. -1.
</event>
<event>
 8    1  0.3776180E-010  0.9118800E+02  0.7816164E-02  0.1184000E+00
        -11   -1    0    0    0    0  0.00000000000E+00  0.00000000000E+00  0.45593999997E+02  0.45594000000E+02  0.51100000000E-03 0. -1.
         11   -1    0    0    0    0 -0.00000000000E+00 -0.00000000000E+00 -0.45593999997E+02  0.45594000000E+02  0.51100000000E-03 0.  1.
         23    2    1    2    0    0  0.17763568394E-14  0.00000000000E+00  0.00000000000E+00  0.91188000000E+02  0.91188000000E+02 0.  0.
    9900012    2    3    3    0    0  0.15701994378E+02 -0.29021334261E+02 -0.28192784013E+02  0.47787267977E+02  0.19999986014E+02 0.  0.
         12    1    3    3    0    0 -0.15701994378E+02  0.29021334261E+02  0.28192784013E+02  0.43400732023E+02  0.00000000000E+00 0. -1.
         11    1    4    4    0    0 -0.15463154406E+01 -0.27011683612E+01 -0.46539904399E+01  0.55988417761E+01  0.51100000000E-03 0.  1.
        -11    1    4    4    0    0  0.61046027698E+01  0.13020813457E+00 -0.24838326939E+01  0.65918551446E+01  0.51100000000E-03 0. -1.
        -12    1    4    4    0    0  0.11143707049E+02 -0.26450374034E+02 -0.21054960879E+02  0.35596571056E+02  0.00000000000E+00 0.  1.
</event>
<event>
 8    1  0.3776180E-010  0.9118800E+02  0.7816164E-02  0.1184000E+00
        -11   -1    0    0    0    0  0.00000000000E+00  0.00000000000E+00  0.45593999997E+02  0.45594000000E+02  0.51100000000E-03 0.  1.
         11   -1    0    0    0    0 -0.00000000000E+00 -0.00000000000E+00 -0.45593999997E+02  0.45594000000E+02  0.51100000000E-03 0. -1.
         23    2    1    2    0    0  0.35527136788E-14  0.71054273576E-14  0.00000000000E+00  0.91188000000E+02  0.91188000000E+02 0.  0.
    9900012    2    3    3    0    0  0.21361948318E+02  0.37292666187E+02 -0.60454184574E+01  0.47787275679E+02  0.20000021132E+02 0.  0.
         12    1    3    3    0    0 -0.21361948318E+02 -0.37292666187E+02  0.60454184574E+01  0.43400724321E+02  0.00000000000E+00 0. -1.
         11    1    4    4    0    0 -0.17870297315E+01  0.39224630495E+01 -0.26585625568E+01  0.50643012120E+01  0.51100000000E-03 0. -1.
        -11    1    4    4    0    0  0.10780709882E+02  0.26019142015E+02 -0.30768065697E+01  0.28331717133E+02  0.51100000000E-03 0.  1.
        -12    1    4    4    0    0  0.12368268168E+02  0.73510611220E+01 -0.31004933076E+00  0.14391257335E+02  0.00000000000E+00 0.  1.
</event>
<event>
 8    1  0.3776180E-010  0.9118800E+02  0.7816164E-02  0.1184000E+00
        -11   -1    0    0    0    0  0.00000000000E+00  0.00000000000E+00  0.45593999997E+02  0.45594000000E+02  0.51100000000E-03 0. -1.
         11   -1    0    0    0    0 -0.00000000000E+00 -0.00000000000E+00 -0.45593999997E+02  0.45594000000E+02  0.51100000000E-03 0.  1.
         23    2    1    2    0    0  0.00000000000E+00  0.00000000000E+00  0.00000000000E+00  0.91188000000E+02  0.91188000000E+02 0.  0.
    9900012    2    3    3    0    0  0.20592774960E+02  0.14766875061E+02 -0.35234931384E+02  0.47787269945E+02  0.19999994988E+02 0.  0.
         12    1    3    3    0    0 -0.20592774960E+02 -0.14766875061E+02  0.35234931384E+02  0.43400730055E+02  0.00000000000E+00 0. -1.
         11    1    4    4    0    0  0.20123847436E+01 -0.24306243180E+01 -0.82971805972E+01  0.88769833307E+01  0.51100000000E-03 0. -1.
        -11    1    4    4    0    0  0.12382556467E+02  0.67279753309E+01 -0.21205352484E+02  0.25460956991E+02  0.51100000000E-03 0.  1.
         12    1    4    4    0    0  0.61978337499E+01  0.10469524048E+02 -0.57323983035E+01  0.13449329623E+02  0.00000000000E+00 0. -1.
</event>
<event>
 8    1  0.3776180E-010  0.9118800E+02  0.7816164E-02  0.1184000E+00
        -11   -1    0    0    0    0  0.00000000000E+00  0.00000000000E+00  0.45593999997E+02  0.45594000000E+02  0.51100000000E-03 0. -1.
         11   -1    0    0    0    0 -0.00000000000E+00 -0.00000000000E+00 -0.45593999997E+02  0.45594000000E+02  0.51100000000E-03 0.  1.
         23    2    1    2    0    0 -0.44408920985E-15  0.00000000000E+00 -0.71054273576E-14  0.91188000000E+02  0.91188000000E+02 0.  0.
    9900012    2    3    3    0    0 -0.25086113838E+01  0.17853954950E+02  0.39478698155E+02  0.47787257536E+02  0.19999938410E+02 0.  0.
        -12    1    3    3    0    0  0.25086113838E+01 -0.17853954950E+02 -0.39478698155E+02  0.43400742464E+02  0.00000000000E+00 0.  1.
         11    1    4    4    0    0  0.12864989907E+01  0.39026584546E+01  0.12961211294E+02  0.13597015155E+02  0.51100000000E-03 0. -1.
        -11    1    4    4    0    0  0.24350315589E+01 -0.77885717685E+00  0.13001500038E+02  0.13250471716E+02  0.51100000000E-03 0.  1.
         12    1    4    4    0    0 -0.62301419335E+01  0.14730153672E+02  0.13515986823E+02  0.20939770665E+02  0.00000000000E+00 0. -1.
</event>
<event>
 8    1  0.3776180E-010  0.9118800E+02  0.7816164E-02  0.1184000E+00
        -11   -1    0    0    0    0  0.00000000000E+00  0.00000000000E+00  0.45593999997E+02  0.45594000000E+02  0.51100000000E-03 0. -1.
         11   -1    0    0    0    0 -0.00000000000E+00 -0.00000000000E+00 -0.45593999997E+02  0.45594000000E+02  0.51100000000E-03 0.  1.
         23    2    1    2    0    0  0.00000000000E+00  0.00000000000E+00  0.00000000000E+00  0.91188000000E+02  0.91188000000E+02 0.  0.
    9900012    2    3    3    0    0 -0.37567237406E+02 -0.11855315032E+02 -0.18214764424E+02  0.47787268856E+02  0.19999990022E+02 0.  0.
         12    1    3    3    0    0  0.37567237406E+02  0.11855315032E+02  0.18214764424E+02  0.43400731144E+02  0.00000000000E+00 0. -1.
         11    1    4    4    0    0 -0.10645189045E+02 -0.42272127140E+01 -0.14168260030E+01  0.11541090647E+02  0.51100000000E-03 0. -1.
        -11    1    4    4    0    0 -0.11062312218E+02 -0.71827365885E+01 -0.68731284751E-01  0.13189813522E+02  0.51100000000E-03 0.  1.
        -12    1    4    4    0    0 -0.15859736143E+02 -0.44536572958E+00 -0.16729207136E+02  0.23056364687E+02  0.00000000000E+00 0.  1.
</event>
<event>
 8    1  0.3776180E-010  0.9118800E+02  0.7816164E-02  0.1184000E+00
        -11   -1    0    0    0    0  0.00000000000E+00  0.00000000000E+00  0.45593999997E+02  0.45594000000E+02  0.51100000000E-03 0. -1.
         11   -1    0    0    0    0 -0.00000000000E+00 -0.00000000000E+00 -0.45593999997E+02  0.45594000000E+02  0.51100000000E-03 0.  1.
         23    2    1    2    0    0  0.00000000000E+00  0.00000000000E+00  0.00000000000E+00  0.91188000000E+02  0.91188000000E+02 0.  0.
    9900012    2    3    3    0    0  0.11812392161E+02  0.19277756142E+02 -0.37046711620E+02  0.47787270372E+02  0.19999996932E+02 0.  0.
         12    1    3    3    0    0 -0.11812392161E+02 -0.19277756142E+02  0.37046711620E+02  0.43400729628E+02  0.00000000000E+00 0. -1.
         11    1    4    4    0    0 -0.15577377403E+01  0.23732022660E+01  0.15333060348E-01  0.28388151097E+01  0.51100000000E-03 0. -1.
        -11    1    4    4    0    0 -0.30509939201E+00  0.63127496724E+01 -0.18622552656E+02  0.19665791664E+02  0.51100000000E-03 0.  1.
         12    1    4    4    0    0  0.13675229293E+02  0.10591804204E+02 -0.18439492024E+02  0.25282663598E+02  0.00000000000E+00 0. -1.
</event>
<event>
 8    1  0.3776180E-010  0.9118800E+02  0.7816164E-02  0.1184000E+00
        -11   -1    0    0    0    0  0.00000000000E+00  0.00000000000E+00  0.45593999997E+02  0.45594000000E+02  0.51100000000E-03 0. -1.
         11   -1    0    0    0    0 -0.00000000000E+00 -0.00000000000E+00 -0.45593999997E+02  0.45594000000E+02  0.51100000000E-03 0.  1.
         23    2    1    2    0    0  0.00000000000E+00  0.44408920985E-15  0.00000000000E+00  0.91188000000E+02  0.91188000000E+02 0.  0.
    9900012    2    3    3    0    0  0.34296086168E+02  0.23389547259E+01 -0.26493981730E+02  0.47787270703E+02  0.19999998442E+02 0.  0.
         12    1    3    3    0    0 -0.34296086168E+02 -0.23389547259E+01  0.26493981730E+02  0.43400729297E+02  0.00000000000E+00 0. -1.
         11    1    4    4    0    0  0.11381505350E+02 -0.36423999106E+01 -0.16998411660E+02  0.20778636633E+02  0.51100000000E-03 0. -1.
        -11    1    4    4    0    0  0.59449659301E+01  0.50370013789E+01 -0.55340445890E+01  0.95571780655E+01  0.51100000000E-03 0.  1.
        -12    1    4    4    0    0  0.16969614888E+02  0.94435325767E+00 -0.39615254813E+01  0.17451456004E+02  0.00000000000E+00 0.  1.
</event>
<event>
 8    1  0.3776180E-010  0.9118800E+02  0.7816164E-02  0.1184000E+00
        -11   -1    0    0    0    0  0.00000000000E+00  0.00000000000E+00  0.45593999997E+02  0.45594000000E+02  0.51100000000E-03 0. -1.
         11   -1    0    0    0    0 -0.00000000000E+00 -0.00000000000E+00 -0.45593999997E+02  0.45594000000E+02  0.51100000000E-03 0.  1.
         23    2    1    2    0    0  0.00000000000E+00  0.00000000000E+00  0.35527136788E-14  0.91188000000E+02  0.91188000000E+02 0.  0.
    9900012    2    3    3    0    0 -0.70943496385E+01  0.32848702149E+02  0.27463725964E+02  0.47787271049E+02  0.20000000019E+02 0.  0.
        -12    1    3    3    0    0  0.70943496385E+01 -0.32848702149E+02 -0.27463725964E+02  0.43400728951E+02  0.00000000000E+00 0.  1.
         11    1    4    4    0    0 -0.18968584384E+01  0.12406537156E+02  0.20970945108E+02  0.24439737624E+02  0.51100000000E-03 0. -1.
        -11    1    4    4    0    0 -0.83558780945E+00  0.24337204481E+00 -0.10371796030E+01  0.13539493084E+01  0.51100000000E-03 0.  1.
         12    1    4    4    0    0 -0.43619033907E+01  0.20198792949E+02  0.75299604590E+01  0.21993584116E+02  0.00000000000E+00 0. -1.
</event>
<event>
 8    1  0.3776180E-010  0.9118800E+02  0.7816164E-02  0.1184000E+00
        -11   -1    0    0    0    0  0.00000000000E+00  0.00000000000E+00  0.45593999997E+02  0.45594000000E+02  0.51100000000E-03 0.  1.
         11   -1    0    0    0    0 -0.00000000000E+00 -0.00000000000E+00 -0.45593999997E+02  0.45594000000E+02  0.51100000000E-03 0. -1.
         23    2    1    2    0    0  0.00000000000E+00 -0.35527136788E-14  0.00000000000E+00  0.91188000000E+02  0.91188000000E+02 0.  0.
    9900012    2    3    3    0    0  0.19111259492E+02 -0.30183458798E+02  0.24644311135E+02  0.47787268489E+02  0.19999988348E+02 0.  0.
        -12    1    3    3    0    0 -0.19111259492E+02  0.30183458798E+02 -0.24644311135E+02  0.43400731511E+02  0.00000000000E+00 0.  1.
         11    1    4    4    0    0  0.71702350490E+01 -0.20760866966E+02  0.11986326284E+02  0.25021948083E+02  0.51100000000E-03 0. -1.
        -11    1    4    4    0    0  0.18477358678E+01 -0.44669077912E+01 -0.11393630930E+01  0.49664415401E+01  0.51100000000E-03 0.  1.
        -12    1    4    4    0    0  0.10093288576E+02 -0.49556840410E+01  0.13797347944E+02  0.17798878866E+02  0.00000000000E+00 0.  1.
</event>
<event>
 8    1  0.3776180E-010  0.9118800E+02  0.7816164E-02  0.1184000E+00
        -11   -1    0    0    0    0  0.00000000000E+00  0.00000000000E+00  0.45593999997E+02  0.45594000000E+02  0.51100000000E-03 0. -1.
         11   -1    0    0    0    0 -0.00000000000E+00 -0.00000000000E+00 -0.45593999997E+02  0.45594000000E+02  0.51100000000E-03 0.  1.
         23    2    1    2    0    0  0.00000000000E+00  0.00000000000E+00  0.00000000000E+00  0.91188000000E+02  0.91188000000E+02 0.  0.
    9900012    2    3    3    0    0 -0.11127707378E+02 -0.57396500952E+01  0.41555427148E+02  0.47787274428E+02  0.20000015429E+02 0.  0.
        -12    1    3    3    0    0  0.11127707378E+02  0.57396500952E+01 -0.41555427148E+02  0.43400725572E+02  0.00000000000E+00 0.  1.
         11    1    4    4    0    0  0.61426528435E+00 -0.45299035110E+01  0.23445023128E+01  0.51375129211E+01  0.51100000000E-03 0. -1.
        -11    1    4    4    0    0 -0.53112223992E+01 -0.25595325136E+01  0.47590465621E+01  0.75768604648E+01  0.51100000000E-03 0.  1.
         12    1    4    4    0    0 -0.64307502630E+01  0.13497859295E+01  0.34451878273E+02  0.35072901042E+02  0.00000000000E+00 0. -1.
</event>
<event>
 8    1  0.3776180E-010  0.9118800E+02  0.7816164E-02  0.1184000E+00
        -11   -1    0    0    0    0  0.00000000000E+00  0.00000000000E+00  0.45593999997E+02  0.45594000000E+02  0.51100000000E-03 0. -1.
         11   -1    0    0    0    0 -0.00000000000E+00 -0.00000000000E+00 -0.45593999997E+02  0.45594000000E+02  0.51100000000E-03 0.  1.
         23    2    1    2    0    0  0.00000000000E+00  0.35527136788E-14 -0.17763568394E-14  0.91188000000E+02  0.91188000000E+02 0.  0.
    9900012    2    3    3    0    0 -0.32651921845E+02 -0.25555534551E+02  0.12821426154E+02  0.47787282092E+02  0.20000050369E+02 0.  0.
        -12    1    3    3    0    0  0.32651921845E+02  0.25555534551E+02 -0.12821426154E+02  0.43400717908E+02  0.00000000000E+00 0.  1.
         11    1    4    4    0    0 -0.20781229373E+02 -0.18112958810E+02  0.94121920365E+01  0.29129506180E+02  0.51100000000E-03 0. -1.
        -11    1    4    4    0    0 -0.27410485129E+01 -0.86553532349E+01  0.97196726549E+00  0.91308930120E+01  0.51100000000E-03 0.  1.
        -12    1    4    4    0    0 -0.91296439591E+01  0.12127774947E+01  0.24372668517E+01  0.95268828994E+01  0.00000000000E+00 0.  1.
</event>
<event>
 8    1  0.3776180E-010  0.9118800E+02  0.7816164E-02  0.1184000E+00
        -11   -1    0    0    0    0  0.00000000000E+00  0.00000000000E+00  0.45593999997E+02  0.45594000000E+02  0.51100000000E-03 0. -1.
         11   -1    0    0    0    0 -0.00000000000E+00 -0.00000000000E+00 -0.45593999997E+02  0.45594000000E+02  0.51100000000E-03 0.  1.
         23    2    1    2    0    0  0.00000000000E+00  0.00000000000E+00 -0.17763568394E-14  0.91188000000E+02  0.91188000000E+02 0.  0.
    9900012    2    3    3    0    0 -0.19713182793E+02 -0.36610003107E+02 -0.12438694149E+02  0.47787274022E+02  0.20000013575E+02 0.  0.
         12    1    3    3    0    0  0.19713182793E+02  0.36610003107E+02  0.12438694149E+02  0.43400725978E+02  0.00000000000E+00 0. -1.
         11    1    4    4    0    0 -0.64820747677E+01 -0.15438319502E+02 -0.47323077890E+00  0.16750610436E+02  0.51100000000E-03 0. -1.
        -11    1    4    4    0    0 -0.11789211344E+02 -0.11434951701E+02 -0.12269757956E+01  0.16469641599E+02  0.51100000000E-03 0.  1.
        -12    1    4    4    0    0 -0.14418966815E+01 -0.97367319036E+01 -0.10738487574E+02  0.14567021988E+02  0.00000000000E+00 0.  1.
</event>
<event>
 8    1  0.3776180E-010  0.9118800E+02  0.7816164E-02  0.1184000E+00
        -11   -1    0    0    0    0  0.00000000000E+00  0.00000000000E+00  0.45593999997E+02  0.45594000000E+02  0.51100000000E-03 0.  1.
         11   -1    0    0    0    0 -0.00000000000E+00 -0.00000000000E+00 -0.45593999997E+02  0.45594000000E+02  0.51100000000E-03 0. -1.
         23    2    1    2    0    0  0.44408920985E-15  0.00000000000E+00  0.00000000000E+00  0.91188000000E+02  0.91188000000E+02 0.  0.
    9900012    2    3    3    0    0  0.38246328993E+01  0.39029830775E+02  0.18592137568E+02  0.47787273204E+02  0.20000009844E+02 0.  0.
        -12    1    3    3    0    0 -0.38246328993E+01 -0.39029830775E+02 -0.18592137568E+02  0.43400726796E+02  0.00000000000E+00 0.  1.
         11    1    4    4    0    0  0.44744766973E+00  0.44172941690E+01 -0.19999484147E+01  0.48695473213E+01  0.51100000000E-03 0. -1.
        -11    1    4    4    0    0 -0.20566845997E+01  0.20804165870E+02  0.52106630114E+01  0.21545168330E+02  0.51100000000E-03 0.  1.
        -12    1    4    4    0    0  0.54338698293E+01  0.13808370735E+02  0.15381422971E+02  0.21372557552E+02  0.00000000000E+00 0.  1.
</event>
<event>
 8    1  0.3776180E-010  0.9118800E+02  0.7816164E-02  0.1184000E+00
        -11   -1    0    0    0    0  0.00000000000E+00  0.00000000000E+00  0.45593999997E+02  0.45594000000E+02  0.51100000000E-03 0. -1.
         11   -1    0    0    0    0 -0.00000000000E+00 -0.00000000000E+00 -0.45593999997E+02  0.45594000000E+02  0.51100000000E-03 0.  1.
         23    2    1    2    0    0 -0.88817841970E-15 -0.35527136788E-14  0.00000000000E+00  0.91188000000E+02  0.91188000000E+02 0.  0.
    9900012    2    3    3    0    0 -0.76592486564E+01 -0.27239464820E+02  0.32908522332E+02  0.47787269871E+02  0.19999994649E+02 0.  0.
        -12    1    3    3    0    0  0.76592486564E+01  0.27239464820E+02 -0.32908522332E+02  0.43400730129E+02  0.00000000000E+00 0.  1.
         11    1    4    4    0    0 -0.40119287681E+01 -0.16577578070E+02  0.26150265691E+02  0.31220955512E+02  0.51100000000E-03 0. -1.
        -11    1    4    4    0    0  0.13670668347E+01  0.13952337380E+01  0.22913305200E+00  0.19667361620E+01  0.51100000000E-03 0.  1.
        -12    1    4    4    0    0 -0.50143867230E+01 -0.12057120489E+02  0.65291235889E+01  0.14599578197E+02  0.00000000000E+00 0.  1.
</event>
<event>
 8    1  0.3776180E-010  0.9118800E+02  0.7816164E-02  0.1184000E+00
        -11   -1    0    0    0    0  0.00000000000E+00  0.00000000000E+00  0.45593999997E+02  0.45594000000E+02  0.51100000000E-03 0. -1.
         11   -1    0    0    0    0 -0.00000000000E+00 -0.00000000000E+00 -0.45593999997E+02  0.45594000000E+02  0.51100000000E-03 0.  1.
         23    2    1    2    0    0 -0.35527136788E-14  0.00000000000E+00  0.00000000000E+00  0.91188000000E+02  0.91188000000E+02 0.  0.
    9900012    2    3    3    0    0 -0.16899787063E+02 -0.22858001291E+02 -0.32795310643E+02  0.47787269292E+02  0.19999992012E+02 0.  0.
         12    1    3    3    0    0  0.16899787063E+02  0.22858001291E+02  0.32795310643E+02  0.43400730708E+02  0.00000000000E+00 0. -1.
         11    1    4    4    0    0  0.27704714548E+01 -0.45237238342E+01 -0.47014381087E+01  0.70882374368E+01  0.51100000000E-03 0. -1.
        -11    1    4    4    0    0  0.15323227675E+01 -0.24185904101E+01 -0.36456927037E+01  0.46355871458E+01  0.51100000000E-03 0.  1.
        -12    1    4    4    0    0 -0.21202581285E+02 -0.15915687047E+02 -0.24448179830E+02  0.36063444710E+02  0.00000000000E+00 0.  1.
</event>
<event>
 8    1  0.3776180E-010  0.9118800E+02  0.7816164E-02  0.1184000E+00
        -11   -1    0    0    0    0  0.00000000000E+00  0.00000000000E+00  0.45593999997E+02  0.45594000000E+02  0.51100000000E-03 0. -1.
         11   -1    0    0    0    0 -0.00000000000E+00 -0.00000000000E+00 -0.45593999997E+02  0.45594000000E+02  0.51100000000E-03 0.  1.
         23    2    1    2    0    0  0.00000000000E+00  0.00000000000E+00  0.00000000000E+00  0.91188000000E+02  0.91188000000E+02 0.  0.
    9900012    2    3    3    0    0  0.28111848835E+02 -0.16215567367E+02  0.28816707868E+02  0.47787270487E+02  0.19999997457E+02 0.  0.
        -12    1    3    3    0    0 -0.28111848835E+02  0.16215567367E+02 -0.28816707868E+02  0.43400729513E+02  0.00000000000E+00 0.  1.
         11    1    4    4    0    0  0.23252732934E+01 -0.23683206383E+01  0.61380751851E+01  0.69779514024E+01  0.51100000000E-03 0. -1.
        -11    1    4    4    0    0  0.27396586120E+02 -0.94653122149E+01  0.21204590700E+02  0.35913781942E+02  0.51100000000E-03 0.  1.
         12    1    4    4    0    0 -0.16100105783E+01 -0.43819345137E+01  0.14740419825E+01  0.48955371422E+01  0.00000000000E+00 0. -1.
</event>
<event>
 8    1  0.3776180E-010  0.9118800E+02  0.7816164E-02  0.1184000E+00
        -11   -1    0    0    0    0  0.00000000000E+00  0.00000000000E+00  0.45593999997E+02  0.45594000000E+02  0.51100000000E-03 0. -1.
         11   -1    0    0    0    0 -0.00000000000E+00 -0.00000000000E+00 -0.45593999997E+02  0.45594000000E+02  0.51100000000E-03 0.  1.
         23    2    1    2    0    0  0.00000000000E+00  0.00000000000E+00  0.71054273576E-14  0.91188000000E+02  0.91188000000E+02 0.  0.
    9900012    2    3    3    0    0  0.21893433419E+02  0.10574971717E+01 -0.37459080721E+02  0.47787268951E+02  0.19999990454E+02 0.  0.
         12    1    3    3    0    0 -0.21893433419E+02 -0.10574971717E+01  0.37459080721E+02  0.43400731049E+02  0.00000000000E+00 0. -1.
         11    1    4    4    0    0 -0.16323336703E+01 -0.89131829041E+00 -0.63144058999E+00  0.19640974991E+01  0.51100000000E-03 0. -1.
        -11    1    4    4    0    0  0.20081550471E+01 -0.42037472146E+00  0.96686375145E+00  0.22680889257E+01  0.51100000000E-03 0.  1.
        -12    1    4    4    0    0  0.21517612043E+02  0.23691901836E+01 -0.37794503882E+02  0.43555082526E+02  0.00000000000E+00 0.  1.
</event>
<event>
 8    1  0.3776180E-010  0.9118800E+02  0.7816164E-02  0.1184000E+00
        -11   -1    0    0    0    0  0.00000000000E+00  0.00000000000E+00  0.45593999997E+02  0.45594000000E+02  0.51100000000E-03 0. -1.
         11   -1    0    0    0    0 -0.00000000000E+00 -0.00000000000E+00 -0.45593999997E+02  0.45594000000E+02  0.51100000000E-03 0.  1.
         23    2    1    2    0    0  0.00000000000E+00  0.00000000000E+00  0.00000000000E+00  0.91188000000E+02  0.91188000000E+02 0.  0.
    9900012    2    3    3    0    0  0.13744524570E+02  0.40096169004E+02 -0.93278374250E+01  0.47787271026E+02  0.19999999915E+02 0.  0.
         12    1    3    3    0    0 -0.13744524570E+02 -0.40096169004E+02  0.93278374250E+01  0.43400728974E+02  0.00000000000E+00 0. -1.
         11    1    4    4    0    0  0.33688376770E+01  0.27511503955E+01 -0.39008921753E+01  0.58425042419E+01  0.51100000000E-03 0. -1.
        -11    1    4    4    0    0 -0.31598249612E+01  0.36024763456E+01 -0.26668188329E+01  0.54839996859E+01  0.51100000000E-03 0.  1.
        -12    1    4    4    0    0  0.13535511854E+02  0.33742542263E+02 -0.27601264169E+01  0.36460767098E+02  0.00000000000E+00 0.  1.
</event>
<event>
 8    1  0.3776180E-010  0.9118800E+02  0.7816164E-02  0.1184000E+00
        -11   -1    0    0    0    0  0.00000000000E+00  0.00000000000E+00  0.45593999997E+02  0.45594000000E+02  0.51100000000E-03 0.  1.
         11   -1    0    0    0    0 -0.00000000000E+00 -0.00000000000E+00 -0.45593999997E+02  0.45594000000E+02  0.51100000000E-03 0. -1.
         23    2    1    2    0    0 -0.35527136788E-14 -0.35527136788E-14  0.00000000000E+00  0.91188000000E+02  0.91188000000E+02 0.  0.
    9900012    2    3    3    0    0 -0.22017236978E+02 -0.26115885514E+02 -0.26773575579E+02  0.47787279388E+02  0.20000038042E+02 0.  0.
         12    1    3    3    0    0  0.22017236978E+02  0.26115885514E+02  0.26773575579E+02  0.43400720612E+02  0.00000000000E+00 0. -1.
         11    1    4    4    0    0 -0.62396732092E+01 -0.92942546427E+01 -0.80374383134E+01  0.13781041544E+02  0.51100000000E-03 0. -1.
        -11    1    4    4    0    0 -0.19138309704E+02 -0.14567555574E+02 -0.14214172377E+02  0.27937989733E+02  0.51100000000E-03 0.  1.
         12    1    4    4    0    0  0.33607459349E+01 -0.22540752981E+01 -0.45219648884E+01  0.60682481113E+01  0.00000000000E+00 0. -1.
</event>
<event>
 8    1  0.3776180E-010  0.9118800E+02  0.7816164E-02  0.1184000E+00
        -11   -1    0    0    0    0  0.00000000000E+00  0.00000000000E+00  0.45593999997E+02  0.45594000000E+02  0.51100000000E-03 0. -1.
         11   -1    0    0    0    0 -0.00000000000E+00 -0.00000000000E+00 -0.45593999997E+02  0.45594000000E+02  0.51100000000E-03 0.  1.
         23    2    1    2    0    0  0.00000000000E+00  0.00000000000E+00  0.00000000000E+00  0.91188000000E+02  0.91188000000E+02 0.  0.
    9900012    2    3    3    0    0  0.14137260458E+02 -0.26197808945E+02 -0.31582214939E+02  0.47787266973E+02  0.19999981438E+02 0.  0.
         12    1    3    3    0    0 -0.14137260458E+02  0.26197808945E+02  0.31582214939E+02  0.43400733027E+02  0.00000000000E+00 0. -1.
         11    1    4    4    0    0 -0.83685488867E+00 -0.96689522020E+01 -0.70272532379E+01  0.11982122146E+02  0.51100000000E-03 0.  1.
        -11    1    4    4    0    0  0.27209408369E+01 -0.85963815739E+00  0.13397878594E+01  0.31523845845E+01  0.51100000000E-03 0. -1.
         12    1    4    4    0    0  0.12253174509E+02 -0.15669218586E+02 -0.25894749561E+02  0.32652760243E+02  0.00000000000E+00 0. -1.
</event>
<event>
 8    1  0.3776180E-010  0.9118800E+02  0.7816164E-02  0.1184000E+00
        -11   -1    0    0    0    0  0.00000000000E+00  0.00000000000E+00  0.45593999997E+02  0.45594000000E+02  0.51100000000E-03 0. -1.
         11   -1    0    0    0    0 -0.00000000000E+00 -0.00000000000E+00 -0.45593999997E+02  0.45594000000E+02  0.51100000000E-03 0.  1.
         23    2    1    2    0    0  0.00000000000E+00  0.00000000000E+00  0.00000000000E+00  0.91188000000E+02  0.91188000000E+02 0.  0.
    9900012    2    3    3    0    0  0.21559074014E+02  0.36571635321E+02 -0.90191545694E+01  0.47787270380E+02  0.19999996971E+02 0.  0.
         12    1    3    3    0    0 -0.21559074014E+02 -0.36571635321E+02  0.90191545694E+01  0.43400729620E+02  0.00000000000E+00 0. -1.
         11    1    4    4    0    0 -0.81698257047E-01 -0.27083213426E+00 -0.24383615897E+01  0.24547163081E+01  0.51100000000E-03 0. -1.
        -11    1    4    4    0    0  0.27602799270E+01  0.53760006352E+00 -0.32182302983E+01  0.42737765053E+01  0.51100000000E-03 0.  1.
        -12    1    4    4    0    0  0.18880492344E+02  0.36304867392E+02 -0.33625626814E+01  0.41058777567E+02  0.00000000000E+00 0.  1.
</event>
<event>
 8    1  0.3776180E-010  0.9118800E+02  0.7816164E-02  0.1184000E+00
        -11   -1    0    0    0    0  0.00000000000E+00  0.00000000000E+00  0.45593999997E+02  0.45594000000E+02  0.51100000000E-03 0. -1.
         11   -1    0    0    0    0 -0.00000000000E+00 -0.00000000000E+00 -0.45593999997E+02  0.45594000000E+02  0.51100000000E-03 0.  1.
         23    2    1    2    0    0 -0.35527136788E-14  0.00000000000E+00  0.00000000000E+00  0.91188000000E+02  0.91188000000E+02 0.  0.
    9900012    2    3    3    0    0  0.21050870969E+02 -0.30940939417E+02 -0.21980502478E+02  0.47787269710E+02  0.19999993914E+02 0.  0.
         12    1    3    3    0    0 -0.21050870969E+02  0.30940939417E+02  0.21980502478E+02  0.43400730290E+02  0.00000000000E+00 0. -1.
         11    1    4    4    0    0  0.56280818204E+00  0.10382842819E+01 -0.25296711808E+01  0.27917779002E+01  0.51100000000E-03 0. -1.
        -11    1    4    4    0    0  0.14440071118E+02 -0.19175791616E+02 -0.19354056043E+02  0.30835144294E+02  0.51100000000E-03 0.  1.
        -12    1    4    4    0    0  0.60479916691E+01 -0.12803432082E+02 -0.96775253826E-01  0.14160347516E+02  0.00000000000E+00 0.  1.
</event>
<event>
 8    1  0.3776180E-010  0.9118800E+02  0.7816164E-02  0.1184000E+00
        -11   -1    0    0    0    0  0.00000000000E+00  0.00000000000E+00  0.45593999997E+02  0.45594000000E+02  0.51100000000E-03 0. -1.
         11   -1    0    0    0    0 -0.00000000000E+00 -0.00000000000E+00 -0.45593999997E+02  0.45594000000E+02  0.51100000000E-03 0.  1.
         23    2    1    2    0    0  0.00000000000E+00  0.00000000000E+00  0.71054273576E-14  0.91188000000E+02  0.91188000000E+02 0.  0.
    9900012    2    3    3    0    0 -0.16332782708E+02 -0.14399728581E+02 -0.37543463361E+02  0.47787267111E+02  0.19999982064E+02 0.  0.
         12    1    3    3    0    0  0.16332782708E+02  0.14399728581E+02  0.37543463361E+02  0.43400732889E+02  0.00000000000E+00 0. -1.
         11    1    4    4    0    0  0.14035234640E+01 -0.36334945863E+00 -0.28913043237E+01  0.32344306913E+01  0.51100000000E-03 0. -1.
        -11    1    4    4    0    0 -0.97958218150E+01 -0.94503595233E+01 -0.67708483367E+01  0.15202361909E+02  0.51100000000E-03 0.  1.
        -12    1    4    4    0    0 -0.79404843567E+01 -0.45860195992E+01 -0.27881310701E+02  0.29350474510E+02  0.00000000000E+00 0.  1.
</event>
<event>
 8    1  0.3776180E-010  0.9118800E+02  0.7816164E-02  0.1184000E+00
        -11   -1    0    0    0    0  0.00000000000E+00  0.00000000000E+00  0.45593999997E+02  0.45594000000E+02  0.51100000000E-03 0. -1.
         11   -1    0    0    0    0 -0.00000000000E+00 -0.00000000000E+00 -0.45593999997E+02  0.45594000000E+02  0.51100000000E-03 0.  1.
         23    2    1    2    0    0  0.00000000000E+00  0.00000000000E+00  0.00000000000E+00  0.91188000000E+02  0.91188000000E+02 0.  0.
    9900012    2    3    3    0    0  0.26325272490E+02  0.48203534405E+01 -0.34166761431E+02  0.47787269987E+02  0.19999995181E+02 0.  0.
         12    1    3    3    0    0 -0.26325272490E+02 -0.48203534405E+01  0.34166761431E+02  0.43400730013E+02  0.00000000000E+00 0. -1.
         11    1    4    4    0    0  0.12979552541E+02  0.68012034921E+01 -0.18113154527E+02  0.23298315825E+02  0.51100000000E-03 0. -1.
        -11    1    4    4    0    0  0.22263316641E+01 -0.46836624822E+01 -0.10625843891E+02  0.11823781357E+02  0.51100000000E-03 0.  1.
         12    1    4    4    0    0  0.11119388285E+02  0.27028124306E+01 -0.54277630130E+01  0.12665172806E+02  0.00000000000E+00 0. -1.
</event>
<event>
 8    1  0.3776180E-010  0.9118800E+02  0.7816164E-02  0.1184000E+00
        -11   -1    0    0    0    0  0.00000000000E+00  0.00000000000E+00  0.45593999997E+02  0.45594000000E+02  0.51100000000E-03 0. -1.
         11   -1    0    0    0    0 -0.00000000000E+00 -0.00000000000E+00 -0.45593999997E+02  0.45594000000E+02  0.51100000000E-03 0.  1.
         23    2    1    2    0    0  0.00000000000E+00  0.00000000000E+00  0.00000000000E+00  0.91188000000E+02  0.91188000000E+02 0.  0.
    9900012    2    3    3    0    0  0.89555046046E+01  0.25883653163E+02 -0.33666877084E+02  0.47787272168E+02  0.20000005122E+02 0.  0.
         12    1    3    3    0    0 -0.89555046046E+01 -0.25883653163E+02  0.33666877084E+02  0.43400727832E+02  0.00000000000E+00 0. -1.
         11    1    4    4    0    0  0.77080891945E+00  0.81962231741E+00  0.10967384101E+01  0.15712296251E+01  0.51100000000E-03 0. -1.
        -11    1    4    4    0    0  0.10391167868E+02  0.13414630547E+02 -0.12793970345E+02  0.21251220196E+02  0.51100000000E-03 0.  1.
        -12    1    4    4    0    0 -0.22064721832E+01  0.11649400298E+02 -0.21969645150E+02  0.24964822347E+02  0.00000000000E+00 0.  1.
</event>
<event>
 8    1  0.3776180E-010  0.9118800E+02  0.7816164E-02  0.1184000E+00
        -11   -1    0    0    0    0  0.00000000000E+00  0.00000000000E+00  0.45593999997E+02  0.45594000000E+02  0.51100000000E-03 0. -1.
         11   -1    0    0    0    0 -0.00000000000E+00 -0.00000000000E+00 -0.45593999997E+02  0.45594000000E+02  0.51100000000E-03 0.  1.
         23    2    1    2    0    0  0.00000000000E+00  0.88817841970E-15  0.17763568394E-14  0.91188000000E+02  0.91188000000E+02 0.  0.
    9900012    2    3    3    0    0 -0.39794796404E+02  0.77953617062E+01 -0.15467058478E+02  0.47787269789E+02  0.19999994274E+02 0.  0.
         12    1    3    3    0    0  0.39794796404E+02 -0.77953617062E+01  0.15467058478E+02  0.43400730211E+02  0.00000000000E+00 0. -1.
         11    1    4    4    0    0 -0.81006147887E+01 -0.15544072545E+00 -0.23893543849E+00  0.81056284260E+01  0.51100000000E-03 0. -1.
        -11    1    4    4    0    0 -0.24060225202E+01  0.12966858167E+01 -0.84646616708E+01  0.88949893725E+01  0.51100000000E-03 0.  1.
        -12    1    4    4    0    0 -0.29288159095E+02  0.66541166149E+01 -0.67634613683E+01  0.30786651990E+02  0.00000000000E+00 0.  1.
</event>
<event>
 8    1  0.3776180E-010  0.9118800E+02  0.7816164E-02  0.1184000E+00
        -11   -1    0    0    0    0  0.00000000000E+00  0.00000000000E+00  0.45593999997E+02  0.45594000000E+02  0.51100000000E-03 0. -1.
         11   -1    0    0    0    0 -0.00000000000E+00 -0.00000000000E+00 -0.45593999997E+02  0.45594000000E+02  0.51100000000E-03 0.  1.
         23    2    1    2    0    0  0.00000000000E+00  0.00000000000E+00  0.00000000000E+00  0.91188000000E+02  0.91188000000E+02 0.  0.
    9900012    2    3    3    0    0  0.37171733794E+02  0.12779063196E+02 -0.18400566407E+02  0.47787273122E+02  0.20000009473E+02 0.  0.
         12    1    3    3    0    0 -0.37171733794E+02 -0.12779063196E+02  0.18400566407E+02  0.43400726878E+02  0.00000000000E+00 0. -1.
         11    1    4    4    0    0  0.21221953373E+01  0.36425674979E+01 -0.58667828636E+01  0.72243444309E+01  0.51100000000E-03 0. -1.
        -11    1    4    4    0    0  0.11475318313E+02 -0.30976746974E+01 -0.54424443288E+01  0.13072823699E+02  0.51100000000E-03 0.  1.
         12    1    4    4    0    0  0.23574220143E+02  0.12234170396E+02 -0.70913392150E+01  0.27490104993E+02  0.00000000000E+00 0. -1.
</event>
<event>
 8    1  0.3776180E-010  0.9118800E+02  0.7816164E-02  0.1184000E+00
        -11   -1    0    0    0    0  0.00000000000E+00  0.00000000000E+00  0.45593999997E+02  0.45594000000E+02  0.51100000000E-03 0.  1.
         11   -1    0    0    0    0 -0.00000000000E+00 -0.00000000000E+00 -0.45593999997E+02  0.45594000000E+02  0.51100000000E-03 0. -1.
         23    2    1    2    0    0  0.00000000000E+00 -0.17763568394E-14  0.00000000000E+00  0.91188000000E+02  0.91188000000E+02 0.  0.
    9900012    2    3    3    0    0  0.42548529089E+02 -0.70616039712E+01  0.48352624339E+01  0.47787270270E+02  0.19999996468E+02 0.  0.
         12    1    3    3    0    0 -0.42548529089E+02  0.70616039712E+01 -0.48352624339E+01  0.43400729730E+02  0.00000000000E+00 0. -1.
         11    1    4    4    0    0  0.15083429826E+02 -0.99443623985E+01  0.70443138761E+01  0.19391301067E+02  0.51100000000E-03 0. -1.
        -11    1    4    4    0    0  0.41951437464E+01 -0.71879513520E+00 -0.23224534196E+01  0.48486789589E+01  0.51100000000E-03 0.  1.
        -12    1    4    4    0    0  0.23269955517E+02  0.36015535625E+01  0.11340197730E+00  0.23547290244E+02  0.00000000000E+00 0.  1.
</event>
<event>
 8    1  0.3776180E-010  0.9118800E+02  0.7816164E-02  0.1184000E+00
        -11   -1    0    0    0    0  0.00000000000E+00  0.00000000000E+00  0.45593999997E+02  0.45594000000E+02  0.51100000000E-03 0. -1.
         11   -1    0    0    0    0 -0.00000000000E+00 -0.00000000000E+00 -0.45593999997E+02  0.45594000000E+02  0.51100000000E-03 0.  1.
         23    2    1    2    0    0  0.00000000000E+00  0.00000000000E+00  0.00000000000E+00  0.91188000000E+02  0.91188000000E+02 0.  0.
    9900012    2    3    3    0    0  0.36898255750E+01  0.12240326673E+02 -0.41475083554E+02  0.47787274596E+02  0.20000016191E+02 0.  0.
         12    1    3    3    0    0 -0.36898255750E+01 -0.12240326673E+02  0.41475083554E+02  0.43400725404E+02  0.00000000000E+00 0. -1.
         11    1    4    4    0    0  0.47948601219E+01 -0.10072829842E+01 -0.24619825992E+01  0.54833075036E+01  0.51100000000E-03 0. -1.
        -11    1    4    4    0    0  0.37327453643E+01  0.94436826463E+01 -0.22663501191E+02  0.24834468313E+02  0.51100000000E-03 0.  1.
        -12    1    4    4    0    0 -0.48377799113E+01  0.38039270105E+01 -0.16349599763E+02  0.17469498779E+02  0.00000000000E+00 0.  1.
</event>
<event>
 8    1  0.3776180E-010  0.9118800E+02  0.7816164E-02  0.1184000E+00
        -11   -1    0    0    0    0  0.00000000000E+00  0.00000000000E+00  0.45593999997E+02  0.45594000000E+02  0.51100000000E-03 0. -1.
         11   -1    0    0    0    0 -0.00000000000E+00 -0.00000000000E+00 -0.45593999997E+02  0.45594000000E+02  0.51100000000E-03 0.  1.
         23    2    1    2    0    0  0.00000000000E+00  0.35527136788E-14  0.00000000000E+00  0.91188000000E+02  0.91188000000E+02 0.  0.
    9900012    2    3    3    0    0 -0.15062634232E+02  0.21708222729E+02 -0.34431004548E+02  0.47787263160E+02  0.19999964052E+02 0.  0.
         12    1    3    3    0    0  0.15062634232E+02 -0.21708222729E+02  0.34431004548E+02  0.43400736840E+02  0.00000000000E+00 0. -1.
         11    1    4    4    0    0 -0.81526765718E+01  0.93184486569E+01 -0.27867428537E+01  0.12691160571E+02  0.51100000000E-03 0. -1.
        -11    1    4    4    0    0  0.84182862299E+00  0.12227141582E+01 -0.20706629186E+01  0.25478128909E+01  0.51100000000E-03 0.  1.
         12    1    4    4    0    0 -0.77517862829E+01  0.11167059914E+02 -0.29573598776E+02  0.32548289698E+02  0.00000000000E+00 0. -1.
</event>
<event>
 8    1  0.3776180E-010  0.9118800E+02  0.7816164E-02  0.1184000E+00
        -11   -1    0    0    0    0  0.00000000000E+00  0.00000000000E+00  0.45593999997E+02  0.45594000000E+02  0.51100000000E-03 0. -1.
         11   -1    0    0    0    0 -0.00000000000E+00 -0.00000000000E+00 -0.45593999997E+02  0.45594000000E+02  0.51100000000E-03 0.  1.
         23    2    1    2    0    0  0.71054273576E-14  0.00000000000E+00  0.00000000000E+00  0.91188000000E+02  0.91188000000E+02 0.  0.
    9900012    2    3    3    0    0 -0.34767808999E+02  0.11137739919E+02  0.23468567673E+02  0.47787268880E+02  0.19999990133E+02 0.  0.
        -12    1    3    3    0    0  0.34767808999E+02 -0.11137739919E+02 -0.23468567673E+02  0.43400731120E+02  0.00000000000E+00 0.  1.
         11    1    4    4    0    0 -0.82960199264E+01 -0.42858855213E+01  0.59030399679E+01  0.11047110140E+02  0.51100000000E-03 0. -1.
        -11    1    4    4    0    0 -0.64783749779E+01  0.54307993530E+01  0.10108579130E+02  0.13177492032E+02  0.51100000000E-03 0.  1.
        -12    1    4    4    0    0 -0.19993414094E+02  0.99928260872E+01  0.74569485758E+01  0.23562666709E+02  0.00000000000E+00 0.  1.
</event>
<event>
 8    1  0.3776180E-010  0.9118800E+02  0.7816164E-02  0.1184000E+00
        -11   -1    0    0    0    0  0.00000000000E+00  0.00000000000E+00  0.45593999997E+02  0.45594000000E+02  0.51100000000E-03 0. -1.
         11   -1    0    0    0    0 -0.00000000000E+00 -0.00000000000E+00 -0.45593999997E+02  0.45594000000E+02  0.51100000000E-03 0.  1.
         23    2    1    2    0    0  0.00000000000E+00  0.44408920985E-15  0.00000000000E+00  0.91188000000E+02  0.91188000000E+02 0.  0.
    9900012    2    3    3    0    0  0.24619722088E+02 -0.21309621114E+01  0.35678446900E+02  0.47787270877E+02  0.19999999237E+02 0.  0.
        -12    1    3    3    0    0 -0.24619722088E+02  0.21309621114E+01 -0.35678446900E+02  0.43400729123E+02  0.00000000000E+00 0.  1.
         11    1    4    4    0    0  0.12871419265E+02 -0.31770688412E+01  0.86658663157E+01  0.15838700691E+02  0.51100000000E-03 0. -1.
        -11    1    4    4    0    0  0.12355725634E+01 -0.37297722314E+01  0.20208181914E+01  0.44183194634E+01  0.51100000000E-03 0.  1.
        -12    1    4    4    0    0  0.10512730260E+02  0.47758789612E+01  0.24991762393E+02  0.27530250723E+02  0.00000000000E+00 0.  1.
</event>
<event>
 8    1  0.3776180E-010  0.9118800E+02  0.7816164E-02  0.1184000E+00
        -11   -1    0    0    0    0  0.00000000000E+00  0.00000000000E+00  0.45593999997E+02  0.45594000000E+02  0.51100000000E-03 0. -1.
         11   -1    0    0    0    0 -0.00000000000E+00 -0.00000000000E+00 -0.45593999997E+02  0.45594000000E+02  0.51100000000E-03 0.  1.
         23    2    1    2    0    0  0.00000000000E+00  0.00000000000E+00  0.00000000000E+00  0.91188000000E+02  0.91188000000E+02 0.  0.
    9900012    2    3    3    0    0  0.21124521964E+02 -0.17380921248E+02  0.33693938439E+02  0.47787270292E+02  0.19999996570E+02 0.  0.
        -12    1    3    3    0    0 -0.21124521964E+02  0.17380921248E+02 -0.33693938439E+02  0.43400729708E+02  0.00000000000E+00 0.  1.
         11    1    4    4    0    0  0.82343536950E+01 -0.43850368283E+01  0.18182066720E+02  0.20435769602E+02  0.51100000000E-03 0. -1.
        -11    1    4    4    0    0 -0.23850226302E+01 -0.25901837964E+01  0.49164028115E+01  0.60471813196E+01  0.51100000000E-03 0.  1.
        -12    1    4    4    0    0  0.15275190899E+02 -0.10405700623E+02  0.10595468908E+02  0.21304319370E+02  0.00000000000E+00 0.  1.
</event>
<event>
 8    1  0.3776180E-010  0.9118800E+02  0.7816164E-02  0.1184000E+00
        -11   -1    0    0    0    0  0.00000000000E+00  0.00000000000E+00  0.45593999997E+02  0.45594000000E+02  0.51100000000E-03 0. -1.
         11   -1    0    0    0    0 -0.00000000000E+00 -0.00000000000E+00 -0.45593999997E+02  0.45594000000E+02  0.51100000000E-03 0.  1.
         23    2    1    2    0    0  0.35527136788E-14  0.00000000000E+00  0.00000000000E+00  0.91188000000E+02  0.91188000000E+02 0.  0.
    9900012    2    3    3    0    0  0.26212715016E+02  0.91399946962E+01 -0.33361313793E+02  0.47787272016E+02  0.20000004431E+02 0.  0.
         12    1    3    3    0    0 -0.26212715016E+02 -0.91399946962E+01  0.33361313793E+02  0.43400727984E+02  0.00000000000E+00 0. -1.
         11    1    4    4    0    0  0.52346388416E+01 -0.26933747627E+01 -0.13548893753E+02  0.14772550004E+02  0.51100000000E-03 0. -1.
        -11    1    4    4    0    0  0.87280343823E+01  0.17749124268E+01 -0.13008995739E+02  0.15765876718E+02  0.51100000000E-03 0.  1.
        -12    1    4    4    0    0  0.12250041792E+02  0.10058457032E+02 -0.68034243007E+01  0.17248845294E+02  0.00000000000E+00 0.  1.
</event>
<event>
 8    1  0.3776180E-010  0.9118800E+02  0.7816164E-02  0.1184000E+00
        -11   -1    0    0    0    0  0.00000000000E+00  0.00000000000E+00  0.45593999997E+02  0.45594000000E+02  0.51100000000E-03 0. -1.
         11   -1    0    0    0    0 -0.00000000000E+00 -0.00000000000E+00 -0.45593999997E+02  0.45594000000E+02  0.51100000000E-03 0.  1.
         23    2    1    2    0    0 -0.17763568394E-14  0.00000000000E+00  0.71054273576E-14  0.91188000000E+02  0.91188000000E+02 0.  0.
    9900012    2    3    3    0    0 -0.11960166707E+02  0.91893441460E+01  0.40695629102E+02  0.47787264275E+02  0.19999969133E+02 0.  0.
        -12    1    3    3    0    0  0.11960166707E+02 -0.91893441460E+01 -0.40695629102E+02  0.43400735725E+02  0.00000000000E+00 0.  1.
         11    1    4    4    0    0 -0.10087765867E+01  0.48142425895E+00  0.16828432882E+02  0.16865513720E+02  0.51100000000E-03 0. -1.
        -11    1    4    4    0    0 -0.53148483491E+01 -0.33960643189E+01  0.77747412552E+01  0.10011366924E+02  0.51100000000E-03 0.  1.
        -12    1    4    4    0    0 -0.56365417712E+01  0.12103984206E+02  0.16092454965E+02  0.20910383631E+02  0.00000000000E+00 0.  1.
</event>
<event>
 8    1  0.3776180E-010  0.9118800E+02  0.7816164E-02  0.1184000E+00
        -11   -1    0    0    0    0  0.00000000000E+00  0.00000000000E+00  0.45593999997E+02  0.45594000000E+02  0.51100000000E-03 0. -1.
         11   -1    0    0    0    0 -0.00000000000E+00 -0.00000000000E+00 -0.45593999997E+02  0.45594000000E+02  0.51100000000E-03 0.  1.
         23    2    1    2    0    0  0.00000000000E+00  0.00000000000E+00 -0.35527136788E-14  0.91188000000E+02  0.91188000000E+02 0.  0.
    9900012    2    3    3    0    0 -0.21289024506E+02 -0.33134619459E+02 -0.18234522318E+02  0.47787269876E+02  0.19999994674E+02 0.  0.
         12    1    3    3    0    0  0.21289024506E+02  0.33134619459E+02  0.18234522318E+02  0.43400730124E+02  0.00000000000E+00 0. -1.
         11    1    4    4    0    0 -0.27610165236E+01 -0.28886205592E+01  0.37163379122E+00  0.40131599662E+01  0.51100000000E-03 0. -1.
        -11    1    4    4    0    0  0.19324269525E+01 -0.11160625660E+02 -0.79287523505E+01  0.13826024488E+02  0.51100000000E-03 0.  1.
         12    1    4    4    0    0 -0.20460434934E+02 -0.19085373239E+02 -0.10677403759E+02  0.29948085422E+02  0.00000000000E+00 0. -1.
</event>
<event>
 8    1  0.3776180E-010  0.9118800E+02  0.7816164E-02  0.1184000E+00
        -11   -1    0    0    0    0  0.00000000000E+00  0.00000000000E+00  0.45593999997E+02  0.45594000000E+02  0.51100000000E-03 0. -1.
         11   -1    0    0    0    0 -0.00000000000E+00 -0.00000000000E+00 -0.45593999997E+02  0.45594000000E+02  0.51100000000E-03 0.  1.
         23    2    1    2    0    0  0.00000000000E+00  0.00000000000E+00  0.00000000000E+00  0.91188000000E+02  0.91188000000E+02 0.  0.
    9900012    2    3    3    0    0 -0.22161378470E+02 -0.91478118881E+01  0.36177533244E+02  0.47787273398E+02  0.20000010729E+02 0.  0.
        -12    1    3    3    0    0  0.22161378470E+02  0.91478118881E+01 -0.36177533244E+02  0.43400726602E+02  0.00000000000E+00 0.  1.
         11    1    4    4    0    0 -0.10232397036E+02 -0.64528542808E+01  0.10581736983E+02  0.16072163367E+02  0.51100000000E-03 0. -1.
        -11    1    4    4    0    0 -0.80625351842E+01  0.52260460603E+01  0.10485387700E+02  0.14221792661E+02  0.51100000000E-03 0.  1.
         12    1    4    4    0    0 -0.38664462501E+01 -0.79210036676E+01  0.15110408561E+02  0.17493317369E+02  0.00000000000E+00 0. -1.
</event>
<event>
 8    1  0.3776180E-010  0.9118800E+02  0.7816164E-02  0.1184000E+00
        -11   -1    0    0    0    0  0.00000000000E+00  0.00000000000E+00  0.45593999997E+02  0.45594000000E+02  0.51100000000E-03 0. -1.
         11   -1    0    0    0    0 -0.00000000000E+00 -0.00000000000E+00 -0.45593999997E+02  0.45594000000E+02  0.51100000000E-03 0.  1.
         23    2    1    2    0    0  0.00000000000E+00  0.00000000000E+00 -0.35527136788E-14  0.91188000000E+02  0.91188000000E+02 0.  0.
    9900012    2    3    3    0    0 -0.34123807619E+02  0.16010242988E+02 -0.21514201233E+02  0.47787274411E+02  0.20000015347E+02 0.  0.
         12    1    3    3    0    0  0.34123807619E+02 -0.16010242988E+02  0.21514201233E+02  0.43400725589E+02  0.00000000000E+00 0. -1.
         11    1    4    4    0    0  0.14474486640E+01  0.19587262472E+00 -0.36011851501E+01  0.38861302688E+01  0.51100000000E-03 0. -1.
        -11    1    4    4    0    0 -0.22778077486E+01 -0.12651171451E+01 -0.17629222204E+01  0.31459218914E+01  0.51100000000E-03 0.  1.
        -12    1    4    4    0    0 -0.33293448535E+02  0.17079487509E+02 -0.16150093863E+02  0.40755222250E+02  0.00000000000E+00 0.  1.
</event>
<event>
 8    1  0.3776180E-010  0.9118800E+02  0.7816164E-02  0.1184000E+00
        -11   -1    0    0    0    0  0.00000000000E+00  0.00000000000E+00  0.45593999997E+02  0.45594000000E+02  0.51100000000E-03 0. -1.
         11   -1    0    0    0    0 -0.00000000000E+00 -0.00000000000E+00 -0.45593999997E+02  0.45594000000E+02  0.51100000000E-03 0.  1.
         23    2    1    2    0    0 -0.71054273576E-14 -0.88817841970E-15  0.00000000000E+00  0.91188000000E+02  0.91188000000E+02 0.  0.
    9900012    2    3    3    0    0 -0.40195224495E+02  0.20366790456E+01  0.16242508834E+02  0.47787271585E+02  0.20000002467E+02 0.  0.
        -12    1    3    3    0    0  0.40195224495E+02 -0.20366790456E+01 -0.16242508834E+02  0.43400728415E+02  0.00000000000E+00 0.  1.
         11    1    4    4    0    0 -0.84443923030E+01 -0.56556700283E+00 -0.40073294383E+01  0.93640972277E+01  0.51100000000E-03 0. -1.
        -11    1    4    4    0    0 -0.81069938871E+01 -0.24256244173E+01  0.58370155879E+01  0.10279968625E+02  0.51100000000E-03 0.  1.
         12    1    4    4    0    0 -0.23643838304E+02  0.50278704658E+01  0.14412822684E+02  0.28143205733E+02  0.00000000000E+00 0. -1.
</event>
<event>
 8    1  0.3776180E-010  0.9118800E+02  0.7816164E-02  0.1184000E+00
        -11   -1    0    0    0    0  0.00000000000E+00  0.00000000000E+00  0.45593999997E+02  0.45594000000E+02  0.51100000000E-03 0. -1.
         11   -1    0    0    0    0 -0.00000000000E+00 -0.00000000000E+00 -0.45593999997E+02  0.45594000000E+02  0.51100000000E-03 0.  1.
         23    2    1    2    0    0  0.00000000000E+00  0.00000000000E+00  0.00000000000E+00  0.91188000000E+02  0.91188000000E+02 0.  0.
    9900012    2    3    3    0    0  0.94287320645E+01  0.80998793671E+01 -0.41582622497E+02  0.47787268119E+02  0.19999986661E+02 0.  0.
         12    1    3    3    0    0 -0.94287320645E+01 -0.80998793671E+01  0.41582622497E+02  0.43400731881E+02  0.00000000000E+00 0. -1.
         11    1    4    4    0    0  0.15921346960E+01  0.11591738921E+01  0.57303637481E+00  0.20510845790E+01  0.51100000000E-03 0. -1.
        -11    1    4    4    0    0  0.11041569600E+01 -0.40632338000E+01 -0.16381491995E+02  0.16913967948E+02  0.51100000000E-03 0.  1.
         12    1    4    4    0    0  0.67324404085E+01  0.11003939275E+02 -0.25774166877E+02  0.28822215592E+02  0.00000000000E+00 0. -1.
</event>
<event>
 8    1  0.4830439E-010  0.9118800E+02  0.7816164E-02  0.1184000E+00
        -11   -1    0    0    0    0  0.00000000000E+00  0.00000000000E+00  0.45593999997E+02  0.45594000000E+02  0.51100000000E-03 0. -1.
         11   -1    0    0    0    0 -0.00000000000E+00 -0.00000000000E+00 -0.45593999997E+02  0.45594000000E+02  0.51100000000E-03 0.  1.
         23    2    1    2    0    0 -0.17763568394E-14  0.17763568394E-14  0.71054273576E-14  0.91188000000E+02  0.91188000000E+02 0.  0.
    9900012    2    3    3    0    0  0.10776791866E+02 -0.97440353228E+01  0.40896675443E+02  0.47787268098E+02  0.19999986567E+02 0.  0.
        -12    1    3    3    0    0 -0.10776791866E+02  0.97440353228E+01 -0.40896675443E+02  0.43400731902E+02  0.00000000000E+00 0.  1.
         11    1    4    4    0    0  0.82421450201E+01 -0.26844623093E+00  0.17928475990E+02  0.19734114358E+02  0.51100000000E-03 0. -1.
        -11    1    4    4    0    0  0.62728809987E+01 -0.65825231067E+01  0.21090129004E+02  0.22966762683E+02  0.51100000000E-03 0.  1.
        -12    1    4    4    0    0 -0.37382341528E+01 -0.28930659852E+01  0.18780704495E+01  0.50863910574E+01  0.00000000000E+00 0.  1.
</event>
<event>
 8    1  0.3776180E-010  0.9118800E+02  0.7816164E-02  0.1184000E+00
        -11   -1    0    0    0    0  0.00000000000E+00  0.00000000000E+00  0.45593999997E+02  0.45594000000E+02  0.51100000000E-03 0. -1.
         11   -1    0    0    0    0 -0.00000000000E+00 -0.00000000000E+00 -0.45593999997E+02  0.45594000000E+02  0.51100000000E-03 0.  1.
         23    2    1    2    0    0  0.00000000000E+00 -0.17763568394E-14  0.00000000000E+00  0.91188000000E+02  0.91188000000E+02 0.  0.
    9900012    2    3    3    0    0 -0.13635738957E+02 -0.10328595815E+02  0.39887465971E+02  0.47787271780E+02  0.20000003355E+02 0.  0.
        -12    1    3    3    0    0  0.13635738957E+02  0.10328595815E+02 -0.39887465971E+02  0.43400728220E+02  0.00000000000E+00 0.  1.
         11    1    4    4    0    0 -0.20044770386E+01 -0.83421865114E+01  0.19595778892E+02  0.21391693590E+02  0.51100000000E-03 0. -1.
        -11    1    4    4    0    0 -0.41473457885E+01 -0.62596497629E+01  0.13401631594E+02  0.15361882108E+02  0.51100000000E-03 0.  1.
        -12    1    4    4    0    0 -0.74839161297E+01  0.42732404598E+01  0.68900554849E+01  0.11033696083E+02  0.00000000000E+00 0.  1.
</event>
<event>
 8    1  0.3776180E-010  0.9118800E+02  0.7816164E-02  0.1184000E+00
        -11   -1    0    0    0    0  0.00000000000E+00  0.00000000000E+00  0.45593999997E+02  0.45594000000E+02  0.51100000000E-03 0. -1.
         11   -1    0    0    0    0 -0.00000000000E+00 -0.00000000000E+00 -0.45593999997E+02  0.45594000000E+02  0.51100000000E-03 0.  1.
         23    2    1    2    0    0  0.35527136788E-14 -0.14849232954E-14  0.71054273576E-14  0.91188000000E+02  0.91188000000E+02 0.  0.
    9900012    2    3    3    0    0 -0.23888189178E+02  0.68252779857E-01 -0.36234970644E+02  0.47787270303E+02  0.19999996620E+02 0.  0.
         12    1    3    3    0    0  0.23888189178E+02 -0.68252779857E-01  0.36234970644E+02  0.43400729697E+02  0.00000000000E+00 0. -1.
         11    1    4    4    0    0 -0.89742611922E+01  0.87057695537E+01 -0.15454974435E+02  0.19879235964E+02  0.51100000000E-03 0. -1.
        -11    1    4    4    0    0 -0.44140448875E+01 -0.13444296544E+01 -0.10617064894E+02  0.11576413546E+02  0.51100000000E-03 0.  1.
        -12    1    4    4    0    0 -0.10499883098E+02 -0.72930871194E+01 -0.10162931315E+02  0.16331620793E+02  0.00000000000E+00 0.  1.
</event>
<event>
 8    1  0.3776180E-010  0.9118800E+02  0.7816164E-02  0.1184000E+00
        -11   -1    0    0    0    0  0.00000000000E+00  0.00000000000E+00  0.45593999997E+02  0.45594000000E+02  0.51100000000E-03 0. -1.
         11   -1    0    0    0    0 -0.00000000000E+00 -0.00000000000E+00 -0.45593999997E+02  0.45594000000E+02  0.51100000000E-03 0.  1.
         23    2    1    2    0    0 -0.35527136788E-14  0.35527136788E-14  0.00000000000E+00  0.91188000000E+02  0.91188000000E+02 0.  0.
    9900012    2    3    3    0    0 -0.19072936850E+02  0.23072028765E+02 -0.31424955941E+02  0.47787270890E+02  0.19999999295E+02 0.  0.
         12    1    3    3    0    0  0.19072936850E+02 -0.23072028765E+02  0.31424955941E+02  0.43400729110E+02  0.00000000000E+00 0. -1.
         11    1    4    4    0    0 -0.11037301214E+02  0.97346042775E+01 -0.28052173465E+02  0.31678209780E+02  0.51100000000E-03 0. -1.
        -11    1    4    4    0    0 -0.34168784212E+01  0.43551722021E+01 -0.21361940442E+01  0.59334566916E+01  0.51100000000E-03 0.  1.
         12    1    4    4    0    0 -0.46187572147E+01  0.89822522852E+01 -0.12365884324E+01  0.10175604418E+02  0.00000000000E+00 0. -1.
</event>
<event>
 8    1  0.3776180E-010  0.9118800E+02  0.7816164E-02  0.1184000E+00
        -11   -1    0    0    0    0  0.00000000000E+00  0.00000000000E+00  0.45593999997E+02  0.45594000000E+02  0.51100000000E-03 0. -1.
         11   -1    0    0    0    0 -0.00000000000E+00 -0.00000000000E+00 -0.45593999997E+02  0.45594000000E+02  0.51100000000E-03 0.  1.
         23    2    1    2    0    0  0.00000000000E+00 -0.35527136788E-14 -0.71054273576E-14  0.91188000000E+02  0.91188000000E+02 0.  0.
    9900012    2    3    3    0    0 -0.18808901830E+02 -0.17623271421E+02 -0.34918029899E+02  0.47787270793E+02  0.19999998854E+02 0.  0.
         12    1    3    3    0    0  0.18808901830E+02  0.17623271421E+02  0.34918029899E+02  0.43400729207E+02  0.00000000000E+00 0. -1.
         11    1    4    4    0    0 -0.15163240811E+02 -0.13301778587E+02 -0.19927640375E+02  0.28354400658E+02  0.51100000000E-03 0. -1.
        -11    1    4    4    0    0 -0.62327276319E+01 -0.64483924460E+01 -0.10118100453E+02  0.13520525726E+02  0.51100000000E-03 0.  1.
         12    1    4    4    0    0  0.25870666129E+01  0.21268996122E+01 -0.48722890718E+01  0.59123444097E+01  0.00000000000E+00 0. -1.
</event>
<event>
 8    1  0.3776180E-010  0.9118800E+02  0.7816164E-02  0.1184000E+00
        -11   -1    0    0    0    0  0.00000000000E+00  0.00000000000E+00  0.45593999997E+02  0.45594000000E+02  0.51100000000E-03 0. -1.
         11   -1    0    0    0    0 -0.00000000000E+00 -0.00000000000E+00 -0.45593999997E+02  0.45594000000E+02  0.51100000000E-03 0.  1.
         23    2    1    2    0    0  0.00000000000E+00 -0.35527136788E-14  0.00000000000E+00  0.91188000000E+02  0.91188000000E+02 0.  0.
    9900012    2    3    3    0    0 -0.12563540380E+02 -0.31954749942E+02  0.26545710506E+02  0.47787270317E+02  0.19999996682E+02 0.  0.
        -12    1    3    3    0    0  0.12563540380E+02  0.31954749942E+02 -0.26545710506E+02  0.43400729683E+02  0.00000000000E+00 0.  1.
         11    1    4    4    0    0 -0.13683034749E+02 -0.17509216350E+02  0.98478287880E+01  0.24305921690E+02  0.51100000000E-03 0. -1.
        -11    1    4    4    0    0  0.78721120194E+00 -0.25915365809E+00 -0.66129408075E+00  0.10602698795E+01  0.51100000000E-03 0.  1.
        -12    1    4    4    0    0  0.33228316677E+00 -0.14186379934E+02  0.17359175799E+02  0.22421078747E+02  0.00000000000E+00 0.  1.
</event>
<event>
 8    1  0.3776180E-010  0.9118800E+02  0.7816164E-02  0.1184000E+00
        -11   -1    0    0    0    0  0.00000000000E+00  0.00000000000E+00  0.45593999997E+02  0.45594000000E+02  0.51100000000E-03 0. -1.
         11   -1    0    0    0    0 -0.00000000000E+00 -0.00000000000E+00 -0.45593999997E+02  0.45594000000E+02  0.51100000000E-03 0.  1.
         23    2    1    2    0    0  0.00000000000E+00  0.00000000000E+00 -0.35527136788E-14  0.91188000000E+02  0.91188000000E+02 0.  0.
    9900012    2    3    3    0    0 -0.13518476925E+02  0.35160859179E+02  0.21554337152E+02  0.47787254768E+02  0.19999925789E+02 0.  0.
        -12    1    3    3    0    0  0.13518476925E+02 -0.35160859179E+02 -0.21554337152E+02  0.43400745232E+02  0.00000000000E+00 0.  1.
         11    1    4    4    0    0  0.57667192602E+00  0.11427839329E+02  0.11538881900E+02  0.16250349473E+02  0.51100000000E-03 0. -1.
        -11    1    4    4    0    0  0.11547869227E+01  0.49000940206E+01 -0.62070341415E+00  0.50724478546E+01  0.51100000000E-03 0.  1.
        -12    1    4    4    0    0 -0.15249935774E+02  0.18832925830E+02  0.10636158667E+02  0.26464457440E+02  0.00000000000E+00 0.  1.
</event>
<event>
 8    1  0.3776180E-010  0.9118800E+02  0.7816164E-02  0.1184000E+00
        -11   -1    0    0    0    0  0.00000000000E+00  0.00000000000E+00  0.45593999997E+02  0.45594000000E+02  0.51100000000E-03 0. -1.
         11   -1    0    0    0    0 -0.00000000000E+00 -0.00000000000E+00 -0.45593999997E+02  0.45594000000E+02  0.51100000000E-03 0.  1.
         23    2    1    2    0    0  0.00000000000E+00  0.35527136788E-14  0.35527136788E-14  0.91188000000E+02  0.91188000000E+02 0.  0.
    9900012    2    3    3    0    0 -0.97442655104E+01 -0.30640518990E+02  0.29151862441E+02  0.47787271918E+02  0.20000003981E+02 0.  0.
        -12    1    3    3    0    0  0.97442655104E+01  0.30640518990E+02 -0.29151862441E+02  0.43400728082E+02  0.00000000000E+00 0.  1.
         11    1    4    4    0    0 -0.22515873931E+01 -0.72011240427E+01 -0.83932287812E+00  0.75914620740E+01  0.51100000000E-03 0. -1.
        -11    1    4    4    0    0 -0.90677164616E+01 -0.11147531775E+02  0.16000402623E+02  0.21505902233E+02  0.51100000000E-03 0.  1.
        -12    1    4    4    0    0  0.15750383442E+01 -0.12291863172E+02  0.13990782696E+02  0.18689907610E+02  0.00000000000E+00 0.  1.
</event>
<event>
 8    1  0.3776180E-010  0.9118800E+02  0.7816164E-02  0.1184000E+00
        -11   -1    0    0    0    0  0.00000000000E+00  0.00000000000E+00  0.45593999997E+02  0.45594000000E+02  0.51100000000E-03 0. -1.
         11   -1    0    0    0    0 -0.00000000000E+00 -0.00000000000E+00 -0.45593999997E+02  0.45594000000E+02  0.51100000000E-03 0.  1.
         23    2    1    2    0    0 -0.17763568394E-14  0.00000000000E+00  0.00000000000E+00  0.91188000000E+02  0.91188000000E+02 0.  0.
    9900012    2    3    3    0    0  0.15621593842E+02  0.13992793886E+02 -0.37997245457E+02  0.47787272619E+02  0.20000007180E+02 0.  0.
         12    1    3    3    0    0 -0.15621593842E+02 -0.13992793886E+02  0.37997245457E+02  0.43400727381E+02  0.00000000000E+00 0. -1.
         11    1    4    4    0    0  0.46457397282E+01  0.57375282715E+01 -0.26558674265E+02  0.27565654486E+02  0.51100000000E-03 0. -1.
        -11    1    4    4    0    0  0.50382592598E+01  0.84452039452E+01 -0.10170317891E+02  0.14147116042E+02  0.51100000000E-03 0.  1.
         12    1    4    4    0    0  0.59375948540E+01 -0.18993833105E+00 -0.12682533014E+01  0.60745020912E+01  0.00000000000E+00 0. -1.
</event>
<event>
 8    1  0.3776180E-010  0.9118800E+02  0.7816164E-02  0.1184000E+00
        -11   -1    0    0    0    0  0.00000000000E+00  0.00000000000E+00  0.45593999997E+02  0.45594000000E+02  0.51100000000E-03 0. -1.
         11   -1    0    0    0    0 -0.00000000000E+00 -0.00000000000E+00 -0.45593999997E+02  0.45594000000E+02  0.51100000000E-03 0.  1.
         23    2    1    2    0    0 -0.71054273576E-14  0.66613381478E-15  0.00000000000E+00  0.91188000000E+02  0.91188000000E+02 0.  0.
    9900012    2    3    3    0    0  0.36234465867E+02 -0.95689381015E+00 -0.23869879596E+02  0.47787270578E+02  0.19999997873E+02 0.  0.
         12    1    3    3    0    0 -0.36234465867E+02  0.95689381015E+00  0.23869879596E+02  0.43400729422E+02  0.00000000000E+00 0. -1.
         11    1    4    4    0    0 -0.11395837863E+01  0.19610464316E+01 -0.15012809553E+01  0.27199630661E+01  0.51100000000E-03 0. -1.
        -11    1    4    4    0    0  0.11511822609E+02  0.17572445403E+01 -0.19972975271E+01  0.11815209089E+02  0.51100000000E-03 0.  1.
        -12    1    4    4    0    0  0.25862227045E+02 -0.46751847821E+01 -0.20371301113E+02  0.33252098423E+02  0.00000000000E+00 0.  1.
</event>
<event>
 8    1  0.3776180E-010  0.9118800E+02  0.7816164E-02  0.1184000E+00
        -11   -1    0    0    0    0  0.00000000000E+00  0.00000000000E+00  0.45593999997E+02  0.45594000000E+02  0.51100000000E-03 0.  1.
         11   -1    0    0    0    0 -0.00000000000E+00 -0.00000000000E+00 -0.45593999997E+02  0.45594000000E+02  0.51100000000E-03 0. -1.
         23    2    1    2    0    0  0.17763568394E-14  0.00000000000E+00  0.44408920985E-15  0.91188000000E+02  0.91188000000E+02 0.  0.
    9900012    2    3    3    0    0 -0.12588147669E+02  0.41431950287E+02 -0.29249533207E+01  0.47787270533E+02  0.19999997669E+02 0.  0.
         12    1    3    3    0    0  0.12588147669E+02 -0.41431950287E+02  0.29249533207E+01  0.43400729467E+02  0.00000000000E+00 0. -1.
         11    1    4    4    0    0 -0.69221154740E+01  0.12349193942E+02 -0.30839059130E+01  0.14488918165E+02  0.51100000000E-03 0. -1.
        -11    1    4    4    0    0 -0.56653175793E+01  0.29821155528E+02 -0.25777536108E+01  0.30463781024E+02  0.51100000000E-03 0.  1.
        -12    1    4    4    0    0 -0.71461525358E-03 -0.73839918334E+00  0.27367062031E+01  0.28345713444E+01  0.00000000000E+00 0.  1.
</event>
<event>
 8    1  0.3776180E-010  0.9118800E+02  0.7816164E-02  0.1184000E+00
        -11   -1    0    0    0    0  0.00000000000E+00  0.00000000000E+00  0.45593999997E+02  0.45594000000E+02  0.51100000000E-03 0.  1.
         11   -1    0    0    0    0 -0.00000000000E+00 -0.00000000000E+00 -0.45593999997E+02  0.45594000000E+02  0.51100000000E-03 0. -1.
         23    2    1    2    0    0 -0.35527136788E-14 -0.35527136788E-14 -0.33306690739E-15  0.91188000000E+02  0.91188000000E+02 0.  0.
    9900012    2    3    3    0    0 -0.29787138212E+02  0.31563299006E+02 -0.32844021336E+00  0.47787270513E+02  0.19999997579E+02 0.  0.
         12    1    3    3    0    0  0.29787138212E+02 -0.31563299006E+02  0.32844021336E+00  0.43400729487E+02  0.00000000000E+00 0. -1.
         11    1    4    4    0    0 -0.93442785307E+01  0.10361617036E+02 -0.28116051592E+01  0.14233192639E+02  0.51100000000E-03 0. -1.
        -11    1    4    4    0    0 -0.18495053785E+02  0.22251174548E+02 -0.15266488586E+01  0.28974341067E+02  0.51100000000E-03 0.  1.
         12    1    4    4    0    0 -0.19478058962E+01 -0.10494925780E+01  0.40098138044E+01  0.45797368075E+01  0.00000000000E+00 0. -1.
</event>
<event>
 8    1  0.3776180E-010  0.9118800E+02  0.7816164E-02  0.1184000E+00
        -11   -1    0    0    0    0  0.00000000000E+00  0.00000000000E+00  0.45593999997E+02  0.45594000000E+02  0.51100000000E-03 0. -1.
         11   -1    0    0    0    0 -0.00000000000E+00 -0.00000000000E+00 -0.45593999997E+02  0.45594000000E+02  0.51100000000E-03 0.  1.
         23    2    1    2    0    0  0.00000000000E+00  0.00000000000E+00  0.00000000000E+00  0.91188000000E+02  0.91188000000E+02 0.  0.
    9900012    2    3    3    0    0  0.25207160231E+02 -0.28612585318E+02 -0.20725402111E+02  0.47787271225E+02  0.20000000824E+02 0.  0.
         12    1    3    3    0    0 -0.25207160231E+02  0.28612585318E+02  0.20725402111E+02  0.43400728775E+02  0.00000000000E+00 0. -1.
         11    1    4    4    0    0  0.11627932858E+02 -0.16985147644E+02 -0.16844259884E+02  0.26597615576E+02  0.51100000000E-03 0. -1.
        -11    1    4    4    0    0  0.47966448127E+01 -0.11020878049E+02 -0.19460851530E+01  0.12175992859E+02  0.51100000000E-03 0.  1.
         12    1    4    4    0    0  0.87825825603E+01 -0.60655962553E+00 -0.19350570741E+01  0.90136627898E+01  0.00000000000E+00 0. -1.
</event>
<event>
 8    1  0.3776180E-010  0.9118800E+02  0.7816164E-02  0.1184000E+00
        -11   -1    0    0    0    0  0.00000000000E+00  0.00000000000E+00  0.45593999997E+02  0.45594000000E+02  0.51100000000E-03 0. -1.
         11   -1    0    0    0    0 -0.00000000000E+00 -0.00000000000E+00 -0.45593999997E+02  0.45594000000E+02  0.51100000000E-03 0.  1.
         23    2    1    2    0    0 -0.35527136788E-14  0.00000000000E+00  0.00000000000E+00  0.91188000000E+02  0.91188000000E+02 0.  0.
    9900012    2    3    3    0    0 -0.20712292721E+02  0.29219189635E+02  0.24512510800E+02  0.47787270762E+02  0.19999998712E+02 0.  0.
        -12    1    3    3    0    0  0.20712292721E+02 -0.29219189635E+02 -0.24512510800E+02  0.43400729238E+02  0.00000000000E+00 0.  1.
         11    1    4    4    0    0 -0.87199677852E+01  0.12124645422E+02  0.14055975761E+02  0.20508908300E+02  0.51100000000E-03 0. -1.
        -11    1    4    4    0    0 -0.76733250132E+01  0.14655516699E+02  0.13591917274E+02  0.21410378370E+02  0.51100000000E-03 0.  1.
        -12    1    4    4    0    0 -0.43189999229E+01  0.24390275133E+01 -0.31353822357E+01  0.58679840924E+01  0.00000000000E+00 0.  1.
</event>
<event>
 8    1  0.3776180E-010  0.9118800E+02  0.7816164E-02  0.1184000E+00
        -11   -1    0    0    0    0  0.00000000000E+00  0.00000000000E+00  0.45593999997E+02  0.45594000000E+02  0.51100000000E-03 0. -1.
         11   -1    0    0    0    0 -0.00000000000E+00 -0.00000000000E+00 -0.45593999997E+02  0.45594000000E+02  0.51100000000E-03 0.  1.
         23    2    1    2    0    0  0.00000000000E+00  0.00000000000E+00 -0.71054273576E-14  0.91188000000E+02  0.91188000000E+02 0.  0.
    9900012    2    3    3    0    0 -0.10611751460E+02 -0.93773314227E+01  0.41025342432E+02  0.47787281857E+02  0.20000049298E+02 0.  0.
        -12    1    3    3    0    0  0.10611751460E+02  0.93773314227E+01 -0.41025342432E+02  0.43400718143E+02  0.00000000000E+00 0.  1.
         11    1    4    4    0    0 -0.11032431613E+01 -0.57180393474E+01  0.21800989461E+02  0.22565377488E+02  0.51100000000E-03 0. -1.
        -11    1    4    4    0    0  0.24258006423E+01 -0.25921015136E+01  0.15613177299E+01  0.38783001853E+01  0.51100000000E-03 0.  1.
         12    1    4    4    0    0 -0.11934308941E+02 -0.10671905617E+01  0.17663035241E+02  0.21343604183E+02  0.00000000000E+00 0. -1.
</event>
<event>
 8    1  0.3776180E-010  0.9118800E+02  0.7816164E-02  0.1184000E+00
        -11   -1    0    0    0    0  0.00000000000E+00  0.00000000000E+00  0.45593999997E+02  0.45594000000E+02  0.51100000000E-03 0.  1.
         11   -1    0    0    0    0 -0.00000000000E+00 -0.00000000000E+00 -0.45593999997E+02  0.45594000000E+02  0.51100000000E-03 0. -1.
         23    2    1    2    0    0 -0.71054273576E-14  0.00000000000E+00  0.88817841970E-15  0.91188000000E+02  0.91188000000E+02 0.  0.
    9900012    2    3    3    0    0  0.34227126517E+02 -0.26000218890E+02 -0.60096125889E+01  0.47787274022E+02  0.20000013576E+02 0.  0.
        -12    1    3    3    0    0 -0.34227126517E+02  0.26000218890E+02  0.60096125889E+01  0.43400725978E+02  0.00000000000E+00 0.  1.
         11    1    4    4    0    0  0.41519823132E+01 -0.76716874403E+01 -0.31718819027E+01  0.92819491690E+01  0.51100000000E-03 0. -1.
        -11    1    4    4    0    0 -0.16643322258E+01 -0.13362325735E+01 -0.12391775549E+01  0.24680114510E+01  0.51100000000E-03 0.  1.
        -12    1    4    4    0    0  0.31739476430E+02 -0.16992298876E+02 -0.15985531313E+01  0.36037313402E+02  0.00000000000E+00 0.  1.
</event>
<event>
 8    1  0.3776180E-010  0.9118800E+02  0.7816164E-02  0.1184000E+00
        -11   -1    0    0    0    0  0.00000000000E+00  0.00000000000E+00  0.45593999997E+02  0.45594000000E+02  0.51100000000E-03 0.  1.
         11   -1    0    0    0    0 -0.00000000000E+00 -0.00000000000E+00 -0.45593999997E+02  0.45594000000E+02  0.51100000000E-03 0. -1.
         23    2    1    2    0    0  0.88817841970E-15  0.00000000000E+00 -0.35527136788E-14  0.91188000000E+02  0.91188000000E+02 0.  0.
    9900012    2    3    3    0    0 -0.22141648694E+01 -0.34686455492E+02  0.25991740211E+02  0.47787270976E+02  0.19999999686E+02 0.  0.
        -12    1    3    3    0    0  0.22141648694E+01  0.34686455492E+02 -0.25991740211E+02  0.43400729024E+02  0.00000000000E+00 0.  1.
         11    1    4    4    0    0 -0.83953698981E+01 -0.17321572527E+02  0.10843297057E+02  0.22092899354E+02  0.51100000000E-03 0. -1.
        -11    1    4    4    0    0  0.10071700232E+01 -0.16963124268E+00 -0.10831517639E+01  0.14887525714E+01  0.51100000000E-03 0.  1.
        -12    1    4    4    0    0  0.51740350055E+01 -0.17195251722E+02  0.16231594918E+02  0.24205619050E+02  0.00000000000E+00 0.  1.
</event>
<event>
 8    1  0.3776180E-010  0.9118800E+02  0.7816164E-02  0.1184000E+00
        -11   -1    0    0    0    0  0.00000000000E+00  0.00000000000E+00  0.45593999997E+02  0.45594000000E+02  0.51100000000E-03 0. -1.
         11   -1    0    0    0    0 -0.00000000000E+00 -0.00000000000E+00 -0.45593999997E+02  0.45594000000E+02  0.51100000000E-03 0.  1.
         23    2    1    2    0    0  0.00000000000E+00  0.00000000000E+00 -0.35527136788E-14  0.91188000000E+02  0.91188000000E+02 0.  0.
    9900012    2    3    3    0    0 -0.30136130188E+02  0.11388181080E+02  0.29081668367E+02  0.47787303623E+02  0.20000148538E+02 0.  0.
        -12    1    3    3    0    0  0.30136130188E+02 -0.11388181080E+02 -0.29081668367E+02  0.43400696377E+02  0.00000000000E+00 0.  1.
         11    1    4    4    0    0 -0.15975760740E+02  0.93878044204E+01  0.18589703866E+02  0.26247531182E+02  0.51100000000E-03 0. -1.
        -11    1    4    4    0    0 -0.91371418571E+01  0.52491477649E+01  0.11360020661E+02  0.15494869579E+02  0.51100000000E-03 0.  1.
        -12    1    4    4    0    0 -0.50232275906E+01 -0.32487711052E+01 -0.86805616015E+00  0.60449028626E+01  0.00000000000E+00 0.  1.
</event>
<event>
 8    1  0.3776180E-010  0.9118800E+02  0.7816164E-02  0.1184000E+00
        -11   -1    0    0    0    0  0.00000000000E+00  0.00000000000E+00  0.45593999997E+02  0.45594000000E+02  0.51100000000E-03 0. -1.
         11   -1    0    0    0    0 -0.00000000000E+00 -0.00000000000E+00 -0.45593999997E+02  0.45594000000E+02  0.51100000000E-03 0.  1.
         23    2    1    2    0    0  0.00000000000E+00  0.00000000000E+00  0.00000000000E+00  0.91188000000E+02  0.91188000000E+02 0.  0.
    9900012    2    3    3    0    0 -0.28298853624E+02 -0.18642670825E+02  0.27115473018E+02  0.47787272253E+02  0.20000005511E+02 0.  0.
        -12    1    3    3    0    0  0.28298853624E+02  0.18642670825E+02 -0.27115473018E+02  0.43400727747E+02  0.00000000000E+00 0.  1.
         11    1    4    4    0    0 -0.24594977121E+01 -0.73058601879E+01  0.78636787447E+01  0.11011910177E+02  0.51100000000E-03 0. -1.
        -11    1    4    4    0    0 -0.15388265293E+02 -0.43206562288E+01  0.30723374862E+01  0.16275934285E+02  0.51100000000E-03 0.  1.
         12    1    4    4    0    0 -0.10451090619E+02 -0.70161544087E+01  0.16179456788E+02  0.20499427791E+02  0.00000000000E+00 0. -1.
</event>
<event>
 8    1  0.3776180E-010  0.9118800E+02  0.7816164E-02  0.1184000E+00
        -11   -1    0    0    0    0  0.00000000000E+00  0.00000000000E+00  0.45593999997E+02  0.45594000000E+02  0.51100000000E-03 0. -1.
         11   -1    0    0    0    0 -0.00000000000E+00 -0.00000000000E+00 -0.45593999997E+02  0.45594000000E+02  0.51100000000E-03 0.  1.
         23    2    1    2    0    0  0.88817841970E-15  0.17763568394E-14  0.00000000000E+00  0.91188000000E+02  0.91188000000E+02 0.  0.
    9900012    2    3    3    0    0  0.48126749998E+01 -0.10967039963E+02  0.41715531653E+02  0.47787269738E+02  0.19999994043E+02 0.  0.
        -12    1    3    3    0    0 -0.48126749998E+01  0.10967039963E+02 -0.41715531653E+02  0.43400730262E+02  0.00000000000E+00 0.  1.
         11    1    4    4    0    0 -0.20203803534E+01 -0.28499813778E+01  0.47200219444E+01  0.58722174724E+01  0.51100000000E-03 0. -1.
        -11    1    4    4    0    0  0.85356596716E+01 -0.29421738555E+01  0.69876799356E+01  0.11416722129E+02  0.51100000000E-03 0.  1.
         12    1    4    4    0    0 -0.17026043185E+01 -0.51748847297E+01  0.30007829773E+02  0.30498330136E+02  0.00000000000E+00 0. -1.
</event>
<event>
 8    1  0.3776180E-010  0.9118800E+02  0.7816164E-02  0.1184000E+00
        -11   -1    0    0    0    0  0.00000000000E+00  0.00000000000E+00  0.45593999997E+02  0.45594000000E+02  0.51100000000E-03 0. -1.
         11   -1    0    0    0    0 -0.00000000000E+00 -0.00000000000E+00 -0.45593999997E+02  0.45594000000E+02  0.51100000000E-03 0.  1.
         23    2    1    2    0    0  0.17763568394E-14  0.71054273576E-14  0.00000000000E+00  0.91188000000E+02  0.91188000000E+02 0.  0.
    9900012    2    3    3    0    0 -0.15573778837E+02 -0.34587619589E+02 -0.21089753791E+02  0.47787265777E+02  0.19999975986E+02 0.  0.
         12    1    3    3    0    0  0.15573778837E+02  0.34587619589E+02  0.21089753791E+02  0.43400734223E+02  0.00000000000E+00 0. -1.
         11    1    4    4    0    0  0.16405909125E+00 -0.59722156130E+00  0.14727037305E+01  0.15976374801E+01  0.51100000000E-03 0. -1.
        -11    1    4    4    0    0  0.22740219380E+01 -0.18869664650E+01 -0.39717785520E+01  0.49504387019E+01  0.51100000000E-03 0.  1.
        -12    1    4    4    0    0 -0.18011859866E+02 -0.32103431563E+02 -0.18590678970E+02  0.41239189595E+02  0.00000000000E+00 0.  1.
</event>
<event>
 8    1  0.3776180E-010  0.9118800E+02  0.7816164E-02  0.1184000E+00
        -11   -1    0    0    0    0  0.00000000000E+00  0.00000000000E+00  0.45593999997E+02  0.45594000000E+02  0.51100000000E-03 0. -1.
         11   -1    0    0    0    0 -0.00000000000E+00 -0.00000000000E+00 -0.45593999997E+02  0.45594000000E+02  0.51100000000E-03 0.  1.
         23    2    1    2    0    0 -0.44408920985E-15 -0.71054273576E-14  0.00000000000E+00  0.91188000000E+02  0.91188000000E+02 0.  0.
    9900012    2    3    3    0    0  0.34139229008E+01  0.34497568439E+02  0.26112954261E+02  0.47787268693E+02  0.19999989278E+02 0.  0.
        -12    1    3    3    0    0 -0.34139229008E+01 -0.34497568439E+02 -0.26112954261E+02  0.43400731307E+02  0.00000000000E+00 0.  1.
         11    1    4    4    0    0 -0.57108451166E+00  0.10513188972E+02  0.18715691873E+02  0.21473947062E+02  0.51100000000E-03 0. -1.
        -11    1    4    4    0    0 -0.19402597385E+01  0.66077159145E+01  0.17559508884E+01  0.71070304096E+01  0.51100000000E-03 0.  1.
         12    1    4    4    0    0  0.59252671510E+01  0.17376663552E+02  0.56413114995E+01  0.19206291221E+02  0.00000000000E+00 0. -1.
</event>
<event>
 8    1  0.3776180E-010  0.9118800E+02  0.7816164E-02  0.1184000E+00
        -11   -1    0    0    0    0  0.00000000000E+00  0.00000000000E+00  0.45593999997E+02  0.45594000000E+02  0.51100000000E-03 0. -1.
         11   -1    0    0    0    0 -0.00000000000E+00 -0.00000000000E+00 -0.45593999997E+02  0.45594000000E+02  0.51100000000E-03 0.  1.
         23    2    1    2    0    0  0.00000000000E+00  0.17763568394E-14  0.00000000000E+00  0.91188000000E+02  0.91188000000E+02 0.  0.
    9900012    2    3    3    0    0 -0.18594196925E+02  0.82824331618E+01 -0.38331191947E+02  0.47787272651E+02  0.20000007326E+02 0.  0.
         12    1    3    3    0    0  0.18594196925E+02 -0.82824331618E+01  0.38331191947E+02  0.43400727349E+02  0.00000000000E+00 0. -1.
         11    1    4    4    0    0 -0.20831647089E+01 -0.49040888616E+01 -0.24997602651E+01  0.58854451328E+01  0.51100000000E-03 0. -1.
        -11    1    4    4    0    0 -0.75279496846E+01  0.31395735208E+01 -0.11709192791E+02  0.14269973526E+02  0.51100000000E-03 0.  1.
        -12    1    4    4    0    0 -0.89830825314E+01  0.10046948503E+02 -0.24122238891E+02  0.27631853993E+02  0.00000000000E+00 0.  1.
</event>
<event>
 8    1  0.3776180E-010  0.9118800E+02  0.7816164E-02  0.1184000E+00
        -11   -1    0    0    0    0  0.00000000000E+00  0.00000000000E+00  0.45593999997E+02  0.45594000000E+02  0.51100000000E-03 0. -1.
         11   -1    0    0    0    0 -0.00000000000E+00 -0.00000000000E+00 -0.45593999997E+02  0.45594000000E+02  0.51100000000E-03 0.  1.
         23    2    1    2    0    0  0.00000000000E+00 -0.35527136788E-14  0.71054273576E-14  0.91188000000E+02  0.91188000000E+02 0.  0.
    9900012    2    3    3    0    0 -0.46774579884E+01 -0.20192420494E+02  0.38131492938E+02  0.47787271754E+02  0.20000003233E+02 0.  0.
        -12    1    3    3    0    0  0.46774579884E+01  0.20192420494E+02 -0.38131492938E+02  0.43400728246E+02  0.00000000000E+00 0.  1.
         11    1    4    4    0    0 -0.24652612235E+01 -0.12559807794E+01  0.13137512438E+02  0.13425693053E+02  0.51100000000E-03 0. -1.
        -11    1    4    4    0    0 -0.18251774398E+01 -0.11084549511E+02  0.23920701672E+02  0.26427229883E+02  0.51100000000E-03 0.  1.
        -12    1    4    4    0    0 -0.38701932511E+00 -0.78518902035E+01  0.10732788282E+01  0.79343488182E+01  0.00000000000E+00 0.  1.
</event>
<event>
 8    1  0.3776180E-010  0.9118800E+02  0.7816164E-02  0.1184000E+00
        -11   -1    0    0    0    0  0.00000000000E+00  0.00000000000E+00  0.45593999997E+02  0.45594000000E+02  0.51100000000E-03 0. -1.
         11   -1    0    0    0    0 -0.00000000000E+00 -0.00000000000E+00 -0.45593999997E+02  0.45594000000E+02  0.51100000000E-03 0.  1.
         23    2    1    2    0    0  0.00000000000E+00 -0.22204460493E-15  0.00000000000E+00  0.91188000000E+02  0.91188000000E+02 0.  0.
    9900012    2    3    3    0    0  0.20457816625E+01 -0.98788152388E+00 -0.43341230927E+02  0.47787269237E+02  0.19999991758E+02 0.  0.
         12    1    3    3    0    0 -0.20457816625E+01  0.98788152388E+00  0.43341230927E+02  0.43400730763E+02  0.00000000000E+00 0. -1.
         11    1    4    4    0    0  0.44787570966E+00 -0.28860563542E+01 -0.22412539964E+02  0.22602032250E+02  0.51100000000E-03 0. -1.
        -11    1    4    4    0    0  0.26828818934E+01  0.41808715244E+00 -0.22564235402E+02  0.22727018539E+02  0.51100000000E-03 0.  1.
         12    1    4    4    0    0 -0.10849759405E+01  0.14800876779E+01  0.16355444390E+01  0.24582184479E+01  0.00000000000E+00 0. -1.
</event>
<event>
 8    1  0.3776180E-010  0.9118800E+02  0.7816164E-02  0.1184000E+00
        -11   -1    0    0    0    0  0.00000000000E+00  0.00000000000E+00  0.45593999997E+02  0.45594000000E+02  0.51100000000E-03 0. -1.
         11   -1    0    0    0    0 -0.00000000000E+00 -0.00000000000E+00 -0.45593999997E+02  0.45594000000E+02  0.51100000000E-03 0.  1.
         23    2    1    2    0    0  0.00000000000E+00  0.00000000000E+00  0.00000000000E+00  0.91188000000E+02  0.91188000000E+02 0.  0.
    9900012    2    3    3    0    0 -0.35021113335E+01  0.57954390729E+01  0.42869236630E+02  0.47787270201E+02  0.19999996153E+02 0.  0.
        -12    1    3    3    0    0  0.35021113335E+01 -0.57954390729E+01 -0.42869236630E+02  0.43400729799E+02  0.00000000000E+00 0.  1.
         11    1    4    4    0    0  0.50062912930E+00  0.42253607879E+01  0.82890552170E+01  0.93173354541E+01  0.51100000000E-03 0. -1.
        -11    1    4    4    0    0 -0.51499915867E+01 -0.16839411534E+01  0.34597846250E+02  0.35019552204E+02  0.51100000000E-03 0.  1.
        -12    1    4    4    0    0  0.11472511239E+01  0.32540194385E+01 -0.17664836425E-01  0.34503825431E+01  0.00000000000E+00 0.  1.
</event>
<event>
 8    1  0.3776180E-010  0.9118800E+02  0.7816164E-02  0.1184000E+00
        -11   -1    0    0    0    0  0.00000000000E+00  0.00000000000E+00  0.45593999997E+02  0.45594000000E+02  0.51100000000E-03 0. -1.
         11   -1    0    0    0    0 -0.00000000000E+00 -0.00000000000E+00 -0.45593999997E+02  0.45594000000E+02  0.51100000000E-03 0.  1.
         23    2    1    2    0    0 -0.71054273576E-14  0.17763568394E-14  0.35527136788E-14  0.91188000000E+02  0.91188000000E+02 0.  0.
    9900012    2    3    3    0    0  0.33055995319E+02  0.14858083720E+02  0.23878061316E+02  0.47787270853E+02  0.19999999125E+02 0.  0.
        -12    1    3    3    0    0 -0.33055995319E+02 -0.14858083720E+02 -0.23878061316E+02  0.43400729147E+02  0.00000000000E+00 0.  1.
         11    1    4    4    0    0  0.33801588546E+02  0.14612888170E+02  0.23628922139E+02  0.43753969541E+02  0.51100000000E-03 0. -1.
        -11    1    4    4    0    0 -0.10497898060E+01  0.17120772130E+01  0.11209953075E+01  0.22999777740E+01  0.51100000000E-03 0.  1.
        -12    1    4    4    0    0  0.30419657829E+00 -0.14668816633E+01 -0.87185613042E+00  0.17333235372E+01  0.00000000000E+00 0.  1.
</event>
<event>
 8    1  0.3776180E-010  0.9118800E+02  0.7816164E-02  0.1184000E+00
        -11   -1    0    0    0    0  0.00000000000E+00  0.00000000000E+00  0.45593999997E+02  0.45594000000E+02  0.51100000000E-03 0. -1.
         11   -1    0    0    0    0 -0.00000000000E+00 -0.00000000000E+00 -0.45593999997E+02  0.45594000000E+02  0.51100000000E-03 0.  1.
         23    2    1    2    0    0  0.00000000000E+00  0.44408920985E-15  0.71054273576E-14  0.91188000000E+02  0.91188000000E+02 0.  0.
    9900012    2    3    3    0    0  0.17545089797E+02 -0.29274626191E+01 -0.39588175351E+02  0.47787264511E+02  0.19999970210E+02 0.  0.
         12    1    3    3    0    0 -0.17545089797E+02  0.29274626191E+01  0.39588175351E+02  0.43400735489E+02  0.00000000000E+00 0. -1.
         11    1    4    4    0    0  0.17977131446E+01  0.22226951811E+00  0.85312929386E-02  0.18114219091E+01  0.51100000000E-03 0. -1.
        -11    1    4    4    0    0  0.15805599082E+02 -0.71610283010E+01 -0.37775171277E+02  0.41569951334E+02  0.51100000000E-03 0.  1.
        -12    1    4    4    0    0 -0.58222430429E-01  0.40112961638E+01 -0.18215353679E+01  0.44058912676E+01  0.00000000000E+00 0.  1.
</event>
<event>
 8    1  0.3776180E-010  0.9118800E+02  0.7816164E-02  0.1184000E+00
        -11   -1    0    0    0    0  0.00000000000E+00  0.00000000000E+00  0.45593999997E+02  0.45594000000E+02  0.51100000000E-03 0. -1.
         11   -1    0    0    0    0 -0.00000000000E+00 -0.00000000000E+00 -0.45593999997E+02  0.45594000000E+02  0.51100000000E-03 0.  1.
         23    2    1    2    0    0  0.35527136788E-14  0.00000000000E+00 -0.35527136788E-14  0.91188000000E+02  0.91188000000E+02 0.  0.
    9900012    2    3    3    0    0  0.25518377249E+02 -0.28861887597E+02  0.19985669165E+02  0.47787272990E+02  0.20000008870E+02 0.  0.
        -12    1    3    3    0    0 -0.25518377249E+02  0.28861887597E+02 -0.19985669165E+02  0.43400727010E+02  0.00000000000E+00 0.  1.
         11    1    4    4    0    0  0.19585842904E+02 -0.27534077633E+02  0.14087350863E+02  0.36608525345E+02  0.51100000000E-03 0.  1.
        -11    1    4    4    0    0  0.26276155412E+01 -0.22287124832E+01  0.68117231225E+01  0.76335506105E+01  0.51100000000E-03 0. -1.
        -12    1    4    4    0    0  0.33049188031E+01  0.90090251944E+00 -0.91340482038E+00  0.35451970341E+01  0.00000000000E+00 0.  1.
</event>
<event>
 8    1  0.3776180E-010  0.9118800E+02  0.7816164E-02  0.1184000E+00
        -11   -1    0    0    0    0  0.00000000000E+00  0.00000000000E+00  0.45593999997E+02  0.45594000000E+02  0.51100000000E-03 0.  1.
         11   -1    0    0    0    0 -0.00000000000E+00 -0.00000000000E+00 -0.45593999997E+02  0.45594000000E+02  0.51100000000E-03 0. -1.
         23    2    1    2    0    0  0.00000000000E+00  0.00000000000E+00  0.00000000000E+00  0.91188000000E+02  0.91188000000E+02 0.  0.
    9900012    2    3    3    0    0  0.20525006923E+02 -0.28575781779E+02  0.25412050819E+02  0.47787267974E+02  0.19999986003E+02 0.  0.
        -12    1    3    3    0    0 -0.20525006923E+02  0.28575781779E+02 -0.25412050819E+02  0.43400732026E+02  0.00000000000E+00 0.  1.
         11    1    4    4    0    0  0.50421472323E+01 -0.12455817161E+02  0.46872126277E+01  0.14231675669E+02  0.51100000000E-03 0. -1.
        -11    1    4    4    0    0  0.31524349736E+01 -0.22962582070E+01 -0.18806842133E+01  0.43298523517E+01  0.51100000000E-03 0.  1.
        -12    1    4    4    0    0  0.12330424717E+02 -0.13823706411E+02  0.22605522405E+02  0.29225739954E+02  0.00000000000E+00 0.  1.
</event>
<event>
 8    1  0.3776180E-010  0.9118800E+02  0.7816164E-02  0.1184000E+00
        -11   -1    0    0    0    0  0.00000000000E+00  0.00000000000E+00  0.45593999997E+02  0.45594000000E+02  0.51100000000E-03 0. -1.
         11   -1    0    0    0    0 -0.00000000000E+00 -0.00000000000E+00 -0.45593999997E+02  0.45594000000E+02  0.51100000000E-03 0.  1.
         23    2    1    2    0    0  0.88817841970E-15  0.71054273576E-14  0.00000000000E+00  0.91188000000E+02  0.91188000000E+02 0.  0.
    9900012    2    3    3    0    0 -0.69710785031E+01 -0.38776755173E+02  0.18204139477E+02  0.47787269921E+02  0.19999994880E+02 0.  0.
        -12    1    3    3    0    0  0.69710785031E+01  0.38776755173E+02 -0.18204139477E+02  0.43400730079E+02  0.00000000000E+00 0.  1.
         11    1    4    4    0    0 -0.55759927607E+01 -0.15414924670E+02  0.12840559763E+02  0.20822861790E+02  0.51100000000E-03 0. -1.
        -11    1    4    4    0    0 -0.95374878018E+00  0.12862835656E+01  0.11091704581E+01  0.19479274917E+01  0.51100000000E-03 0.  1.
        -12    1    4    4    0    0 -0.44133696229E+00 -0.24648114069E+02  0.42544092556E+01  0.25016480640E+02  0.00000000000E+00 0.  1.
</event>
<event>
 8    1  0.3776180E-010  0.9118800E+02  0.7816164E-02  0.1184000E+00
        -11   -1    0    0    0    0  0.00000000000E+00  0.00000000000E+00  0.45593999997E+02  0.45594000000E+02  0.51100000000E-03 0. -1.
         11   -1    0    0    0    0 -0.00000000000E+00 -0.00000000000E+00 -0.45593999997E+02  0.45594000000E+02  0.51100000000E-03 0.  1.
         23    2    1    2    0    0  0.35527136788E-14 -0.88817841970E-15  0.00000000000E+00  0.91188000000E+02  0.91188000000E+02 0.  0.
    9900012    2    3    3    0    0 -0.24769676854E+02  0.74606571231E+01  0.34848601714E+02  0.47787270311E+02  0.19999996655E+02 0.  0.
        -12    1    3    3    0    0  0.24769676854E+02 -0.74606571231E+01 -0.34848601714E+02  0.43400729689E+02  0.00000000000E+00 0.  1.
         11    1    4    4    0    0 -0.88080071099E+01 -0.11517004449E+00  0.14275365562E+02  0.16774394641E+02  0.51100000000E-03 0.  1.
        -11    1    4    4    0    0 -0.17329995339E+02  0.21673705397E+01  0.13944563481E+02  0.22348983969E+02  0.51100000000E-03 0. -1.
        -12    1    4    4    0    0  0.13683255949E+01  0.54084566278E+01  0.66286726708E+01  0.86638917010E+01  0.00000000000E+00 0.  1.
</event>
<event>
 8    1  0.5187870E-010  0.9118800E+02  0.7816164E-02  0.1184000E+00
        -11   -1    0    0    0    0  0.00000000000E+00  0.00000000000E+00  0.45593999997E+02  0.45594000000E+02  0.51100000000E-03 0. -1.
         11   -1    0    0    0    0 -0.00000000000E+00 -0.00000000000E+00 -0.45593999997E+02  0.45594000000E+02  0.51100000000E-03 0.  1.
         23    2    1    2    0    0  0.00000000000E+00 -0.35527136788E-14  0.71054273576E-14  0.91188000000E+02  0.91188000000E+02 0.  0.
    9900012    2    3    3    0    0 -0.10544783141E+02 -0.26402073752E+02  0.32792702192E+02  0.47787271124E+02  0.20000000363E+02 0.  0.
        -12    1    3    3    0    0  0.10544783141E+02  0.26402073752E+02 -0.32792702192E+02  0.43400728876E+02  0.00000000000E+00 0.  1.
         11    1    4    4    0    0 -0.46105549954E+01 -0.11336163894E+02  0.13735190143E+02  0.18396229986E+02  0.51100000000E-03 0. -1.
        -11    1    4    4    0    0 -0.62600608413E+01 -0.11727138865E+02  0.21474729528E+02  0.25256249845E+02  0.51100000000E-03 0.  1.
        -12    1    4    4    0    0  0.32583269608E+00 -0.33387709937E+01 -0.24172174786E+01  0.41347912926E+01  0.00000000000E+00 0.  1.
</event>
<event>
 8    1  0.3776180E-010  0.9118800E+02  0.7816164E-02  0.1184000E+00
        -11   -1    0    0    0    0  0.00000000000E+00  0.00000000000E+00  0.45593999997E+02  0.45594000000E+02  0.51100000000E-03 0. -1.
         11   -1    0    0    0    0 -0.00000000000E+00 -0.00000000000E+00 -0.45593999997E+02  0.45594000000E+02  0.51100000000E-03 0.  1.
         23    2    1    2    0    0  0.35527136788E-14  0.00000000000E+00 -0.71054273576E-14  0.91188000000E+02  0.91188000000E+02 0.  0.
    9900012    2    3    3    0    0 -0.25075017239E+02  0.88775028345E+01  0.34293686621E+02  0.47787268576E+02  0.19999988744E+02 0.  0.
        -12    1    3    3    0    0  0.25075017239E+02 -0.88775028345E+01 -0.34293686621E+02  0.43400731424E+02  0.00000000000E+00 0.  1.
         11    1    4    4    0    0 -0.16563335104E+02  0.15637513769E+01  0.19138036771E+02  0.25358506262E+02  0.51100000000E-03 0.  1.
        -11    1    4    4    0    0 -0.11428850254E+02  0.72085601740E+01  0.13358539325E+02  0.19000856061E+02  0.51100000000E-03 0. -1.
        -12    1    4    4    0    0  0.29171681182E+01  0.10519128361E+00  0.17971105246E+01  0.34279062522E+01  0.00000000000E+00 0.  1.
</event>
<event>
 8    1  0.3776180E-010  0.9118800E+02  0.7816164E-02  0.1184000E+00
        -11   -1    0    0    0    0  0.00000000000E+00  0.00000000000E+00  0.45593999997E+02  0.45594000000E+02  0.51100000000E-03 0. -1.
         11   -1    0    0    0    0 -0.00000000000E+00 -0.00000000000E+00 -0.45593999997E+02  0.45594000000E+02  0.51100000000E-03 0.  1.
         23    2    1    2    0    0  0.00000000000E+00  0.00000000000E+00  0.00000000000E+00  0.91188000000E+02  0.91188000000E+02 0.  0.
    9900012    2    3    3    0    0  0.15916737609E+02  0.31060164250E+02 -0.25798199174E+02  0.47787269362E+02  0.19999992328E+02 0.  0.
         12    1    3    3    0    0 -0.15916737609E+02 -0.31060164250E+02  0.25798199174E+02  0.43400730638E+02  0.00000000000E+00 0. -1.
         11    1    4    4    0    0 -0.25508330187E+00  0.34350870178E+01 -0.31311613741E+01  0.46550039873E+01  0.51100000000E-03 0. -1.
        -11    1    4    4    0    0  0.67163864604E+01  0.15262699835E+02 -0.21931722374E+02  0.27551048980E+02  0.51100000000E-03 0.  1.
         12    1    4    4    0    0  0.94554344503E+01  0.12362377397E+02 -0.73531542526E+00  0.15581216394E+02  0.00000000000E+00 0. -1.
</event>
<event>
 8    1  0.3776180E-010  0.9118800E+02  0.7816164E-02  0.1184000E+00
        -11   -1    0    0    0    0  0.00000000000E+00  0.00000000000E+00  0.45593999997E+02  0.45594000000E+02  0.51100000000E-03 0. -1.
         11   -1    0    0    0    0 -0.00000000000E+00 -0.00000000000E+00 -0.45593999997E+02  0.45594000000E+02  0.51100000000E-03 0.  1.
         23    2    1    2    0    0  0.35527136788E-14  0.00000000000E+00 -0.38857805862E-15  0.91188000000E+02  0.91188000000E+02 0.  0.
    9900012    2    3    3    0    0 -0.25130336838E+02  0.35383623726E+02  0.29775211631E+00  0.47787270583E+02  0.19999997897E+02 0.  0.
         12    1    3    3    0    0  0.25130336838E+02 -0.35383623726E+02 -0.29775211631E+00  0.43400729417E+02  0.00000000000E+00 0. -1.
         11    1    4    4    0    0 -0.30509524906E+01 -0.93772302853E-01 -0.10114356797E+01  0.32156036354E+01  0.51100000000E-03 0. -1.
        -11    1    4    4    0    0 -0.68423664708E+01  0.35776568902E+01 -0.42053696239E+01  0.87921977730E+01  0.51100000000E-03 0.  1.
         12    1    4    4    0    0 -0.15237017877E+02  0.31899739139E+02  0.55145574200E+01  0.35779469175E+02  0.00000000000E+00 0. -1.
</event>
<event>
 8    1  0.3776180E-010  0.9118800E+02  0.7816164E-02  0.1184000E+00
        -11   -1    0    0    0    0  0.00000000000E+00  0.00000000000E+00  0.45593999997E+02  0.45594000000E+02  0.51100000000E-03 0. -1.
         11   -1    0    0    0    0 -0.00000000000E+00 -0.00000000000E+00 -0.45593999997E+02  0.45594000000E+02  0.51100000000E-03 0.  1.
         23    2    1    2    0    0 -0.71054273576E-14  0.00000000000E+00  0.00000000000E+00  0.91188000000E+02  0.91188000000E+02 0.  0.
    9900012    2    3    3    0    0 -0.40132195464E+02 -0.26771456472E+01 -0.16305303901E+02  0.47787272393E+02  0.20000006147E+02 0.  0.
         12    1    3    3    0    0  0.40132195464E+02  0.26771456472E+01  0.16305303901E+02  0.43400727607E+02  0.00000000000E+00 0. -1.
         11    1    4    4    0    0 -0.18227154999E+02 -0.32860576909E+01 -0.11598394774E+02  0.21852920081E+02  0.51100000000E-03 0. -1.
        -11    1    4    4    0    0 -0.17157017323E+02 -0.41416083951E+00 -0.90647947538E+01  0.19408896847E+02  0.51100000000E-03 0.  1.
         12    1    4    4    0    0 -0.47480231414E+01  0.10230728832E+01  0.43578856267E+01  0.65254554639E+01  0.00000000000E+00 0. -1.
</event>
<event>
 8    1  0.3776180E-010  0.9118800E+02  0.7816164E-02  0.1184000E+00
        -11   -1    0    0    0    0  0.00000000000E+00  0.00000000000E+00  0.45593999997E+02  0.45594000000E+02  0.51100000000E-03 0.  1.
         11   -1    0    0    0    0 -0.00000000000E+00 -0.00000000000E+00 -0.45593999997E+02  0.45594000000E+02  0.51100000000E-03 0. -1.
         23    2    1    2    0    0  0.11102230246E-14  0.00000000000E+00  0.00000000000E+00  0.91188000000E+02  0.91188000000E+02 0.  0.
    9900012    2    3    3    0    0 -0.12049693024E+01  0.42888114700E+02  0.65407193288E+01  0.47787270249E+02  0.19999996374E+02 0.  0.
         12    1    3    3    0    0  0.12049693024E+01 -0.42888114700E+02 -0.65407193288E+01  0.43400729751E+02  0.00000000000E+00 0. -1.
         11    1    4    4    0    0 -0.24507693367E+01  0.17698695410E+01 -0.31349070698E+01  0.43550374432E+01  0.51100000000E-03 0. -1.
        -11    1    4    4    0    0 -0.24271908363E+01  0.11350363109E+02  0.64153620180E+01  0.13261933047E+02  0.51100000000E-03 0.  1.
         12    1    4    4    0    0  0.36729908706E+01  0.29767882050E+02  0.32602643806E+01  0.30170299759E+02  0.00000000000E+00 0. -1.
</event>
<event>
 8    1  0.3776180E-010  0.9118800E+02  0.7816164E-02  0.1184000E+00
        -11   -1    0    0    0    0  0.00000000000E+00  0.00000000000E+00  0.45593999997E+02  0.45594000000E+02  0.51100000000E-03 0. -1.
         11   -1    0    0    0    0 -0.00000000000E+00 -0.00000000000E+00 -0.45593999997E+02  0.45594000000E+02  0.51100000000E-03 0.  1.
         23    2    1    2    0    0  0.00000000000E+00  0.00000000000E+00  0.88817841970E-15  0.91188000000E+02  0.91188000000E+02 0.  0.
    9900012    2    3    3    0    0  0.38426944009E+02 -0.18631489843E+02 -0.77370006981E+01  0.47787267063E+02  0.19999981848E+02 0.  0.
         12    1    3    3    0    0 -0.38426944009E+02  0.18631489843E+02  0.77370006981E+01  0.43400732937E+02  0.00000000000E+00 0. -1.
         11    1    4    4    0    0  0.11445630029E+02 -0.74512229962E+01  0.11157621042E+01  0.13702849931E+02  0.51100000000E-03 0.  1.
        -11    1    4    4    0    0 -0.70576741378E-01  0.18727234212E+01  0.14077057090E+01  0.23438664025E+01  0.51100000000E-03 0. -1.
        -12    1    4    4    0    0  0.27051890722E+02 -0.13052990268E+02 -0.10260468511E+02  0.31740550730E+02  0.00000000000E+00 0.  1.
</event>
<event>
 8    1  0.3776180E-010  0.9118800E+02  0.7816164E-02  0.1184000E+00
        -11   -1    0    0    0    0  0.00000000000E+00  0.00000000000E+00  0.45593999997E+02  0.45594000000E+02  0.51100000000E-03 0. -1.
         11   -1    0    0    0    0 -0.00000000000E+00 -0.00000000000E+00 -0.45593999997E+02  0.45594000000E+02  0.51100000000E-03 0.  1.
         23    2    1    2    0    0  0.00000000000E+00 -0.71054273576E-14  0.35527136788E-14  0.91188000000E+02  0.91188000000E+02 0.  0.
    9900012    2    3    3    0    0  0.14140009813E+02 -0.36044359298E+02  0.19608360158E+02  0.47787268407E+02  0.19999987975E+02 0.  0.
        -12    1    3    3    0    0 -0.14140009813E+02  0.36044359298E+02 -0.19608360158E+02  0.43400731593E+02  0.00000000000E+00 0.  1.
         11    1    4    4    0    0 -0.15395942065E+01 -0.10768563395E+00  0.65099822644E+00  0.16750359604E+01  0.51100000000E-03 0. -1.
        -11    1    4    4    0    0  0.15011415093E+01 -0.12007477893E+02 -0.59130353095E+00  0.12115386552E+02  0.51100000000E-03 0.  1.
         12    1    4    4    0    0  0.14178462510E+02 -0.23929195771E+02  0.19548665463E+02  0.33996845894E+02  0.00000000000E+00 0. -1.
</event>
<event>
 8    1  0.3776180E-010  0.9118800E+02  0.7816164E-02  0.1184000E+00
        -11   -1    0    0    0    0  0.00000000000E+00  0.00000000000E+00  0.45593999997E+02  0.45594000000E+02  0.51100000000E-03 0. -1.
         11   -1    0    0    0    0 -0.00000000000E+00 -0.00000000000E+00 -0.45593999997E+02  0.45594000000E+02  0.51100000000E-03 0.  1.
         23    2    1    2    0    0  0.00000000000E+00 -0.35527136788E-14  0.00000000000E+00  0.91188000000E+02  0.91188000000E+02 0.  0.
    9900012    2    3    3    0    0 -0.23242624409E+02  0.25516084739E+02  0.26312224535E+02  0.47787270400E+02  0.19999997063E+02 0.  0.
        -12    1    3    3    0    0  0.23242624409E+02 -0.25516084739E+02 -0.26312224535E+02  0.43400729600E+02  0.00000000000E+00 0.  1.
         11    1    4    4    0    0 -0.60231788924E+01  0.67907233108E+01  0.10317050880E+02  0.13741693716E+02  0.51100000000E-03 0. -1.
        -11    1    4    4    0    0 -0.59319543871E+01 -0.37819467957E+00  0.89893844615E+01  0.10776833827E+02  0.51100000000E-03 0.  1.
         12    1    4    4    0    0 -0.11287491130E+02  0.19103556108E+02  0.70057891927E+01  0.23268742858E+02  0.00000000000E+00 0. -1.
</event>
<event>
 8    1  0.3776180E-010  0.9118800E+02  0.7816164E-02  0.1184000E+00
        -11   -1    0    0    0    0  0.00000000000E+00  0.00000000000E+00  0.45593999997E+02  0.45594000000E+02  0.51100000000E-03 0.  1.
         11   -1    0    0    0    0 -0.00000000000E+00 -0.00000000000E+00 -0.45593999997E+02  0.45594000000E+02  0.51100000000E-03 0. -1.
         23    2    1    2    0    0  0.22204460493E-15  0.00000000000E+00  0.00000000000E+00  0.91188000000E+02  0.91188000000E+02 0.  0.
    9900012    2    3    3    0    0 -0.86077757741E+00 -0.41708226387E+02 -0.11971070854E+02  0.47787267013E+02  0.19999981620E+02 0.  0.
        -12    1    3    3    0    0  0.86077757741E+00  0.41708226387E+02  0.11971070854E+02  0.43400732987E+02  0.00000000000E+00 0.  1.
         11    1    4    4    0    0 -0.15405663106E+01 -0.63622318373E+01 -0.24073829942E+01  0.69747280700E+01  0.51100000000E-03 0. -1.
        -11    1    4    4    0    0  0.54128902695E+01 -0.99779078348E+01 -0.98135759159E+01  0.15005475612E+02  0.51100000000E-03 0.  1.
         12    1    4    4    0    0 -0.47331015364E+01 -0.25368086715E+02  0.24988805610E+00  0.25807063331E+02  0.00000000000E+00 0. -1.
</event>
<event>
 8    1  0.3776180E-010  0.9118800E+02  0.7816164E-02  0.1184000E+00
        -11   -1    0    0    0    0  0.00000000000E+00  0.00000000000E+00  0.45593999997E+02  0.45594000000E+02  0.51100000000E-03 0. -1.
         11   -1    0    0    0    0 -0.00000000000E+00 -0.00000000000E+00 -0.45593999997E+02  0.45594000000E+02  0.51100000000E-03 0.  1.
         23    2    1    2    0    0  0.00000000000E+00  0.00000000000E+00  0.00000000000E+00  0.91188000000E+02  0.91188000000E+02 0.  0.
    9900012    2    3    3    0    0 -0.23024616498E+02  0.57596401655E+01 -0.36336170844E+02  0.47787265775E+02  0.19999975972E+02 0.  0.
         12    1    3    3    0    0  0.23024616498E+02 -0.57596401655E+01  0.36336170844E+02  0.43400734225E+02  0.00000000000E+00 0. -1.
         11    1    4    4    0    0 -0.46015789104E+01 -0.43494787306E+01 -0.10669856663E+02  0.12407188850E+02  0.51100000000E-03 0. -1.
        -11    1    4    4    0    0 -0.71273435286E+01  0.85588496742E+00 -0.17992678895E+01  0.74006033572E+01  0.51100000000E-03 0.  1.
        -12    1    4    4    0    0 -0.11295694059E+02  0.92532339287E+01 -0.23867046291E+02  0.27979473567E+02  0.00000000000E+00 0.  1.
</event>
<event>
 8    1  0.3776180E-010  0.9118800E+02  0.7816164E-02  0.1184000E+00
        -11   -1    0    0    0    0  0.00000000000E+00  0.00000000000E+00  0.45593999997E+02  0.45594000000E+02  0.51100000000E-03 0. -1.
         11   -1    0    0    0    0 -0.00000000000E+00 -0.00000000000E+00 -0.45593999997E+02  0.45594000000E+02  0.51100000000E-03 0.  1.
         23    2    1    2    0    0  0.35527136788E-14  0.00000000000E+00 -0.35527136788E-14  0.91188000000E+02  0.91188000000E+02 0.  0.
    9900012    2    3    3    0    0  0.28177540099E+02 -0.12948291140E+02  0.30364284154E+02  0.47787288466E+02  0.20000079431E+02 0.  0.
        -12    1    3    3    0    0 -0.28177540099E+02  0.12948291140E+02 -0.30364284154E+02  0.43400711534E+02  0.00000000000E+00 0.  1.
         11    1    4    4    0    0  0.12595356862E+02 -0.12427926436E+02  0.19878058745E+02  0.26612658449E+02  0.51100000000E-03 0. -1.
        -11    1    4    4    0    0  0.58875199080E+01 -0.29764447343E+01 -0.11819982743E+00  0.65981880379E+01  0.51100000000E-03 0.  1.
        -12    1    4    4    0    0  0.96946633291E+01  0.24560800302E+01  0.10604425236E+02  0.14576441979E+02  0.00000000000E+00 0.  1.
</event>
<event>
 8    1  0.3776180E-010  0.9118800E+02  0.7816164E-02  0.1184000E+00
        -11   -1    0    0    0    0  0.00000000000E+00  0.00000000000E+00  0.45593999997E+02  0.45594000000E+02  0.51100000000E-03 0.  1.
         11   -1    0    0    0    0 -0.00000000000E+00 -0.00000000000E+00 -0.45593999997E+02  0.45594000000E+02  0.51100000000E-03 0. -1.
         23    2    1    2    0    0  0.00000000000E+00  0.17763568394E-14 -0.11102230246E-14  0.91188000000E+02  0.91188000000E+02 0.  0.
    9900012    2    3    3    0    0 -0.40973185482E+02  0.14275295882E+02 -0.10184865874E+01  0.47787270560E+02  0.19999997791E+02 0.  0.
         12    1    3    3    0    0  0.40973185482E+02 -0.14275295882E+02  0.10184865874E+01  0.43400729440E+02  0.00000000000E+00 0. -1.
         11    1    4    4    0    0 -0.13871562311E+01  0.33467877201E+01 -0.26454452153E+01  0.44859303496E+01  0.51100000000E-03 0.  1.
        -11    1    4    4    0    0 -0.21109883525E+02  0.10397423797E+02 -0.42364591188E+01  0.23909855503E+02  0.51100000000E-03 0. -1.
        -12    1    4    4    0    0 -0.18476145725E+02  0.53108436417E+00  0.58634177468E+01  0.19391484707E+02  0.00000000000E+00 0.  1.
</event>
<event>
 8    1  0.3776180E-010  0.9118800E+02  0.7816164E-02  0.1184000E+00
        -11   -1    0    0    0    0  0.00000000000E+00  0.00000000000E+00  0.45593999997E+02  0.45594000000E+02  0.51100000000E-03 0.  1.
         11   -1    0    0    0    0 -0.00000000000E+00 -0.00000000000E+00 -0.45593999997E+02  0.45594000000E+02  0.51100000000E-03 0. -1.
         23    2    1    2    0    0  0.00000000000E+00  0.00000000000E+00  0.00000000000E+00  0.91188000000E+02  0.91188000000E+02 0.  0.
    9900012    2    3    3    0    0  0.38611866586E+02 -0.17937500863E+02 -0.84257239805E+01  0.47787274164E+02  0.20000014223E+02 0.  0.
        -12    1    3    3    0    0 -0.38611866586E+02  0.17937500863E+02  0.84257239805E+01  0.43400725836E+02  0.00000000000E+00 0.  1.
         11    1    4    4    0    0  0.11201070691E+02 -0.26400520892E+01 -0.98261455260E+00  0.11549865423E+02  0.51100000000E-03 0. -1.
        -11    1    4    4    0    0  0.80409394360E+01 -0.12235350655E+02  0.14344791548E+01  0.14711160504E+02  0.51100000000E-03 0.  1.
        -12    1    4    4    0    0  0.19369856459E+02 -0.30620981192E+01 -0.88775885827E+01  0.21526248237E+02  0.00000000000E+00 0.  1.
</event>
<event>
 8    1  0.3776180E-010  0.9118800E+02  0.7816164E-02  0.1184000E+00
        -11   -1    0    0    0    0  0.00000000000E+00  0.00000000000E+00  0.45593999997E+02  0.45594000000E+02  0.51100000000E-03 0. -1.
         11   -1    0    0    0    0 -0.00000000000E+00 -0.00000000000E+00 -0.45593999997E+02  0.45594000000E+02  0.51100000000E-03 0.  1.
         23    2    1    2    0    0  0.00000000000E+00  0.00000000000E+00  0.00000000000E+00  0.91188000000E+02  0.91188000000E+02 0.  0.
    9900012    2    3    3    0    0 -0.27774261591E+02  0.19911356624E+01 -0.33290378914E+02  0.47787267789E+02  0.19999985159E+02 0.  0.
         12    1    3    3    0    0  0.27774261591E+02 -0.19911356624E+01  0.33290378914E+02  0.43400732211E+02  0.00000000000E+00 0. -1.
         11    1    4    4    0    0  0.15125323954E+01  0.38549197788E+01 -0.74494335000E+01  0.85230405654E+01  0.51100000000E-03 0. -1.
        -11    1    4    4    0    0 -0.58785979313E+01  0.10384821443E+01 -0.55167586160E+01  0.81284060362E+01  0.51100000000E-03 0.  1.
         12    1    4    4    0    0 -0.23408196055E+02 -0.29022662606E+01 -0.20324186798E+02  0.31135821188E+02  0.00000000000E+00 0. -1.
</event>
<event>
 8    1  0.3776180E-010  0.9118800E+02  0.7816164E-02  0.1184000E+00
        -11   -1    0    0    0    0  0.00000000000E+00  0.00000000000E+00  0.45593999997E+02  0.45594000000E+02  0.51100000000E-03 0. -1.
         11   -1    0    0    0    0 -0.00000000000E+00 -0.00000000000E+00 -0.45593999997E+02  0.45594000000E+02  0.51100000000E-03 0.  1.
         23    2    1    2    0    0 -0.17763568394E-14  0.17763568394E-14  0.00000000000E+00  0.91188000000E+02  0.91188000000E+02 0.  0.
    9900012    2    3    3    0    0 -0.12928511607E+02 -0.93069174312E+01  0.40371498776E+02  0.47787273763E+02  0.20000012397E+02 0.  0.
        -12    1    3    3    0    0  0.12928511607E+02  0.93069174312E+01 -0.40371498776E+02  0.43400726237E+02  0.00000000000E+00 0.  1.
         11    1    4    4    0    0  0.12892482498E+01 -0.53690970073E+01  0.14443123105E+02  0.15462637841E+02  0.51100000000E-03 0. -1.
        -11    1    4    4    0    0  0.20615499619E+01 -0.11039727522E+01  0.13265911876E+01  0.26886034522E+01  0.51100000000E-03 0.  1.
         12    1    4    4    0    0 -0.16279309819E+02 -0.28338476717E+01  0.24601784484E+02  0.29636032470E+02  0.00000000000E+00 0. -1.
</event>
<event>
 8    1  0.3776180E-010  0.9118800E+02  0.7816164E-02  0.1184000E+00
        -11   -1    0    0    0    0  0.00000000000E+00  0.00000000000E+00  0.45593999997E+02  0.45594000000E+02  0.51100000000E-03 0. -1.
         11   -1    0    0    0    0 -0.00000000000E+00 -0.00000000000E+00 -0.45593999997E+02  0.45594000000E+02  0.51100000000E-03 0.  1.
         23    2    1    2    0    0  0.00000000000E+00  0.00000000000E+00  0.00000000000E+00  0.91188000000E+02  0.91188000000E+02 0.  0.
    9900012    2    3    3    0    0 -0.41032012862E+01 -0.23048698645E+02  0.36545099881E+02  0.47787273101E+02  0.20000009376E+02 0.  0.
        -12    1    3    3    0    0  0.41032012862E+01  0.23048698645E+02 -0.36545099881E+02  0.43400726899E+02  0.00000000000E+00 0.  1.
         11    1    4    4    0    0 -0.55448693302E+01 -0.15097797706E+02  0.16947143956E+02  0.23364390854E+02  0.51100000000E-03 0. -1.
        -11    1    4    4    0    0  0.23111766046E+01 -0.78043699081E+01  0.45025736962E+01  0.93017684937E+01  0.51100000000E-03 0.  1.
         12    1    4    4    0    0 -0.86950856057E+00 -0.14653103122E+00  0.15095382229E+02  0.15121113753E+02  0.00000000000E+00 0. -1.
</event>
<event>
 8    1  0.3776180E-010  0.9118800E+02  0.7816164E-02  0.1184000E+00
        -11   -1    0    0    0    0  0.00000000000E+00  0.00000000000E+00  0.45593999997E+02  0.45594000000E+02  0.51100000000E-03 0. -1.
         11   -1    0    0    0    0 -0.00000000000E+00 -0.00000000000E+00 -0.45593999997E+02  0.45594000000E+02  0.51100000000E-03 0.  1.
         23    2    1    2    0    0  0.00000000000E+00  0.35527136788E-14  0.00000000000E+00  0.91188000000E+02  0.91188000000E+02 0.  0.
    9900012    2    3    3    0    0  0.12112426963E+02 -0.28762181986E+02 -0.30160408561E+02  0.47787259867E+02  0.19999949037E+02 0.  0.
         12    1    3    3    0    0 -0.12112426963E+02  0.28762181986E+02  0.30160408561E+02  0.43400740133E+02  0.00000000000E+00 0. -1.
         11    1    4    4    0    0  0.63417334822E+01 -0.12662064993E+02 -0.17058629843E+02  0.22170753840E+02  0.51100000000E-03 0. -1.
        -11    1    4    4    0    0  0.92608116231E+01 -0.85551640490E+01 -0.11672596623E+02  0.17181471881E+02  0.51100000000E-03 0.  1.
         12    1    4    4    0    0 -0.34901181426E+01 -0.75449529442E+01 -0.14291820946E+01  0.84350341457E+01  0.00000000000E+00 0. -1.
</event>
<event>
 8    1  0.3776180E-010  0.9118800E+02  0.7816164E-02  0.1184000E+00
        -11   -1    0    0    0    0  0.00000000000E+00  0.00000000000E+00  0.45593999997E+02  0.45594000000E+02  0.51100000000E-03 0. -1.
         11   -1    0    0    0    0 -0.00000000000E+00 -0.00000000000E+00 -0.45593999997E+02  0.45594000000E+02  0.51100000000E-03 0.  1.
         23    2    1    2    0    0  0.00000000000E+00  0.11102230246E-15  0.00000000000E+00  0.91188000000E+02  0.91188000000E+02 0.  0.
    9900012    2    3    3    0    0  0.10439988306E+02  0.58600417531E+00 -0.42122281310E+02  0.47787270288E+02  0.19999996551E+02 0.  0.
         12    1    3    3    0    0 -0.10439988306E+02 -0.58600417531E+00  0.42122281310E+02  0.43400729712E+02  0.00000000000E+00 0. -1.
         11    1    4    4    0    0 -0.53518039435E+00 -0.19805341245E+01  0.57987991263E+00  0.21319461642E+01  0.51100000000E-03 0. -1.
        -11    1    4    4    0    0  0.10452244270E+01  0.39805313172E+01 -0.42480724695E+01  0.59146634424E+01  0.51100000000E-03 0.  1.
        -12    1    4    4    0    0  0.99299442737E+01 -0.14139930174E+01 -0.38454088754E+02  0.39740660681E+02  0.00000000000E+00 0.  1.
</event>
<event>
 8    1  0.3776180E-010  0.9118800E+02  0.7816164E-02  0.1184000E+00
        -11   -1    0    0    0    0  0.00000000000E+00  0.00000000000E+00  0.45593999997E+02  0.45594000000E+02  0.51100000000E-03 0. -1.
         11   -1    0    0    0    0 -0.00000000000E+00 -0.00000000000E+00 -0.45593999997E+02  0.45594000000E+02  0.51100000000E-03 0.  1.
         23    2    1    2    0    0 -0.17763568394E-14  0.38857805862E-15  0.00000000000E+00  0.91188000000E+02  0.91188000000E+02 0.  0.
    9900012    2    3    3    0    0 -0.11845072819E+02  0.14839335370E+00 -0.41752789831E+02  0.47787271557E+02  0.20000002338E+02 0.  0.
         12    1    3    3    0    0  0.11845072819E+02 -0.14839335370E+00  0.41752789831E+02  0.43400728443E+02  0.00000000000E+00 0. -1.
         11    1    4    4    0    0  0.17158487346E+01  0.37751282156E+01 -0.24401957491E+01  0.48114743561E+01  0.51100000000E-03 0. -1.
        -11    1    4    4    0    0 -0.46690081803E+00 -0.13976327391E+01 -0.16594191395E+02  0.16659488647E+02  0.51100000000E-03 0.  1.
        -12    1    4    4    0    0 -0.13094020735E+02 -0.22291021228E+01 -0.22718402687E+02  0.26316308554E+02  0.00000000000E+00 0.  1.
</event>
<event>
 8    1  0.3776180E-010  0.9118800E+02  0.7816164E-02  0.1184000E+00
        -11   -1    0    0    0    0  0.00000000000E+00  0.00000000000E+00  0.45593999997E+02  0.45594000000E+02  0.51100000000E-03 0. -1.
         11   -1    0    0    0    0 -0.00000000000E+00 -0.00000000000E+00 -0.45593999997E+02  0.45594000000E+02  0.51100000000E-03 0.  1.
         23    2    1    2    0    0 -0.35527136788E-14  0.35527136788E-14  0.00000000000E+00  0.91188000000E+02  0.91188000000E+02 0.  0.
    9900012    2    3    3    0    0  0.24599154401E+02 -0.25054743013E+02 -0.25510081901E+02  0.47787276235E+02  0.20000023668E+02 0.  0.
         12    1    3    3    0    0 -0.24599154401E+02  0.25054743013E+02  0.25510081901E+02  0.43400723765E+02  0.00000000000E+00 0. -1.
         11    1    4    4    0    0  0.29638003514E+01  0.85966613297E+00 -0.31583679990E+01  0.44157023293E+01  0.51100000000E-03 0. -1.
        -11    1    4    4    0    0  0.13529175960E+02 -0.58157610909E+01 -0.48155838755E+01  0.15493596340E+02  0.51100000000E-03 0.  1.
        -12    1    4    4    0    0  0.81061780891E+01 -0.20098648056E+02 -0.17536130026E+02  0.27877977566E+02  0.00000000000E+00 0.  1.
</event>
<event>
 8    1  0.3776180E-010  0.9118800E+02  0.7816164E-02  0.1184000E+00
        -11   -1    0    0    0    0  0.00000000000E+00  0.00000000000E+00  0.45593999997E+02  0.45594000000E+02  0.51100000000E-03 0. -1.
         11   -1    0    0    0    0 -0.00000000000E+00 -0.00000000000E+00 -0.45593999997E+02  0.45594000000E+02  0.51100000000E-03 0.  1.
         23    2    1    2    0    0  0.00000000000E+00 -0.35527136788E-14  0.00000000000E+00  0.91188000000E+02  0.91188000000E+02 0.  0.
    9900012    2    3    3    0    0  0.14661215270E+02  0.29265138268E+02 -0.28499537912E+02  0.47787271754E+02  0.20000003237E+02 0.  0.
         12    1    3    3    0    0 -0.14661215270E+02 -0.29265138268E+02  0.28499537912E+02  0.43400728246E+02  0.00000000000E+00 0. -1.
         11    1    4    4    0    0  0.10633346757E+02  0.54360391578E+01 -0.66292119731E+01  0.13658881237E+02  0.51100000000E-03 0.  1.
        -11    1    4    4    0    0  0.48204712519E+01  0.96518738090E+01 -0.14663610800E+02  0.18204864544E+02  0.51100000000E-03 0. -1.
         12    1    4    4    0    0 -0.79260273973E+00  0.14177225301E+02 -0.72067151395E+01  0.15923525974E+02  0.00000000000E+00 0. -1.
</event>
<event>
 8    1  0.3776180E-010  0.9118800E+02  0.7816164E-02  0.1184000E+00
        -11   -1    0    0    0    0  0.00000000000E+00  0.00000000000E+00  0.45593999997E+02  0.45594000000E+02  0.51100000000E-03 0. -1.
         11   -1    0    0    0    0 -0.00000000000E+00 -0.00000000000E+00 -0.45593999997E+02  0.45594000000E+02  0.51100000000E-03 0.  1.
         23    2    1    2    0    0  0.00000000000E+00  0.00000000000E+00  0.00000000000E+00  0.91188000000E+02  0.91188000000E+02 0.  0.
    9900012    2    3    3    0    0  0.87819522243E+00 -0.59627345715E+01 -0.42980198449E+02  0.47787275477E+02  0.20000020208E+02 0.  0.
         12    1    3    3    0    0 -0.87819522243E+00  0.59627345715E+01  0.42980198449E+02  0.43400724523E+02  0.00000000000E+00 0. -1.
         11    1    4    4    0    0  0.37883593640E+01 -0.18144714766E+01 -0.70996999557E+01  0.82492250019E+01  0.51100000000E-03 0. -1.
        -11    1    4    4    0    0 -0.29116195315E+01 -0.99767848527E+01 -0.18675529714E+02  0.21372626761E+02  0.51100000000E-03 0.  1.
        -12    1    4    4    0    0  0.14553899378E-02  0.58285217578E+01 -0.17204968779E+02  0.18165423714E+02  0.00000000000E+00 0.  1.
</event>
<event>
 8    1  0.3776180E-010  0.9118800E+02  0.7816164E-02  0.1184000E+00
        -11   -1    0    0    0    0  0.00000000000E+00  0.00000000000E+00  0.45593999997E+02  0.45594000000E+02  0.51100000000E-03 0. -1.
         11   -1    0    0    0    0 -0.00000000000E+00 -0.00000000000E+00 -0.45593999997E+02  0.45594000000E+02  0.51100000000E-03 0.  1.
         23    2    1    2    0    0 -0.88817841970E-15 -0.35527136788E-14 -0.71054273576E-14  0.91188000000E+02  0.91188000000E+02 0.  0.
    9900012    2    3    3    0    0 -0.47311489834E+01 -0.24174975290E+02 -0.35732488695E+02  0.47787263263E+02  0.19999964520E+02 0.  0.
         12    1    3    3    0    0  0.47311489834E+01  0.24174975290E+02  0.35732488695E+02  0.43400736737E+02  0.00000000000E+00 0. -1.
         11    1    4    4    0    0 -0.17981264009E+01 -0.65356839135E+01 -0.91637297174E+01  0.11398349239E+02  0.51100000000E-03 0. -1.
        -11    1    4    4    0    0  0.44823818514E+01 -0.12485254514E+00 -0.10760600704E+02  0.11657523879E+02  0.51100000000E-03 0.  1.
         12    1    4    4    0    0 -0.74154044339E+01 -0.17514438831E+02 -0.15808158274E+02  0.24731390145E+02  0.00000000000E+00 0. -1.
</event>
<event>
 8    1  0.3776180E-010  0.9118800E+02  0.7816164E-02  0.1184000E+00
        -11   -1    0    0    0    0  0.00000000000E+00  0.00000000000E+00  0.45593999997E+02  0.45594000000E+02  0.51100000000E-03 0. -1.
         11   -1    0    0    0    0 -0.00000000000E+00 -0.00000000000E+00 -0.45593999997E+02  0.45594000000E+02  0.51100000000E-03 0.  1.
         23    2    1    2    0    0  0.00000000000E+00 -0.35527136788E-14  0.00000000000E+00  0.91188000000E+02  0.91188000000E+02 0.  0.
    9900012    2    3    3    0    0 -0.27023813491E+02  0.31202220264E+02  0.13407397313E+02  0.47787270194E+02  0.19999996121E+02 0.  0.
        -12    1    3    3    0    0  0.27023813491E+02 -0.31202220264E+02 -0.13407397313E+02  0.43400729806E+02  0.00000000000E+00 0.  1.
         11    1    4    4    0    0 -0.85492872930E+01  0.87007312304E+01  0.10185760873E+02  0.15891594067E+02  0.51100000000E-03 0. -1.
        -11    1    4    4    0    0 -0.21235596590E+01  0.11569952180E+02  0.33347998005E+01  0.12226781630E+02  0.51100000000E-03 0.  1.
         12    1    4    4    0    0 -0.16350966539E+02  0.10931536854E+02 -0.11316336109E+00  0.19668894496E+02  0.00000000000E+00 0. -1.
</event>
<event>
 8    1  0.3776180E-010  0.9118800E+02  0.7816164E-02  0.1184000E+00
        -11   -1    0    0    0    0  0.00000000000E+00  0.00000000000E+00  0.45593999997E+02  0.45594000000E+02  0.51100000000E-03 0. -1.
         11   -1    0    0    0    0 -0.00000000000E+00 -0.00000000000E+00 -0.45593999997E+02  0.45594000000E+02  0.51100000000E-03 0.  1.
         23    2    1    2    0    0  0.35527136788E-14  0.00000000000E+00  0.88817841970E-15  0.91188000000E+02  0.91188000000E+02 0.  0.
    9900012    2    3    3    0    0  0.26477054475E+02  0.33783903180E+02  0.64215897448E+01  0.47787270253E+02  0.19999996390E+02 0.  0.
        -12    1    3    3    0    0 -0.26477054475E+02 -0.33783903180E+02 -0.64215897448E+01  0.43400729747E+02  0.00000000000E+00 0.  1.
         11    1    4    4    0    0 -0.57895658640E+00  0.25224993560E+01 -0.15855572324E+01  0.30351582707E+01  0.51100000000E-03 0. -1.
        -11    1    4    4    0    0  0.20614086669E+02  0.27078370878E+02  0.53493235263E+00  0.34036229102E+02  0.51100000000E-03 0.  1.
         12    1    4    4    0    0  0.64419243923E+01  0.41830329469E+01  0.74722146246E+01  0.10715882880E+02  0.00000000000E+00 0. -1.
</event>
<event>
 8    1  0.3776180E-010  0.9118800E+02  0.7816164E-02  0.1184000E+00
        -11   -1    0    0    0    0  0.00000000000E+00  0.00000000000E+00  0.45593999997E+02  0.45594000000E+02  0.51100000000E-03 0.  1.
         11   -1    0    0    0    0 -0.00000000000E+00 -0.00000000000E+00 -0.45593999997E+02  0.45594000000E+02  0.51100000000E-03 0. -1.
         23    2    1    2    0    0  0.71054273576E-14  0.35527136788E-14  0.00000000000E+00  0.91188000000E+02  0.91188000000E+02 0.  0.
    9900012    2    3    3    0    0 -0.28264376958E+02 -0.21345769272E+02  0.25081993047E+02  0.47787271368E+02  0.20000001474E+02 0.  0.
         12    1    3    3    0    0  0.28264376958E+02  0.21345769272E+02 -0.25081993047E+02  0.43400728632E+02  0.00000000000E+00 0. -1.
         11    1    4    4    0    0 -0.10155048703E+02 -0.31313001106E+01  0.29486601027E+01  0.11028356687E+02  0.51100000000E-03 0. -1.
        -11    1    4    4    0    0 -0.14476030934E+02 -0.15516777329E+02  0.93336342539E+01  0.23182807831E+02  0.51100000000E-03 0.  1.
         12    1    4    4    0    0 -0.36332973206E+01 -0.26976918319E+01  0.12799698690E+02  0.13576106850E+02  0.00000000000E+00 0. -1.
</event>
<event>
 8    1  0.3776180E-010  0.9118800E+02  0.7816164E-02  0.1184000E+00
        -11   -1    0    0    0    0  0.00000000000E+00  0.00000000000E+00  0.45593999997E+02  0.45594000000E+02  0.51100000000E-03 0.  1.
         11   -1    0    0    0    0 -0.00000000000E+00 -0.00000000000E+00 -0.45593999997E+02  0.45594000000E+02  0.51100000000E-03 0. -1.
         23    2    1    2    0    0  0.00000000000E+00  0.00000000000E+00  0.00000000000E+00  0.91188000000E+02  0.91188000000E+02 0.  0.
    9900012    2    3    3    0    0  0.36033593750E+02  0.20542929360E+02 -0.12774642729E+02  0.47787270489E+02  0.19999997466E+02 0.  0.
        -12    1    3    3    0    0 -0.36033593750E+02 -0.20542929360E+02  0.12774642729E+02  0.43400729511E+02  0.00000000000E+00 0.  1.
         11    1    4    4    0    0  0.12250670560E+02  0.68475109533E+01 -0.29766178881E+01  0.14346692641E+02  0.51100000000E-03 0. -1.
        -11    1    4    4    0    0  0.20232526397E+02  0.90000989173E+01 -0.15703617541E+00  0.22144560631E+02  0.51100000000E-03 0.  1.
         12    1    4    4    0    0  0.35503967931E+01  0.46953194892E+01 -0.96409886659E+01  0.11296017216E+02  0.00000000000E+00 0. -1.
</event>
<event>
 8    1  0.3776180E-010  0.9118800E+02  0.7816164E-02  0.1184000E+00
        -11   -1    0    0    0    0  0.00000000000E+00  0.00000000000E+00  0.45593999997E+02  0.45594000000E+02  0.51100000000E-03 0. -1.
         11   -1    0    0    0    0 -0.00000000000E+00 -0.00000000000E+00 -0.45593999997E+02  0.45594000000E+02  0.51100000000E-03 0.  1.
         23    2    1    2    0    0  0.00000000000E+00  0.00000000000E+00  0.00000000000E+00  0.91188000000E+02  0.91188000000E+02 0.  0.
    9900012    2    3    3    0    0  0.63970394866E+01  0.15422631070E+02  0.40060498027E+02  0.47787272293E+02  0.20000005695E+02 0.  0.
        -12    1    3    3    0    0 -0.63970394866E+01 -0.15422631070E+02 -0.40060498027E+02  0.43400727707E+02  0.00000000000E+00 0.  1.
         11    1    4    4    0    0 -0.12191952558E+01  0.49586894963E+01  0.29714946054E+01  0.59080300476E+01  0.51100000000E-03 0. -1.
        -11    1    4    4    0    0 -0.59022771474E+00 -0.25209766672E+01  0.12254315910E+01  0.28645025671E+01  0.51100000000E-03 0.  1.
         12    1    4    4    0    0  0.82064624571E+01  0.12984918240E+02  0.35863571830E+02  0.39014739679E+02  0.00000000000E+00 0. -1.
</event>
<event>
 8    1  0.3776180E-010  0.9118800E+02  0.7816164E-02  0.1184000E+00
        -11   -1    0    0    0    0  0.00000000000E+00  0.00000000000E+00  0.45593999997E+02  0.45594000000E+02  0.51100000000E-03 0. -1.
         11   -1    0    0    0    0 -0.00000000000E+00 -0.00000000000E+00 -0.45593999997E+02  0.45594000000E+02  0.51100000000E-03 0.  1.
         23    2    1    2    0    0  0.00000000000E+00 -0.88817841970E-15  0.00000000000E+00  0.91188000000E+02  0.91188000000E+02 0.  0.
    9900012    2    3    3    0    0  0.13252248081E+02  0.77765507149E+01 -0.40589732552E+02  0.47787271793E+02  0.20000003415E+02 0.  0.
         12    1    3    3    0    0 -0.13252248081E+02 -0.77765507149E+01  0.40589732552E+02  0.43400728207E+02  0.00000000000E+00 0. -1.
         11    1    4    4    0    0  0.29793594270E+01  0.45703509150E+01 -0.47916721208E+01  0.72611853065E+01  0.51100000000E-03 0. -1.
        -11    1    4    4    0    0  0.64108776298E+01  0.56344543122E+01 -0.61273224383E+01  0.10506688722E+02  0.51100000000E-03 0.  1.
        -12    1    4    4    0    0  0.38620110244E+01 -0.24282545123E+01 -0.29670737993E+02  0.30019397765E+02  0.00000000000E+00 0.  1.
</event>
<event>
 8    1  0.3776180E-010  0.9118800E+02  0.7816164E-02  0.1184000E+00
        -11   -1    0    0    0    0  0.00000000000E+00  0.00000000000E+00  0.45593999997E+02  0.45594000000E+02  0.51100000000E-03 0. -1.
         11   -1    0    0    0    0 -0.00000000000E+00 -0.00000000000E+00 -0.45593999997E+02  0.45594000000E+02  0.51100000000E-03 0.  1.
         23    2    1    2    0    0  0.00000000000E+00  0.00000000000E+00  0.00000000000E+00  0.91188000000E+02  0.91188000000E+02 0.  0.
    9900012    2    3    3    0    0  0.54372897862E+01  0.35326331390E+02  0.24619289190E+02  0.47787271781E+02  0.20000003358E+02 0.  0.
        -12    1    3    3    0    0 -0.54372897862E+01 -0.35326331390E+02 -0.24619289190E+02  0.43400728219E+02  0.00000000000E+00 0.  1.
         11    1    4    4    0    0  0.59153680717E+01  0.70532263830E+01  0.84886001438E+01  0.12521817540E+02  0.51100000000E-03 0.  1.
        -11    1    4    4    0    0 -0.28324998965E+01  0.10718200906E+02  0.13323021408E+02  0.17332218150E+02  0.51100000000E-03 0. -1.
        -12    1    4    4    0    0  0.23544216110E+01  0.17554904101E+02  0.28076676391E+01  0.17933236091E+02  0.00000000000E+00 0.  1.
</event>
<event>
 8    1  0.3776180E-010  0.9118800E+02  0.7816164E-02  0.1184000E+00
        -11   -1    0    0    0    0  0.00000000000E+00  0.00000000000E+00  0.45593999997E+02  0.45594000000E+02  0.51100000000E-03 0. -1.
         11   -1    0    0    0    0 -0.00000000000E+00 -0.00000000000E+00 -0.45593999997E+02  0.45594000000E+02  0.51100000000E-03 0.  1.
         23    2    1    2    0    0 -0.17763568394E-14  0.00000000000E+00 -0.71054273576E-14  0.91188000000E+02  0.91188000000E+02 0.  0.
    9900012    2    3    3    0    0  0.15319946344E+02  0.28219403992E+02 -0.29199104056E+02  0.47787271950E+02  0.20000004128E+02 0.  0.
         12    1    3    3    0    0 -0.15319946344E+02 -0.28219403992E+02  0.29199104056E+02  0.43400728050E+02  0.00000000000E+00 0. -1.
         11    1    4    4    0    0  0.91417177114E+01  0.15875533806E+02 -0.18299742533E+02  0.25893708761E+02  0.51100000000E-03 0.  1.
        -11    1    4    4    0    0  0.18855729036E+01 -0.24964412777E+01 -0.26747017873E+00  0.31399275128E+01  0.51100000000E-03 0. -1.
         12    1    4    4    0    0  0.42926557287E+01  0.14840311464E+02 -0.10631891344E+02  0.18753635676E+02  0.00000000000E+00 0. -1.
</event>
<event>
 8    1  0.3776180E-010  0.9118800E+02  0.7816164E-02  0.1184000E+00
        -11   -1    0    0    0    0  0.00000000000E+00  0.00000000000E+00  0.45593999997E+02  0.45594000000E+02  0.51100000000E-03 0. -1.
         11   -1    0    0    0    0 -0.00000000000E+00 -0.00000000000E+00 -0.45593999997E+02  0.45594000000E+02  0.51100000000E-03 0.  1.
         23    2    1    2    0    0  0.00000000000E+00  0.17763568394E-14  0.00000000000E+00  0.91188000000E+02  0.91188000000E+02 0.  0.
    9900012    2    3    3    0    0 -0.14320265762E+01 -0.97137858335E+01  0.42275417946E+02  0.47787316851E+02  0.20000208849E+02 0.  0.
        -12    1    3    3    0    0  0.14320265762E+01  0.97137858335E+01 -0.42275417946E+02  0.43400683149E+02  0.00000000000E+00 0.  1.
         11    1    4    4    0    0 -0.15808230812E+01 -0.11389109038E+01  0.27196552860E+01  0.33455410320E+01  0.51100000000E-03 0. -1.
        -11    1    4    4    0    0  0.16117724357E+01 -0.13151659905E+02  0.17964606111E+02  0.22322433596E+02  0.51100000000E-03 0.  1.
        -12    1    4    4    0    0 -0.14629759307E+01  0.45767849754E+01  0.21591156548E+02  0.22119342223E+02  0.00000000000E+00 0.  1.
</event>
<event>
 8    1  0.3776180E-010  0.9118800E+02  0.7816164E-02  0.1184000E+00
        -11   -1    0    0    0    0  0.00000000000E+00  0.00000000000E+00  0.45593999997E+02  0.45594000000E+02  0.51100000000E-03 0. -1.
         11   -1    0    0    0    0 -0.00000000000E+00 -0.00000000000E+00 -0.45593999997E+02  0.45594000000E+02  0.51100000000E-03 0.  1.
         23    2    1    2    0    0  0.00000000000E+00  0.00000000000E+00 -0.17763568394E-14  0.91188000000E+02  0.91188000000E+02 0.  0.
    9900012    2    3    3    0    0  0.37712134802E+02 -0.15771884807E+02 -0.14583066694E+02  0.47787270790E+02  0.19999998841E+02 0.  0.
         12    1    3    3    0    0 -0.37712134802E+02  0.15771884807E+02  0.14583066694E+02  0.43400729210E+02  0.00000000000E+00 0. -1.
         11    1    4    4    0    0  0.18314389957E+02 -0.39775351144E+01 -0.54630772493E+01  0.19521344174E+02  0.51100000000E-03 0.  1.
        -11    1    4    4    0    0  0.47554988946E+01 -0.90025767731E+01  0.10283742351E+01  0.10233216118E+02  0.51100000000E-03 0. -1.
         12    1    4    4    0    0  0.14642245951E+02 -0.27917729198E+01 -0.10148363680E+02  0.18032710498E+02  0.00000000000E+00 0. -1.
</event>
<event>
 8    1  0.3776180E-010  0.9118800E+02  0.7816164E-02  0.1184000E+00
        -11   -1    0    0    0    0  0.00000000000E+00  0.00000000000E+00  0.45593999997E+02  0.45594000000E+02  0.51100000000E-03 0. -1.
         11   -1    0    0    0    0 -0.00000000000E+00 -0.00000000000E+00 -0.45593999997E+02  0.45594000000E+02  0.51100000000E-03 0.  1.
         23    2    1    2    0    0  0.00000000000E+00  0.00000000000E+00  0.35527136788E-14  0.91188000000E+02  0.91188000000E+02 0.  0.
    9900012    2    3    3    0    0 -0.61221928390E+01 -0.30220167618E+02  0.30543140080E+02  0.47787272103E+02  0.20000004828E+02 0.  0.
        -12    1    3    3    0    0  0.61221928390E+01  0.30220167618E+02 -0.30543140080E+02  0.43400727897E+02  0.00000000000E+00 0.  1.
         11    1    4    4    0    0 -0.93817442006E+01 -0.92666552479E+01  0.14070273418E+02  0.19283687874E+02  0.51100000000E-03 0. -1.
        -11    1    4    4    0    0 -0.33579368473E+01 -0.54036323778E+01  0.44623685918E+01  0.77709533813E+01  0.51100000000E-03 0.  1.
         12    1    4    4    0    0  0.66174882090E+01 -0.15549879992E+02  0.12010498071E+02  0.20732630848E+02  0.00000000000E+00 0. -1.
</event>
<event>
 8    1  0.3776180E-010  0.9118800E+02  0.7816164E-02  0.1184000E+00
        -11   -1    0    0    0    0  0.00000000000E+00  0.00000000000E+00  0.45593999997E+02  0.45594000000E+02  0.51100000000E-03 0.  1.
         11   -1    0    0    0    0 -0.00000000000E+00 -0.00000000000E+00 -0.45593999997E+02  0.45594000000E+02  0.51100000000E-03 0. -1.
         23    2    1    2    0    0  0.00000000000E+00  0.00000000000E+00  0.00000000000E+00  0.91188000000E+02  0.91188000000E+02 0.  0.
    9900012    2    3    3    0    0  0.27275013998E+02 -0.33376582293E+02 -0.50695722081E+01  0.47787271936E+02  0.20000004063E+02 0.  0.
        -12    1    3    3    0    0 -0.27275013998E+02  0.33376582293E+02  0.50695722081E+01  0.43400728064E+02  0.00000000000E+00 0.  1.
         11    1    4    4    0    0  0.19489070319E+02 -0.22760446309E+02  0.23003572061E+00  0.29965224757E+02  0.51100000000E-03 0. -1.
        -11    1    4    4    0    0  0.17112579452E+01 -0.94744255255E+01  0.79626582461E-01  0.96280570962E+01  0.51100000000E-03 0.  1.
        -12    1    4    4    0    0  0.60746857338E+01 -0.11417104588E+01 -0.53792345112E+01  0.81939900819E+01  0.00000000000E+00 0.  1.
</event>
<event>
 8    1  0.3776180E-010  0.9118800E+02  0.7816164E-02  0.1184000E+00
        -11   -1    0    0    0    0  0.00000000000E+00  0.00000000000E+00  0.45593999997E+02  0.45594000000E+02  0.51100000000E-03 0. -1.
         11   -1    0    0    0    0 -0.00000000000E+00 -0.00000000000E+00 -0.45593999997E+02  0.45594000000E+02  0.51100000000E-03 0.  1.
         23    2    1    2    0    0  0.00000000000E+00  0.35527136788E-14  0.00000000000E+00  0.91188000000E+02  0.91188000000E+02 0.  0.
    9900012    2    3    3    0    0  0.26712420660E+02 -0.23838859062E+02 -0.24531174612E+02  0.47787272510E+02  0.20000006680E+02 0.  0.
         12    1    3    3    0    0 -0.26712420660E+02  0.23838859062E+02  0.24531174612E+02  0.43400727490E+02  0.00000000000E+00 0. -1.
         11    1    4    4    0    0  0.71375190383E-01 -0.37038210881E+01 -0.40728550927E+01  0.55055911525E+01  0.51100000000E-03 0. -1.
        -11    1    4    4    0    0  0.17565939659E+02 -0.21134751667E+02 -0.12586947722E+02  0.30226994845E+02  0.51100000000E-03 0.  1.
         12    1    4    4    0    0  0.90751058108E+01  0.99971369366E+00 -0.78713717964E+01  0.12054686512E+02  0.00000000000E+00 0. -1.
</event>
<event>
 8    1  0.3776180E-010  0.9118800E+02  0.7816164E-02  0.1184000E+00
        -11   -1    0    0    0    0  0.00000000000E+00  0.00000000000E+00  0.45593999997E+02  0.45594000000E+02  0.51100000000E-03 0. -1.
         11   -1    0    0    0    0 -0.00000000000E+00 -0.00000000000E+00 -0.45593999997E+02  0.45594000000E+02  0.51100000000E-03 0.  1.
         23    2    1    2    0    0  0.00000000000E+00  0.00000000000E+00 -0.71054273576E-14  0.91188000000E+02  0.91188000000E+02 0.  0.
    9900012    2    3    3    0    0  0.17744745052E+02  0.51357062758E+01  0.39273039346E+02  0.47787273331E+02  0.20000010426E+02 0.  0.
        -12    1    3    3    0    0 -0.17744745052E+02 -0.51357062758E+01 -0.39273039346E+02  0.43400726669E+02  0.00000000000E+00 0.  1.
         11    1    4    4    0    0  0.13450805312E+02 -0.34395215597E+01  0.18111347458E+02  0.22820503481E+02  0.51100000000E-03 0. -1.
        -11    1    4    4    0    0  0.43014714203E+01  0.16945793186E+01  0.29140361122E+01  0.54649668042E+01  0.51100000000E-03 0.  1.
        -12    1    4    4    0    0 -0.75316801912E-02  0.68806485169E+01  0.18247655776E+02  0.19501803046E+02  0.00000000000E+00 0.  1.
</event>
<event>
 8    1  0.3776180E-010  0.9118800E+02  0.7816164E-02  0.1184000E+00
        -11   -1    0    0    0    0  0.00000000000E+00  0.00000000000E+00  0.45593999997E+02  0.45594000000E+02  0.51100000000E-03 0. -1.
         11   -1    0    0    0    0 -0.00000000000E+00 -0.00000000000E+00 -0.45593999997E+02  0.45594000000E+02  0.51100000000E-03 0.  1.
         23    2    1    2    0    0  0.00000000000E+00  0.00000000000E+00  0.00000000000E+00  0.91188000000E+02  0.91188000000E+02 0.  0.
    9900012    2    3    3    0    0  0.19770500790E+02  0.92186650438E+01  0.37520215016E+02  0.47787273951E+02  0.20000013254E+02 0.  0.
        -12    1    3    3    0    0 -0.19770500790E+02 -0.92186650438E+01 -0.37520215016E+02  0.43400726049E+02  0.00000000000E+00 0.  1.
         11    1    4    4    0    0  0.95984384030E+01  0.69073333253E+01  0.98867721730E+01  0.15413939720E+02  0.51100000000E-03 0. -1.
        -11    1    4    4    0    0  0.53519465754E+01  0.17355725546E+01  0.15415261223E+01  0.58336821378E+01  0.51100000000E-03 0.  1.
        -12    1    4    4    0    0  0.48201158117E+01  0.57575916394E+00  0.26091916721E+02  0.26539652093E+02  0.00000000000E+00 0.  1.
</event>
<event>
 8    1  0.3776180E-010  0.9118800E+02  0.7816164E-02  0.1184000E+00
        -11   -1    0    0    0    0  0.00000000000E+00  0.00000000000E+00  0.45593999997E+02  0.45594000000E+02  0.51100000000E-03 0. -1.
         11   -1    0    0    0    0 -0.00000000000E+00 -0.00000000000E+00 -0.45593999997E+02  0.45594000000E+02  0.51100000000E-03 0.  1.
         23    2    1    2    0    0 -0.35527136788E-14  0.00000000000E+00  0.00000000000E+00  0.91188000000E+02  0.91188000000E+02 0.  0.
    9900012    2    3    3    0    0  0.23772685410E+02 -0.12590982859E+02 -0.34058034638E+02  0.47787272537E+02  0.20000006803E+02 0.  0.
         12    1    3    3    0    0 -0.23772685410E+02  0.12590982859E+02  0.34058034638E+02  0.43400727463E+02  0.00000000000E+00 0. -1.
         11    1    4    4    0    0  0.66784913116E+01 -0.13335589099E+01 -0.21003411615E+02  0.22079943960E+02  0.51100000000E-03 0. -1.
        -11    1    4    4    0    0  0.12655493137E+02 -0.50918532831E+01 -0.11739231945E+02  0.17997167647E+02  0.51100000000E-03 0.  1.
         12    1    4    4    0    0  0.44387009621E+01 -0.61655706663E+01 -0.13153910776E+01  0.77101609296E+01  0.00000000000E+00 0. -1.
</event>
<event>
 8    1  0.3776180E-010  0.9118800E+02  0.7816164E-02  0.1184000E+00
        -11   -1    0    0    0    0  0.00000000000E+00  0.00000000000E+00  0.45593999997E+02  0.45594000000E+02  0.51100000000E-03 0. -1.
         11   -1    0    0    0    0 -0.00000000000E+00 -0.00000000000E+00 -0.45593999997E+02  0.45594000000E+02  0.51100000000E-03 0.  1.
         23    2    1    2    0    0  0.00000000000E+00 -0.88817841970E-15  0.00000000000E+00  0.91188000000E+02  0.91188000000E+02 0.  0.
    9900012    2    3    3    0    0 -0.13187954561E+02  0.75457199397E+01 -0.40654190803E+02  0.47787271149E+02  0.20000000479E+02 0.  0.
         12    1    3    3    0    0  0.13187954561E+02 -0.75457199397E+01  0.40654190803E+02  0.43400728851E+02  0.00000000000E+00 0. -1.
         11    1    4    4    0    0 -0.65981383984E+01  0.20681600141E+01 -0.43557891750E+01  0.81722466780E+01  0.51100000000E-03 0. -1.
        -11    1    4    4    0    0 -0.84262326577E+00 -0.43367871514E+01 -0.84882520674E+01  0.95691253616E+01  0.51100000000E-03 0.  1.
         12    1    4    4    0    0 -0.57471928972E+01  0.98143470770E+01 -0.27810149560E+02  0.30045899110E+02  0.00000000000E+00 0. -1.
</event>
<event>
 8    1  0.3776180E-010  0.9118800E+02  0.7816164E-02  0.1184000E+00
        -11   -1    0    0    0    0  0.00000000000E+00  0.00000000000E+00  0.45593999997E+02  0.45594000000E+02  0.51100000000E-03 0. -1.
         11   -1    0    0    0    0 -0.00000000000E+00 -0.00000000000E+00 -0.45593999997E+02  0.45594000000E+02  0.51100000000E-03 0.  1.
         23    2    1    2    0    0  0.00000000000E+00  0.00000000000E+00  0.00000000000E+00  0.91188000000E+02  0.91188000000E+02 0.  0.
    9900012    2    3    3    0    0 -0.47392328158E+01  0.63351887914E+01 -0.42673514652E+02  0.47787265013E+02  0.19999972499E+02 0.  0.
         12    1    3    3    0    0  0.47392328158E+01 -0.63351887914E+01  0.42673514652E+02  0.43400734987E+02  0.00000000000E+00 0. -1.
         11    1    4    4    0    0  0.10991392113E+01  0.10054079820E+01 -0.92222952618E+01  0.93418243600E+01  0.51100000000E-03 0. -1.
        -11    1    4    4    0    0 -0.10598044471E+01 -0.62838814937E+01 -0.10476503054E+02  0.12262441380E+02  0.51100000000E-03 0.  1.
         12    1    4    4    0    0 -0.47785675801E+01  0.11613662303E+02 -0.22974716336E+02  0.26182999273E+02  0.00000000000E+00 0. -1.
</event>
<event>
 8    1  0.3776180E-010  0.9118800E+02  0.7816164E-02  0.1184000E+00
        -11   -1    0    0    0    0  0.00000000000E+00  0.00000000000E+00  0.45593999997E+02  0.45594000000E+02  0.51100000000E-03 0. -1.
         11   -1    0    0    0    0 -0.00000000000E+00 -0.00000000000E+00 -0.45593999997E+02  0.45594000000E+02  0.51100000000E-03 0.  1.
         23    2    1    2    0    0  0.00000000000E+00  0.00000000000E+00  0.00000000000E+00  0.91188000000E+02  0.91188000000E+02 0.  0.
    9900012    2    3    3    0    0 -0.22908860753E+02 -0.10372025286E+02  0.35372707414E+02  0.47787271442E+02  0.20000001812E+02 0.  0.
        -12    1    3    3    0    0  0.22908860753E+02  0.10372025286E+02 -0.35372707414E+02  0.43400728558E+02  0.00000000000E+00 0.  1.
         11    1    4    4    0    0 -0.11178032349E+02 -0.97722669215E+01  0.80787782342E+01  0.16903025350E+02  0.51100000000E-03 0.  1.
        -11    1    4    4    0    0  0.70210628270E+00 -0.69391873506E+00  0.11171983561E+00  0.99345761151E+00  0.51100000000E-03 0. -1.
        -12    1    4    4    0    0 -0.12432934687E+02  0.94160370246E-01  0.27182209345E+02  0.29890788480E+02  0.00000000000E+00 0.  1.
</event>
<event>
 8    1  0.3776180E-010  0.9118800E+02  0.7816164E-02  0.1184000E+00
        -11   -1    0    0    0    0  0.00000000000E+00  0.00000000000E+00  0.45593999997E+02  0.45594000000E+02  0.51100000000E-03 0. -1.
         11   -1    0    0    0    0 -0.00000000000E+00 -0.00000000000E+00 -0.45593999997E+02  0.45594000000E+02  0.51100000000E-03 0.  1.
         23    2    1    2    0    0  0.00000000000E+00  0.35527136788E-14  0.00000000000E+00  0.91188000000E+02  0.91188000000E+02 0.  0.
    9900012    2    3    3    0    0  0.26165799814E+01  0.31712692965E+02 -0.29514095173E+02  0.47787271898E+02  0.20000003893E+02 0.  0.
         12    1    3    3    0    0 -0.26165799814E+01 -0.31712692965E+02  0.29514095173E+02  0.43400728102E+02  0.00000000000E+00 0. -1.
         11    1    4    4    0    0 -0.41757827952E+01  0.11759856606E+01 -0.29447461121E+01  0.52432465279E+01  0.51100000000E-03 0. -1.
        -11    1    4    4    0    0 -0.30885485130E+01  0.74426239361E+01 -0.54694959749E+01  0.97389511474E+01  0.51100000000E-03 0.  1.
        -12    1    4    4    0    0  0.98809112896E+01  0.23094083368E+02 -0.21099853086E+02  0.32805074223E+02  0.00000000000E+00 0.  1.
</event>
<event>
 8    1  0.3776180E-010  0.9118800E+02  0.7816164E-02  0.1184000E+00
        -11   -1    0    0    0    0  0.00000000000E+00  0.00000000000E+00  0.45593999997E+02  0.45594000000E+02  0.51100000000E-03 0. -1.
         11   -1    0    0    0    0 -0.00000000000E+00 -0.00000000000E+00 -0.45593999997E+02  0.45594000000E+02  0.51100000000E-03 0.  1.
         23    2    1    2    0    0  0.00000000000E+00  0.00000000000E+00  0.00000000000E+00  0.91188000000E+02  0.91188000000E+02 0.  0.
    9900012    2    3    3    0    0 -0.21229615249E+02  0.47328345914E+01 -0.37556983705E+02  0.47787270606E+02  0.19999998003E+02 0.  0.
         12    1    3    3    0    0  0.21229615249E+02 -0.47328345914E+01  0.37556983705E+02  0.43400729394E+02  0.00000000000E+00 0. -1.
         11    1    4    4    0    0 -0.11644545036E+01  0.32709410455E+01 -0.18556187098E+00  0.34769876450E+01  0.51100000000E-03 0. -1.
        -11    1    4    4    0    0 -0.12052180378E+02  0.42887274706E+01 -0.11947453265E+02  0.17503995971E+02  0.51100000000E-03 0.  1.
        -12    1    4    4    0    0 -0.80129803675E+01 -0.28268339247E+01 -0.25423968569E+02  0.26806286990E+02  0.00000000000E+00 0.  1.
</event>
<event>
 8    1  0.3776180E-010  0.9118800E+02  0.7816164E-02  0.1184000E+00
        -11   -1    0    0    0    0  0.00000000000E+00  0.00000000000E+00  0.45593999997E+02  0.45594000000E+02  0.51100000000E-03 0. -1.
         11   -1    0    0    0    0 -0.00000000000E+00 -0.00000000000E+00 -0.45593999997E+02  0.45594000000E+02  0.51100000000E-03 0.  1.
         23    2    1    2    0    0  0.00000000000E+00  0.00000000000E+00  0.00000000000E+00  0.91188000000E+02  0.91188000000E+02 0.  0.
    9900012    2    3    3    0    0 -0.11978294970E+02 -0.12283586015E+02  0.39865486372E+02  0.47787273745E+02  0.20000012314E+02 0.  0.
        -12    1    3    3    0    0  0.11978294970E+02  0.12283586015E+02 -0.39865486372E+02  0.43400726255E+02  0.00000000000E+00 0.  1.
         11    1    4    4    0    0 -0.27559840198E+01 -0.53773609086E+01  0.55740790453E+01  0.82208160010E+01  0.51100000000E-03 0. -1.
        -11    1    4    4    0    0 -0.32961758987E+01 -0.20632193599E+01 -0.52036609532E+00  0.39233188523E+01  0.51100000000E-03 0.  1.
         12    1    4    4    0    0 -0.59261350514E+01 -0.48430057468E+01  0.34811773422E+02  0.35643138892E+02  0.00000000000E+00 0. -1.
</event>
<event>
 8    1  0.3776180E-010  0.9118800E+02  0.7816164E-02  0.1184000E+00
        -11   -1    0    0    0    0  0.00000000000E+00  0.00000000000E+00  0.45593999997E+02  0.45594000000E+02  0.51100000000E-03 0.  1.
         11   -1    0    0    0    0 -0.00000000000E+00 -0.00000000000E+00 -0.45593999997E+02  0.45594000000E+02  0.51100000000E-03 0. -1.
         23    2    1    2    0    0  0.00000000000E+00 -0.88817841970E-15 -0.88817841970E-15  0.91188000000E+02  0.91188000000E+02 0.  0.
    9900012    2    3    3    0    0  0.42347012958E+02 -0.65844658529E+01 -0.68555633379E+01  0.47787269065E+02  0.19999990975E+02 0.  0.
         12    1    3    3    0    0 -0.42347012958E+02  0.65844658529E+01  0.68555633379E+01  0.43400730935E+02  0.00000000000E+00 0. -1.
         11    1    4    4    0    0  0.12497130646E+01 -0.28622550902E+01 -0.20756713711E+00  0.31300752902E+01  0.51100000000E-03 0. -1.
        -11    1    4    4    0    0  0.42787971171E+01 -0.53227350920E+01  0.13116698742E+01  0.69541420570E+01  0.51100000000E-03 0.  1.
         12    1    4    4    0    0  0.36818502776E+02  0.16005243292E+01 -0.79596660750E+01  0.37703051718E+02  0.00000000000E+00 0. -1.
</event>
<event>
 8    1  0.3776180E-010  0.9118800E+02  0.7816164E-02  0.1184000E+00
        -11   -1    0    0    0    0  0.00000000000E+00  0.00000000000E+00  0.45593999997E+02  0.45594000000E+02  0.51100000000E-03 0. -1.
         11   -1    0    0    0    0 -0.00000000000E+00 -0.00000000000E+00 -0.45593999997E+02  0.45594000000E+02  0.51100000000E-03 0.  1.
         23    2    1    2    0    0  0.00000000000E+00  0.00000000000E+00  0.71054273576E-14  0.91188000000E+02  0.91188000000E+02 0.  0.
    9900012    2    3    3    0    0 -0.57718726581E+01  0.61927801851E+01  0.42567102085E+02  0.47787271661E+02  0.20000002813E+02 0.  0.
        -12    1    3    3    0    0  0.57718726581E+01 -0.61927801851E+01 -0.42567102085E+02  0.43400728339E+02  0.00000000000E+00 0.  1.
         11    1    4    4    0    0 -0.52751495459E+01 -0.37708498141E+00  0.25593489534E+02  0.26134194126E+02  0.51100000000E-03 0. -1.
        -11    1    4    4    0    0  0.12047154342E+01  0.17256227322E+00  0.14554367729E+02  0.14605161322E+02  0.51100000000E-03 0.  1.
        -12    1    4    4    0    0 -0.17014385464E+01  0.63973028932E+01  0.24192448222E+01  0.70479162130E+01  0.00000000000E+00 0.  1.
</event>
<event>
 8    1  0.3907643E-010  0.9118800E+02  0.7816164E-02  0.1184000E+00
        -11   -1    0    0    0    0  0.00000000000E+00  0.00000000000E+00  0.45593999997E+02  0.45594000000E+02  0.51100000000E-03 0. -1.
         11   -1    0    0    0    0 -0.00000000000E+00 -0.00000000000E+00 -0.45593999997E+02  0.45594000000E+02  0.51100000000E-03 0.  1.
         23    2    1    2    0    0  0.00000000000E+00  0.00000000000E+00  0.00000000000E+00  0.91188000000E+02  0.91188000000E+02 0.  0.
    9900012    2    3    3    0    0  0.36596664742E+02  0.51386405509E+01  0.22757458973E+02  0.47787269178E+02  0.19999991492E+02 0.  0.
        -12    1    3    3    0    0 -0.36596664742E+02 -0.51386405509E+01 -0.22757458973E+02  0.43400730822E+02  0.00000000000E+00 0.  1.
         11    1    4    4    0    0  0.95316659634E+01  0.32651383482E+01  0.72141096833E+01  0.12391818400E+02  0.51100000000E-03 0. -1.
        -11    1    4    4    0    0  0.57472411564E+01 -0.63252743407E+01  0.68655374844E+01  0.10962457827E+02  0.51100000000E-03 0.  1.
        -12    1    4    4    0    0  0.21317757622E+02  0.81987765435E+01  0.86778118050E+01  0.24432992952E+02  0.00000000000E+00 0.  1.
</event>
<event>
 8    1  0.3776180E-010  0.9118800E+02  0.7816164E-02  0.1184000E+00
        -11   -1    0    0    0    0  0.00000000000E+00  0.00000000000E+00  0.45593999997E+02  0.45594000000E+02  0.51100000000E-03 0. -1.
         11   -1    0    0    0    0 -0.00000000000E+00 -0.00000000000E+00 -0.45593999997E+02  0.45594000000E+02  0.51100000000E-03 0.  1.
         23    2    1    2    0    0  0.00000000000E+00  0.17763568394E-14  0.00000000000E+00  0.91188000000E+02  0.91188000000E+02 0.  0.
    9900012    2    3    3    0    0 -0.29380640075E+02 -0.11217851327E+02 -0.29909221531E+02  0.47787265764E+02  0.19999975926E+02 0.  0.
         12    1    3    3    0    0  0.29380640075E+02  0.11217851327E+02  0.29909221531E+02  0.43400734236E+02  0.00000000000E+00 0. -1.
         11    1    4    4    0    0 -0.19151005796E+02 -0.14240248762E+02 -0.19182281837E+02  0.30618713960E+02  0.51100000000E-03 0. -1.
        -11    1    4    4    0    0 -0.65616999409E+01 -0.81381702244E+00 -0.19185770825E+01  0.68847035189E+01  0.51100000000E-03 0.  1.
         12    1    4    4    0    0 -0.36679343383E+01  0.38362144581E+01 -0.88083626112E+01  0.10283848286E+02  0.00000000000E+00 0. -1.
</event>
<event>
 8    1  0.3776180E-010  0.9118800E+02  0.7816164E-02  0.1184000E+00
        -11   -1    0    0    0    0  0.00000000000E+00  0.00000000000E+00  0.45593999997E+02  0.45594000000E+02  0.51100000000E-03 0. -1.
         11   -1    0    0    0    0 -0.00000000000E+00 -0.00000000000E+00 -0.45593999997E+02  0.45594000000E+02  0.51100000000E-03 0.  1.
         23    2    1    2    0    0  0.00000000000E+00  0.17763568394E-14 -0.35527136788E-14  0.91188000000E+02  0.91188000000E+02 0.  0.
    9900012    2    3    3    0    0 -0.38210086815E+02 -0.92905388809E+01  0.18365662924E+02  0.47787280862E+02  0.20000044760E+02 0.  0.
        -12    1    3    3    0    0  0.38210086815E+02  0.92905388809E+01 -0.18365662924E+02  0.43400719138E+02  0.00000000000E+00 0.  1.
         11    1    4    4    0    0 -0.12168454229E+02 -0.67446683989E+01  0.72910661935E+01  0.15707370138E+02  0.51100000000E-03 0. -1.
        -11    1    4    4    0    0  0.76984086394E+00 -0.30980204092E+01  0.40360843736E+00  0.32176521632E+01  0.51100000000E-03 0.  1.
         12    1    4    4    0    0 -0.26811473449E+02  0.55214992713E+00  0.10670988293E+02  0.28862258561E+02  0.00000000000E+00 0. -1.
</event>
<event>
 8    1  0.3776180E-010  0.9118800E+02  0.7816164E-02  0.1184000E+00
        -11   -1    0    0    0    0  0.00000000000E+00  0.00000000000E+00  0.45593999997E+02  0.45594000000E+02  0.51100000000E-03 0. -1.
         11   -1    0    0    0    0 -0.00000000000E+00 -0.00000000000E+00 -0.45593999997E+02  0.45594000000E+02  0.51100000000E-03 0.  1.
         23    2    1    2    0    0  0.00000000000E+00  0.00000000000E+00  0.35527136788E-14  0.91188000000E+02  0.91188000000E+02 0.  0.
    9900012    2    3    3    0    0 -0.12255979022E+02 -0.28715207856E+02 -0.30147162825E+02  0.47787267168E+02  0.19999982324E+02 0.  0.
         12    1    3    3    0    0  0.12255979022E+02  0.28715207856E+02  0.30147162825E+02  0.43400732832E+02  0.00000000000E+00 0. -1.
         11    1    4    4    0    0 -0.42482914204E+01 -0.44570852827E+01 -0.57420779024E+00  0.61841170799E+01  0.51100000000E-03 0. -1.
        -11    1    4    4    0    0 -0.25522674358E+01 -0.16756942913E+02 -0.93579174105E+01  0.19361813535E+02  0.51100000000E-03 0.  1.
         12    1    4    4    0    0 -0.54554201654E+01 -0.75011796597E+01 -0.20215037625E+02  0.22241336552E+02  0.00000000000E+00 0. -1.
</event>
<event>
 8    1  0.3776180E-010  0.9118800E+02  0.7816164E-02  0.1184000E+00
        -11   -1    0    0    0    0  0.00000000000E+00  0.00000000000E+00  0.45593999997E+02  0.45594000000E+02  0.51100000000E-03 0. -1.
         11   -1    0    0    0    0 -0.00000000000E+00 -0.00000000000E+00 -0.45593999997E+02  0.45594000000E+02  0.51100000000E-03 0.  1.
         23    2    1    2    0    0  0.88817841970E-15  0.71054273576E-14 -0.35527136788E-14  0.91188000000E+02  0.91188000000E+02 0.  0.
    9900012    2    3    3    0    0 -0.20343039722E+01  0.39513988614E+02  0.17836184344E+02  0.47787272348E+02  0.20000005942E+02 0.  0.
        -12    1    3    3    0    0  0.20343039722E+01 -0.39513988614E+02 -0.17836184344E+02  0.43400727652E+02  0.00000000000E+00 0.  1.
         11    1    4    4    0    0  0.44002892148E+01  0.14307262031E+02  0.10140593325E+02  0.18080152800E+02  0.51100000000E-03 0. -1.
        -11    1    4    4    0    0  0.39028135854E-01  0.11324056221E+02  0.88118251891E+01  0.14348659725E+02  0.51100000000E-03 0.  1.
        -12    1    4    4    0    0 -0.64736213228E+01  0.13882670362E+02 -0.11162341709E+01  0.15358459823E+02  0.00000000000E+00 0.  1.
</event>
<event>
 8    1  0.3776180E-010  0.9118800E+02  0.7816164E-02  0.1184000E+00
        -11   -1    0    0    0    0  0.00000000000E+00  0.00000000000E+00  0.45593999997E+02  0.45594000000E+02  0.51100000000E-03 0. -1.
         11   -1    0    0    0    0 -0.00000000000E+00 -0.00000000000E+00 -0.45593999997E+02  0.45594000000E+02  0.51100000000E-03 0.  1.
         23    2    1    2    0    0 -0.88817841970E-15  0.88817841970E-15  0.00000000000E+00  0.91188000000E+02  0.91188000000E+02 0.  0.
    9900012    2    3    3    0    0 -0.61513826383E+01 -0.63983973961E+01 -0.42483459795E+02  0.47787270124E+02  0.19999995803E+02 0.  0.
         12    1    3    3    0    0  0.61513826383E+01  0.63983973961E+01  0.42483459795E+02  0.43400729876E+02  0.00000000000E+00 0. -1.
         11    1    4    4    0    0  0.56837726285E+00 -0.35479735663E+01 -0.13923415739E+02  0.14379592318E+02  0.51100000000E-03 0. -1.
        -11    1    4    4    0    0 -0.10013797596E+02 -0.63699967651E+01 -0.23989939658E+02  0.26765093053E+02  0.51100000000E-03 0.  1.
         12    1    4    4    0    0  0.32940376951E+01  0.35195729352E+01 -0.45701043986E+01  0.66425847527E+01  0.00000000000E+00 0. -1.
</event>
<event>
 8    1  0.3776180E-010  0.9118800E+02  0.7816164E-02  0.1184000E+00
        -11   -1    0    0    0    0  0.00000000000E+00  0.00000000000E+00  0.45593999997E+02  0.45594000000E+02  0.51100000000E-03 0. -1.
         11   -1    0    0    0    0 -0.00000000000E+00 -0.00000000000E+00 -0.45593999997E+02  0.45594000000E+02  0.51100000000E-03 0.  1.
         23    2    1    2    0    0  0.00000000000E+00  0.17763568394E-14 -0.71054273576E-14  0.91188000000E+02  0.91188000000E+02 0.  0.
    9900012    2    3    3    0    0 -0.31018960622E+02  0.15490897259E+02 -0.26105163309E+02  0.47787269967E+02  0.19999995090E+02 0.  0.
         12    1    3    3    0    0  0.31018960622E+02 -0.15490897259E+02  0.26105163309E+02  0.43400730033E+02  0.00000000000E+00 0. -1.
         11    1    4    4    0    0  0.26782978754E+00  0.40819814767E+01 -0.43896169935E+01  0.60002535932E+01  0.51100000000E-03 0. -1.
        -11    1    4    4    0    0 -0.65633141091E+01 -0.25579470517E+01 -0.23890553113E+01  0.74382639611E+01  0.51100000000E-03 0.  1.
        -12    1    4    4    0    0 -0.24723476301E+02  0.13966862834E+02 -0.19326491004E+02  0.34348752413E+02  0.00000000000E+00 0.  1.
</event>
<event>
 8    1  0.3776180E-010  0.9118800E+02  0.7816164E-02  0.1184000E+00
        -11   -1    0    0    0    0  0.00000000000E+00  0.00000000000E+00  0.45593999997E+02  0.45594000000E+02  0.51100000000E-03 0.  1.
         11   -1    0    0    0    0 -0.00000000000E+00 -0.00000000000E+00 -0.45593999997E+02  0.45594000000E+02  0.51100000000E-03 0. -1.
         23    2    1    2    0    0  0.00000000000E+00  0.00000000000E+00 -0.17763568394E-14  0.91188000000E+02  0.91188000000E+02 0.  0.
    9900012    2    3    3    0    0  0.39828170240E+01 -0.42218747435E+02  0.92378535941E+01  0.47787269529E+02  0.19999993089E+02 0.  0.
        -12    1    3    3    0    0 -0.39828170240E+01  0.42218747435E+02 -0.92378535941E+01  0.43400730471E+02  0.00000000000E+00 0.  1.
         11    1    4    4    0    0  0.15716920842E+01 -0.12904792268E+02  0.12290760009E+02  0.17890406964E+02  0.51100000000E-03 0. -1.
        -11    1    4    4    0    0  0.40087136376E+00 -0.15989409112E+01 -0.12159723268E+01  0.20483893303E+01  0.51100000000E-03 0.  1.
         12    1    4    4    0    0  0.20102535760E+01 -0.27715014256E+02 -0.18369340880E+01  0.27848473234E+02  0.00000000000E+00 0. -1.
</event>
<event>
 8    1  0.3776180E-010  0.9118800E+02  0.7816164E-02  0.1184000E+00
        -11   -1    0    0    0    0  0.00000000000E+00  0.00000000000E+00  0.45593999997E+02  0.45594000000E+02  0.51100000000E-03 0. -1.
         11   -1    0    0    0    0 -0.00000000000E+00 -0.00000000000E+00 -0.45593999997E+02  0.45594000000E+02  0.51100000000E-03 0.  1.
         23    2    1    2    0    0  0.17763568394E-14 -0.17763568394E-14  0.71054273576E-14  0.91188000000E+02  0.91188000000E+02 0.  0.
    9900012    2    3    3    0    0  0.13732177086E+02 -0.14393943955E+02  0.38572854155E+02  0.47787269733E+02  0.19999994019E+02 0.  0.
        -12    1    3    3    0    0 -0.13732177086E+02  0.14393943955E+02 -0.38572854155E+02  0.43400730267E+02  0.00000000000E+00 0.  1.
         11    1    4    4    0    0  0.13172814170E+01 -0.10058015088E+00  0.68641815209E+01  0.69901598631E+01  0.51100000000E-03 0. -1.
        -11    1    4    4    0    0 -0.16951967217E+01 -0.11066818715E+02  0.13772668985E+02  0.17749213494E+02  0.51100000000E-03 0.  1.
         12    1    4    4    0    0  0.14110092391E+02 -0.32265450887E+01  0.17936003649E+02  0.23047896376E+02  0.00000000000E+00 0. -1.
</event>
<event>
 8    1  0.3776180E-010  0.9118800E+02  0.7816164E-02  0.1184000E+00
        -11   -1    0    0    0    0  0.00000000000E+00  0.00000000000E+00  0.45593999997E+02  0.45594000000E+02  0.51100000000E-03 0. -1.
         11   -1    0    0    0    0 -0.00000000000E+00 -0.00000000000E+00 -0.45593999997E+02  0.45594000000E+02  0.51100000000E-03 0.  1.
         23    2    1    2    0    0  0.00000000000E+00  0.35527136788E-14  0.00000000000E+00  0.91188000000E+02  0.91188000000E+02 0.  0.
    9900012    2    3    3    0    0 -0.19825286341E+02 -0.24589138368E+02  0.29765004015E+02  0.47787272262E+02  0.20000005552E+02 0.  0.
        -12    1    3    3    0    0  0.19825286341E+02  0.24589138368E+02 -0.29765004015E+02  0.43400727738E+02  0.00000000000E+00 0.  1.
         11    1    4    4    0    0 -0.27344958668E+01 -0.63855191730E+01  0.46118407587E+01  0.83379492802E+01  0.51100000000E-03 0.  1.
        -11    1    4    4    0    0 -0.65916390572E+01 -0.16243695082E+02  0.80614832180E+01  0.19294943569E+02  0.51100000000E-03 0. -1.
         12    1    4    4    0    0 -0.10499151417E+02 -0.19599241121E+01  0.17091680038E+02  0.20154379413E+02  0.00000000000E+00 0. -1.
</event>
<event>
 8    1  0.3776180E-010  0.9118800E+02  0.7816164E-02  0.1184000E+00
        -11   -1    0    0    0    0  0.00000000000E+00  0.00000000000E+00  0.45593999997E+02  0.45594000000E+02  0.51100000000E-03 0. -1.
         11   -1    0    0    0    0 -0.00000000000E+00 -0.00000000000E+00 -0.45593999997E+02  0.45594000000E+02  0.51100000000E-03 0.  1.
         23    2    1    2    0    0  0.00000000000E+00  0.00000000000E+00  0.71054273576E-14  0.91188000000E+02  0.91188000000E+02 0.  0.
    9900012    2    3    3    0    0 -0.37858111884E+01 -0.21326371195E+02 -0.37609529678E+02  0.47787271926E+02  0.20000004020E+02 0.  0.
         12    1    3    3    0    0  0.37858111884E+01  0.21326371195E+02  0.37609529678E+02  0.43400728074E+02  0.00000000000E+00 0. -1.
         11    1    4    4    0    0  0.45402681093E+01 -0.10561520732E+02 -0.10888411101E+02  0.15834053532E+02  0.51100000000E-03 0.  1.
        -11    1    4    4    0    0  0.28730333351E+00 -0.24039985274E+01 -0.14936546190E+02  0.15131495778E+02  0.51100000000E-03 0. -1.
        -12    1    4    4    0    0 -0.86133826312E+01 -0.83608519364E+01 -0.11784572387E+02  0.16821722617E+02  0.00000000000E+00 0.  1.
</event>
<event>
 8    1  0.3776180E-010  0.9118800E+02  0.7816164E-02  0.1184000E+00
        -11   -1    0    0    0    0  0.00000000000E+00  0.00000000000E+00  0.45593999997E+02  0.45594000000E+02  0.51100000000E-03 0. -1.
         11   -1    0    0    0    0 -0.00000000000E+00 -0.00000000000E+00 -0.45593999997E+02  0.45594000000E+02  0.51100000000E-03 0.  1.
         23    2    1    2    0    0 -0.17763568394E-14 -0.35527136788E-14  0.00000000000E+00  0.91188000000E+02  0.91188000000E+02 0.  0.
    9900012    2    3    3    0    0 -0.12018460221E+02 -0.16114159867E+02  0.38464446213E+02  0.47787272393E+02  0.20000006149E+02 0.  0.
        -12    1    3    3    0    0  0.12018460221E+02  0.16114159867E+02 -0.38464446213E+02  0.43400727607E+02  0.00000000000E+00 0.  1.
         11    1    4    4    0    0  0.30454958101E+01 -0.29115026914E+01  0.22101339268E+01  0.47577920180E+01  0.51100000000E-03 0. -1.
        -11    1    4    4    0    0 -0.73214727557E+01 -0.96661627015E+01  0.10973231368E+02  0.16353913036E+02  0.51100000000E-03 0.  1.
         12    1    4    4    0    0 -0.77424832749E+01 -0.35364944746E+01  0.25281080919E+02  0.26675567339E+02  0.00000000000E+00 0. -1.
</event>
<event>
 8    1  0.3776180E-010  0.9118800E+02  0.7816164E-02  0.1184000E+00
        -11   -1    0    0    0    0  0.00000000000E+00  0.00000000000E+00  0.45593999997E+02  0.45594000000E+02  0.51100000000E-03 0. -1.
         11   -1    0    0    0    0 -0.00000000000E+00 -0.00000000000E+00 -0.45593999997E+02  0.45594000000E+02  0.51100000000E-03 0.  1.
         23    2    1    2    0    0  0.35527136788E-14  0.00000000000E+00 -0.71054273576E-14  0.91188000000E+02  0.91188000000E+02 0.  0.
    9900012    2    3    3    0    0 -0.19159683104E+02  0.71029362797E+01  0.38289397680E+02  0.47787272642E+02  0.20000007286E+02 0.  0.
        -12    1    3    3    0    0  0.19159683104E+02 -0.71029362797E+01 -0.38289397680E+02  0.43400727358E+02  0.00000000000E+00 0.  1.
         11    1    4    4    0    0 -0.10333735614E+02 -0.62434286665E+01  0.19350616500E+02  0.22808175123E+02  0.51100000000E-03 0. -1.
        -11    1    4    4    0    0 -0.26608844989E+01  0.21223410268E+01  0.50261388951E+01  0.60701491090E+01  0.51100000000E-03 0.  1.
         12    1    4    4    0    0 -0.61650629913E+01  0.11224023919E+02  0.13912642285E+02  0.18908948410E+02  0.00000000000E+00 0. -1.
</event>
<event>
 8    1  0.3776180E-010  0.9118800E+02  0.7816164E-02  0.1184000E+00
        -11   -1    0    0    0    0  0.00000000000E+00  0.00000000000E+00  0.45593999997E+02  0.45594000000E+02  0.51100000000E-03 0. -1.
         11   -1    0    0    0    0 -0.00000000000E+00 -0.00000000000E+00 -0.45593999997E+02  0.45594000000E+02  0.51100000000E-03 0.  1.
         23    2    1    2    0    0  0.00000000000E+00 -0.17763568394E-14  0.71054273576E-14  0.91188000000E+02  0.91188000000E+02 0.  0.
    9900012    2    3    3    0    0  0.20291957745E+02  0.11636594715E+02 -0.36557480359E+02  0.47787271252E+02  0.20000000946E+02 0.  0.
         12    1    3    3    0    0 -0.20291957745E+02 -0.11636594715E+02  0.36557480359E+02  0.43400728748E+02  0.00000000000E+00 0. -1.
         11    1    4    4    0    0  0.79092354117E+01  0.98884375715E-01 -0.16788465861E+02  0.18558512040E+02  0.51100000000E-03 0. -1.
        -11    1    4    4    0    0  0.14077722465E+02  0.53050212010E+01 -0.13162586774E+02  0.19989477497E+02  0.51100000000E-03 0.  1.
         12    1    4    4    0    0 -0.16950001320E+01  0.62326891379E+01 -0.66064277238E+01  0.92392817149E+01  0.00000000000E+00 0. -1.
</event>
<event>
 8    1  0.3776180E-010  0.9118800E+02  0.7816164E-02  0.1184000E+00
        -11   -1    0    0    0    0  0.00000000000E+00  0.00000000000E+00  0.45593999997E+02  0.45594000000E+02  0.51100000000E-03 0. -1.
         11   -1    0    0    0    0 -0.00000000000E+00 -0.00000000000E+00 -0.45593999997E+02  0.45594000000E+02  0.51100000000E-03 0.  1.
         23    2    1    2    0    0  0.00000000000E+00  0.00000000000E+00  0.00000000000E+00  0.91188000000E+02  0.91188000000E+02 0.  0.
    9900012    2    3    3    0    0  0.26478213231E+02  0.16036270780E+02 -0.30419828338E+02  0.47787265991E+02  0.19999976958E+02 0.  0.
         12    1    3    3    0    0 -0.26478213231E+02 -0.16036270780E+02  0.30419828338E+02  0.43400734009E+02  0.00000000000E+00 0. -1.
         11    1    4    4    0    0 -0.13221190597E+01  0.74750584350E+00  0.21836938412E+00  0.15344214685E+01  0.51100000000E-03 0. -1.
        -11    1    4    4    0    0  0.14318208483E+02  0.30101215573E+01 -0.65236296974E+01  0.16019665122E+02  0.51100000000E-03 0.  1.
         12    1    4    4    0    0  0.13482123808E+02  0.12278643380E+02 -0.24114568025E+02  0.30233179400E+02  0.00000000000E+00 0. -1.
</event>
<event>
 8    1  0.3776180E-010  0.9118800E+02  0.7816164E-02  0.1184000E+00
        -11   -1    0    0    0    0  0.00000000000E+00  0.00000000000E+00  0.45593999997E+02  0.45594000000E+02  0.51100000000E-03 0. -1.
         11   -1    0    0    0    0 -0.00000000000E+00 -0.00000000000E+00 -0.45593999997E+02  0.45594000000E+02  0.51100000000E-03 0.  1.
         23    2    1    2    0    0  0.00000000000E+00  0.00000000000E+00  0.00000000000E+00  0.91188000000E+02  0.91188000000E+02 0.  0.
    9900012    2    3    3    0    0 -0.17956344761E+02  0.21578354035E+02 -0.33099369561E+02  0.47787263308E+02  0.19999964728E+02 0.  0.
         12    1    3    3    0    0  0.17956344761E+02 -0.21578354035E+02  0.33099369561E+02  0.43400736692E+02  0.00000000000E+00 0. -1.
         11    1    4    4    0    0  0.13326720942E+01  0.11443628380E+01 -0.44306014810E+01  0.47661106744E+01  0.51100000000E-03 0. -1.
        -11    1    4    4    0    0 -0.13443475075E+02  0.21786575804E+02 -0.20039562441E+02  0.32511013064E+02  0.51100000000E-03 0.  1.
        -12    1    4    4    0    0 -0.58455417799E+01 -0.13525846067E+01 -0.86292056392E+01  0.10510139570E+02  0.00000000000E+00 0.  1.
</event>
<event>
 8    1  0.3776180E-010  0.9118800E+02  0.7816164E-02  0.1184000E+00
        -11   -1    0    0    0    0  0.00000000000E+00  0.00000000000E+00  0.45593999997E+02  0.45594000000E+02  0.51100000000E-03 0. -1.
         11   -1    0    0    0    0 -0.00000000000E+00 -0.00000000000E+00 -0.45593999997E+02  0.45594000000E+02  0.51100000000E-03 0.  1.
         23    2    1    2    0    0  0.00000000000E+00  0.17763568394E-14  0.00000000000E+00  0.91188000000E+02  0.91188000000E+02 0.  0.
    9900012    2    3    3    0    0  0.29611964253E+02  0.11484975757E+02 -0.29577863255E+02  0.47787273165E+02  0.20000009668E+02 0.  0.
         12    1    3    3    0    0 -0.29611964253E+02 -0.11484975757E+02  0.29577863255E+02  0.43400726835E+02  0.00000000000E+00 0. -1.
         11    1    4    4    0    0 -0.73324493408E-01 -0.10096012673E+01  0.10483808445E+01  0.14573173493E+01  0.51100000000E-03 0. -1.
        -11    1    4    4    0    0  0.11828292001E+02  0.35746865908E+00 -0.17290702217E+02  0.20952438019E+02  0.51100000000E-03 0.  1.
         12    1    4    4    0    0  0.17856996746E+02  0.12137108365E+02 -0.13335541882E+02  0.25377517797E+02  0.00000000000E+00 0. -1.
</event>
<event>
 8    1  0.3776180E-010  0.9118800E+02  0.7816164E-02  0.1184000E+00
        -11   -1    0    0    0    0  0.00000000000E+00  0.00000000000E+00  0.45593999997E+02  0.45594000000E+02  0.51100000000E-03 0. -1.
         11   -1    0    0    0    0 -0.00000000000E+00 -0.00000000000E+00 -0.45593999997E+02  0.45594000000E+02  0.51100000000E-03 0.  1.
         23    2    1    2    0    0 -0.35527136788E-14  0.35527136788E-14 -0.35527136788E-14  0.91188000000E+02  0.91188000000E+02 0.  0.
    9900012    2    3    3    0    0 -0.21327734476E+02  0.23732871296E+02 -0.29419407950E+02  0.47787274177E+02  0.20000014284E+02 0.  0.
         12    1    3    3    0    0  0.21327734476E+02 -0.23732871296E+02  0.29419407950E+02  0.43400725823E+02  0.00000000000E+00 0. -1.
         11    1    4    4    0    0 -0.29646160832E+01 -0.12731008892E+01  0.10622183411E+01  0.33967694152E+01  0.51100000000E-03 0. -1.
        -11    1    4    4    0    0 -0.38664998306E+01  0.24785569462E+01 -0.88026164148E+01  0.99287019032E+01  0.51100000000E-03 0.  1.
        -12    1    4    4    0    0 -0.14496618562E+02  0.22527415239E+02 -0.21679009876E+02  0.34461802859E+02  0.00000000000E+00 0.  1.
</event>
<event>
 8    1  0.3776180E-010  0.9118800E+02  0.7816164E-02  0.1184000E+00
        -11   -1    0    0    0    0  0.00000000000E+00  0.00000000000E+00  0.45593999997E+02  0.45594000000E+02  0.51100000000E-03 0. -1.
         11   -1    0    0    0    0 -0.00000000000E+00 -0.00000000000E+00 -0.45593999997E+02  0.45594000000E+02  0.51100000000E-03 0.  1.
         23    2    1    2    0    0  0.00000000000E+00  0.00000000000E+00  0.00000000000E+00  0.91188000000E+02  0.91188000000E+02 0.  0.
    9900012    2    3    3    0    0  0.11885962884E+02  0.13545900196E+02 -0.39482288050E+02  0.47787324943E+02  0.20000245743E+02 0.  0.
         12    1    3    3    0    0 -0.11885962884E+02 -0.13545900196E+02  0.39482288050E+02  0.43400675057E+02  0.00000000000E+00 0. -1.
         11    1    4    4    0    0  0.35263785471E+01  0.10978481498E+02 -0.25044947359E+02  0.27571938455E+02  0.51100000000E-03 0. -1.
        -11    1    4    4    0    0 -0.70171612684E+00  0.32672134111E+01 -0.90571805493E+01  0.96539944458E+01  0.51100000000E-03 0.  1.
         12    1    4    4    0    0  0.90613004634E+01 -0.69979471313E+00 -0.53801601412E+01  0.10561392042E+02  0.00000000000E+00 0. -1.
</event>
<event>
 8    1  0.4177795E-010  0.9118800E+02  0.7816164E-02  0.1184000E+00
        -11   -1    0    0    0    0  0.00000000000E+00  0.00000000000E+00  0.45593999997E+02  0.45594000000E+02  0.51100000000E-03 0.  1.
         11   -1    0    0    0    0 -0.00000000000E+00 -0.00000000000E+00 -0.45593999997E+02  0.45594000000E+02  0.51100000000E-03 0. -1.
         23    2    1    2    0    0  0.00000000000E+00  0.00000000000E+00  0.00000000000E+00  0.91188000000E+02  0.91188000000E+02 0.  0.
    9900012    2    3    3    0    0  0.34582067603E+02 -0.21944741979E+02  0.14357299895E+02  0.47787272351E+02  0.20000005957E+02 0.  0.
        -12    1    3    3    0    0 -0.34582067603E+02  0.21944741979E+02 -0.14357299895E+02  0.43400727649E+02  0.00000000000E+00 0.  1.
         11    1    4    4    0    0  0.21688232902E+02 -0.10987661902E+02  0.12800030346E+02  0.27476334137E+02  0.51100000000E-03 0. -1.
        -11    1    4    4    0    0  0.29585031071E+00 -0.29385248061E+01  0.42111417403E+01  0.51435562075E+01  0.51100000000E-03 0.  1.
        -12    1    4    4    0    0  0.12597984390E+02 -0.80185552707E+01 -0.26538721917E+01  0.15167382006E+02  0.00000000000E+00 0.  1.
</event>
<event>
 8    1  0.3776180E-010  0.9118800E+02  0.7816164E-02  0.1184000E+00
        -11   -1    0    0    0    0  0.00000000000E+00  0.00000000000E+00  0.45593999997E+02  0.45594000000E+02  0.51100000000E-03 0.  1.
         11   -1    0    0    0    0 -0.00000000000E+00 -0.00000000000E+00 -0.45593999997E+02  0.45594000000E+02  0.51100000000E-03 0. -1.
         23    2    1    2    0    0 -0.88817841970E-15  0.00000000000E+00  0.00000000000E+00  0.91188000000E+02  0.91188000000E+02 0.  0.
    9900012    2    3    3    0    0 -0.54947423819E+01  0.27562313081E+02 -0.33071894395E+02  0.47787268496E+02  0.19999988381E+02 0.  0.
         12    1    3    3    0    0  0.54947423819E+01 -0.27562313081E+02  0.33071894395E+02  0.43400731504E+02  0.00000000000E+00 0. -1.
         11    1    4    4    0    0 -0.85933398609E+01  0.97539532697E+01 -0.10080905951E+02  0.16450220649E+02  0.51100000000E-03 0. -1.
        -11    1    4    4    0    0  0.12307544770E+01  0.46913256014E+01 -0.56372768313E-01  0.48504093262E+01  0.51100000000E-03 0.  1.
         12    1    4    4    0    0  0.18678430021E+01  0.13117034210E+02 -0.22934615676E+02  0.26486638521E+02  0.00000000000E+00 0. -1.
</event>
<event>
 8    1  0.5178373E-010  0.9118800E+02  0.7816164E-02  0.1184000E+00
        -11   -1    0    0    0    0  0.00000000000E+00  0.00000000000E+00  0.45593999997E+02  0.45594000000E+02  0.51100000000E-03 0. -1.
         11   -1    0    0    0    0 -0.00000000000E+00 -0.00000000000E+00 -0.45593999997E+02  0.45594000000E+02  0.51100000000E-03 0.  1.
         23    2    1    2    0    0 -0.71054273576E-14  0.44408920985E-15 -0.35527136788E-14  0.91188000000E+02  0.91188000000E+02 0.  0.
    9900012    2    3    3    0    0  0.29773772518E+02 -0.13626247933E+01  0.31548201527E+02  0.47787270791E+02  0.19999998845E+02 0.  0.
        -12    1    3    3    0    0 -0.29773772518E+02  0.13626247933E+01 -0.31548201527E+02  0.43400729209E+02  0.00000000000E+00 0.  1.
         11    1    4    4    0    0  0.18362578498E+02 -0.44496199300E+01  0.18714563508E+02  0.26593576182E+02  0.51100000000E-03 0. -1.
        -11    1    4    4    0    0  0.53377055068E+01 -0.46051175034E+01  0.49194615772E+01  0.85964707740E+01  0.51100000000E-03 0.  1.
        -12    1    4    4    0    0  0.60734885133E+01  0.76921126402E+01  0.79141764416E+01  0.12597223835E+02  0.00000000000E+00 0.  1.
</event>
<event>
 8    1  0.3776180E-010  0.9118800E+02  0.7816164E-02  0.1184000E+00
        -11   -1    0    0    0    0  0.00000000000E+00  0.00000000000E+00  0.45593999997E+02  0.45594000000E+02  0.51100000000E-03 0. -1.
         11   -1    0    0    0    0 -0.00000000000E+00 -0.00000000000E+00 -0.45593999997E+02  0.45594000000E+02  0.51100000000E-03 0.  1.
         23    2    1    2    0    0  0.00000000000E+00  0.88817841970E-15  0.00000000000E+00  0.91188000000E+02  0.91188000000E+02 0.  0.
    9900012    2    3    3    0    0  0.25456626841E+02 -0.44272720986E+01 -0.34870944004E+02  0.47787270465E+02  0.19999997360E+02 0.  0.
         12    1    3    3    0    0 -0.25456626841E+02  0.44272720986E+01  0.34870944004E+02  0.43400729535E+02  0.00000000000E+00 0. -1.
         11    1    4    4    0    0  0.57324205938E+01 -0.73572515761E+01 -0.47348159546E+01  0.10459841251E+02  0.51100000000E-03 0. -1.
        -11    1    4    4    0    0  0.20366061261E+01 -0.18363398081E+01 -0.10155054375E+01  0.29242366454E+01  0.51100000000E-03 0.  1.
        -12    1    4    4    0    0  0.17687600122E+02  0.47663192856E+01 -0.29120622612E+02  0.34403192569E+02  0.00000000000E+00 0.  1.
</event>
<event>
 8    1  0.3776180E-010  0.9118800E+02  0.7816164E-02  0.1184000E+00
        -11   -1    0    0    0    0  0.00000000000E+00  0.00000000000E+00  0.45593999997E+02  0.45594000000E+02  0.51100000000E-03 0. -1.
         11   -1    0    0    0    0 -0.00000000000E+00 -0.00000000000E+00 -0.45593999997E+02  0.45594000000E+02  0.51100000000E-03 0.  1.
         23    2    1    2    0    0  0.88817841970E-15 -0.35527136788E-14 -0.71054273576E-14  0.91188000000E+02  0.91188000000E+02 0.  0.
    9900012    2    3    3    0    0 -0.58275607157E+01 -0.23418573734E+02 -0.36072594170E+02  0.47787284455E+02  0.20000061145E+02 0.  0.
         12    1    3    3    0    0  0.58275607157E+01  0.23418573734E+02  0.36072594170E+02  0.43400715545E+02  0.00000000000E+00 0. -1.
         11    1    4    4    0    0 -0.35676004663E+01 -0.14633256636E+01 -0.12532051422E+02  0.13111880421E+02  0.51100000000E-03 0. -1.
        -11    1    4    4    0    0 -0.41589939045E+01 -0.90860366246E+01 -0.17892147963E+02  0.20493468492E+02  0.51100000000E-03 0.  1.
         12    1    4    4    0    0  0.18990336551E+01 -0.12869211446E+02 -0.56483947855E+01  0.14181935542E+02  0.00000000000E+00 0. -1.
</event>
<event>
 8    1  0.3776180E-010  0.9118800E+02  0.7816164E-02  0.1184000E+00
        -11   -1    0    0    0    0  0.00000000000E+00  0.00000000000E+00  0.45593999997E+02  0.45594000000E+02  0.51100000000E-03 0. -1.
         11   -1    0    0    0    0 -0.00000000000E+00 -0.00000000000E+00 -0.45593999997E+02  0.45594000000E+02  0.51100000000E-03 0.  1.
         23    2    1    2    0    0  0.71054273576E-14  0.44408920985E-15  0.35527136788E-14  0.91188000000E+02  0.91188000000E+02 0.  0.
    9900012    2    3    3    0    0  0.36913791403E+02 -0.20166817901E+01  0.22736055988E+02  0.47787271399E+02  0.20000001617E+02 0.  0.
        -12    1    3    3    0    0 -0.36913791403E+02  0.20166817901E+01 -0.22736055988E+02  0.43400728601E+02  0.00000000000E+00 0.  1.
         11    1    4    4    0    0  0.25448925094E+02 -0.73903927343E+01  0.14810510212E+02  0.30358143985E+02  0.51100000000E-03 0. -1.
        -11    1    4    4    0    0 -0.34296972107E+00 -0.92257838974E+00  0.30205275996E+01  0.31768484943E+01  0.51100000000E-03 0.  1.
        -12    1    4    4    0    0  0.11807836030E+02  0.62962893339E+01  0.49050181761E+01  0.14252278919E+02  0.00000000000E+00 0.  1.
</event>
<event>
 8    1  0.3900934E-010  0.9118800E+02  0.7816164E-02  0.1184000E+00
        -11   -1    0    0    0    0  0.00000000000E+00  0.00000000000E+00  0.45593999997E+02  0.45594000000E+02  0.51100000000E-03 0. -1.
         11   -1    0    0    0    0 -0.00000000000E+00 -0.00000000000E+00 -0.45593999997E+02  0.45594000000E+02  0.51100000000E-03 0.  1.
         23    2    1    2    0    0 -0.35527136788E-14  0.00000000000E+00 -0.35527136788E-14  0.91188000000E+02  0.91188000000E+02 0.  0.
    9900012    2    3    3    0    0 -0.27363997061E+02  0.15400710461E+02  0.29960856610E+02  0.47787272510E+02  0.20000006682E+02 0.  0.
        -12    1    3    3    0    0  0.27363997061E+02 -0.15400710461E+02 -0.29960856610E+02  0.43400727490E+02  0.00000000000E+00 0.  1.
         11    1    4    4    0    0 -0.21561559782E+02  0.15379435819E+02  0.18934361372E+02  0.32556688210E+02  0.51100000000E-03 0. -1.
        -11    1    4    4    0    0 -0.41253831449E+01  0.39519355651E+01  0.85753909444E+01  0.10304072540E+02  0.51100000000E-03 0.  1.
        -12    1    4    4    0    0 -0.16770541339E+01 -0.39306609234E+01  0.24511042933E+01  0.49265117598E+01  0.00000000000E+00 0.  1.
</event>
<event>
 8    1  0.3776180E-010  0.9118800E+02  0.7816164E-02  0.1184000E+00
        -11   -1    0    0    0    0  0.00000000000E+00  0.00000000000E+00  0.45593999997E+02  0.45594000000E+02  0.51100000000E-03 0. -1.
         11   -1    0    0    0    0 -0.00000000000E+00 -0.00000000000E+00 -0.45593999997E+02  0.45594000000E+02  0.51100000000E-03 0.  1.
         23    2    1    2    0    0  0.88817841970E-15  0.00000000000E+00 -0.35527136788E-14  0.91188000000E+02  0.91188000000E+02 0.  0.
    9900012    2    3    3    0    0 -0.63341102130E+01 -0.29570968470E+02  0.31129731534E+02  0.47787270584E+02  0.19999997901E+02 0.  0.
        -12    1    3    3    0    0  0.63341102130E+01  0.29570968470E+02 -0.31129731534E+02  0.43400729416E+02  0.00000000000E+00 0.  1.
         11    1    4    4    0    0  0.29612181117E+01 -0.22258498617E+01  0.61766269971E+01  0.72023566723E+01  0.51100000000E-03 0. -1.
        -11    1    4    4    0    0  0.35040010234E+01 -0.37076334611E+01  0.45894789839E+01  0.68620614002E+01  0.51100000000E-03 0.  1.
         12    1    4    4    0    0 -0.12799329348E+02 -0.23637485148E+02  0.20363625553E+02  0.33722852512E+02  0.00000000000E+00 0. -1.
</event>
<event>
 8    1  0.3776180E-010  0.9118800E+02  0.7816164E-02  0.1184000E+00
        -11   -1    0    0    0    0  0.00000000000E+00  0.00000000000E+00  0.45593999997E+02  0.45594000000E+02  0.51100000000E-03 0. -1.
         11   -1    0    0    0    0 -0.00000000000E+00 -0.00000000000E+00 -0.45593999997E+02  0.45594000000E+02  0.51100000000E-03 0.  1.
         23    2    1    2    0    0  0.00000000000E+00  0.00000000000E+00  0.00000000000E+00  0.91188000000E+02  0.91188000000E+02 0.  0.
    9900012    2    3    3    0    0  0.33189607912E+02 -0.38791507968E+01  0.27695220863E+02  0.47787272553E+02  0.20000006879E+02 0.  0.
        -12    1    3    3    0    0 -0.33189607912E+02  0.38791507968E+01 -0.27695220863E+02  0.43400727447E+02  0.00000000000E+00 0.  1.
         11    1    4    4    0    0  0.14902970917E+01 -0.44638390094E+01  0.61279319299E+01  0.77264735890E+01  0.51100000000E-03 0. -1.
        -11    1    4    4    0    0  0.90410813473E+01  0.78046085377E+00  0.44812284092E+00  0.90857627867E+01  0.51100000000E-03 0.  1.
        -12    1    4    4    0    0  0.22658229473E+02 -0.19577264118E+00  0.21119166092E+02  0.30975036178E+02  0.00000000000E+00 0.  1.
</event>
<event>
 8    1  0.3776180E-010  0.9118800E+02  0.7816164E-02  0.1184000E+00
        -11   -1    0    0    0    0  0.00000000000E+00  0.00000000000E+00  0.45593999997E+02  0.45594000000E+02  0.51100000000E-03 0. -1.
         11   -1    0    0    0    0 -0.00000000000E+00 -0.00000000000E+00 -0.45593999997E+02  0.45594000000E+02  0.51100000000E-03 0.  1.
         23    2    1    2    0    0  0.00000000000E+00  0.00000000000E+00  0.00000000000E+00  0.91188000000E+02  0.91188000000E+02 0.  0.
    9900012    2    3    3    0    0  0.11008040171E+02  0.86370621327E+01 -0.41083421381E+02  0.47787270709E+02  0.19999998469E+02 0.  0.
         12    1    3    3    0    0 -0.11008040171E+02 -0.86370621327E+01  0.41083421381E+02  0.43400729291E+02  0.00000000000E+00 0. -1.
         11    1    4    4    0    0  0.73101161816E+01 -0.49772105540E+00 -0.38595542033E+01  0.82814059040E+01  0.51100000000E-03 0. -1.
        -11    1    4    4    0    0 -0.36803489288E+00  0.26352672062E+00  0.42010606140E+00  0.61756406859E+00  0.51100000000E-03 0.  1.
        -12    1    4    4    0    0  0.40659588821E+01  0.88712564675E+01 -0.37643973239E+02  0.38888300736E+02  0.00000000000E+00 0.  1.
</event>
<event>
 8    1  0.3776180E-010  0.9118800E+02  0.7816164E-02  0.1184000E+00
        -11   -1    0    0    0    0  0.00000000000E+00  0.00000000000E+00  0.45593999997E+02  0.45594000000E+02  0.51100000000E-03 0.  1.
         11   -1    0    0    0    0 -0.00000000000E+00 -0.00000000000E+00 -0.45593999997E+02  0.45594000000E+02  0.51100000000E-03 0. -1.
         23    2    1    2    0    0  0.00000000000E+00  0.00000000000E+00  0.00000000000E+00  0.91188000000E+02  0.91188000000E+02 0.  0.
    9900012    2    3    3    0    0  0.24017076154E+02  0.36001884942E+02 -0.32660623522E+01  0.47787276162E+02  0.20000023332E+02 0.  0.
         12    1    3    3    0    0 -0.24017076154E+02 -0.36001884942E+02  0.32660623522E+01  0.43400723838E+02  0.00000000000E+00 0. -1.
         11    1    4    4    0    0  0.11631217248E+02  0.19428132634E+02 -0.22672456093E+00  0.22644843929E+02  0.51100000000E-03 0. -1.
        -11    1    4    4    0    0  0.64720643142E+01  0.95980819503E+01  0.53311980866E+01  0.12744899643E+02  0.51100000000E-03 0.  1.
         12    1    4    4    0    0  0.59137945923E+01  0.69756703584E+01 -0.83705358778E+01  0.12397532590E+02  0.00000000000E+00 0. -1.
</event>
<event>
 8    1  0.3776180E-010  0.9118800E+02  0.7816164E-02  0.1184000E+00
        -11   -1    0    0    0    0  0.00000000000E+00  0.00000000000E+00  0.45593999997E+02  0.45594000000E+02  0.51100000000E-03 0. -1.
         11   -1    0    0    0    0 -0.00000000000E+00 -0.00000000000E+00 -0.45593999997E+02  0.45594000000E+02  0.51100000000E-03 0.  1.
         23    2    1    2    0    0 -0.88817841970E-15  0.00000000000E+00  0.00000000000E+00  0.91188000000E+02  0.91188000000E+02 0.  0.
    9900012    2    3    3    0    0 -0.50642816845E+01 -0.30217001672E+02 -0.30739373564E+02  0.47787271594E+02  0.20000002508E+02 0.  0.
         12    1    3    3    0    0  0.50642816845E+01  0.30217001672E+02  0.30739373564E+02  0.43400728406E+02  0.00000000000E+00 0. -1.
         11    1    4    4    0    0 -0.35243997289E+01 -0.39500367426E+01 -0.68030613712E+01  0.86200828301E+01  0.51100000000E-03 0. -1.
        -11    1    4    4    0    0 -0.80151675539E+01 -0.83324251628E+01 -0.61683080222E+01  0.13104207116E+02  0.51100000000E-03 0.  1.
         12    1    4    4    0    0  0.64752855983E+01 -0.17934539766E+02 -0.17768004171E+02  0.26062981649E+02  0.00000000000E+00 0. -1.
</event>
<event>
 8    1  0.3776180E-010  0.9118800E+02  0.7816164E-02  0.1184000E+00
        -11   -1    0    0    0    0  0.00000000000E+00  0.00000000000E+00  0.45593999997E+02  0.45594000000E+02  0.51100000000E-03 0. -1.
         11   -1    0    0    0    0 -0.00000000000E+00 -0.00000000000E+00 -0.45593999997E+02  0.45594000000E+02  0.51100000000E-03 0.  1.
         23    2    1    2    0    0  0.00000000000E+00  0.00000000000E+00  0.00000000000E+00  0.91188000000E+02  0.91188000000E+02 0.  0.
    9900012    2    3    3    0    0  0.42678583570E+01  0.27225329522E+02  0.33528942866E+02  0.47787271985E+02  0.20000004289E+02 0.  0.
        -12    1    3    3    0    0 -0.42678583570E+01 -0.27225329522E+02 -0.33528942866E+02  0.43400728015E+02  0.00000000000E+00 0.  1.
         11    1    4    4    0    0 -0.30423371035E+00  0.44702043479E+01  0.83806935358E+01  0.95032262661E+01  0.51100000000E-03 0. -1.
        -11    1    4    4    0    0  0.11945269395E+01  0.19904153709E+02  0.96204850055E+01  0.22139466152E+02  0.51100000000E-03 0.  1.
         12    1    4    4    0    0  0.33775651279E+01  0.28509714646E+01  0.15527764324E+02  0.16144579567E+02  0.00000000000E+00 0. -1.
</event>
<event>
 8    1  0.3776180E-010  0.9118800E+02  0.7816164E-02  0.1184000E+00
        -11   -1    0    0    0    0  0.00000000000E+00  0.00000000000E+00  0.45593999997E+02  0.45594000000E+02  0.51100000000E-03 0. -1.
         11   -1    0    0    0    0 -0.00000000000E+00 -0.00000000000E+00 -0.45593999997E+02  0.45594000000E+02  0.51100000000E-03 0.  1.
         23    2    1    2    0    0  0.35527136788E-14  0.44408920985E-15  0.00000000000E+00  0.91188000000E+02  0.91188000000E+02 0.  0.
    9900012    2    3    3    0    0  0.20767568878E+02 -0.26313589435E+01 -0.38018518513E+02  0.47787265940E+02  0.19999976728E+02 0.  0.
         12    1    3    3    0    0 -0.20767568878E+02  0.26313589435E+01  0.38018518513E+02  0.43400734060E+02  0.00000000000E+00 0. -1.
         11    1    4    4    0    0  0.11477864597E+01  0.53508516458E+01 -0.50828887189E+01  0.74689212797E+01  0.51100000000E-03 0. -1.
        -11    1    4    4    0    0  0.10418594052E+02 -0.13878975003E+00 -0.10272698339E+02  0.14631975125E+02  0.51100000000E-03 0.  1.
        -12    1    4    4    0    0  0.92011883667E+01 -0.78434208393E+01 -0.22662931455E+02  0.25686369536E+02  0.00000000000E+00 0.  1.
</event>
<event>
 8    1  0.3776180E-010  0.9118800E+02  0.7816164E-02  0.1184000E+00
        -11   -1    0    0    0    0  0.00000000000E+00  0.00000000000E+00  0.45593999997E+02  0.45594000000E+02  0.51100000000E-03 0. -1.
         11   -1    0    0    0    0 -0.00000000000E+00 -0.00000000000E+00 -0.45593999997E+02  0.45594000000E+02  0.51100000000E-03 0.  1.
         23    2    1    2    0    0  0.17763568394E-14  0.35527136788E-14 -0.71054273576E-14  0.91188000000E+02  0.91188000000E+02 0.  0.
    9900012    2    3    3    0    0  0.12964092392E+02  0.18136049814E+02 -0.37237608378E+02  0.47787268760E+02  0.19999989585E+02 0.  0.
         12    1    3    3    0    0 -0.12964092392E+02 -0.18136049814E+02  0.37237608378E+02  0.43400731240E+02  0.00000000000E+00 0. -1.
         11    1    4    4    0    0 -0.11565871217E+01  0.47212340170E+01 -0.21678948036E+02  0.22217212531E+02  0.51100000000E-03 0. -1.
        -11    1    4    4    0    0  0.47966238692E+01  0.14550163672E+01 -0.50828606369E+01  0.71386375231E+01  0.51100000000E-03 0.  1.
         12    1    4    4    0    0  0.93240556449E+01  0.11959799430E+02 -0.10475799705E+02  0.18431418706E+02  0.00000000000E+00 0. -1.
</event>
<event>
 8    1  0.3776180E-010  0.9118800E+02  0.7816164E-02  0.1184000E+00
        -11   -1    0    0    0    0  0.00000000000E+00  0.00000000000E+00  0.45593999997E+02  0.45594000000E+02  0.51100000000E-03 0. -1.
         11   -1    0    0    0    0 -0.00000000000E+00 -0.00000000000E+00 -0.45593999997E+02  0.45594000000E+02  0.51100000000E-03 0.  1.
         23    2    1    2    0    0  0.71054273576E-14  0.00000000000E+00  0.00000000000E+00  0.91188000000E+02  0.91188000000E+02 0.  0.
    9900012    2    3    3    0    0  0.35519517427E+02 -0.50663763665E+01 -0.24419603330E+02  0.47787293617E+02  0.20000102917E+02 0.  0.
         12    1    3    3    0    0 -0.35519517427E+02  0.50663763665E+01  0.24419603330E+02  0.43400706383E+02  0.00000000000E+00 0. -1.
         11    1    4    4    0    0  0.20558719341E+01 -0.81458902485E+00 -0.64335742244E+01  0.68030171433E+01  0.51100000000E-03 0. -1.
        -11    1    4    4    0    0  0.19011963567E+02 -0.40308419814E+01 -0.18060353541E+02  0.26530714579E+02  0.51100000000E-03 0.  1.
         12    1    4    4    0    0  0.14451681926E+02 -0.22094536025E+00  0.74324435325E-01  0.14453561895E+02  0.00000000000E+00 0. -1.
</event>
<event>
 8    1  0.3776180E-010  0.9118800E+02  0.7816164E-02  0.1184000E+00
        -11   -1    0    0    0    0  0.00000000000E+00  0.00000000000E+00  0.45593999997E+02  0.45594000000E+02  0.51100000000E-03 0. -1.
         11   -1    0    0    0    0 -0.00000000000E+00 -0.00000000000E+00 -0.45593999997E+02  0.45594000000E+02  0.51100000000E-03 0.  1.
         23    2    1    2    0    0  0.71054273576E-14  0.00000000000E+00  0.00000000000E+00  0.91188000000E+02  0.91188000000E+02 0.  0.
    9900012    2    3    3    0    0 -0.35316315904E+02 -0.10891350272E+02 -0.22754333107E+02  0.47787270111E+02  0.19999995743E+02 0.  0.
         12    1    3    3    0    0  0.35316315904E+02  0.10891350272E+02  0.22754333107E+02  0.43400729889E+02  0.00000000000E+00 0. -1.
         11    1    4    4    0    0 -0.13263638212E+02 -0.64268665867E+01 -0.55753754079E+01  0.15757966999E+02  0.51100000000E-03 0. -1.
        -11    1    4    4    0    0 -0.12132531285E+02 -0.59178599906E+01 -0.17259713773E+01  0.13608760403E+02  0.51100000000E-03 0.  1.
         12    1    4    4    0    0 -0.99201464068E+01  0.14533763053E+01 -0.15452986322E+02  0.18420542709E+02  0.00000000000E+00 0. -1.
</event>
<event>
 8    1  0.3776180E-010  0.9118800E+02  0.7816164E-02  0.1184000E+00
        -11   -1    0    0    0    0  0.00000000000E+00  0.00000000000E+00  0.45593999997E+02  0.45594000000E+02  0.51100000000E-03 0.  1.
         11   -1    0    0    0    0 -0.00000000000E+00 -0.00000000000E+00 -0.45593999997E+02  0.45594000000E+02  0.51100000000E-03 0. -1.
         23    2    1    2    0    0  0.00000000000E+00 -0.71054273576E-14 -0.53290705182E-14  0.91188000000E+02  0.91188000000E+02 0.  0.
    9900012    2    3    3    0    0  0.24344733605E+02  0.33090069811E+02  0.14000162271E+02  0.47787270536E+02  0.19999997680E+02 0.  0.
         12    1    3    3    0    0 -0.24344733605E+02 -0.33090069811E+02 -0.14000162271E+02  0.43400729464E+02  0.00000000000E+00 0. -1.
         11    1    4    4    0    0  0.68000031873E+01  0.46715694080E+01  0.94147460226E+01  0.12518028879E+02  0.51100000000E-03 0. -1.
        -11    1    4    4    0    0  0.12668184331E+02  0.18058459800E+02  0.77650100711E+01  0.23385599122E+02  0.51100000000E-03 0.  1.
         12    1    4    4    0    0  0.48765460871E+01  0.10360040603E+02 -0.31795938226E+01  0.11883642535E+02  0.00000000000E+00 0. -1.
</event>
<event>
 8    1  0.3776180E-010  0.9118800E+02  0.7816164E-02  0.1184000E+00
        -11   -1    0    0    0    0  0.00000000000E+00  0.00000000000E+00  0.45593999997E+02  0.45594000000E+02  0.51100000000E-03 0. -1.
         11   -1    0    0    0    0 -0.00000000000E+00 -0.00000000000E+00 -0.45593999997E+02  0.45594000000E+02  0.51100000000E-03 0.  1.
         23    2    1    2    0    0  0.00000000000E+00  0.00000000000E+00  0.00000000000E+00  0.91188000000E+02  0.91188000000E+02 0.  0.
    9900012    2    3    3    0    0  0.25735071613E+02  0.61578985090E+01 -0.34400723100E+02  0.47787269882E+02  0.19999994700E+02 0.  0.
         12    1    3    3    0    0 -0.25735071613E+02 -0.61578985090E+01  0.34400723100E+02  0.43400730118E+02  0.00000000000E+00 0. -1.
         11    1    4    4    0    0  0.10813158710E+02 -0.24986674445E+01 -0.18498759145E+02  0.21572478542E+02  0.51100000000E-03 0.  1.
        -11    1    4    4    0    0 -0.13138807248E+01  0.12379448589E+01 -0.49584768557E+01  0.52768629907E+01  0.51100000000E-03 0. -1.
         12    1    4    4    0    0  0.16235793627E+02  0.74186210946E+01 -0.10943487100E+02  0.20937928349E+02  0.00000000000E+00 0. -1.
</event>
<event>
 8    1  0.3776180E-010  0.9118800E+02  0.7816164E-02  0.1184000E+00
        -11   -1    0    0    0    0  0.00000000000E+00  0.00000000000E+00  0.45593999997E+02  0.45594000000E+02  0.51100000000E-03 0. -1.
         11   -1    0    0    0    0 -0.00000000000E+00 -0.00000000000E+00 -0.45593999997E+02  0.45594000000E+02  0.51100000000E-03 0.  1.
         23    2    1    2    0    0  0.00000000000E+00 -0.35527136788E-14  0.00000000000E+00  0.91188000000E+02  0.91188000000E+02 0.  0.
    9900012    2    3    3    0    0  0.32540117580E+02  0.18720388904E+02 -0.21778681370E+02  0.47787272183E+02  0.20000005190E+02 0.  0.
         12    1    3    3    0    0 -0.32540117580E+02 -0.18720388904E+02  0.21778681370E+02  0.43400727817E+02  0.00000000000E+00 0. -1.
         11    1    4    4    0    0  0.21591614936E+01 -0.19309458598E+01 -0.12709195811E+01  0.31631893892E+01  0.51100000000E-03 0. -1.
        -11    1    4    4    0    0  0.26036244409E+02  0.18210840202E+02 -0.22831775868E+02  0.39125576204E+02  0.51100000000E-03 0.  1.
         12    1    4    4    0    0  0.43447116783E+01  0.24404945618E+01  0.23240140794E+01  0.54985065896E+01  0.00000000000E+00 0. -1.
</event>
<event>
 8    1  0.3776180E-010  0.9118800E+02  0.7816164E-02  0.1184000E+00
        -11   -1    0    0    0    0  0.00000000000E+00  0.00000000000E+00  0.45593999997E+02  0.45594000000E+02  0.51100000000E-03 0. -1.
         11   -1    0    0    0    0 -0.00000000000E+00 -0.00000000000E+00 -0.45593999997E+02  0.45594000000E+02  0.51100000000E-03 0.  1.
         23    2    1    2    0    0  0.00000000000E+00  0.00000000000E+00  0.00000000000E+00  0.91188000000E+02  0.91188000000E+02 0.  0.
    9900012    2    3    3    0    0 -0.26515709100E+02  0.11546062599E+02  0.32360918432E+02  0.47787269218E+02  0.19999991673E+02 0.  0.
        -12    1    3    3    0    0  0.26515709100E+02 -0.11546062599E+02 -0.32360918432E+02  0.43400730782E+02  0.00000000000E+00 0.  1.
         11    1    4    4    0    0 -0.11470287643E+02  0.42936006931E+01  0.13219194426E+02  0.18020810388E+02  0.51100000000E-03 0. -1.
        -11    1    4    4    0    0 -0.15882527450E+02  0.45622683922E+01  0.20747078139E+02  0.26523767127E+02  0.51100000000E-03 0.  1.
        -12    1    4    4    0    0  0.83710599245E+00  0.26901935140E+01 -0.16053541326E+01  0.32426917024E+01  0.00000000000E+00 0.  1.
</event>
<event>
 8    1  0.3776180E-010  0.9118800E+02  0.7816164E-02  0.1184000E+00
        -11   -1    0    0    0    0  0.00000000000E+00  0.00000000000E+00  0.45593999997E+02  0.45594000000E+02  0.51100000000E-03 0.  1.
         11   -1    0    0    0    0 -0.00000000000E+00 -0.00000000000E+00 -0.45593999997E+02  0.45594000000E+02  0.51100000000E-03 0. -1.
         23    2    1    2    0    0 -0.11102230246E-15  0.00000000000E+00  0.00000000000E+00  0.91188000000E+02  0.91188000000E+02 0.  0.
    9900012    2    3    3    0    0  0.43966136621E+00 -0.36916583700E+02  0.22816567331E+02  0.47787271907E+02  0.20000003934E+02 0.  0.
         12    1    3    3    0    0 -0.43966136621E+00  0.36916583700E+02 -0.22816567331E+02  0.43400728093E+02  0.00000000000E+00 0. -1.
         11    1    4    4    0    0 -0.28695092729E+01 -0.62200316753E+00  0.14073567955E+01  0.32560136392E+01  0.51100000000E-03 0. -1.
        -11    1    4    4    0    0 -0.38240611068E+01 -0.26968927842E+02  0.13745181508E+02  0.30510269210E+02  0.51100000000E-03 0.  1.
        -12    1    4    4    0    0  0.71332317459E+01 -0.93256526904E+01  0.76640290276E+01  0.14020989058E+02  0.00000000000E+00 0.  1.
</event>
<event>
 8    1  0.3776180E-010  0.9118800E+02  0.7816164E-02  0.1184000E+00
        -11   -1    0    0    0    0  0.00000000000E+00  0.00000000000E+00  0.45593999997E+02  0.45594000000E+02  0.51100000000E-03 0. -1.
         11   -1    0    0    0    0 -0.00000000000E+00 -0.00000000000E+00 -0.45593999997E+02  0.45594000000E+02  0.51100000000E-03 0.  1.
         23    2    1    2    0    0  0.88817841970E-15  0.00000000000E+00  0.00000000000E+00  0.91188000000E+02  0.91188000000E+02 0.  0.
    9900012    2    3    3    0    0  0.49693085319E+01  0.16306612211E+02  0.39912730851E+02  0.47787242943E+02  0.19999871876E+02 0.  0.
        -12    1    3    3    0    0 -0.49693085319E+01 -0.16306612211E+02 -0.39912730851E+02  0.43400757057E+02  0.00000000000E+00 0.  1.
         11    1    4    4    0    0  0.24056313629E+01  0.18228365702E+01  0.85243547498E+00  0.31363102391E+01  0.51100000000E-03 0.  1.
        -11    1    4    4    0    0  0.43131127868E+01  0.91551425137E+01  0.75005914313E+01  0.12596763411E+02  0.51100000000E-03 0. -1.
        -12    1    4    4    0    0 -0.17494356177E+01  0.53286331273E+01  0.31559703945E+02  0.32054169293E+02  0.00000000000E+00 0.  1.
</event>
<event>
 8    1  0.3776180E-010  0.9118800E+02  0.7816164E-02  0.1184000E+00
        -11   -1    0    0    0    0  0.00000000000E+00  0.00000000000E+00  0.45593999997E+02  0.45594000000E+02  0.51100000000E-03 0. -1.
         11   -1    0    0    0    0 -0.00000000000E+00 -0.00000000000E+00 -0.45593999997E+02  0.45594000000E+02  0.51100000000E-03 0.  1.
         23    2    1    2    0    0  0.88817841970E-15  0.00000000000E+00  0.00000000000E+00  0.91188000000E+02  0.91188000000E+02 0.  0.
    9900012    2    3    3    0    0  0.47513553903E+01 -0.52583211961E+01  0.42818196599E+02  0.47787270976E+02  0.19999999689E+02 0.  0.
        -12    1    3    3    0    0 -0.47513553903E+01  0.52583211961E+01 -0.42818196599E+02  0.43400729024E+02  0.00000000000E+00 0.  1.
         11    1    4    4    0    0  0.68996692515E+01  0.14576945276E+01  0.19388060716E+02  0.20630734541E+02  0.51100000000E-03 0. -1.
        -11    1    4    4    0    0  0.36918008204E+01  0.79693229916E+00  0.10061681555E+02  0.10747182438E+02  0.51100000000E-03 0.  1.
         12    1    4    4    0    0 -0.58401146815E+01 -0.75129480229E+01  0.13368454328E+02  0.16409353997E+02  0.00000000000E+00 0. -1.
</event>
<event>
 8    1  0.3776180E-010  0.9118800E+02  0.7816164E-02  0.1184000E+00
        -11   -1    0    0    0    0  0.00000000000E+00  0.00000000000E+00  0.45593999997E+02  0.45594000000E+02  0.51100000000E-03 0. -1.
         11   -1    0    0    0    0 -0.00000000000E+00 -0.00000000000E+00 -0.45593999997E+02  0.45594000000E+02  0.51100000000E-03 0.  1.
         23    2    1    2    0    0  0.00000000000E+00  0.00000000000E+00  0.00000000000E+00  0.91188000000E+02  0.91188000000E+02 0.  0.
    9900012    2    3    3    0    0  0.78178551421E+01  0.11015041424E+02 -0.41245275175E+02  0.47787277416E+02  0.20000029051E+02 0.  0.
         12    1    3    3    0    0 -0.78178551421E+01 -0.11015041424E+02  0.41245275175E+02  0.43400722584E+02  0.00000000000E+00 0. -1.
         11    1    4    4    0    0  0.12983252376E+01 -0.35021282926E+01 -0.50629432576E+01  0.62915773611E+01  0.51100000000E-03 0. -1.
        -11    1    4    4    0    0  0.33511806313E+01  0.11349194416E+01 -0.19766635993E+02  0.20080795615E+02  0.51100000000E-03 0.  1.
        -12    1    4    4    0    0  0.31683492732E+01  0.13382250275E+02 -0.16415695924E+02  0.21414904440E+02  0.00000000000E+00 0.  1.
</event>
<event>
 8    1  0.3776180E-010  0.9118800E+02  0.7816164E-02  0.1184000E+00
        -11   -1    0    0    0    0  0.00000000000E+00  0.00000000000E+00  0.45593999997E+02  0.45594000000E+02  0.51100000000E-03 0. -1.
         11   -1    0    0    0    0 -0.00000000000E+00 -0.00000000000E+00 -0.45593999997E+02  0.45594000000E+02  0.51100000000E-03 0.  1.
         23    2    1    2    0    0  0.00000000000E+00  0.00000000000E+00  0.71054273576E-14  0.91188000000E+02  0.91188000000E+02 0.  0.
    9900012    2    3    3    0    0  0.77828251171E+01  0.68051000007E+01 -0.42151422767E+02  0.47787260443E+02  0.19999951664E+02 0.  0.
         12    1    3    3    0    0 -0.77828251171E+01 -0.68051000007E+01  0.42151422767E+02  0.43400739557E+02  0.00000000000E+00 0. -1.
         11    1    4    4    0    0  0.15670087766E+01  0.40786545486E+01  0.29627541603E+00  0.43793514150E+01  0.51100000000E-03 0. -1.
        -11    1    4    4    0    0 -0.11863247791E+01  0.24944194860E-01 -0.48072383647E+01  0.49515179138E+01  0.51100000000E-03 0.  1.
        -12    1    4    4    0    0  0.74021411197E+01  0.27015012572E+01 -0.37640459818E+02  0.38456391114E+02  0.00000000000E+00 0.  1.
</event>
<event>
 8    1  0.3776180E-010  0.9118800E+02  0.7816164E-02  0.1184000E+00
        -11   -1    0    0    0    0  0.00000000000E+00  0.00000000000E+00  0.45593999997E+02  0.45594000000E+02  0.51100000000E-03 0. -1.
         11   -1    0    0    0    0 -0.00000000000E+00 -0.00000000000E+00 -0.45593999997E+02  0.45594000000E+02  0.51100000000E-03 0.  1.
         23    2    1    2    0    0 -0.17763568394E-14  0.00000000000E+00  0.00000000000E+00  0.91188000000E+02  0.91188000000E+02 0.  0.
    9900012    2    3    3    0    0 -0.14823177166E+02 -0.22557792402E+02  0.33985920381E+02  0.47787270011E+02  0.19999995290E+02 0.  0.
        -12    1    3    3    0    0  0.14823177166E+02  0.22557792402E+02 -0.33985920381E+02  0.43400729989E+02  0.00000000000E+00 0.  1.
         11    1    4    4    0    0 -0.75726027341E+01 -0.12150811813E+01  0.15360724149E+02  0.17168942340E+02  0.51100000000E-03 0. -1.
        -11    1    4    4    0    0 -0.30087701284E+01 -0.35435328235E+01  0.85454943490E+01  0.97280417601E+01  0.51100000000E-03 0.  1.
        -12    1    4    4    0    0 -0.42418043034E+01 -0.17799178398E+02  0.10079701883E+02  0.20890285911E+02  0.00000000000E+00 0.  1.
</event>
<event>
 8    1  0.3776180E-010  0.9118800E+02  0.7816164E-02  0.1184000E+00
        -11   -1    0    0    0    0  0.00000000000E+00  0.00000000000E+00  0.45593999997E+02  0.45594000000E+02  0.51100000000E-03 0. -1.
         11   -1    0    0    0    0 -0.00000000000E+00 -0.00000000000E+00 -0.45593999997E+02  0.45594000000E+02  0.51100000000E-03 0.  1.
         23    2    1    2    0    0  0.00000000000E+00  0.00000000000E+00 -0.13322676296E-14  0.91188000000E+02  0.91188000000E+02 0.  0.
    9900012    2    3    3    0    0  0.37313604366E+02 -0.21840436333E+02  0.37833747463E+01  0.47787266659E+02  0.19999980007E+02 0.  0.
         12    1    3    3    0    0 -0.37313604366E+02  0.21840436333E+02 -0.37833747463E+01  0.43400733341E+02  0.00000000000E+00 0. -1.
         11    1    4    4    0    0  0.12503684904E+00 -0.18209434772E+01  0.86819173306E+00  0.20211943270E+01  0.51100000000E-03 0. -1.
        -11    1    4    4    0    0  0.25598748242E+02 -0.67037376419E+01  0.75436995852E+01  0.27516239089E+02  0.51100000000E-03 0.  1.
         12    1    4    4    0    0  0.11589819276E+02 -0.13315755214E+02 -0.46285165719E+01  0.18249833244E+02  0.00000000000E+00 0. -1.
</event>
<event>
 8    1  0.3776180E-010  0.9118800E+02  0.7816164E-02  0.1184000E+00
        -11   -1    0    0    0    0  0.00000000000E+00  0.00000000000E+00  0.45593999997E+02  0.45594000000E+02  0.51100000000E-03 0. -1.
         11   -1    0    0    0    0 -0.00000000000E+00 -0.00000000000E+00 -0.45593999997E+02  0.45594000000E+02  0.51100000000E-03 0.  1.
         23    2    1    2    0    0  0.00000000000E+00  0.00000000000E+00 -0.71054273576E-14  0.91188000000E+02  0.91188000000E+02 0.  0.
    9900012    2    3    3    0    0  0.16155812385E+02 -0.10872736269E+02 -0.38786550185E+02  0.47787272551E+02  0.20000006870E+02 0.  0.
         12    1    3    3    0    0 -0.16155812385E+02  0.10872736269E+02  0.38786550185E+02  0.43400727449E+02  0.00000000000E+00 0. -1.
         11    1    4    4    0    0 -0.12443932044E+01  0.29015296109E+00 -0.31570880362E+01  0.34058638137E+01  0.51100000000E-03 0. -1.
        -11    1    4    4    0    0  0.56183225057E+01 -0.10391234826E+02 -0.27823227787E+02  0.30227062605E+02  0.51100000000E-03 0.  1.
         12    1    4    4    0    0  0.11781883084E+02 -0.77165440436E+00 -0.78062343620E+01  0.14154346132E+02  0.00000000000E+00 0. -1.
</event>
<event>
 8    1  0.3776180E-010  0.9118800E+02  0.7816164E-02  0.1184000E+00
        -11   -1    0    0    0    0  0.00000000000E+00  0.00000000000E+00  0.45593999997E+02  0.45594000000E+02  0.51100000000E-03 0. -1.
         11   -1    0    0    0    0 -0.00000000000E+00 -0.00000000000E+00 -0.45593999997E+02  0.45594000000E+02  0.51100000000E-03 0.  1.
         23    2    1    2    0    0  0.00000000000E+00  0.00000000000E+00  0.00000000000E+00  0.91188000000E+02  0.91188000000E+02 0.  0.
    9900012    2    3    3    0    0 -0.30935408860E+02  0.15245561527E+02 -0.26347613461E+02  0.47787269560E+02  0.19999993233E+02 0.  0.
         12    1    3    3    0    0  0.30935408860E+02 -0.15245561527E+02  0.26347613461E+02  0.43400730440E+02  0.00000000000E+00 0. -1.
         11    1    4    4    0    0 -0.10992041366E+02  0.94788383094E+00 -0.35853157508E+01  0.11600773528E+02  0.51100000000E-03 0. -1.
        -11    1    4    4    0    0 -0.12639370356E+01 -0.11737387998E+01 -0.71185317020E+01  0.73245268416E+01  0.51100000000E-03 0.  1.
        -12    1    4    4    0    0 -0.18679430458E+02  0.15471416496E+02 -0.15643766009E+02  0.28861969191E+02  0.00000000000E+00 0.  1.
</event>
<event>
 8    1  0.3776180E-010  0.9118800E+02  0.7816164E-02  0.1184000E+00
        -11   -1    0    0    0    0  0.00000000000E+00  0.00000000000E+00  0.45593999997E+02  0.45594000000E+02  0.51100000000E-03 0. -1.
         11   -1    0    0    0    0 -0.00000000000E+00 -0.00000000000E+00 -0.45593999997E+02  0.45594000000E+02  0.51100000000E-03 0.  1.
         23    2    1    2    0    0  0.00000000000E+00  0.00000000000E+00  0.00000000000E+00  0.91188000000E+02  0.91188000000E+02 0.  0.
    9900012    2    3    3    0    0  0.94188959691E+01  0.20650005978E+02  0.36993021069E+02  0.47787286228E+02  0.20000069227E+02 0.  0.
        -12    1    3    3    0    0 -0.94188959691E+01 -0.20650005978E+02 -0.36993021069E+02  0.43400713772E+02  0.00000000000E+00 0.  1.
         11    1    4    4    0    0  0.19967227354E+01  0.38868668156E+01  0.16824901051E+02  0.17383093250E+02  0.51100000000E-03 0. -1.
        -11    1    4    4    0    0  0.33043765812E+01  0.14210100616E+02  0.20916327420E+02  0.25501737531E+02  0.51100000000E-03 0.  1.
        -12    1    4    4    0    0  0.41177966524E+01  0.25530385463E+01 -0.74820740169E+00  0.49024554466E+01  0.00000000000E+00 0.  1.
</event>
<event>
 8    1  0.3776180E-010  0.9118800E+02  0.7816164E-02  0.1184000E+00
        -11   -1    0    0    0    0  0.00000000000E+00  0.00000000000E+00  0.45593999997E+02  0.45594000000E+02  0.51100000000E-03 0. -1.
         11   -1    0    0    0    0 -0.00000000000E+00 -0.00000000000E+00 -0.45593999997E+02  0.45594000000E+02  0.51100000000E-03 0.  1.
         23    2    1    2    0    0  0.00000000000E+00  0.00000000000E+00  0.00000000000E+00  0.91188000000E+02  0.91188000000E+02 0.  0.
    9900012    2    3    3    0    0  0.15333489973E+02 -0.18269014043E+02  0.36259490536E+02  0.47787269099E+02  0.19999991129E+02 0.  0.
        -12    1    3    3    0    0 -0.15333489973E+02  0.18269014043E+02 -0.36259490536E+02  0.43400730901E+02  0.00000000000E+00 0.  1.
         11    1    4    4    0    0  0.17601766274E+01 -0.20905947923E+01  0.11102014458E+01  0.29498060710E+01  0.51100000000E-03 0. -1.
        -11    1    4    4    0    0 -0.11603144261E+01 -0.39747411242E+01 -0.70318606025E+00  0.41999246979E+01  0.51100000000E-03 0.  1.
         12    1    4    4    0    0  0.14733627772E+02 -0.12203678126E+02  0.35852475150E+02  0.40637538330E+02  0.00000000000E+00 0. -1.
</event>
<event>
 8    1  0.3776180E-010  0.9118800E+02  0.7816164E-02  0.1184000E+00
        -11   -1    0    0    0    0  0.00000000000E+00  0.00000000000E+00  0.45593999997E+02  0.45594000000E+02  0.51100000000E-03 0. -1.
         11   -1    0    0    0    0 -0.00000000000E+00 -0.00000000000E+00 -0.45593999997E+02  0.45594000000E+02  0.51100000000E-03 0.  1.
         23    2    1    2    0    0  0.00000000000E+00  0.17763568394E-14  0.00000000000E+00  0.91188000000E+02  0.91188000000E+02 0.  0.
    9900012    2    3    3    0    0 -0.56793636375E+01  0.80744430919E+01  0.42263125999E+02  0.47787267037E+02  0.19999981727E+02 0.  0.
        -12    1    3    3    0    0  0.56793636375E+01 -0.80744430919E+01 -0.42263125999E+02  0.43400732963E+02  0.00000000000E+00 0.  1.
         11    1    4    4    0    0 -0.40919162502E+01  0.12530742995E+02  0.30765516755E+02  0.33470588881E+02  0.51100000000E-03 0. -1.
        -11    1    4    4    0    0 -0.26547642557E+01  0.50249157558E+00  0.14621482719E+01  0.30721570382E+01  0.51100000000E-03 0.  1.
         12    1    4    4    0    0  0.10673168685E+01 -0.49587914790E+01  0.10035460972E+02  0.11244521117E+02  0.00000000000E+00 0. -1.
</event>
<event>
 8    1  0.3776180E-010  0.9118800E+02  0.7816164E-02  0.1184000E+00
        -11   -1    0    0    0    0  0.00000000000E+00  0.00000000000E+00  0.45593999997E+02  0.45594000000E+02  0.51100000000E-03 0. -1.
         11   -1    0    0    0    0 -0.00000000000E+00 -0.00000000000E+00 -0.45593999997E+02  0.45594000000E+02  0.51100000000E-03 0.  1.
         23    2    1    2    0    0 -0.71054273576E-14 -0.17763568394E-14  0.00000000000E+00  0.91188000000E+02  0.91188000000E+02 0.  0.
    9900012    2    3    3    0    0 -0.35659602328E+02 -0.13252040045E+02  0.20890162582E+02  0.47787277699E+02  0.20000030340E+02 0.  0.
        -12    1    3    3    0    0  0.35659602328E+02  0.13252040045E+02 -0.20890162582E+02  0.43400722301E+02  0.00000000000E+00 0.  1.
         11    1    4    4    0    0 -0.13556084190E+02 -0.97725043731E+01  0.64652583664E+01  0.17918393518E+02  0.51100000000E-03 0. -1.
        -11    1    4    4    0    0 -0.26526088797E+01 -0.28511967040E+01 -0.20227885724E+01  0.43883174889E+01  0.51100000000E-03 0.  1.
         12    1    4    4    0    0 -0.19450909259E+02 -0.62833896790E+00  0.16447692788E+02  0.25480566691E+02  0.00000000000E+00 0. -1.
</event>
<event>
 8    1  0.3776180E-010  0.9118800E+02  0.7816164E-02  0.1184000E+00
        -11   -1    0    0    0    0  0.00000000000E+00  0.00000000000E+00  0.45593999997E+02  0.45594000000E+02  0.51100000000E-03 0. -1.
         11   -1    0    0    0    0 -0.00000000000E+00 -0.00000000000E+00 -0.45593999997E+02  0.45594000000E+02  0.51100000000E-03 0.  1.
         23    2    1    2    0    0  0.00000000000E+00  0.00000000000E+00  0.35527136788E-14  0.91188000000E+02  0.91188000000E+02 0.  0.
    9900012    2    3    3    0    0  0.35961521504E+02 -0.22128778661E+02 -0.10035412658E+02  0.47787269809E+02  0.19999994367E+02 0.  0.
        -12    1    3    3    0    0 -0.35961521504E+02  0.22128778661E+02  0.10035412658E+02  0.43400730191E+02  0.00000000000E+00 0.  1.
         11    1    4    4    0    0  0.11259013022E+01 -0.43177831559E+01 -0.24694478984E+01  0.50999096372E+01  0.51100000000E-03 0.  1.
        -11    1    4    4    0    0  0.15875405893E+02 -0.69308545284E+00 -0.63555379127E+01  0.17114372385E+02  0.51100000000E-03 0. -1.
         12    1    4    4    0    0  0.18960214308E+02 -0.17117910052E+02 -0.12104268468E+01  0.25572987786E+02  0.00000000000E+00 0. -1.
</event>
<event>
 8    1  0.3776180E-010  0.9118800E+02  0.7816164E-02  0.1184000E+00
        -11   -1    0    0    0    0  0.00000000000E+00  0.00000000000E+00  0.45593999997E+02  0.45594000000E+02  0.51100000000E-03 0. -1.
         11   -1    0    0    0    0 -0.00000000000E+00 -0.00000000000E+00 -0.45593999997E+02  0.45594000000E+02  0.51100000000E-03 0.  1.
         23    2    1    2    0    0  0.00000000000E+00  0.00000000000E+00  0.00000000000E+00  0.91188000000E+02  0.91188000000E+02 0.  0.
    9900012    2    3    3    0    0 -0.33016439571E+02 -0.14970129097E+01 -0.28129999652E+02  0.47787271780E+02  0.20000003352E+02 0.  0.
         12    1    3    3    0    0  0.33016439571E+02  0.14970129097E+01  0.28129999652E+02  0.43400728220E+02  0.00000000000E+00 0. -1.
         11    1    4    4    0    0 -0.85635761225E+01  0.38607426694E+01 -0.37855066205E+01  0.10127696214E+02  0.51100000000E-03 0. -1.
        -11    1    4    4    0    0 -0.10383310899E+02 -0.17483461009E+01 -0.15678165580E+01  0.10645558150E+02  0.51100000000E-03 0.  1.
         12    1    4    4    0    0 -0.14069552550E+02 -0.36094094782E+01 -0.22776676474E+02  0.27014017416E+02  0.00000000000E+00 0. -1.
</event>
<event>
 8    1  0.3776180E-010  0.9118800E+02  0.7816164E-02  0.1184000E+00
        -11   -1    0    0    0    0  0.00000000000E+00  0.00000000000E+00  0.45593999997E+02  0.45594000000E+02  0.51100000000E-03 0. -1.
         11   -1    0    0    0    0 -0.00000000000E+00 -0.00000000000E+00 -0.45593999997E+02  0.45594000000E+02  0.51100000000E-03 0.  1.
         23    2    1    2    0    0  0.44408920985E-15  0.00000000000E+00  0.71054273576E-14  0.91188000000E+02  0.91188000000E+02 0.  0.
    9900012    2    3    3    0    0  0.15152679780E+01  0.26147700004E+02 -0.34606717052E+02  0.47787272845E+02  0.20000008208E+02 0.  0.
         12    1    3    3    0    0 -0.15152679780E+01 -0.26147700004E+02  0.34606717052E+02  0.43400727155E+02  0.00000000000E+00 0. -1.
         11    1    4    4    0    0 -0.56192524704E+01  0.40285497370E+01 -0.47674617132E+01  0.83984464490E+01  0.51100000000E-03 0. -1.
        -11    1    4    4    0    0 -0.99814447281E+00  0.23813146546E+01 -0.97104641644E+01  0.10047888655E+02  0.51100000000E-03 0.  1.
        -12    1    4    4    0    0  0.81326649212E+01  0.19737835612E+02 -0.20128791174E+02  0.29340937741E+02  0.00000000000E+00 0.  1.
</event>
<event>
 8    1  0.3776180E-010  0.9118800E+02  0.7816164E-02  0.1184000E+00
        -11   -1    0    0    0    0  0.00000000000E+00  0.00000000000E+00  0.45593999997E+02  0.45594000000E+02  0.51100000000E-03 0. -1.
         11   -1    0    0    0    0 -0.00000000000E+00 -0.00000000000E+00 -0.45593999997E+02  0.45594000000E+02  0.51100000000E-03 0.  1.
         23    2    1    2    0    0  0.00000000000E+00  0.00000000000E+00  0.00000000000E+00  0.91188000000E+02  0.91188000000E+02 0.  0.
    9900012    2    3    3    0    0 -0.25196404676E+02 -0.22591346547E+02  0.27173435963E+02  0.47787269944E+02  0.19999994983E+02 0.  0.
        -12    1    3    3    0    0  0.25196404676E+02  0.22591346547E+02 -0.27173435963E+02  0.43400730056E+02  0.00000000000E+00 0.  1.
         11    1    4    4    0    0 -0.36153358900E+01  0.16693545147E+01  0.38602184634E+01  0.55460512926E+01  0.51100000000E-03 0. -1.
        -11    1    4    4    0    0 -0.11112930619E+02 -0.56861584963E+01  0.14597876295E+02  0.19207488591E+02  0.51100000000E-03 0.  1.
         12    1    4    4    0    0 -0.10468138166E+02 -0.18574542565E+02  0.87153412041E+01  0.23033730060E+02  0.00000000000E+00 0. -1.
</event>
<event>
 8    1  0.3776180E-010  0.9118800E+02  0.7816164E-02  0.1184000E+00
        -11   -1    0    0    0    0  0.00000000000E+00  0.00000000000E+00  0.45593999997E+02  0.45594000000E+02  0.51100000000E-03 0. -1.
         11   -1    0    0    0    0 -0.00000000000E+00 -0.00000000000E+00 -0.45593999997E+02  0.45594000000E+02  0.51100000000E-03 0.  1.
         23    2    1    2    0    0  0.00000000000E+00  0.88817841970E-15  0.88817841970E-15  0.91188000000E+02  0.91188000000E+02 0.  0.
    9900012    2    3    3    0    0 -0.42719148154E+02 -0.31667808673E+01 -0.69763320018E+01  0.47787270418E+02  0.19999997142E+02 0.  0.
         12    1    3    3    0    0  0.42719148154E+02  0.31667808673E+01  0.69763320018E+01  0.43400729582E+02  0.00000000000E+00 0. -1.
         11    1    4    4    0    0  0.15293249515E+00  0.47694152779E+00 -0.45310687205E-01  0.50290644110E+00  0.51100000000E-03 0. -1.
        -11    1    4    4    0    0 -0.13030167961E+02 -0.96815767908E+01 -0.98891582735E+00  0.16263337942E+02  0.51100000000E-03 0.  1.
        -12    1    4    4    0    0 -0.29841912688E+02  0.60378543957E+01 -0.59421054873E+01  0.31021026034E+02  0.00000000000E+00 0.  1.
</event>
<event>
 8    1  0.3776180E-010  0.9118800E+02  0.7816164E-02  0.1184000E+00
        -11   -1    0    0    0    0  0.00000000000E+00  0.00000000000E+00  0.45593999997E+02  0.45594000000E+02  0.51100000000E-03 0. -1.
         11   -1    0    0    0    0 -0.00000000000E+00 -0.00000000000E+00 -0.45593999997E+02  0.45594000000E+02  0.51100000000E-03 0.  1.
         23    2    1    2    0    0 -0.88817841970E-15  0.35527136788E-14  0.71054273576E-14  0.91188000000E+02  0.91188000000E+02 0.  0.
    9900012    2    3    3    0    0  0.74482126263E+01 -0.15115870039E+02 -0.39995725648E+02  0.47787268803E+02  0.19999989779E+02 0.  0.
         12    1    3    3    0    0 -0.74482126263E+01  0.15115870039E+02  0.39995725648E+02  0.43400731197E+02  0.00000000000E+00 0. -1.
         11    1    4    4    0    0  0.25750407679E+01 -0.79215126113E+00 -0.57974302085E+01  0.63928503706E+01  0.51100000000E-03 0. -1.
        -11    1    4    4    0    0  0.96519800638E+01 -0.15385225511E+02 -0.29277233714E+02  0.34453189945E+02  0.51100000000E-03 0.  1.
         12    1    4    4    0    0 -0.47788082054E+01  0.10615067327E+01 -0.49210617253E+01  0.69412284872E+01  0.00000000000E+00 0. -1.
</event>
<event>
 8    1  0.3776180E-010  0.9118800E+02  0.7816164E-02  0.1184000E+00
        -11   -1    0    0    0    0  0.00000000000E+00  0.00000000000E+00  0.45593999997E+02  0.45594000000E+02  0.51100000000E-03 0. -1.
         11   -1    0    0    0    0 -0.00000000000E+00 -0.00000000000E+00 -0.45593999997E+02  0.45594000000E+02  0.51100000000E-03 0.  1.
         23    2    1    2    0    0  0.00000000000E+00  0.00000000000E+00  0.00000000000E+00  0.91188000000E+02  0.91188000000E+02 0.  0.
    9900012    2    3    3    0    0  0.28182178312E+02  0.22910556772E+01 -0.32926288403E+02  0.47787256014E+02  0.19999931471E+02 0.  0.
         12    1    3    3    0    0 -0.28182178312E+02 -0.22910556772E+01  0.32926288403E+02  0.43400743986E+02  0.00000000000E+00 0. -1.
         11    1    4    4    0    0  0.80980850444E+01 -0.66345618031E+01 -0.14738472341E+02  0.18078134830E+02  0.51100000000E-03 0. -1.
        -11    1    4    4    0    0  0.70994982389E+01  0.31698386486E+01 -0.11810477984E+02  0.14139948471E+02  0.51100000000E-03 0.  1.
         12    1    4    4    0    0  0.12984595028E+02  0.57557788317E+01 -0.63773380782E+01  0.15569172713E+02  0.00000000000E+00 0. -1.
</event>
<event>
 8    1  0.3776180E-010  0.9118800E+02  0.7816164E-02  0.1184000E+00
        -11   -1    0    0    0    0  0.00000000000E+00  0.00000000000E+00  0.45593999997E+02  0.45594000000E+02  0.51100000000E-03 0. -1.
         11   -1    0    0    0    0 -0.00000000000E+00 -0.00000000000E+00 -0.45593999997E+02  0.45594000000E+02  0.51100000000E-03 0.  1.
         23    2    1    2    0    0  0.00000000000E+00  0.00000000000E+00  0.00000000000E+00  0.91188000000E+02  0.91188000000E+02 0.  0.
    9900012    2    3    3    0    0  0.59001815989E+01  0.20167212647E+02  0.37974920695E+02  0.47787271773E+02  0.20000003323E+02 0.  0.
        -12    1    3    3    0    0 -0.59001815989E+01 -0.20167212647E+02 -0.37974920695E+02  0.43400728227E+02  0.00000000000E+00 0.  1.
         11    1    4    4    0    0 -0.23407629846E+01  0.13142241267E+02  0.31628928260E+02  0.34330551700E+02  0.51100000000E-03 0. -1.
        -11    1    4    4    0    0 -0.38399279856E-01 -0.10810627169E+00  0.14962128458E+01  0.15006047486E+01  0.51100000000E-03 0.  1.
        -12    1    4    4    0    0  0.82793438634E+01  0.71330776522E+01  0.48497795884E+01  0.11956115325E+02  0.00000000000E+00 0.  1.
</event>
<event>
 8    1  0.3776180E-010  0.9118800E+02  0.7816164E-02  0.1184000E+00
        -11   -1    0    0    0    0  0.00000000000E+00  0.00000000000E+00  0.45593999997E+02  0.45594000000E+02  0.51100000000E-03 0.  1.
         11   -1    0    0    0    0 -0.00000000000E+00 -0.00000000000E+00 -0.45593999997E+02  0.45594000000E+02  0.51100000000E-03 0. -1.
         23    2    1    2    0    0  0.35527136788E-14  0.00000000000E+00  0.00000000000E+00  0.91188000000E+02  0.91188000000E+02 0.  0.
    9900012    2    3    3    0    0  0.21865113795E+02  0.34542602372E+02  0.14572193073E+02  0.47787269697E+02  0.19999993855E+02 0.  0.
         12    1    3    3    0    0 -0.21865113795E+02 -0.34542602372E+02 -0.14572193073E+02  0.43400730303E+02  0.00000000000E+00 0. -1.
         11    1    4    4    0    0  0.47664465668E+01  0.63148363543E+01  0.61707299488E+01  0.10033647364E+02  0.51100000000E-03 0. -1.
        -11    1    4    4    0    0  0.90879180685E+01  0.27174806460E+02  0.75304738391E+01  0.29627156418E+02  0.51100000000E-03 0.  1.
         12    1    4    4    0    0  0.80107491593E+01  0.10529595584E+01  0.87098928532E+00  0.81264659145E+01  0.00000000000E+00 0. -1.
</event>
<event>
 8    1  0.3776180E-010  0.9118800E+02  0.7816164E-02  0.1184000E+00
        -11   -1    0    0    0    0  0.00000000000E+00  0.00000000000E+00  0.45593999997E+02  0.45594000000E+02  0.51100000000E-03 0. -1.
         11   -1    0    0    0    0 -0.00000000000E+00 -0.00000000000E+00 -0.45593999997E+02  0.45594000000E+02  0.51100000000E-03 0.  1.
         23    2    1    2    0    0 -0.35527136788E-14  0.00000000000E+00  0.00000000000E+00  0.91188000000E+02  0.91188000000E+02 0.  0.
    9900012    2    3    3    0    0 -0.31360847379E+02 -0.23209273212E+02 -0.19011849299E+02  0.47787268150E+02  0.19999986804E+02 0.  0.
         12    1    3    3    0    0  0.31360847379E+02  0.23209273212E+02  0.19011849299E+02  0.43400731850E+02  0.00000000000E+00 0. -1.
         11    1    4    4    0    0 -0.82013993360E+01 -0.12968112142E+02 -0.65490991607E+01  0.16683092749E+02  0.51100000000E-03 0. -1.
        -11    1    4    4    0    0 -0.17729992300E+01 -0.44762185973E+01 -0.66399703163E+01  0.82017842732E+01  0.51100000000E-03 0.  1.
        -12    1    4    4    0    0 -0.21386448813E+02 -0.57649424731E+01 -0.58227798220E+01  0.22902391128E+02  0.00000000000E+00 0.  1.
</event>
<event>
 8    1  0.3776180E-010  0.9118800E+02  0.7816164E-02  0.1184000E+00
        -11   -1    0    0    0    0  0.00000000000E+00  0.00000000000E+00  0.45593999997E+02  0.45594000000E+02  0.51100000000E-03 0. -1.
         11   -1    0    0    0    0 -0.00000000000E+00 -0.00000000000E+00 -0.45593999997E+02  0.45594000000E+02  0.51100000000E-03 0.  1.
         23    2    1    2    0    0  0.00000000000E+00  0.00000000000E+00  0.71054273576E-14  0.91188000000E+02  0.91188000000E+02 0.  0.
    9900012    2    3    3    0    0  0.93944918091E+01 -0.22434788355E+02  0.35945048257E+02  0.47787277666E+02  0.20000030189E+02 0.  0.
        -12    1    3    3    0    0 -0.93944918091E+01  0.22434788355E+02 -0.35945048257E+02  0.43400722334E+02  0.00000000000E+00 0.  1.
         11    1    4    4    0    0  0.10434965360E+02 -0.11514626221E+02  0.20932303438E+02  0.26069837869E+02  0.51100000000E-03 0. -1.
        -11    1    4    4    0    0  0.46069934282E+01 -0.32326223756E+01  0.83978046136E+01  0.10109270916E+02  0.51100000000E-03 0.  1.
        -12    1    4    4    0    0 -0.56474669787E+01 -0.76875397587E+01  0.66149402063E+01  0.11608168880E+02  0.00000000000E+00 0.  1.
</event>
<event>
 8    1  0.3776180E-010  0.9118800E+02  0.7816164E-02  0.1184000E+00
        -11   -1    0    0    0    0  0.00000000000E+00  0.00000000000E+00  0.45593999997E+02  0.45594000000E+02  0.51100000000E-03 0.  1.
         11   -1    0    0    0    0 -0.00000000000E+00 -0.00000000000E+00 -0.45593999997E+02  0.45594000000E+02  0.51100000000E-03 0. -1.
         23    2    1    2    0    0  0.00000000000E+00  0.35527136788E-14  0.00000000000E+00  0.91188000000E+02  0.91188000000E+02 0.  0.
    9900012    2    3    3    0    0  0.34425002365E+02  0.26274243913E+02 -0.28647137137E+01  0.47787271138E+02  0.20000000429E+02 0.  0.
        -12    1    3    3    0    0 -0.34425002365E+02 -0.26274243913E+02  0.28647137137E+01  0.43400728862E+02  0.00000000000E+00 0.  1.
         11    1    4    4    0    0  0.36211601989E+01  0.22220648040E+01 -0.43955568735E+01  0.61132064964E+01  0.51100000000E-03 0. -1.
        -11    1    4    4    0    0  0.24529407501E+01  0.93330453644E+01 -0.52148908545E+00  0.96640884322E+01  0.51100000000E-03 0.  1.
         12    1    4    4    0    0  0.28350901416E+02  0.14719133745E+02  0.20523322452E+01  0.32009976210E+02  0.00000000000E+00 0. -1.
</event>
<event>
 8    1  0.3776180E-010  0.9118800E+02  0.7816164E-02  0.1184000E+00
        -11   -1    0    0    0    0  0.00000000000E+00  0.00000000000E+00  0.45593999997E+02  0.45594000000E+02  0.51100000000E-03 0. -1.
         11   -1    0    0    0    0 -0.00000000000E+00 -0.00000000000E+00 -0.45593999997E+02  0.45594000000E+02  0.51100000000E-03 0.  1.
         23    2    1    2    0    0  0.35527136788E-14  0.00000000000E+00  0.00000000000E+00  0.91188000000E+02  0.91188000000E+02 0.  0.
    9900012    2    3    3    0    0 -0.28911647979E+02 -0.15397112030E+02 -0.28472250975E+02  0.47787268171E+02  0.19999986897E+02 0.  0.
         12    1    3    3    0    0  0.28911647979E+02  0.15397112030E+02  0.28472250975E+02  0.43400731829E+02  0.00000000000E+00 0. -1.
         11    1    4    4    0    0 -0.28195854470E+01  0.17957950709E+01 -0.14675696329E+01  0.36508496159E+01  0.51100000000E-03 0. -1.
        -11    1    4    4    0    0  0.19278266421E+01 -0.28133193622E+00 -0.28834652756E+01  0.34799476256E+01  0.51100000000E-03 0.  1.
        -12    1    4    4    0    0 -0.28019889174E+02 -0.16911575164E+02 -0.24121216067E+02  0.40656470929E+02  0.00000000000E+00 0.  1.
</event>
<event>
 8    1  0.3776180E-010  0.9118800E+02  0.7816164E-02  0.1184000E+00
        -11   -1    0    0    0    0  0.00000000000E+00  0.00000000000E+00  0.45593999997E+02  0.45594000000E+02  0.51100000000E-03 0. -1.
         11   -1    0    0    0    0 -0.00000000000E+00 -0.00000000000E+00 -0.45593999997E+02  0.45594000000E+02  0.51100000000E-03 0.  1.
         23    2    1    2    0    0  0.00000000000E+00 -0.44408920985E-15  0.00000000000E+00  0.91188000000E+02  0.91188000000E+02 0.  0.
    9900012    2    3    3    0    0  0.73651059140E+01 -0.19496662798E+01  0.42726774765E+02  0.47787271141E+02  0.20000000439E+02 0.  0.
        -12    1    3    3    0    0 -0.73651059140E+01  0.19496662798E+01 -0.42726774765E+02  0.43400728859E+02  0.00000000000E+00 0.  1.
         11    1    4    4    0    0  0.22325274436E+01 -0.56601973457E+01  0.63269073194E+01  0.87779137195E+01  0.51100000000E-03 0. -1.
        -11    1    4    4    0    0  0.43598074135E+01  0.31176293768E+01  0.42383437522E+01  0.68330880015E+01  0.51100000000E-03 0.  1.
         12    1    4    4    0    0  0.77277105692E+00  0.59290168911E+00  0.32161523693E+02  0.32176269420E+02  0.00000000000E+00 0. -1.
</event>
<event>
 8    1  0.3776180E-010  0.9118800E+02  0.7816164E-02  0.1184000E+00
        -11   -1    0    0    0    0  0.00000000000E+00  0.00000000000E+00  0.45593999997E+02  0.45594000000E+02  0.51100000000E-03 0. -1.
         11   -1    0    0    0    0 -0.00000000000E+00 -0.00000000000E+00 -0.45593999997E+02  0.45594000000E+02  0.51100000000E-03 0.  1.
         23    2    1    2    0    0 -0.17763568394E-14  0.00000000000E+00 -0.71054273576E-14  0.91188000000E+02  0.91188000000E+02 0.  0.
    9900012    2    3    3    0    0 -0.13874153272E+02  0.98991272491E+01 -0.39914140466E+02  0.47787268918E+02  0.19999990306E+02 0.  0.
         12    1    3    3    0    0  0.13874153272E+02 -0.98991272491E+01  0.39914140466E+02  0.43400731082E+02  0.00000000000E+00 0. -1.
         11    1    4    4    0    0 -0.66059318767E+01 -0.36484314750E+01 -0.95790380777E+01  0.12194562679E+02  0.51100000000E-03 0. -1.
        -11    1    4    4    0    0 -0.90623601476E+01  0.91944659677E+01 -0.26655059416E+02  0.29616832521E+02  0.51100000000E-03 0.  1.
        -12    1    4    4    0    0  0.17941387525E+01  0.43530927564E+01 -0.36800429727E+01  0.59758737177E+01  0.00000000000E+00 0.  1.
</event>
<event>
 8    1  0.3776180E-010  0.9118800E+02  0.7816164E-02  0.1184000E+00
        -11   -1    0    0    0    0  0.00000000000E+00  0.00000000000E+00  0.45593999997E+02  0.45594000000E+02  0.51100000000E-03 0. -1.
         11   -1    0    0    0    0 -0.00000000000E+00 -0.00000000000E+00 -0.45593999997E+02  0.45594000000E+02  0.51100000000E-03 0.  1.
         23    2    1    2    0    0  0.00000000000E+00  0.00000000000E+00  0.00000000000E+00  0.91188000000E+02  0.91188000000E+02 0.  0.
    9900012    2    3    3    0    0 -0.21237593242E+02  0.11269702735E+02 -0.36132829318E+02  0.47787275110E+02  0.20000018537E+02 0.  0.
         12    1    3    3    0    0  0.21237593242E+02 -0.11269702735E+02  0.36132829318E+02  0.43400724890E+02  0.00000000000E+00 0. -1.
         11    1    4    4    0    0 -0.34906864648E+01  0.66133560624E+01 -0.14968261888E+02  0.16732311096E+02  0.51100000000E-03 0. -1.
        -11    1    4    4    0    0 -0.45031774997E+01 -0.24737121847E+01 -0.12916412779E+02  0.13900776198E+02  0.51100000000E-03 0.  1.
         12    1    4    4    0    0 -0.13243729278E+02  0.71300588571E+01 -0.82481546509E+01  0.17154187816E+02  0.00000000000E+00 0. -1.
</event>
<event>
 8    1  0.3776180E-010  0.9118800E+02  0.7816164E-02  0.1184000E+00
        -11   -1    0    0    0    0  0.00000000000E+00  0.00000000000E+00  0.45593999997E+02  0.45594000000E+02  0.51100000000E-03 0. -1.
         11   -1    0    0    0    0 -0.00000000000E+00 -0.00000000000E+00 -0.45593999997E+02  0.45594000000E+02  0.51100000000E-03 0.  1.
         23    2    1    2    0    0  0.00000000000E+00  0.00000000000E+00  0.00000000000E+00  0.91188000000E+02  0.91188000000E+02 0.  0.
    9900012    2    3    3    0    0  0.30448323251E+01  0.24195096684E+02 -0.35901902329E+02  0.47787305325E+02  0.20000156297E+02 0.  0.
         12    1    3    3    0    0 -0.30448323251E+01 -0.24195096684E+02  0.35901902329E+02  0.43400694675E+02  0.00000000000E+00 0. -1.
         11    1    4    4    0    0  0.51269003657E+01  0.77296905033E+01 -0.51684588938E+01  0.10618200894E+02  0.51100000000E-03 0. -1.
        -11    1    4    4    0    0  0.44133219333E+01  0.10308412831E+02 -0.21848041240E+02  0.24557640194E+02  0.51100000000E-03 0.  1.
        -12    1    4    4    0    0 -0.64953899739E+01  0.61569933501E+01 -0.88854021950E+01  0.12611464237E+02  0.00000000000E+00 0.  1.
</event>
<event>
 8    1  0.3776180E-010  0.9118800E+02  0.7816164E-02  0.1184000E+00
        -11   -1    0    0    0    0  0.00000000000E+00  0.00000000000E+00  0.45593999997E+02  0.45594000000E+02  0.51100000000E-03 0. -1.
         11   -1    0    0    0    0 -0.00000000000E+00 -0.00000000000E+00 -0.45593999997E+02  0.45594000000E+02  0.51100000000E-03 0.  1.
         23    2    1    2    0    0  0.17763568394E-14  0.17763568394E-14  0.00000000000E+00  0.91188000000E+02  0.91188000000E+02 0.  0.
    9900012    2    3    3    0    0 -0.15838375500E+02 -0.14972235107E+02 -0.37531340506E+02  0.47787268639E+02  0.19999989031E+02 0.  0.
         12    1    3    3    0    0  0.15838375500E+02  0.14972235107E+02  0.37531340506E+02  0.43400731361E+02  0.00000000000E+00 0. -1.
         11    1    4    4    0    0  0.10007157729E+01  0.69441602577E+00 -0.27600911395E+01  0.30169105115E+01  0.51100000000E-03 0. -1.
        -11    1    4    4    0    0 -0.55484015350E+01 -0.15533695549E+02 -0.24308903458E+02  0.29376916867E+02  0.51100000000E-03 0.  1.
        -12    1    4    4    0    0 -0.11290689737E+02 -0.13295558320E+00 -0.10462345908E+02  0.15393441260E+02  0.00000000000E+00 0.  1.
</event>
<event>
 8    1  0.3776180E-010  0.9118800E+02  0.7816164E-02  0.1184000E+00
        -11   -1    0    0    0    0  0.00000000000E+00  0.00000000000E+00  0.45593999997E+02  0.45594000000E+02  0.51100000000E-03 0. -1.
         11   -1    0    0    0    0 -0.00000000000E+00 -0.00000000000E+00 -0.45593999997E+02  0.45594000000E+02  0.51100000000E-03 0.  1.
         23    2    1    2    0    0  0.00000000000E+00 -0.13157877565E-14 -0.71054273576E-14  0.91188000000E+02  0.91188000000E+02 0.  0.
    9900012    2    3    3    0    0  0.61032246023E+01  0.76942591799E-02  0.42969449769E+02  0.47787273933E+02  0.20000013169E+02 0.  0.
        -12    1    3    3    0    0 -0.61032246023E+01 -0.76942591799E-02 -0.42969449769E+02  0.43400726067E+02  0.00000000000E+00 0.  1.
         11    1    4    4    0    0  0.31935227700E+01 -0.81858247416E+00  0.47898411907E+01  0.58147436609E+01  0.51100000000E-03 0. -1.
        -11    1    4    4    0    0 -0.39765986070E+01  0.56073209254E+01  0.27763413668E+02  0.28601792308E+02  0.51100000000E-03 0.  1.
        -12    1    4    4    0    0  0.68863004392E+01 -0.47810441921E+01  0.10416194910E+02  0.13370737964E+02  0.00000000000E+00 0.  1.
</event>
<event>
 8    1  0.3776180E-010  0.9118800E+02  0.7816164E-02  0.1184000E+00
        -11   -1    0    0    0    0  0.00000000000E+00  0.00000000000E+00  0.45593999997E+02  0.45594000000E+02  0.51100000000E-03 0. -1.
         11   -1    0    0    0    0 -0.00000000000E+00 -0.00000000000E+00 -0.45593999997E+02  0.45594000000E+02  0.51100000000E-03 0.  1.
         23    2    1    2    0    0  0.00000000000E+00  0.88817841970E-15 -0.18041124150E-15  0.91188000000E+02  0.91188000000E+02 0.  0.
    9900012    2    3    3    0    0 -0.43140211734E+02  0.47480952886E+01  0.35148067507E-01  0.47787268293E+02  0.19999987455E+02 0.  0.
         12    1    3    3    0    0  0.43140211734E+02 -0.47480952886E+01 -0.35148067507E-01  0.43400731707E+02  0.00000000000E+00 0. -1.
         11    1    4    4    0    0 -0.11243665603E+01 -0.32807409928E+01  0.42203138418E+00  0.34936474313E+01  0.51100000000E-03 0. -1.
        -11    1    4    4    0    0 -0.19690429915E+02 -0.18780508689E+01  0.12093236727E+01  0.19816724485E+02  0.51100000000E-03 0.  1.
        -12    1    4    4    0    0 -0.22325415259E+02  0.99068871503E+01 -0.15962069893E+01  0.24476896377E+02  0.00000000000E+00 0.  1.
</event>
<event>
 8    1  0.3776180E-010  0.9118800E+02  0.7816164E-02  0.1184000E+00
        -11   -1    0    0    0    0  0.00000000000E+00  0.00000000000E+00  0.45593999997E+02  0.45594000000E+02  0.51100000000E-03 0. -1.
         11   -1    0    0    0    0 -0.00000000000E+00 -0.00000000000E+00 -0.45593999997E+02  0.45594000000E+02  0.51100000000E-03 0.  1.
         23    2    1    2    0    0  0.00000000000E+00  0.00000000000E+00  0.00000000000E+00  0.91188000000E+02  0.91188000000E+02 0.  0.
    9900012    2    3    3    0    0 -0.43389840102E+01 -0.27580013571E+02 -0.33228593838E+02  0.47787269830E+02  0.19999994464E+02 0.  0.
         12    1    3    3    0    0  0.43389840102E+01  0.27580013571E+02  0.33228593838E+02  0.43400730170E+02  0.00000000000E+00 0. -1.
         11    1    4    4    0    0 -0.52991114335E+01 -0.75819672272E+01 -0.60582382193E+01  0.11057534065E+02  0.51100000000E-03 0. -1.
        -11    1    4    4    0    0 -0.64090203014E+01 -0.12402697965E+02 -0.13287555552E+02  0.19273338861E+02  0.51100000000E-03 0.  1.
         12    1    4    4    0    0  0.73691477247E+01 -0.75953483783E+01 -0.13882800067E+02  0.17456396904E+02  0.00000000000E+00 0. -1.
</event>
<event>
 8    1  0.3776180E-010  0.9118800E+02  0.7816164E-02  0.1184000E+00
        -11   -1    0    0    0    0  0.00000000000E+00  0.00000000000E+00  0.45593999997E+02  0.45594000000E+02  0.51100000000E-03 0.  1.
         11   -1    0    0    0    0 -0.00000000000E+00 -0.00000000000E+00 -0.45593999997E+02  0.45594000000E+02  0.51100000000E-03 0. -1.
         23    2    1    2    0    0  0.00000000000E+00 -0.17763568394E-14  0.00000000000E+00  0.91188000000E+02  0.91188000000E+02 0.  0.
    9900012    2    3    3    0    0 -0.41290365336E+02 -0.12575859112E+02  0.45361398067E+01  0.47787273436E+02  0.20000010902E+02 0.  0.
        -12    1    3    3    0    0  0.41290365336E+02  0.12575859112E+02 -0.45361398067E+01  0.43400726564E+02  0.00000000000E+00 0.  1.
         11    1    4    4    0    0 -0.46490957318E+01  0.17669356272E+01 -0.11804040825E+01  0.51117029152E+01  0.51100000000E-03 0.  1.
        -11    1    4    4    0    0 -0.29881849174E+02 -0.13708091821E+02 -0.13136684905E+01  0.32902316280E+02  0.51100000000E-03 0. -1.
         12    1    4    4    0    0 -0.67594204305E+01 -0.63470291808E+00  0.70302123797E+01  0.97732542407E+01  0.00000000000E+00 0. -1.
</event>
<event>
 8    1  0.3776180E-010  0.9118800E+02  0.7816164E-02  0.1184000E+00
        -11   -1    0    0    0    0  0.00000000000E+00  0.00000000000E+00  0.45593999997E+02  0.45594000000E+02  0.51100000000E-03 0. -1.
         11   -1    0    0    0    0 -0.00000000000E+00 -0.00000000000E+00 -0.45593999997E+02  0.45594000000E+02  0.51100000000E-03 0.  1.
         23    2    1    2    0    0  0.00000000000E+00  0.00000000000E+00  0.00000000000E+00  0.91188000000E+02  0.91188000000E+02 0.  0.
    9900012    2    3    3    0    0  0.39441001188E+01 -0.19362698336E+02  0.38641380483E+02  0.47787236202E+02  0.19999841138E+02 0.  0.
        -12    1    3    3    0    0 -0.39441001188E+01  0.19362698336E+02 -0.38641380483E+02  0.43400763798E+02  0.00000000000E+00 0.  1.
         11    1    4    4    0    0 -0.41023781599E+01 -0.27055636922E+01  0.21042242371E+02  0.21608460049E+02  0.51100000000E-03 0. -1.
        -11    1    4    4    0    0  0.33344995357E+01 -0.39580038721E+01  0.81830774550E+01  0.96823260997E+01  0.51100000000E-03 0.  1.
         12    1    4    4    0    0  0.47119787430E+01 -0.12699130772E+02  0.94160606577E+01  0.16496450053E+02  0.00000000000E+00 0. -1.
</event>
<event>
 8    1  0.3776180E-010  0.9118800E+02  0.7816164E-02  0.1184000E+00
        -11   -1    0    0    0    0  0.00000000000E+00  0.00000000000E+00  0.45593999997E+02  0.45594000000E+02  0.51100000000E-03 0. -1.
         11   -1    0    0    0    0 -0.00000000000E+00 -0.00000000000E+00 -0.45593999997E+02  0.45594000000E+02  0.51100000000E-03 0.  1.
         23    2    1    2    0    0  0.22204460493E-15  0.71054273576E-14 -0.35527136788E-14  0.91188000000E+02  0.91188000000E+02 0.  0.
    9900012    2    3    3    0    0 -0.66767610722E+00 -0.35116874832E+02 -0.25494754915E+02  0.47787271694E+02  0.20000002962E+02 0.  0.
         12    1    3    3    0    0  0.66767610722E+00  0.35116874832E+02  0.25494754915E+02  0.43400728306E+02  0.00000000000E+00 0. -1.
         11    1    4    4    0    0  0.29585515871E+01 -0.97705599390E+01 -0.57023158849E+01  0.11693300463E+02  0.51100000000E-03 0. -1.
        -11    1    4    4    0    0 -0.61102919483E+00 -0.26704872339E+02 -0.16340558516E+02  0.31313534074E+02  0.51100000000E-03 0.  1.
         12    1    4    4    0    0 -0.30151984995E+01  0.13585574468E+01 -0.34518805135E+01  0.47804371564E+01  0.00000000000E+00 0. -1.
</event>
<event>
 8    1 -0.1655428E-009  0.9118800E+02  0.7816164E-02  0.1184000E+00
        -11   -1    0    0    0    0  0.00000000000E+00  0.00000000000E+00  0.45593999997E+02  0.45594000000E+02  0.51100000000E-03 0. -1.
         11   -1    0    0    0    0 -0.00000000000E+00 -0.00000000000E+00 -0.45593999997E+02  0.45594000000E+02  0.51100000000E-03 0.  1.
         23    2    1    2    0    0  0.00000000000E+00  0.00000000000E+00  0.00000000000E+00  0.91188000000E+02  0.91188000000E+02 0.  0.
    9900012    2    3    3    0    0  0.69364806879E+01 -0.41001793042E+02  0.12424222950E+02  0.47787272899E+02  0.20000008454E+02 0.  0.
        -12    1    3    3    0    0 -0.69364806879E+01  0.41001793042E+02 -0.12424222950E+02  0.43400727101E+02  0.00000000000E+00 0.  1.
         11    1    4    4    0    0  0.36571058990E+01 -0.71855223647E+01  0.20193243941E+00  0.80651678334E+01  0.51100000000E-03 0. -1.
        -11    1    4    4    0    0  0.66668068929E+01 -0.66814413463E+01  0.73113670188E+01  0.11939181737E+02  0.51100000000E-03 0.  1.
        -12    1    4    4    0    0 -0.33874321040E+01 -0.27134829331E+02  0.49109234920E+01  0.27782923328E+02  0.00000000000E+00 0.  1.
</event>
<event>
 8    1  0.3776180E-010  0.9118800E+02  0.7816164E-02  0.1184000E+00
        -11   -1    0    0    0    0  0.00000000000E+00  0.00000000000E+00  0.45593999997E+02  0.45594000000E+02  0.51100000000E-03 0. -1.
         11   -1    0    0    0    0 -0.00000000000E+00 -0.00000000000E+00 -0.45593999997E+02  0.45594000000E+02  0.51100000000E-03 0.  1.
         23    2    1    2    0    0  0.35527136788E-14 -0.44408920985E-15  0.00000000000E+00  0.91188000000E+02  0.91188000000E+02 0.  0.
    9900012    2    3    3    0    0 -0.27928150466E+02 -0.11675717399E+01  0.33200580392E+02  0.47787270161E+02  0.19999995971E+02 0.  0.
        -12    1    3    3    0    0  0.27928150466E+02  0.11675717399E+01 -0.33200580392E+02  0.43400729839E+02  0.00000000000E+00 0.  1.
         11    1    4    4    0    0 -0.20505514848E+02  0.55464061300E+01  0.23273480266E+02  0.31510214916E+02  0.51100000000E-03 0. -1.
        -11    1    4    4    0    0 -0.24172875277E+01 -0.11797551426E+00  0.71422414488E+01  0.75411411860E+01  0.51100000000E-03 0.  1.
        -12    1    4    4    0    0 -0.50053480907E+01 -0.65960023557E+01  0.27848586776E+01  0.87359140586E+01  0.00000000000E+00 0.  1.
</event>
<event>
 8    1  0.5159022E-010  0.9118800E+02  0.7816164E-02  0.1184000E+00
        -11   -1    0    0    0    0  0.00000000000E+00  0.00000000000E+00  0.45593999997E+02  0.45594000000E+02  0.51100000000E-03 0. -1.
         11   -1    0    0    0    0 -0.00000000000E+00 -0.00000000000E+00 -0.45593999997E+02  0.45594000000E+02  0.51100000000E-03 0.  1.
         23    2    1    2    0    0  0.00000000000E+00  0.17763568394E-14 -0.71054273576E-14  0.91188000000E+02  0.91188000000E+02 0.  0.
    9900012    2    3    3    0    0  0.10754097954E+02 -0.11727902344E+02  0.40378579944E+02  0.47787262282E+02  0.19999960049E+02 0.  0.
        -12    1    3    3    0    0 -0.10754097954E+02  0.11727902344E+02 -0.40378579944E+02  0.43400737718E+02  0.00000000000E+00 0.  1.
         11    1    4    4    0    0  0.70975781786E+01 -0.84436245823E+01  0.22356506322E+02  0.24929576556E+02  0.51100000000E-03 0. -1.
        -11    1    4    4    0    0  0.67814684523E+01 -0.60964801145E+01  0.85750129420E+01  0.12517437093E+02  0.51100000000E-03 0.  1.
        -12    1    4    4    0    0 -0.31249486766E+01  0.28122023532E+01  0.94470606798E+01  0.10340248633E+02  0.00000000000E+00 0.  1.
</event>
<event>
 8    1  0.3776180E-010  0.9118800E+02  0.7816164E-02  0.1184000E+00
        -11   -1    0    0    0    0  0.00000000000E+00  0.00000000000E+00  0.45593999997E+02  0.45594000000E+02  0.51100000000E-03 0. -1.
         11   -1    0    0    0    0 -0.00000000000E+00 -0.00000000000E+00 -0.45593999997E+02  0.45594000000E+02  0.51100000000E-03 0.  1.
         23    2    1    2    0    0  0.00000000000E+00  0.35527136788E-14  0.35527136788E-14  0.91188000000E+02  0.91188000000E+02 0.  0.
    9900012    2    3    3    0    0  0.16252054735E+02  0.24938894188E+02  0.31583925436E+02  0.47787284886E+02  0.20000063110E+02 0.  0.
        -12    1    3    3    0    0 -0.16252054735E+02 -0.24938894188E+02 -0.31583925436E+02  0.43400715114E+02  0.00000000000E+00 0.  1.
         11    1    4    4    0    0 -0.13206211802E+01  0.18892010666E+01 -0.14274027956E+01  0.27111989919E+01  0.51100000000E-03 0. -1.
        -11    1    4    4    0    0  0.30538654379E+01  0.12400281361E+01  0.88190527278E+01  0.94148529021E+01  0.51100000000E-03 0.  1.
         12    1    4    4    0    0  0.14518810478E+02  0.21809664986E+02  0.24192275504E+02  0.35661232992E+02  0.00000000000E+00 0. -1.
</event>
<event>
 8    1  0.3776180E-010  0.9118800E+02  0.7816164E-02  0.1184000E+00
        -11   -1    0    0    0    0  0.00000000000E+00  0.00000000000E+00  0.45593999997E+02  0.45594000000E+02  0.51100000000E-03 0.  1.
         11   -1    0    0    0    0 -0.00000000000E+00 -0.00000000000E+00 -0.45593999997E+02  0.45594000000E+02  0.51100000000E-03 0. -1.
         23    2    1    2    0    0 -0.71054273576E-14  0.35527136788E-14  0.00000000000E+00  0.91188000000E+02  0.91188000000E+02 0.  0.
    9900012    2    3    3    0    0  0.35759379064E+02 -0.23899717672E+02 -0.58045567326E+01  0.47787279099E+02  0.20000036724E+02 0.  0.
        -12    1    3    3    0    0 -0.35759379064E+02  0.23899717672E+02  0.58045567326E+01  0.43400720901E+02  0.00000000000E+00 0.  1.
         11    1    4    4    0    0  0.12714195951E+02 -0.10287683212E+02 -0.35160047621E+01  0.16728702708E+02  0.51100000000E-03 0. -1.
        -11    1    4    4    0    0  0.13602086592E+02 -0.47594524783E+00 -0.52939693533E+01  0.14603745934E+02  0.51100000000E-03 0.  1.
        -12    1    4    4    0    0  0.94430965209E+01 -0.13136089212E+02  0.30054173828E+01  0.16454830456E+02  0.00000000000E+00 0.  1.
</event>
<event>
 8    1  0.3776180E-010  0.9118800E+02  0.7816164E-02  0.1184000E+00
        -11   -1    0    0    0    0  0.00000000000E+00  0.00000000000E+00  0.45593999997E+02  0.45594000000E+02  0.51100000000E-03 0. -1.
         11   -1    0    0    0    0 -0.00000000000E+00 -0.00000000000E+00 -0.45593999997E+02  0.45594000000E+02  0.51100000000E-03 0.  1.
         23    2    1    2    0    0  0.44408920985E-15 -0.35527136788E-14  0.00000000000E+00  0.91188000000E+02  0.91188000000E+02 0.  0.
    9900012    2    3    3    0    0  0.38299229024E+01  0.16431110964E+02 -0.39987172796E+02  0.47787266076E+02  0.19999977346E+02 0.  0.
         12    1    3    3    0    0 -0.38299229024E+01 -0.16431110964E+02  0.39987172796E+02  0.43400733924E+02  0.00000000000E+00 0. -1.
         11    1    4    4    0    0  0.15746663069E+01  0.77953518730E+01 -0.53204660842E+01  0.95684086669E+01  0.51100000000E-03 0. -1.
        -11    1    4    4    0    0  0.65562599005E+01  0.96365300308E+01 -0.25954770418E+02  0.28451667133E+02  0.51100000000E-03 0.  1.
         12    1    4    4    0    0 -0.43010033050E+01 -0.10007709403E+01 -0.87119362937E+01  0.97671902761E+01  0.00000000000E+00 0. -1.
</event>
<event>
 8    1  0.3776180E-010  0.9118800E+02  0.7816164E-02  0.1184000E+00
        -11   -1    0    0    0    0  0.00000000000E+00  0.00000000000E+00  0.45593999997E+02  0.45594000000E+02  0.51100000000E-03 0. -1.
         11   -1    0    0    0    0 -0.00000000000E+00 -0.00000000000E+00 -0.45593999997E+02  0.45594000000E+02  0.51100000000E-03 0.  1.
         23    2    1    2    0    0  0.00000000000E+00  0.00000000000E+00  0.00000000000E+00  0.91188000000E+02  0.91188000000E+02 0.  0.
    9900012    2    3    3    0    0  0.12456120342E+02 -0.40614388217E+02  0.88847053559E+01  0.47787292016E+02  0.20000095617E+02 0.  0.
        -12    1    3    3    0    0 -0.12456120342E+02  0.40614388217E+02 -0.88847053559E+01  0.43400707984E+02  0.00000000000E+00 0.  1.
         11    1    4    4    0    0  0.43442147692E+01 -0.10015316338E+02 -0.18106890687E+01  0.11066045295E+02  0.51100000000E-03 0. -1.
        -11    1    4    4    0    0 -0.11500957791E+01 -0.20995498812E+02  0.10198827226E+02  0.23369847405E+02  0.51100000000E-03 0.  1.
         12    1    4    4    0    0  0.92620013524E+01 -0.96035730677E+01  0.49656719866E+00  0.13351399316E+02  0.00000000000E+00 0. -1.
</event>
<event>
 8    1  0.3776180E-010  0.9118800E+02  0.7816164E-02  0.1184000E+00
        -11   -1    0    0    0    0  0.00000000000E+00  0.00000000000E+00  0.45593999997E+02  0.45594000000E+02  0.51100000000E-03 0. -1.
         11   -1    0    0    0    0 -0.00000000000E+00 -0.00000000000E+00 -0.45593999997E+02  0.45594000000E+02  0.51100000000E-03 0.  1.
         23    2    1    2    0    0  0.00000000000E+00  0.00000000000E+00 -0.71054273576E-14  0.91188000000E+02  0.91188000000E+02 0.  0.
    9900012    2    3    3    0    0  0.91569955498E+01 -0.42717493439E+01 -0.42208114726E+02  0.47787270067E+02  0.19999995546E+02 0.  0.
         12    1    3    3    0    0 -0.91569955498E+01  0.42717493439E+01  0.42208114726E+02  0.43400729933E+02  0.00000000000E+00 0. -1.
         11    1    4    4    0    0  0.37090574571E+01 -0.68358124175E+00 -0.14760951455E+01  0.40500923043E+01  0.51100000000E-03 0. -1.
        -11    1    4    4    0    0 -0.16084735600E+01 -0.43216277692E+01 -0.33798899575E+01  0.57172817103E+01  0.51100000000E-03 0.  1.
         12    1    4    4    0    0  0.70564116527E+01  0.73345966705E+00 -0.37352129623E+02  0.38019896053E+02  0.00000000000E+00 0. -1.
</event>
<event>
 8    1  0.3776180E-010  0.9118800E+02  0.7816164E-02  0.1184000E+00
        -11   -1    0    0    0    0  0.00000000000E+00  0.00000000000E+00  0.45593999997E+02  0.45594000000E+02  0.51100000000E-03 0. -1.
         11   -1    0    0    0    0 -0.00000000000E+00 -0.00000000000E+00 -0.45593999997E+02  0.45594000000E+02  0.51100000000E-03 0.  1.
         23    2    1    2    0    0  0.17763568394E-14 -0.35527136788E-14  0.71054273576E-14  0.91188000000E+02  0.91188000000E+02 0.  0.
    9900012    2    3    3    0    0  0.14409852463E+02 -0.15452900249E+02  0.37910191120E+02  0.47787325295E+02  0.20000247350E+02 0.  0.
        -12    1    3    3    0    0 -0.14409852463E+02  0.15452900249E+02 -0.37910191120E+02  0.43400674705E+02  0.00000000000E+00 0.  1.
         11    1    4    4    0    0  0.20552908943E+01 -0.13744658587E+01  0.65193699416E+00  0.25570293629E+01  0.51100000000E-03 0. -1.
        -11    1    4    4    0    0  0.24726244446E+01  0.25917225920E+01  0.42107322864E+00  0.36066883097E+01  0.51100000000E-03 0.  1.
         12    1    4    4    0    0  0.98819371236E+01 -0.16670156982E+02  0.36837180897E+02  0.41623607623E+02  0.00000000000E+00 0. -1.
</event>
<event>
 8    1  0.3776180E-010  0.9118800E+02  0.7816164E-02  0.1184000E+00
        -11   -1    0    0    0    0  0.00000000000E+00  0.00000000000E+00  0.45593999997E+02  0.45594000000E+02  0.51100000000E-03 0. -1.
         11   -1    0    0    0    0 -0.00000000000E+00 -0.00000000000E+00 -0.45593999997E+02  0.45594000000E+02  0.51100000000E-03 0.  1.
         23    2    1    2    0    0  0.00000000000E+00  0.00000000000E+00 -0.71054273576E-14  0.91188000000E+02  0.91188000000E+02 0.  0.
    9900012    2    3    3    0    0  0.20130727567E+02  0.21286520423E+02 -0.32019699461E+02  0.47787270770E+02  0.19999998750E+02 0.  0.
         12    1    3    3    0    0 -0.20130727567E+02 -0.21286520423E+02  0.32019699461E+02  0.43400729230E+02  0.00000000000E+00 0. -1.
         11    1    4    4    0    0  0.16481989141E+02  0.19374070895E+02 -0.13790927426E+02  0.28934413224E+02  0.51100000000E-03 0.  1.
        -11    1    4    4    0    0 -0.17596297212E+00 -0.31069479583E+00 -0.89831228973E+00  0.96667443056E+00  0.51100000000E-03 0. -1.
        -12    1    4    4    0    0  0.38247013976E+01  0.22231443239E+01 -0.17330459745E+02  0.17886183116E+02  0.00000000000E+00 0.  1.
</event>
<event>
 8    1  0.3776180E-010  0.9118800E+02  0.7816164E-02  0.1184000E+00
        -11   -1    0    0    0    0  0.00000000000E+00  0.00000000000E+00  0.45593999997E+02  0.45594000000E+02  0.51100000000E-03 0. -1.
         11   -1    0    0    0    0 -0.00000000000E+00 -0.00000000000E+00 -0.45593999997E+02  0.45594000000E+02  0.51100000000E-03 0.  1.
         23    2    1    2    0    0  0.00000000000E+00  0.00000000000E+00  0.00000000000E+00  0.91188000000E+02  0.91188000000E+02 0.  0.
    9900012    2    3    3    0    0  0.12723618623E+02  0.17050104834E+02 -0.37828913979E+02  0.47787270991E+02  0.19999999755E+02 0.  0.
         12    1    3    3    0    0 -0.12723618623E+02 -0.17050104834E+02  0.37828913979E+02  0.43400729009E+02  0.00000000000E+00 0. -1.
         11    1    4    4    0    0  0.12350821406E+01  0.70462157635E+01 -0.73368574276E+01  0.10247148952E+02  0.51100000000E-03 0. -1.
        -11    1    4    4    0    0  0.32293865317E+01  0.11795762560E+02 -0.11654740774E+02  0.16893843095E+02  0.51100000000E-03 0.  1.
         12    1    4    4    0    0  0.82591499511E+01 -0.17918734899E+01 -0.18837315777E+02  0.20646278943E+02  0.00000000000E+00 0. -1.
</event>
<event>
 8    1  0.3776180E-010  0.9118800E+02  0.7816164E-02  0.1184000E+00
        -11   -1    0    0    0    0  0.00000000000E+00  0.00000000000E+00  0.45593999997E+02  0.45594000000E+02  0.51100000000E-03 0. -1.
         11   -1    0    0    0    0 -0.00000000000E+00 -0.00000000000E+00 -0.45593999997E+02  0.45594000000E+02  0.51100000000E-03 0.  1.
         23    2    1    2    0    0  0.00000000000E+00  0.00000000000E+00  0.00000000000E+00  0.91188000000E+02  0.91188000000E+02 0.  0.
    9900012    2    3    3    0    0  0.18510589779E+02 -0.34557044180E+02  0.18622348754E+02  0.47787272938E+02  0.20000008631E+02 0.  0.
        -12    1    3    3    0    0 -0.18510589779E+02  0.34557044180E+02 -0.18622348754E+02  0.43400727062E+02  0.00000000000E+00 0.  1.
         11    1    4    4    0    0  0.61509994018E+01 -0.18547271516E+02  0.12901806340E+02  0.23415650352E+02  0.51100000000E-03 0. -1.
        -11    1    4    4    0    0  0.66332521381E+01 -0.35651479920E+01  0.74148341835E+01  0.10568352774E+02  0.51100000000E-03 0.  1.
         12    1    4    4    0    0  0.57263382388E+01 -0.12444624673E+02 -0.16942917700E+01  0.13803269811E+02  0.00000000000E+00 0. -1.
</event>
<event>
 8    1  0.3776180E-010  0.9118800E+02  0.7816164E-02  0.1184000E+00
        -11   -1    0    0    0    0  0.00000000000E+00  0.00000000000E+00  0.45593999997E+02  0.45594000000E+02  0.51100000000E-03 0. -1.
         11   -1    0    0    0    0 -0.00000000000E+00 -0.00000000000E+00 -0.45593999997E+02  0.45594000000E+02  0.51100000000E-03 0.  1.
         23    2    1    2    0    0  0.00000000000E+00  0.00000000000E+00 -0.35527136788E-14  0.91188000000E+02  0.91188000000E+02 0.  0.
    9900012    2    3    3    0    0 -0.27932335205E+02 -0.16300193946E+02  0.28943246369E+02  0.47787272091E+02  0.20000004770E+02 0.  0.
        -12    1    3    3    0    0  0.27932335205E+02  0.16300193946E+02 -0.28943246369E+02  0.43400727909E+02  0.00000000000E+00 0.  1.
         11    1    4    4    0    0 -0.75142592749E+01 -0.55410206517E+01  0.77802424164E+01  0.12153154925E+02  0.51100000000E-03 0. -1.
        -11    1    4    4    0    0 -0.84611956492E+01 -0.12432636194E+02  0.58558403038E+01  0.16138560669E+02  0.51100000000E-03 0.  1.
         12    1    4    4    0    0 -0.11956880281E+02  0.16734628997E+01  0.15307163649E+02  0.19495556496E+02  0.00000000000E+00 0. -1.
</event>
<event>
 8    1  0.3776180E-010  0.9118800E+02  0.7816164E-02  0.1184000E+00
        -11   -1    0    0    0    0  0.00000000000E+00  0.00000000000E+00  0.45593999997E+02  0.45594000000E+02  0.51100000000E-03 0. -1.
         11   -1    0    0    0    0 -0.00000000000E+00 -0.00000000000E+00 -0.45593999997E+02  0.45594000000E+02  0.51100000000E-03 0.  1.
         23    2    1    2    0    0  0.71054273576E-14  0.35527136788E-14  0.00000000000E+00  0.91188000000E+02  0.91188000000E+02 0.  0.
    9900012    2    3    3    0    0  0.34099058642E+02  0.26300557875E+02 -0.53998257138E+01  0.47787271175E+02  0.20000000596E+02 0.  0.
         12    1    3    3    0    0 -0.34099058642E+02 -0.26300557875E+02  0.53998257138E+01  0.43400728825E+02  0.00000000000E+00 0. -1.
         11    1    4    4    0    0  0.26207742733E+01  0.70769089742E+01  0.36359648649E+00  0.75553491705E+01  0.51100000000E-03 0. -1.
        -11    1    4    4    0    0  0.20507043557E+02  0.16603950115E+02  0.21187865668E+01  0.26471102199E+02  0.51100000000E-03 0.  1.
        -12    1    4    4    0    0  0.10971240812E+02  0.26196987861E+01 -0.78822087671E+01  0.13760819806E+02  0.00000000000E+00 0.  1.
</event>
<event>
 8    1  0.3776180E-010  0.9118800E+02  0.7816164E-02  0.1184000E+00
        -11   -1    0    0    0    0  0.00000000000E+00  0.00000000000E+00  0.45593999997E+02  0.45594000000E+02  0.51100000000E-03 0.  1.
         11   -1    0    0    0    0 -0.00000000000E+00 -0.00000000000E+00 -0.45593999997E+02  0.45594000000E+02  0.51100000000E-03 0. -1.
         23    2    1    2    0    0  0.00000000000E+00  0.00000000000E+00 -0.35527136788E-14  0.91188000000E+02  0.91188000000E+02 0.  0.
    9900012    2    3    3    0    0  0.17576997895E+02  0.33163684672E+02 -0.21790886133E+02  0.47787267812E+02  0.19999985260E+02 0.  0.
         12    1    3    3    0    0 -0.17576997895E+02 -0.33163684672E+02  0.21790886133E+02  0.43400732188E+02  0.00000000000E+00 0. -1.
         11    1    4    4    0    0  0.15337384704E+01 -0.38402949929E+00 -0.28227932957E+01  0.32354280402E+01  0.51100000000E-03 0. -1.
        -11    1    4    4    0    0  0.69249823575E+00  0.19419955033E+02 -0.84906636084E+01  0.21206262661E+02  0.51100000000E-03 0.  1.
         12    1    4    4    0    0  0.15350761189E+02  0.14127759138E+02 -0.10477429229E+02  0.23345577110E+02  0.00000000000E+00 0. -1.
</event>
<event>
 8    1  0.3776180E-010  0.9118800E+02  0.7816164E-02  0.1184000E+00
        -11   -1    0    0    0    0  0.00000000000E+00  0.00000000000E+00  0.45593999997E+02  0.45594000000E+02  0.51100000000E-03 0. -1.
         11   -1    0    0    0    0 -0.00000000000E+00 -0.00000000000E+00 -0.45593999997E+02  0.45594000000E+02  0.51100000000E-03 0.  1.
         23    2    1    2    0    0  0.00000000000E+00  0.00000000000E+00  0.00000000000E+00  0.91188000000E+02  0.91188000000E+02 0.  0.
    9900012    2    3    3    0    0  0.16443975040E+02  0.35703951545E+01 -0.40005890498E+02  0.47787270614E+02  0.19999998037E+02 0.  0.
         12    1    3    3    0    0 -0.16443975040E+02 -0.35703951545E+01  0.40005890498E+02  0.43400729386E+02  0.00000000000E+00 0. -1.
         11    1    4    4    0    0  0.45240769960E+00  0.37938312965E+01 -0.20244410846E+01  0.43239091803E+01  0.51100000000E-03 0. -1.
        -11    1    4    4    0    0 -0.22952125363E+01  0.14787075883E+01 -0.41343831001E+01  0.49545636133E+01  0.51100000000E-03 0.  1.
        -12    1    4    4    0    0  0.18286779877E+02 -0.17021437303E+01 -0.33847066314E+02  0.38508797820E+02  0.00000000000E+00 0.  1.
</event>
<event>
 8    1  0.3776180E-010  0.9118800E+02  0.7816164E-02  0.1184000E+00
        -11   -1    0    0    0    0  0.00000000000E+00  0.00000000000E+00  0.45593999997E+02  0.45594000000E+02  0.51100000000E-03 0. -1.
         11   -1    0    0    0    0 -0.00000000000E+00 -0.00000000000E+00 -0.45593999997E+02  0.45594000000E+02  0.51100000000E-03 0.  1.
         23    2    1    2    0    0  0.00000000000E+00  0.00000000000E+00  0.00000000000E+00  0.91188000000E+02  0.91188000000E+02 0.  0.
    9900012    2    3    3    0    0 -0.14799896200E+02  0.27971754871E+02  0.29701301813E+02  0.47787270427E+02  0.19999997186E+02 0.  0.
        -12    1    3    3    0    0  0.14799896200E+02 -0.27971754871E+02 -0.29701301813E+02  0.43400729573E+02  0.00000000000E+00 0.  1.
         11    1    4    4    0    0 -0.19289912402E+01  0.10869778747E+02  0.53987576195E+01  0.12289006523E+02  0.51100000000E-03 0. -1.
        -11    1    4    4    0    0 -0.64768532952E+01  0.22014300196E+01  0.71898027018E+00  0.68784340971E+01  0.51100000000E-03 0.  1.
         12    1    4    4    0    0 -0.63940516648E+01  0.14900546104E+02  0.23583563923E+02  0.28619829807E+02  0.00000000000E+00 0. -1.
</event>
<event>
 8    1  0.3776180E-010  0.9118800E+02  0.7816164E-02  0.1184000E+00
        -11   -1    0    0    0    0  0.00000000000E+00  0.00000000000E+00  0.45593999997E+02  0.45594000000E+02  0.51100000000E-03 0. -1.
         11   -1    0    0    0    0 -0.00000000000E+00 -0.00000000000E+00 -0.45593999997E+02  0.45594000000E+02  0.51100000000E-03 0.  1.
         23    2    1    2    0    0  0.35527136788E-14  0.00000000000E+00  0.35527136788E-14  0.91188000000E+02  0.91188000000E+02 0.  0.
    9900012    2    3    3    0    0 -0.30489173440E+02  0.10273738008E+02 -0.29128749488E+02  0.47787269172E+02  0.19999991462E+02 0.  0.
         12    1    3    3    0    0  0.30489173440E+02 -0.10273738008E+02  0.29128749488E+02  0.43400730828E+02  0.00000000000E+00 0. -1.
         11    1    4    4    0    0 -0.48428819371E+01 -0.34789450752E+00 -0.96704294154E+01  0.10820893742E+02  0.51100000000E-03 0. -1.
        -11    1    4    4    0    0 -0.14764468394E+02 -0.12605737332E+00 -0.14970969100E+02  0.21027014374E+02  0.51100000000E-03 0.  1.
        -12    1    4    4    0    0 -0.10881823108E+02  0.10747689888E+02 -0.44873509726E+01  0.15939361055E+02  0.00000000000E+00 0.  1.
</event>
<event>
 8    1  0.3776180E-010  0.9118800E+02  0.7816164E-02  0.1184000E+00
        -11   -1    0    0    0    0  0.00000000000E+00  0.00000000000E+00  0.45593999997E+02  0.45594000000E+02  0.51100000000E-03 0. -1.
         11   -1    0    0    0    0 -0.00000000000E+00 -0.00000000000E+00 -0.45593999997E+02  0.45594000000E+02  0.51100000000E-03 0.  1.
         23    2    1    2    0    0  0.00000000000E+00 -0.17763568394E-14  0.00000000000E+00  0.91188000000E+02  0.91188000000E+02 0.  0.
    9900012    2    3    3    0    0 -0.21128277206E+02  0.12799673533E+02  0.35684548463E+02  0.47787277203E+02  0.20000028080E+02 0.  0.
        -12    1    3    3    0    0  0.21128277206E+02 -0.12799673533E+02 -0.35684548463E+02  0.43400722797E+02  0.00000000000E+00 0.  1.
         11    1    4    4    0    0 -0.17643859050E+02  0.12020784409E+01  0.25849240051E+02  0.31319865361E+02  0.51100000000E-03 0. -1.
        -11    1    4    4    0    0 -0.37496586981E+00 -0.21295267112E+00  0.17933285152E+01  0.18444445420E+01  0.51100000000E-03 0.  1.
        -12    1    4    4    0    0 -0.31094522866E+01  0.11810547764E+02  0.80419798974E+01  0.14622967300E+02  0.00000000000E+00 0.  1.
</event>
<event>
 8    1  0.3776180E-010  0.9118800E+02  0.7816164E-02  0.1184000E+00
        -11   -1    0    0    0    0  0.00000000000E+00  0.00000000000E+00  0.45593999997E+02  0.45594000000E+02  0.51100000000E-03 0. -1.
         11   -1    0    0    0    0 -0.00000000000E+00 -0.00000000000E+00 -0.45593999997E+02  0.45594000000E+02  0.51100000000E-03 0.  1.
         23    2    1    2    0    0 -0.66613381478E-15  0.00000000000E+00  0.00000000000E+00  0.91188000000E+02  0.91188000000E+02 0.  0.
    9900012    2    3    3    0    0  0.16782970312E+01  0.18679316969E+02  0.39139365139E+02  0.47787268822E+02  0.19999989866E+02 0.  0.
        -12    1    3    3    0    0 -0.16782970312E+01 -0.18679316969E+02 -0.39139365139E+02  0.43400731178E+02  0.00000000000E+00 0.  1.
         11    1    4    4    0    0  0.15071006608E+01 -0.48302491009E+00  0.15747029292E+02  0.15826357675E+02  0.51100000000E-03 0. -1.
        -11    1    4    4    0    0 -0.41930502698E+01  0.34919994785E+01  0.49203314910E+01  0.73474752919E+01  0.51100000000E-03 0.  1.
         12    1    4    4    0    0  0.43642466403E+01  0.15670342400E+02  0.18472004355E+02  0.24613435855E+02  0.00000000000E+00 0. -1.
</event>
<event>
 8    1  0.3776180E-010  0.9118800E+02  0.7816164E-02  0.1184000E+00
        -11   -1    0    0    0    0  0.00000000000E+00  0.00000000000E+00  0.45593999997E+02  0.45594000000E+02  0.51100000000E-03 0. -1.
         11   -1    0    0    0    0 -0.00000000000E+00 -0.00000000000E+00 -0.45593999997E+02  0.45594000000E+02  0.51100000000E-03 0.  1.
         23    2    1    2    0    0 -0.66613381478E-15  0.71054273576E-14  0.00000000000E+00  0.91188000000E+02  0.91188000000E+02 0.  0.
    9900012    2    3    3    0    0  0.16511651244E+01 -0.35117079842E+02  0.25449720710E+02  0.47787263519E+02  0.19999965688E+02 0.  0.
        -12    1    3    3    0    0 -0.16511651244E+01  0.35117079842E+02 -0.25449720710E+02  0.43400736481E+02  0.00000000000E+00 0.  1.
         11    1    4    4    0    0 -0.45952655855E+00 -0.15290629021E+02  0.10876146149E+02  0.18769791044E+02  0.51100000000E-03 0. -1.
        -11    1    4    4    0    0  0.51516913288E+01 -0.14270863336E+02  0.24907143929E+01  0.15375341373E+02  0.51100000000E-03 0.  1.
        -12    1    4    4    0    0 -0.30409996459E+01 -0.55555874849E+01  0.12082860169E+02  0.13642131102E+02  0.00000000000E+00 0.  1.
</event>
<event>
 8    1  0.4167925E-010  0.9118800E+02  0.7816164E-02  0.1184000E+00
        -11   -1    0    0    0    0  0.00000000000E+00  0.00000000000E+00  0.45593999997E+02  0.45594000000E+02  0.51100000000E-03 0. -1.
         11   -1    0    0    0    0 -0.00000000000E+00 -0.00000000000E+00 -0.45593999997E+02  0.45594000000E+02  0.51100000000E-03 0.  1.
         23    2    1    2    0    0  0.00000000000E+00  0.00000000000E+00  0.00000000000E+00  0.91188000000E+02  0.91188000000E+02 0.  0.
    9900012    2    3    3    0    0  0.23165252533E+02  0.42211188921E+01  0.36457875887E+02  0.47787268626E+02  0.19999988975E+02 0.  0.
        -12    1    3    3    0    0 -0.23165252533E+02 -0.42211188921E+01 -0.36457875887E+02  0.43400731374E+02  0.00000000000E+00 0.  1.
         11    1    4    4    0    0  0.13148031121E+02  0.53372442028E+01  0.16692611075E+02  0.21908906016E+02  0.51100000000E-03 0. -1.
        -11    1    4    4    0    0  0.57474193468E+01  0.59771204064E+01  0.82624243619E+01  0.11705829919E+02  0.51100000000E-03 0.  1.
        -12    1    4    4    0    0  0.42698020647E+01 -0.70932457170E+01  0.11502840449E+02  0.14172532691E+02  0.00000000000E+00 0.  1.
</event>
<event>
 8    1  0.3776180E-010  0.9118800E+02  0.7816164E-02  0.1184000E+00
        -11   -1    0    0    0    0  0.00000000000E+00  0.00000000000E+00  0.45593999997E+02  0.45594000000E+02  0.51100000000E-03 0. -1.
         11   -1    0    0    0    0 -0.00000000000E+00 -0.00000000000E+00 -0.45593999997E+02  0.45594000000E+02  0.51100000000E-03 0.  1.
         23    2    1    2    0    0 -0.22204460493E-15  0.71054273576E-14  0.10658141036E-13  0.91188000000E+02  0.91188000000E+02 0.  0.
    9900012    2    3    3    0    0  0.10391250756E+01 -0.31794905975E+02 -0.29523263697E+02  0.47787321133E+02  0.20000228370E+02 0.  0.
         12    1    3    3    0    0 -0.10391250756E+01  0.31794905975E+02  0.29523263697E+02  0.43400678867E+02  0.00000000000E+00 0. -1.
         11    1    4    4    0    0  0.22215788924E+01 -0.19472744728E+02 -0.14725833077E+02  0.24514758006E+02  0.51100000000E-03 0. -1.
        -11    1    4    4    0    0 -0.83684364835E+00 -0.13706031232E+02 -0.16224174749E+02  0.21255103998E+02  0.51100000000E-03 0.  1.
         12    1    4    4    0    0 -0.34561016845E+00  0.13838699853E+01  0.14267441293E+01  0.20174591285E+01  0.00000000000E+00 0. -1.
</event>
<event>
 8    1  0.3776180E-010  0.9118800E+02  0.7816164E-02  0.1184000E+00
        -11   -1    0    0    0    0  0.00000000000E+00  0.00000000000E+00  0.45593999997E+02  0.45594000000E+02  0.51100000000E-03 0. -1.
         11   -1    0    0    0    0 -0.00000000000E+00 -0.00000000000E+00 -0.45593999997E+02  0.45594000000E+02  0.51100000000E-03 0.  1.
         23    2    1    2    0    0  0.00000000000E+00  0.00000000000E+00 -0.35527136788E-14  0.91188000000E+02  0.91188000000E+02 0.  0.
    9900012    2    3    3    0    0  0.60901260935E+01 -0.38080179838E+02  0.19910661523E+02  0.47787260668E+02  0.19999952688E+02 0.  0.
        -12    1    3    3    0    0 -0.60901260935E+01  0.38080179838E+02 -0.19910661523E+02  0.43400739332E+02  0.00000000000E+00 0.  1.
         11    1    4    4    0    0  0.65312106523E+01 -0.14854123382E+02  0.13296513418E+02  0.20978535777E+02  0.51100000000E-03 0. -1.
        -11    1    4    4    0    0 -0.54037239117E+01 -0.10110786024E+02  0.55739209068E+01  0.12747424080E+02  0.51100000000E-03 0.  1.
         12    1    4    4    0    0  0.49626393529E+01 -0.13115270432E+02  0.10402271978E+01  0.14061300810E+02  0.00000000000E+00 0. -1.
</event>
<event>
 8    1  0.3776180E-010  0.9118800E+02  0.7816164E-02  0.1184000E+00
        -11   -1    0    0    0    0  0.00000000000E+00  0.00000000000E+00  0.45593999997E+02  0.45594000000E+02  0.51100000000E-03 0. -1.
         11   -1    0    0    0    0 -0.00000000000E+00 -0.00000000000E+00 -0.45593999997E+02  0.45594000000E+02  0.51100000000E-03 0.  1.
         23    2    1    2    0    0  0.17763568394E-14  0.35527136788E-14 -0.35527136788E-14  0.91188000000E+02  0.91188000000E+02 0.  0.
    9900012    2    3    3    0    0 -0.93505546928E+01 -0.31057225505E+02  0.28838152746E+02  0.47787272092E+02  0.20000004778E+02 0.  0.
        -12    1    3    3    0    0  0.93505546928E+01  0.31057225505E+02 -0.28838152746E+02  0.43400727908E+02  0.00000000000E+00 0.  1.
         11    1    4    4    0    0 -0.19719039362E+01 -0.54119649094E+01  0.31664208501E+01  0.65729742564E+01  0.51100000000E-03 0. -1.
        -11    1    4    4    0    0  0.17361698145E+01  0.22774048629E+01  0.20560484625E+01  0.35253643891E+01  0.51100000000E-03 0.  1.
         12    1    4    4    0    0 -0.91148205711E+01 -0.27922665458E+02  0.23615683433E+02  0.37688933447E+02  0.00000000000E+00 0. -1.
</event>
<event>
 8    1  0.3776180E-010  0.9118800E+02  0.7816164E-02  0.1184000E+00
        -11   -1    0    0    0    0  0.00000000000E+00  0.00000000000E+00  0.45593999997E+02  0.45594000000E+02  0.51100000000E-03 0.  1.
         11   -1    0    0    0    0 -0.00000000000E+00 -0.00000000000E+00 -0.45593999997E+02  0.45594000000E+02  0.51100000000E-03 0. -1.
         23    2    1    2    0    0  0.00000000000E+00  0.14210854715E-13 -0.35527136788E-14  0.91188000000E+02  0.91188000000E+02 0.  0.
    9900012    2    3    3    0    0 -0.50162210880E+01  0.39943144747E+02 -0.16217469024E+02  0.47787267428E+02  0.19999983509E+02 0.  0.
         12    1    3    3    0    0  0.50162210880E+01 -0.39943144747E+02  0.16217469024E+02  0.43400732572E+02  0.00000000000E+00 0. -1.
         11    1    4    4    0    0 -0.62534884850E+01  0.10947151755E+02 -0.52128637865E+01  0.13642587691E+02  0.51100000000E-03 0. -1.
        -11    1    4    4    0    0 -0.27842901252E+01  0.21755529768E+02 -0.21782278883E+01  0.22040871670E+02  0.51100000000E-03 0.  1.
         12    1    4    4    0    0  0.40215575223E+01  0.72404632239E+01 -0.88263773496E+01  0.12103808067E+02  0.00000000000E+00 0. -1.
</event>
<event>
 8    1  0.3776180E-010  0.9118800E+02  0.7816164E-02  0.1184000E+00
        -11   -1    0    0    0    0  0.00000000000E+00  0.00000000000E+00  0.45593999997E+02  0.45594000000E+02  0.51100000000E-03 0. -1.
         11   -1    0    0    0    0 -0.00000000000E+00 -0.00000000000E+00 -0.45593999997E+02  0.45594000000E+02  0.51100000000E-03 0.  1.
         23    2    1    2    0    0  0.35527136788E-14 -0.17763568394E-14  0.00000000000E+00  0.91188000000E+02  0.91188000000E+02 0.  0.
    9900012    2    3    3    0    0  0.21564750249E+02 -0.10701262803E+02  0.36111879124E+02  0.47787270827E+02  0.19999999010E+02 0.  0.
        -12    1    3    3    0    0 -0.21564750249E+02  0.10701262803E+02 -0.36111879124E+02  0.43400729173E+02  0.00000000000E+00 0.  1.
         11    1    4    4    0    0  0.95796529987E+01 -0.42876993144E+01  0.93665700880E+01  0.14067222628E+02  0.51100000000E-03 0. -1.
        -11    1    4    4    0    0  0.77967689408E+01 -0.43833401107E+01  0.28675491106E+01  0.93928757367E+01  0.51100000000E-03 0.  1.
         12    1    4    4    0    0  0.41883283092E+01 -0.20302233778E+01  0.23877759925E+02  0.24327172463E+02  0.00000000000E+00 0. -1.
</event>
<event>
 8    1  0.3776180E-010  0.9118800E+02  0.7816164E-02  0.1184000E+00
        -11   -1    0    0    0    0  0.00000000000E+00  0.00000000000E+00  0.45593999997E+02  0.45594000000E+02  0.51100000000E-03 0. -1.
         11   -1    0    0    0    0 -0.00000000000E+00 -0.00000000000E+00 -0.45593999997E+02  0.45594000000E+02  0.51100000000E-03 0.  1.
         23    2    1    2    0    0  0.00000000000E+00  0.00000000000E+00  0.00000000000E+00  0.91188000000E+02  0.91188000000E+02 0.  0.
    9900012    2    3    3    0    0  0.12518713691E+02  0.24688253840E+02  0.33427452955E+02  0.47787277873E+02  0.20000031132E+02 0.  0.
        -12    1    3    3    0    0 -0.12518713691E+02 -0.24688253840E+02 -0.33427452955E+02  0.43400722127E+02  0.00000000000E+00 0.  1.
         11    1    4    4    0    0 -0.15091994728E+01  0.16918947593E+01  0.43792808906E+01  0.49313580589E+01  0.51100000000E-03 0.  1.
        -11    1    4    4    0    0  0.30233792152E+00  0.16177263695E+02  0.15213390950E+02  0.22209064216E+02  0.51100000000E-03 0. -1.
         12    1    4    4    0    0  0.13725575242E+02  0.68190953851E+01  0.13834781114E+02  0.20646855598E+02  0.00000000000E+00 0. -1.
</event>
<event>
 8    1  0.3776180E-010  0.9118800E+02  0.7816164E-02  0.1184000E+00
        -11   -1    0    0    0    0  0.00000000000E+00  0.00000000000E+00  0.45593999997E+02  0.45594000000E+02  0.51100000000E-03 0.  1.
         11   -1    0    0    0    0 -0.00000000000E+00 -0.00000000000E+00 -0.45593999997E+02  0.45594000000E+02  0.51100000000E-03 0. -1.
         23    2    1    2    0    0  0.00000000000E+00  0.00000000000E+00 -0.44408920985E-15  0.91188000000E+02  0.91188000000E+02 0.  0.
    9900012    2    3    3    0    0 -0.41988623544E+02 -0.10863996027E+02 -0.15975436678E+01  0.47787273479E+02  0.20000011100E+02 0.  0.
         12    1    3    3    0    0  0.41988623544E+02  0.10863996027E+02  0.15975436678E+01  0.43400726521E+02  0.00000000000E+00 0. -1.
         11    1    4    4    0    0 -0.17496563915E+02 -0.17948281891E+01 -0.48215154970E+01  0.18237274167E+02  0.51100000000E-03 0. -1.
        -11    1    4    4    0    0 -0.23566045353E+02 -0.42549828738E+01  0.52310704554E+00  0.23952808063E+02  0.51100000000E-03 0.  1.
         12    1    4    4    0    0 -0.92601427527E+00 -0.48141849643E+01  0.27008647837E+01  0.55971912500E+01  0.00000000000E+00 0. -1.
</event>
<event>
 8    1  0.3776180E-010  0.9118800E+02  0.7816164E-02  0.1184000E+00
        -11   -1    0    0    0    0  0.00000000000E+00  0.00000000000E+00  0.45593999997E+02  0.45594000000E+02  0.51100000000E-03 0. -1.
         11   -1    0    0    0    0 -0.00000000000E+00 -0.00000000000E+00 -0.45593999997E+02  0.45594000000E+02  0.51100000000E-03 0.  1.
         23    2    1    2    0    0  0.00000000000E+00  0.17763568394E-14  0.00000000000E+00  0.91188000000E+02  0.91188000000E+02 0.  0.
    9900012    2    3    3    0    0 -0.22688739499E+02 -0.14824746271E+02  0.33897955499E+02  0.47787269718E+02  0.19999993951E+02 0.  0.
        -12    1    3    3    0    0  0.22688739499E+02  0.14824746271E+02 -0.33897955499E+02  0.43400730282E+02  0.00000000000E+00 0.  1.
         11    1    4    4    0    0 -0.31208382644E+00 -0.45380247044E+01  0.11215698155E+02  0.12103014083E+02  0.51100000000E-03 0. -1.
        -11    1    4    4    0    0 -0.22697207175E+01  0.24900408369E+01  0.11151852683E+01  0.35490243657E+01  0.51100000000E-03 0.  1.
        -12    1    4    4    0    0 -0.20106934955E+02 -0.12776762404E+02  0.21567072075E+02  0.32135231269E+02  0.00000000000E+00 0.  1.
</event>
<event>
 8    1  0.3776180E-010  0.9118800E+02  0.7816164E-02  0.1184000E+00
        -11   -1    0    0    0    0  0.00000000000E+00  0.00000000000E+00  0.45593999997E+02  0.45594000000E+02  0.51100000000E-03 0. -1.
         11   -1    0    0    0    0 -0.00000000000E+00 -0.00000000000E+00 -0.45593999997E+02  0.45594000000E+02  0.51100000000E-03 0.  1.
         23    2    1    2    0    0 -0.88817841970E-15  0.00000000000E+00  0.35527136788E-14  0.91188000000E+02  0.91188000000E+02 0.  0.
    9900012    2    3    3    0    0  0.28271421093E+01  0.37779735022E+02  0.21173605827E+02  0.47787277719E+02  0.20000030431E+02 0.  0.
        -12    1    3    3    0    0 -0.28271421093E+01 -0.37779735022E+02 -0.21173605827E+02  0.43400722281E+02  0.00000000000E+00 0.  1.
         11    1    4    4    0    0  0.66340195254E+00  0.27089861535E+02  0.21876633857E+02  0.34826538865E+02  0.51100000000E-03 0. -1.
        -11    1    4    4    0    0 -0.23722012265E+01  0.20043862757E+01  0.25133302479E+00  0.31157778405E+01  0.51100000000E-03 0.  1.
         12    1    4    4    0    0  0.45359413833E+01  0.86854872109E+01 -0.95436105506E+00  0.98449610129E+01  0.00000000000E+00 0. -1.
</event>
<event>
 8    1  0.3776180E-010  0.9118800E+02  0.7816164E-02  0.1184000E+00
        -11   -1    0    0    0    0  0.00000000000E+00  0.00000000000E+00  0.45593999997E+02  0.45594000000E+02  0.51100000000E-03 0.  1.
         11   -1    0    0    0    0 -0.00000000000E+00 -0.00000000000E+00 -0.45593999997E+02  0.45594000000E+02  0.51100000000E-03 0. -1.
         23    2    1    2    0    0  0.17763568394E-14  0.00000000000E+00  0.00000000000E+00  0.91188000000E+02  0.91188000000E+02 0.  0.
    9900012    2    3    3    0    0 -0.13970751828E+02 -0.39706170804E+02  0.10576463576E+02  0.47787268573E+02  0.19999988734E+02 0.  0.
        -12    1    3    3    0    0  0.13970751828E+02  0.39706170804E+02 -0.10576463576E+02  0.43400731427E+02  0.00000000000E+00 0.  1.
         11    1    4    4    0    0  0.27526470287E+00 -0.21301913372E+01 -0.24704950835E+01  0.32736572833E+01  0.51100000000E-03 0. -1.
        -11    1    4    4    0    0 -0.10156085223E+02 -0.88879916765E+01  0.54613768907E+01  0.14559158660E+02  0.51100000000E-03 0.  1.
         12    1    4    4    0    0 -0.40899313084E+01 -0.28687987791E+02  0.75855817687E+01  0.29954452630E+02  0.00000000000E+00 0. -1.
</event>
<event>
 8    1  0.3776180E-010  0.9118800E+02  0.7816164E-02  0.1184000E+00
        -11   -1    0    0    0    0  0.00000000000E+00  0.00000000000E+00  0.45593999997E+02  0.45594000000E+02  0.51100000000E-03 0.  1.
         11   -1    0    0    0    0 -0.00000000000E+00 -0.00000000000E+00 -0.45593999997E+02  0.45594000000E+02  0.51100000000E-03 0. -1.
         23    2    1    2    0    0  0.00000000000E+00 -0.17763568394E-14  0.00000000000E+00  0.91188000000E+02  0.91188000000E+02 0.  0.
    9900012    2    3    3    0    0  0.42232309504E+02  0.95983052290E+01 -0.28157145416E+01  0.47787266392E+02  0.19999978788E+02 0.  0.
        -12    1    3    3    0    0 -0.42232309504E+02 -0.95983052290E+01  0.28157145416E+01  0.43400733608E+02  0.00000000000E+00 0.  1.
         11    1    4    4    0    0  0.86399226622E+01  0.73728794889E+01  0.17760318452E+00  0.11359540427E+02  0.51100000000E-03 0. -1.
        -11    1    4    4    0    0  0.20336035848E+02  0.72004683984E+01  0.13556905236E+01  0.21615711791E+02  0.51100000000E-03 0.  1.
        -12    1    4    4    0    0  0.13256350994E+02 -0.49750426583E+01 -0.43490082498E+01  0.14812014174E+02  0.00000000000E+00 0.  1.
</event>
<event>
 8    1  0.3776180E-010  0.9118800E+02  0.7816164E-02  0.1184000E+00
        -11   -1    0    0    0    0  0.00000000000E+00  0.00000000000E+00  0.45593999997E+02  0.45594000000E+02  0.51100000000E-03 0.  1.
         11   -1    0    0    0    0 -0.00000000000E+00 -0.00000000000E+00 -0.45593999997E+02  0.45594000000E+02  0.51100000000E-03 0. -1.
         23    2    1    2    0    0  0.00000000000E+00  0.00000000000E+00  0.00000000000E+00  0.91188000000E+02  0.91188000000E+02 0.  0.
    9900012    2    3    3    0    0 -0.12415576949E+02 -0.37035277525E+02  0.18917306407E+02  0.47787276342E+02  0.20000024153E+02 0.  0.
        -12    1    3    3    0    0  0.12415576949E+02  0.37035277525E+02 -0.18917306407E+02  0.43400723658E+02  0.00000000000E+00 0.  1.
         11    1    4    4    0    0  0.12034060387E+01 -0.79259480300E+01  0.27818846346E+01  0.84857363057E+01  0.51100000000E-03 0.  1.
        -11    1    4    4    0    0 -0.64236035109E+01 -0.12369250387E+02 -0.14068221889E+01  0.14008575450E+02  0.51100000000E-03 0. -1.
         12    1    4    4    0    0 -0.71953794765E+01 -0.16740079108E+02  0.17542243961E+02  0.25292964586E+02  0.00000000000E+00 0. -1.
</event>
<event>
 8    1  0.3776180E-010  0.9118800E+02  0.7816164E-02  0.1184000E+00
        -11   -1    0    0    0    0  0.00000000000E+00  0.00000000000E+00  0.45593999997E+02  0.45594000000E+02  0.51100000000E-03 0. -1.
         11   -1    0    0    0    0 -0.00000000000E+00 -0.00000000000E+00 -0.45593999997E+02  0.45594000000E+02  0.51100000000E-03 0.  1.
         23    2    1    2    0    0  0.35527136788E-14 -0.27755575616E-15 -0.71054273576E-14  0.91188000000E+02  0.91188000000E+02 0.  0.
    9900012    2    3    3    0    0  0.23732555272E+02  0.48330882677E+00 -0.36333942482E+02  0.47787272547E+02  0.20000006851E+02 0.  0.
         12    1    3    3    0    0 -0.23732555272E+02 -0.48330882677E+00  0.36333942482E+02  0.43400727453E+02  0.00000000000E+00 0. -1.
         11    1    4    4    0    0  0.23788261443E+01  0.16391831161E+01 -0.10468602107E+02  0.10859897120E+02  0.51100000000E-03 0. -1.
        -11    1    4    4    0    0 -0.14753701940E+01  0.25301207464E+01 -0.49266044255E+01  0.57314622591E+01  0.51100000000E-03 0.  1.
         12    1    4    4    0    0  0.22829099322E+02 -0.36859950357E+01 -0.20938735949E+02  0.31195913168E+02  0.00000000000E+00 0. -1.
</event>
<event>
 8    1  0.3776180E-010  0.9118800E+02  0.7816164E-02  0.1184000E+00
        -11   -1    0    0    0    0  0.00000000000E+00  0.00000000000E+00  0.45593999997E+02  0.45594000000E+02  0.51100000000E-03 0. -1.
         11   -1    0    0    0    0 -0.00000000000E+00 -0.00000000000E+00 -0.45593999997E+02  0.45594000000E+02  0.51100000000E-03 0.  1.
         23    2    1    2    0    0  0.00000000000E+00  0.00000000000E+00  0.00000000000E+00  0.91188000000E+02  0.91188000000E+02 0.  0.
    9900012    2    3    3    0    0  0.31294817379E+02  0.22218195914E+02 -0.20263500111E+02  0.47787271190E+02  0.20000000665E+02 0.  0.
         12    1    3    3    0    0 -0.31294817379E+02 -0.22218195914E+02  0.20263500111E+02  0.43400728810E+02  0.00000000000E+00 0. -1.
         11    1    4    4    0    0  0.25588587764E+02  0.89960543359E+01 -0.12928369834E+02  0.30047421922E+02  0.51100000000E-03 0. -1.
        -11    1    4    4    0    0  0.68864781236E+01  0.73449631143E+01 -0.54895412179E+01  0.11467655695E+02  0.51100000000E-03 0.  1.
         12    1    4    4    0    0 -0.11802485082E+01  0.58771784640E+01 -0.18455890588E+01  0.62721935726E+01  0.00000000000E+00 0. -1.
</event>
<event>
 8    1  0.3776180E-010  0.9118800E+02  0.7816164E-02  0.1184000E+00
        -11   -1    0    0    0    0  0.00000000000E+00  0.00000000000E+00  0.45593999997E+02  0.45594000000E+02  0.51100000000E-03 0. -1.
         11   -1    0    0    0    0 -0.00000000000E+00 -0.00000000000E+00 -0.45593999997E+02  0.45594000000E+02  0.51100000000E-03 0.  1.
         23    2    1    2    0    0  0.00000000000E+00 -0.17763568394E-14  0.00000000000E+00  0.91188000000E+02  0.91188000000E+02 0.  0.
    9900012    2    3    3    0    0  0.14729554157E+02 -0.20497233370E+01  0.40773303489E+02  0.47787269490E+02  0.19999992913E+02 0.  0.
        -12    1    3    3    0    0 -0.14729554157E+02  0.20497233370E+01 -0.40773303489E+02  0.43400730510E+02  0.00000000000E+00 0.  1.
         11    1    4    4    0    0  0.47123348403E+00 -0.28173522206E+00  0.48867311655E+01  0.49174767388E+01  0.51100000000E-03 0. -1.
        -11    1    4    4    0    0  0.63008401271E+01  0.83744371265E+01  0.17863690615E+02  0.20710944598E+02  0.51100000000E-03 0.  1.
        -12    1    4    4    0    0  0.79574805456E+01 -0.10142425241E+02  0.18022881708E+02  0.22158848153E+02  0.00000000000E+00 0.  1.
</event>
<event>
 8    1  0.3776180E-010  0.9118800E+02  0.7816164E-02  0.1184000E+00
        -11   -1    0    0    0    0  0.00000000000E+00  0.00000000000E+00  0.45593999997E+02  0.45594000000E+02  0.51100000000E-03 0. -1.
         11   -1    0    0    0    0 -0.00000000000E+00 -0.00000000000E+00 -0.45593999997E+02  0.45594000000E+02  0.51100000000E-03 0.  1.
         23    2    1    2    0    0  0.00000000000E+00  0.00000000000E+00  0.00000000000E+00  0.91188000000E+02  0.91188000000E+02 0.  0.
    9900012    2    3    3    0    0  0.96359988533E+01 -0.16004742601E+02  0.39174170663E+02  0.47787309836E+02  0.20000176865E+02 0.  0.
        -12    1    3    3    0    0 -0.96359988533E+01  0.16004742601E+02 -0.39174170663E+02  0.43400690164E+02  0.00000000000E+00 0.  1.
         11    1    4    4    0    0  0.16969342505E+01  0.92247530137E+00  0.39388161411E+01  0.43868917683E+01  0.51100000000E-03 0. -1.
        -11    1    4    4    0    0  0.68545727304E+01  0.89703621754E+00  0.14302797482E+02  0.15885838265E+02  0.51100000000E-03 0.  1.
        -12    1    4    4    0    0  0.10844918725E+01 -0.17824254119E+02  0.20932557039E+02  0.27514579803E+02  0.00000000000E+00 0.  1.
</event>
<event>
 8    1  0.3776180E-010  0.9118800E+02  0.7816164E-02  0.1184000E+00
        -11   -1    0    0    0    0  0.00000000000E+00  0.00000000000E+00  0.45593999997E+02  0.45594000000E+02  0.51100000000E-03 0. -1.
         11   -1    0    0    0    0 -0.00000000000E+00 -0.00000000000E+00 -0.45593999997E+02  0.45594000000E+02  0.51100000000E-03 0.  1.
         23    2    1    2    0    0 -0.35527136788E-14  0.00000000000E+00  0.00000000000E+00  0.91188000000E+02  0.91188000000E+02 0.  0.
    9900012    2    3    3    0    0 -0.25785494072E+02 -0.78281986978E+01 -0.34021317004E+02  0.47787280996E+02  0.20000045371E+02 0.  0.
         12    1    3    3    0    0  0.25785494072E+02  0.78281986978E+01  0.34021317004E+02  0.43400719004E+02  0.00000000000E+00 0. -1.
         11    1    4    4    0    0 -0.95743225841E+00  0.40020779407E+01 -0.30613220350E+01  0.51288397553E+01  0.51100000000E-03 0. -1.
        -11    1    4    4    0    0 -0.19427635725E+01  0.14541098947E+01 -0.51545596624E+01  0.56972143596E+01  0.51100000000E-03 0.  1.
        -12    1    4    4    0    0 -0.22885298241E+02 -0.13284386533E+02 -0.25805435307E+02  0.36961226881E+02  0.00000000000E+00 0.  1.
</event>
<event>
 8    1  0.3776180E-010  0.9118800E+02  0.7816164E-02  0.1184000E+00
        -11   -1    0    0    0    0  0.00000000000E+00  0.00000000000E+00  0.45593999997E+02  0.45594000000E+02  0.51100000000E-03 0. -1.
         11   -1    0    0    0    0 -0.00000000000E+00 -0.00000000000E+00 -0.45593999997E+02  0.45594000000E+02  0.51100000000E-03 0.  1.
         23    2    1    2    0    0  0.17763568394E-14 -0.35527136788E-14  0.00000000000E+00  0.91188000000E+02  0.91188000000E+02 0.  0.
    9900012    2    3    3    0    0  0.15790171059E+02 -0.18643050541E+02  0.35871023076E+02  0.47787272678E+02  0.20000007450E+02 0.  0.
        -12    1    3    3    0    0 -0.15790171059E+02  0.18643050541E+02 -0.35871023076E+02  0.43400727322E+02  0.00000000000E+00 0.  1.
         11    1    4    4    0    0 -0.39505175069E+01 -0.57108270571E+01  0.81242351699E+01  0.10687531596E+02  0.51100000000E-03 0. -1.
        -11    1    4    4    0    0  0.56762183525E+01 -0.37843796832E+01  0.13348799503E+02  0.14991045088E+02  0.51100000000E-03 0.  1.
        -12    1    4    4    0    0  0.14064470213E+02 -0.91478438004E+01  0.14397988403E+02  0.22108695995E+02  0.00000000000E+00 0.  1.
</event>
<event>
 8    1  0.3776180E-010  0.9118800E+02  0.7816164E-02  0.1184000E+00
        -11   -1    0    0    0    0  0.00000000000E+00  0.00000000000E+00  0.45593999997E+02  0.45594000000E+02  0.51100000000E-03 0. -1.
         11   -1    0    0    0    0 -0.00000000000E+00 -0.00000000000E+00 -0.45593999997E+02  0.45594000000E+02  0.51100000000E-03 0.  1.
         23    2    1    2    0    0  0.00000000000E+00  0.00000000000E+00  0.00000000000E+00  0.91188000000E+02  0.91188000000E+02 0.  0.
    9900012    2    3    3    0    0  0.27786792331E+02 -0.73196991784E+01 -0.32525972026E+02  0.47787277882E+02  0.20000031175E+02 0.  0.
         12    1    3    3    0    0 -0.27786792331E+02  0.73196991784E+01  0.32525972026E+02  0.43400722118E+02  0.00000000000E+00 0. -1.
         11    1    4    4    0    0  0.10181997171E+01 -0.20889239983E+01  0.80810560791E+00  0.24603595406E+01  0.51100000000E-03 0. -1.
        -11    1    4    4    0    0  0.44740547717E+00 -0.10318249268E+01 -0.95136882754E+01  0.95799321084E+01  0.51100000000E-03 0.  1.
        -12    1    4    4    0    0  0.26321187137E+02 -0.41989502533E+01 -0.23820389359E+02  0.35746986233E+02  0.00000000000E+00 0.  1.
</event>
<event>
 8    1  0.3776180E-010  0.9118800E+02  0.7816164E-02  0.1184000E+00
        -11   -1    0    0    0    0  0.00000000000E+00  0.00000000000E+00  0.45593999997E+02  0.45594000000E+02  0.51100000000E-03 0. -1.
         11   -1    0    0    0    0 -0.00000000000E+00 -0.00000000000E+00 -0.45593999997E+02  0.45594000000E+02  0.51100000000E-03 0.  1.
         23    2    1    2    0    0  0.35527136788E-14  0.00000000000E+00  0.00000000000E+00  0.91188000000E+02  0.91188000000E+02 0.  0.
    9900012    2    3    3    0    0 -0.20420983534E+02  0.10115803164E+02  0.36936118357E+02  0.47787275566E+02  0.20000020614E+02 0.  0.
        -12    1    3    3    0    0  0.20420983534E+02 -0.10115803164E+02 -0.36936118357E+02  0.43400724434E+02  0.00000000000E+00 0.  1.
         11    1    4    4    0    0 -0.13738704969E+02  0.56272294199E+00  0.22881104206E+02  0.26694823492E+02  0.51100000000E-03 0. -1.
        -11    1    4    4    0    0 -0.25602893033E+01 -0.21215317668E+01  0.25376572541E+01  0.41827841153E+01  0.51100000000E-03 0.  1.
        -12    1    4    4    0    0 -0.41219892614E+01  0.11674611989E+02  0.11517356897E+02  0.16909667958E+02  0.00000000000E+00 0.  1.
</event>
<event>
 8    1  0.3776180E-010  0.9118800E+02  0.7816164E-02  0.1184000E+00
        -11   -1    0    0    0    0  0.00000000000E+00  0.00000000000E+00  0.45593999997E+02  0.45594000000E+02  0.51100000000E-03 0. -1.
         11   -1    0    0    0    0 -0.00000000000E+00 -0.00000000000E+00 -0.45593999997E+02  0.45594000000E+02  0.51100000000E-03 0.  1.
         23    2    1    2    0    0  0.00000000000E+00  0.00000000000E+00  0.00000000000E+00  0.91188000000E+02  0.91188000000E+02 0.  0.
    9900012    2    3    3    0    0  0.13702447644E+02  0.62657213318E+01  0.40701434690E+02  0.47787272805E+02  0.20000008028E+02 0.  0.
        -12    1    3    3    0    0 -0.13702447644E+02 -0.62657213318E+01 -0.40701434690E+02  0.43400727195E+02  0.00000000000E+00 0.  1.
         11    1    4    4    0    0  0.68633257157E+01 -0.10643605415E+00  0.23082414867E+02  0.24081412851E+02  0.51100000000E-03 0. -1.
        -11    1    4    4    0    0  0.12905936879E+01  0.60872959921E+01  0.17015167551E+02  0.18117304756E+02  0.51100000000E-03 0.  1.
         12    1    4    4    0    0  0.55485282402E+01  0.28486139377E+00  0.60385227138E+00  0.55885551990E+01  0.00000000000E+00 0. -1.
</event>
<event>
 8    1  0.3776180E-010  0.9118800E+02  0.7816164E-02  0.1184000E+00
        -11   -1    0    0    0    0  0.00000000000E+00  0.00000000000E+00  0.45593999997E+02  0.45594000000E+02  0.51100000000E-03 0. -1.
         11   -1    0    0    0    0 -0.00000000000E+00 -0.00000000000E+00 -0.45593999997E+02  0.45594000000E+02  0.51100000000E-03 0.  1.
         23    2    1    2    0    0 -0.35527136788E-14  0.00000000000E+00  0.71054273576E-14  0.91188000000E+02  0.91188000000E+02 0.  0.
    9900012    2    3    3    0    0 -0.10481243571E+02  0.18547107579E+02  0.37812321979E+02  0.47787270055E+02  0.19999995487E+02 0.  0.
        -12    1    3    3    0    0  0.10481243571E+02 -0.18547107579E+02 -0.37812321979E+02  0.43400729945E+02  0.00000000000E+00 0.  1.
         11    1    4    4    0    0 -0.46062413133E+01  0.46002937368E+01  0.18012048872E+02  0.19152390617E+02  0.51100000000E-03 0. -1.
        -11    1    4    4    0    0 -0.59545748117E+01  0.12634065913E+02  0.22007566389E+02  0.26065486017E+02  0.51100000000E-03 0.  1.
        -12    1    4    4    0    0  0.79572553707E-01  0.13127479289E+01 -0.22072932821E+01  0.25693934205E+01  0.00000000000E+00 0.  1.
</event>
<event>
 8    1  0.3839525E-010  0.9118800E+02  0.7816164E-02  0.1184000E+00
        -11   -1    0    0    0    0  0.00000000000E+00  0.00000000000E+00  0.45593999997E+02  0.45594000000E+02  0.51100000000E-03 0. -1.
         11   -1    0    0    0    0 -0.00000000000E+00 -0.00000000000E+00 -0.45593999997E+02  0.45594000000E+02  0.51100000000E-03 0.  1.
         23    2    1    2    0    0  0.00000000000E+00  0.00000000000E+00  0.00000000000E+00  0.91188000000E+02  0.91188000000E+02 0.  0.
    9900012    2    3    3    0    0  0.63933361353E+01 -0.11048355807E+02  0.41481113929E+02  0.47787265838E+02  0.19999976262E+02 0.  0.
        -12    1    3    3    0    0 -0.63933361353E+01  0.11048355807E+02 -0.41481113929E+02  0.43400734162E+02  0.00000000000E+00 0.  1.
         11    1    4    4    0    0  0.48370017675E+01 -0.15358799481E+01  0.21597485798E+02  0.22185736553E+02  0.51100000000E-03 0. -1.
        -11    1    4    4    0    0  0.24819702446E+01 -0.11028752023E+01  0.16110632959E+02  0.16337962070E+02  0.51100000000E-03 0.  1.
        -12    1    4    4    0    0 -0.92563587678E+00 -0.84096006569E+01  0.37729951720E+01  0.92635672154E+01  0.00000000000E+00 0.  1.
</event>
<event>
 8    1  0.3776180E-010  0.9118800E+02  0.7816164E-02  0.1184000E+00
        -11   -1    0    0    0    0  0.00000000000E+00  0.00000000000E+00  0.45593999997E+02  0.45594000000E+02  0.51100000000E-03 0.  1.
         11   -1    0    0    0    0 -0.00000000000E+00 -0.00000000000E+00 -0.45593999997E+02  0.45594000000E+02  0.51100000000E-03 0. -1.
         23    2    1    2    0    0  0.00000000000E+00  0.00000000000E+00  0.00000000000E+00  0.91188000000E+02  0.91188000000E+02 0.  0.
    9900012    2    3    3    0    0 -0.26484319887E+02 -0.33635896035E+02  0.71295374647E+01  0.47787274126E+02  0.20000014049E+02 0.  0.
         12    1    3    3    0    0  0.26484319887E+02  0.33635896035E+02 -0.71295374647E+01  0.43400725874E+02  0.00000000000E+00 0. -1.
         11    1    4    4    0    0 -0.68624464891E+00 -0.33516821236E+01  0.35568995035E+01  0.49352040601E+01  0.51100000000E-03 0. -1.
        -11    1    4    4    0    0 -0.14624716683E+02 -0.25409627709E+02  0.70929264260E+01  0.30163572797E+02  0.51100000000E-03 0.  1.
        -12    1    4    4    0    0 -0.11173358556E+02 -0.48745862026E+01 -0.35202884647E+01  0.12688497269E+02  0.00000000000E+00 0.  1.
</event>
<event>
 8    1  0.3776180E-010  0.9118800E+02  0.7816164E-02  0.1184000E+00
        -11   -1    0    0    0    0  0.00000000000E+00  0.00000000000E+00  0.45593999997E+02  0.45594000000E+02  0.51100000000E-03 0. -1.
         11   -1    0    0    0    0 -0.00000000000E+00 -0.00000000000E+00 -0.45593999997E+02  0.45594000000E+02  0.51100000000E-03 0.  1.
         23    2    1    2    0    0  0.00000000000E+00  0.00000000000E+00  0.35527136788E-14  0.91188000000E+02  0.91188000000E+02 0.  0.
    9900012    2    3    3    0    0 -0.35819857208E+02 -0.14010515144E+02 -0.20106381335E+02  0.47787271027E+02  0.19999999921E+02 0.  0.
         12    1    3    3    0    0  0.35819857208E+02  0.14010515144E+02  0.20106381335E+02  0.43400728973E+02  0.00000000000E+00 0. -1.
         11    1    4    4    0    0 -0.81354661927E+01  0.65353835381E+00  0.15793827090E+01  0.83130844188E+01  0.51100000000E-03 0. -1.
        -11    1    4    4    0    0 -0.48635553353E+01  0.13914116964E+01 -0.38630356181E+01  0.63650012927E+01  0.51100000000E-03 0.  1.
        -12    1    4    4    0    0 -0.22820835680E+02 -0.16055465194E+02 -0.17822728426E+02  0.33109185316E+02  0.00000000000E+00 0.  1.
</event>
<event>
 8    1  0.3776180E-010  0.9118800E+02  0.7816164E-02  0.1184000E+00
        -11   -1    0    0    0    0  0.00000000000E+00  0.00000000000E+00  0.45593999997E+02  0.45594000000E+02  0.51100000000E-03 0. -1.
         11   -1    0    0    0    0 -0.00000000000E+00 -0.00000000000E+00 -0.45593999997E+02  0.45594000000E+02  0.51100000000E-03 0.  1.
         23    2    1    2    0    0  0.35527136788E-14  0.88817841970E-15  0.00000000000E+00  0.91188000000E+02  0.91188000000E+02 0.  0.
    9900012    2    3    3    0    0  0.27721785216E+02  0.77185132072E+01 -0.32489239521E+02  0.47787268366E+02  0.19999987790E+02 0.  0.
         12    1    3    3    0    0 -0.27721785216E+02 -0.77185132072E+01  0.32489239521E+02  0.43400731634E+02  0.00000000000E+00 0. -1.
         11    1    4    4    0    0  0.68451919268E+01  0.98071759863E+01 -0.17205182200E+02  0.20953654768E+02  0.51100000000E-03 0. -1.
        -11    1    4    4    0    0  0.76334546716E+01  0.25453808351E+00 -0.95109006543E+01  0.12198018338E+02  0.51100000000E-03 0.  1.
        -12    1    4    4    0    0  0.13243138617E+02 -0.23432008626E+01 -0.57731566665E+01  0.14635595260E+02  0.00000000000E+00 0.  1.
</event>
<event>
 8    1  0.3776180E-010  0.9118800E+02  0.7816164E-02  0.1184000E+00
        -11   -1    0    0    0    0  0.00000000000E+00  0.00000000000E+00  0.45593999997E+02  0.45594000000E+02  0.51100000000E-03 0.  1.
         11   -1    0    0    0    0 -0.00000000000E+00 -0.00000000000E+00 -0.45593999997E+02  0.45594000000E+02  0.51100000000E-03 0. -1.
         23    2    1    2    0    0  0.00000000000E+00  0.00000000000E+00  0.35527136788E-14  0.91188000000E+02  0.91188000000E+02 0.  0.
    9900012    2    3    3    0    0 -0.35572730824E+02 -0.16006625452E+02 -0.19026088028E+02  0.47787271178E+02  0.20000000608E+02 0.  0.
         12    1    3    3    0    0  0.35572730824E+02  0.16006625452E+02  0.19026088028E+02  0.43400728822E+02  0.00000000000E+00 0. -1.
         11    1    4    4    0    0 -0.12415669381E+01 -0.49097291340E+01 -0.18188309140E+01  0.53809919890E+01  0.51100000000E-03 0. -1.
        -11    1    4    4    0    0 -0.26798768984E+02 -0.12317672144E+02 -0.82231496283E+01  0.30618936235E+02  0.51100000000E-03 0.  1.
         12    1    4    4    0    0 -0.75323949025E+01  0.12207758269E+01 -0.89841074862E+01  0.11787342954E+02  0.00000000000E+00 0. -1.
</event>
<event>
 8    1  0.3776180E-010  0.9118800E+02  0.7816164E-02  0.1184000E+00
        -11   -1    0    0    0    0  0.00000000000E+00  0.00000000000E+00  0.45593999997E+02  0.45594000000E+02  0.51100000000E-03 0. -1.
         11   -1    0    0    0    0 -0.00000000000E+00 -0.00000000000E+00 -0.45593999997E+02  0.45594000000E+02  0.51100000000E-03 0.  1.
         23    2    1    2    0    0 -0.44408920985E-15 -0.17763568394E-14  0.00000000000E+00  0.91188000000E+02  0.91188000000E+02 0.  0.
    9900012    2    3    3    0    0 -0.32039724686E+01 -0.11698515734E+02 -0.41671336133E+02  0.47787297643E+02  0.20000121275E+02 0.  0.
         12    1    3    3    0    0  0.32039724686E+01  0.11698515734E+02  0.41671336133E+02  0.43400702357E+02  0.00000000000E+00 0. -1.
         11    1    4    4    0    0  0.14998298532E+01 -0.12065177521E+02 -0.14230112819E+02  0.18716679975E+02  0.51100000000E-03 0. -1.
        -11    1    4    4    0    0  0.58213489872E+00 -0.26276833317E+01 -0.14831855224E+02  0.15074068143E+02  0.51100000000E-03 0.  1.
         12    1    4    4    0    0 -0.52859372206E+01  0.29943451182E+01 -0.12609368090E+02  0.13996549525E+02  0.00000000000E+00 0. -1.
</event>
<event>
 8    1  0.3776180E-010  0.9118800E+02  0.7816164E-02  0.1184000E+00
        -11   -1    0    0    0    0  0.00000000000E+00  0.00000000000E+00  0.45593999997E+02  0.45594000000E+02  0.51100000000E-03 0. -1.
         11   -1    0    0    0    0 -0.00000000000E+00 -0.00000000000E+00 -0.45593999997E+02  0.45594000000E+02  0.51100000000E-03 0.  1.
         23    2    1    2    0    0  0.00000000000E+00  0.00000000000E+00  0.71054273576E-14  0.91188000000E+02  0.91188000000E+02 0.  0.
    9900012    2    3    3    0    0 -0.16561642070E+02  0.17935178497E+02  0.35884044415E+02  0.47787271212E+02  0.20000000764E+02 0.  0.
        -12    1    3    3    0    0  0.16561642070E+02 -0.17935178497E+02 -0.35884044415E+02  0.43400728788E+02  0.00000000000E+00 0.  1.
         11    1    4    4    0    0 -0.47756951960E+01  0.33716523219E+01  0.23416711212E+02  0.24135402798E+02  0.51100000000E-03 0. -1.
        -11    1    4    4    0    0 -0.57111635554E+01  0.80763832159E+01  0.10734540959E+02  0.14597113580E+02  0.51100000000E-03 0.  1.
        -12    1    4    4    0    0 -0.60747833187E+01  0.64871429590E+01  0.17327922435E+01  0.90547548337E+01  0.00000000000E+00 0.  1.
</event>
<event>
 8    1  0.3776180E-010  0.9118800E+02  0.7816164E-02  0.1184000E+00
        -11   -1    0    0    0    0  0.00000000000E+00  0.00000000000E+00  0.45593999997E+02  0.45594000000E+02  0.51100000000E-03 0. -1.
         11   -1    0    0    0    0 -0.00000000000E+00 -0.00000000000E+00 -0.45593999997E+02  0.45594000000E+02  0.51100000000E-03 0.  1.
         23    2    1    2    0    0  0.00000000000E+00  0.00000000000E+00  0.35527136788E-14  0.91188000000E+02  0.91188000000E+02 0.  0.
    9900012    2    3    3    0    0  0.11886874282E+02  0.38092616759E+02 -0.17066867291E+02  0.47787272001E+02  0.20000004360E+02 0.  0.
         12    1    3    3    0    0 -0.11886874282E+02 -0.38092616759E+02  0.17066867291E+02  0.43400727999E+02  0.00000000000E+00 0. -1.
         11    1    4    4    0    0 -0.20612926503E+01  0.21406884223E+00 -0.81771379627E+00  0.22278709507E+01  0.51100000000E-03 0. -1.
        -11    1    4    4    0    0 -0.12587556509E+01  0.11437889936E+02 -0.78256865400E+01  0.13915860090E+02  0.51100000000E-03 0.  1.
         12    1    4    4    0    0  0.15206922583E+02  0.26440657981E+02 -0.84234669544E+01  0.31643540960E+02  0.00000000000E+00 0. -1.
</event>
<event>
 8    1  0.3776180E-010  0.9118800E+02  0.7816164E-02  0.1184000E+00
        -11   -1    0    0    0    0  0.00000000000E+00  0.00000000000E+00  0.45593999997E+02  0.45594000000E+02  0.51100000000E-03 0. -1.
         11   -1    0    0    0    0 -0.00000000000E+00 -0.00000000000E+00 -0.45593999997E+02  0.45594000000E+02  0.51100000000E-03 0.  1.
         23    2    1    2    0    0  0.00000000000E+00 -0.35527136788E-14 -0.71054273576E-14  0.91188000000E+02  0.91188000000E+02 0.  0.
    9900012    2    3    3    0    0  0.15125059136E+02 -0.16067313446E+02 -0.37372416948E+02  0.47787268166E+02  0.19999986875E+02 0.  0.
         12    1    3    3    0    0 -0.15125059136E+02  0.16067313446E+02  0.37372416948E+02  0.43400731834E+02  0.00000000000E+00 0. -1.
         11    1    4    4    0    0  0.30645841286E+01 -0.45816394756E+01 -0.17102898552E+02  0.17969202411E+02  0.51100000000E-03 0. -1.
        -11    1    4    4    0    0  0.13764069634E+02 -0.11519044057E+02 -0.21278942776E+02  0.27837589601E+02  0.51100000000E-03 0.  1.
        -12    1    4    4    0    0 -0.17035946263E+01  0.33370086926E-01  0.10094243802E+01  0.19804761531E+01  0.00000000000E+00 0.  1.
</event>
<event>
 8    1  0.3776180E-010  0.9118800E+02  0.7816164E-02  0.1184000E+00
        -11   -1    0    0    0    0  0.00000000000E+00  0.00000000000E+00  0.45593999997E+02  0.45594000000E+02  0.51100000000E-03 0. -1.
         11   -1    0    0    0    0 -0.00000000000E+00 -0.00000000000E+00 -0.45593999997E+02  0.45594000000E+02  0.51100000000E-03 0.  1.
         23    2    1    2    0    0  0.00000000000E+00  0.00000000000E+00  0.00000000000E+00  0.91188000000E+02  0.91188000000E+02 0.  0.
    9900012    2    3    3    0    0 -0.16304854790E+02  0.29224707015E+02  0.27635004192E+02  0.47787248318E+02  0.19999896383E+02 0.  0.
        -12    1    3    3    0    0  0.16304854790E+02 -0.29224707015E+02 -0.27635004192E+02  0.43400751682E+02  0.00000000000E+00 0.  1.
         11    1    4    4    0    0 -0.58285762279E+01  0.36305860920E+01  0.28897902251E+01  0.74501237589E+01  0.51100000000E-03 0. -1.
        -11    1    4    4    0    0 -0.26907106493E+01 -0.17816676030E+01  0.38809303971E+01  0.50473640897E+01  0.51100000000E-03 0.  1.
         12    1    4    4    0    0 -0.77855679131E+01  0.27375788526E+02  0.20864283569E+02  0.35289760470E+02  0.00000000000E+00 0. -1.
</event>
<event>
 8    1  0.3776180E-010  0.9118800E+02  0.7816164E-02  0.1184000E+00
        -11   -1    0    0    0    0  0.00000000000E+00  0.00000000000E+00  0.45593999997E+02  0.45594000000E+02  0.51100000000E-03 0. -1.
         11   -1    0    0    0    0 -0.00000000000E+00 -0.00000000000E+00 -0.45593999997E+02  0.45594000000E+02  0.51100000000E-03 0.  1.
         23    2    1    2    0    0  0.88817841970E-15  0.00000000000E+00 -0.35527136788E-14  0.91188000000E+02  0.91188000000E+02 0.  0.
    9900012    2    3    3    0    0 -0.38562968876E+01 -0.34117798043E+02  0.26546716926E+02  0.47787270184E+02  0.19999996076E+02 0.  0.
        -12    1    3    3    0    0  0.38562968876E+01  0.34117798043E+02 -0.26546716926E+02  0.43400729816E+02  0.00000000000E+00 0.  1.
         11    1    4    4    0    0 -0.37402133608E+00 -0.21777524155E+02  0.14665317536E+02  0.26257798632E+02  0.51100000000E-03 0. -1.
        -11    1    4    4    0    0  0.10544289040E+00 -0.11027660921E+02  0.13455627783E+02  0.17397538415E+02  0.51100000000E-03 0.  1.
        -12    1    4    4    0    0 -0.35877184419E+01 -0.13126129671E+01 -0.15742283929E+01  0.41319331375E+01  0.00000000000E+00 0.  1.
</event>
<event>
 8    1  0.3776180E-010  0.9118800E+02  0.7816164E-02  0.1184000E+00
        -11   -1    0    0    0    0  0.00000000000E+00  0.00000000000E+00  0.45593999997E+02  0.45594000000E+02  0.51100000000E-03 0. -1.
         11   -1    0    0    0    0 -0.00000000000E+00 -0.00000000000E+00 -0.45593999997E+02  0.45594000000E+02  0.51100000000E-03 0.  1.
         23    2    1    2    0    0  0.00000000000E+00  0.00000000000E+00  0.00000000000E+00  0.91188000000E+02  0.91188000000E+02 0.  0.
    9900012    2    3    3    0    0 -0.82874923283E+01  0.22590792963E+02 -0.36119199477E+02  0.47787273892E+02  0.20000012985E+02 0.  0.
         12    1    3    3    0    0  0.82874923283E+01 -0.22590792963E+02  0.36119199477E+02  0.43400726108E+02  0.00000000000E+00 0. -1.
         11    1    4    4    0    0 -0.15932469658E+00  0.10317366034E+02 -0.40592741281E+01  0.11088333190E+02  0.51100000000E-03 0. -1.
        -11    1    4    4    0    0 -0.81878953041E+01  0.82108571207E+01 -0.13955986854E+02  0.18144678930E+02  0.51100000000E-03 0.  1.
        -12    1    4    4    0    0  0.59727672315E-01  0.40625698086E+01 -0.18103938496E+02  0.18554261772E+02  0.00000000000E+00 0.  1.
</event>
<event>
 8    1  0.3776180E-010  0.9118800E+02  0.7816164E-02  0.1184000E+00
        -11   -1    0    0    0    0  0.00000000000E+00  0.00000000000E+00  0.45593999997E+02  0.45594000000E+02  0.51100000000E-03 0. -1.
         11   -1    0    0    0    0 -0.00000000000E+00 -0.00000000000E+00 -0.45593999997E+02  0.45594000000E+02  0.51100000000E-03 0.  1.
         23    2    1    2    0    0  0.35527136788E-14 -0.35527136788E-14 -0.44408920985E-15  0.91188000000E+02  0.91188000000E+02 0.  0.
    9900012    2    3    3    0    0  0.30442964411E+02 -0.30819025134E+02 -0.26527086783E+01  0.47787271254E+02  0.20000000957E+02 0.  0.
         12    1    3    3    0    0 -0.30442964411E+02  0.30819025134E+02  0.26527086783E+01  0.43400728746E+02  0.00000000000E+00 0. -1.
         11    1    4    4    0    0  0.13001575582E+02 -0.16780911560E+02 -0.12309301785E+01  0.21263940128E+02  0.51100000000E-03 0. -1.
        -11    1    4    4    0    0  0.17602793273E+02 -0.95628759040E+01 -0.51638625180E+01  0.20687493878E+02  0.51100000000E-03 0.  1.
         12    1    4    4    0    0 -0.16140444414E+00 -0.44752376698E+01  0.37420840183E+01  0.58358372489E+01  0.00000000000E+00 0. -1.
</event>
<event>
 8    1  0.3776180E-010  0.9118800E+02  0.7816164E-02  0.1184000E+00
        -11   -1    0    0    0    0  0.00000000000E+00  0.00000000000E+00  0.45593999997E+02  0.45594000000E+02  0.51100000000E-03 0. -1.
         11   -1    0    0    0    0 -0.00000000000E+00 -0.00000000000E+00 -0.45593999997E+02  0.45594000000E+02  0.51100000000E-03 0.  1.
         23    2    1    2    0    0 -0.35527136788E-14 -0.88817841970E-15  0.00000000000E+00  0.91188000000E+02  0.91188000000E+02 0.  0.
    9900012    2    3    3    0    0 -0.22291265606E+02 -0.40572962731E+01 -0.37017052188E+02  0.47787258899E+02  0.19999944625E+02 0.  0.
         12    1    3    3    0    0  0.22291265606E+02  0.40572962731E+01  0.37017052188E+02  0.43400741101E+02  0.00000000000E+00 0. -1.
         11    1    4    4    0    0 -0.54520439562E+01  0.20325956363E+01 -0.13258786735E+02  0.14479352688E+02  0.51100000000E-03 0. -1.
        -11    1    4    4    0    0 -0.50457904871E+01 -0.78731389086E+01 -0.17491598940E+02  0.19834372983E+02  0.51100000000E-03 0.  1.
         12    1    4    4    0    0 -0.11793431163E+02  0.17832469991E+01 -0.62666665140E+01  0.13473533228E+02  0.00000000000E+00 0. -1.
</event>
<event>
 8    1  0.3776180E-010  0.9118800E+02  0.7816164E-02  0.1184000E+00
        -11   -1    0    0    0    0  0.00000000000E+00  0.00000000000E+00  0.45593999997E+02  0.45594000000E+02  0.51100000000E-03 0.  1.
         11   -1    0    0    0    0 -0.00000000000E+00 -0.00000000000E+00 -0.45593999997E+02  0.45594000000E+02  0.51100000000E-03 0. -1.
         23    2    1    2    0    0 -0.17763568394E-14 -0.71054273576E-14  0.17763568394E-14  0.91188000000E+02  0.91188000000E+02 0.  0.
    9900012    2    3    3    0    0 -0.10628940834E+02 -0.41671644940E+02  0.58414231811E+01  0.47787278807E+02  0.20000035392E+02 0.  0.
         12    1    3    3    0    0  0.10628940834E+02  0.41671644940E+02 -0.58414231811E+01  0.43400721193E+02  0.00000000000E+00 0. -1.
         11    1    4    4    0    0  0.15846317370E+01 -0.27435246126E+01  0.21569455465E+00  0.31756116645E+01  0.51100000000E-03 0. -1.
        -11    1    4    4    0    0 -0.14492803338E+02 -0.33763333272E+02  0.92680768777E+01  0.37893287947E+02  0.51100000000E-03 0.  1.
        -12    1    4    4    0    0  0.22792307664E+01 -0.51647870562E+01 -0.36423482513E+01  0.67183791949E+01  0.00000000000E+00 0.  1.
</event>
<event>
 8    1  0.3776180E-010  0.9118800E+02  0.7816164E-02  0.1184000E+00
        -11   -1    0    0    0    0  0.00000000000E+00  0.00000000000E+00  0.45593999997E+02  0.45594000000E+02  0.51100000000E-03 0. -1.
         11   -1    0    0    0    0 -0.00000000000E+00 -0.00000000000E+00 -0.45593999997E+02  0.45594000000E+02  0.51100000000E-03 0.  1.
         23    2    1    2    0    0  0.00000000000E+00  0.00000000000E+00  0.33306690739E-15  0.91188000000E+02  0.91188000000E+02 0.  0.
    9900012    2    3    3    0    0  0.39729962836E+02  0.17457128537E+02 -0.63381741045E+00  0.47787274105E+02  0.20000013953E+02 0.  0.
        -12    1    3    3    0    0 -0.39729962836E+02 -0.17457128537E+02  0.63381741045E+00  0.43400725895E+02  0.00000000000E+00 0.  1.
         11    1    4    4    0    0  0.14506336482E+01 -0.30342516574E+01 -0.13851964266E+01  0.36372778974E+01  0.51100000000E-03 0.  1.
        -11    1    4    4    0    0  0.21755976715E+02  0.76261163773E+01 -0.14134432329E+01  0.23097142591E+02  0.51100000000E-03 0. -1.
        -12    1    4    4    0    0  0.16523352473E+02  0.12865263817E+02  0.21648222490E+01  0.21052853617E+02  0.00000000000E+00 0.  1.
</event>
<event>
 8    1  0.3776180E-010  0.9118800E+02  0.7816164E-02  0.1184000E+00
        -11   -1    0    0    0    0  0.00000000000E+00  0.00000000000E+00  0.45593999997E+02  0.45594000000E+02  0.51100000000E-03 0.  1.
         11   -1    0    0    0    0 -0.00000000000E+00 -0.00000000000E+00 -0.45593999997E+02  0.45594000000E+02  0.51100000000E-03 0. -1.
         23    2    1    2    0    0  0.00000000000E+00  0.00000000000E+00 -0.44408920985E-15  0.91188000000E+02  0.91188000000E+02 0.  0.
    9900012    2    3    3    0    0 -0.52347728266E+01  0.43011305001E+02  0.24996425268E+01  0.47787269394E+02  0.19999992473E+02 0.  0.
         12    1    3    3    0    0  0.52347728266E+01 -0.43011305001E+02 -0.24996425268E+01  0.43400730606E+02  0.00000000000E+00 0. -1.
         11    1    4    4    0    0  0.30516340854E+00  0.15953501085E+02  0.62239540344E+01  0.17127315192E+02  0.51100000000E-03 0.  1.
        -11    1    4    4    0    0  0.20813961048E+01  0.19343919211E+02 -0.37625195698E+01  0.19816053440E+02  0.51100000000E-03 0. -1.
         12    1    4    4    0    0 -0.76213323400E+01  0.77138847045E+01  0.38208062232E-01  0.10843900762E+02  0.00000000000E+00 0. -1.
</event>
<event>
 8    1  0.3776180E-010  0.9118800E+02  0.7816164E-02  0.1184000E+00
        -11   -1    0    0    0    0  0.00000000000E+00  0.00000000000E+00  0.45593999997E+02  0.45594000000E+02  0.51100000000E-03 0. -1.
         11   -1    0    0    0    0 -0.00000000000E+00 -0.00000000000E+00 -0.45593999997E+02  0.45594000000E+02  0.51100000000E-03 0.  1.
         23    2    1    2    0    0  0.17763568394E-14 -0.17763568394E-14  0.00000000000E+00  0.91188000000E+02  0.91188000000E+02 0.  0.
    9900012    2    3    3    0    0 -0.98590708088E+01  0.82136994997E+01 -0.41460308976E+02  0.47787270086E+02  0.19999995628E+02 0.  0.
         12    1    3    3    0    0  0.98590708088E+01 -0.82136994997E+01  0.41460308976E+02  0.43400729914E+02  0.00000000000E+00 0. -1.
         11    1    4    4    0    0  0.23287767050E+01  0.80179993820E+01 -0.25249452186E+02  0.26594103689E+02  0.51100000000E-03 0. -1.
        -11    1    4    4    0    0 -0.55157282091E+01 -0.87517843303E+00 -0.11987128128E+02  0.13224236689E+02  0.51100000000E-03 0.  1.
         12    1    4    4    0    0 -0.66721193047E+01  0.10708785507E+01 -0.42237286615E+01  0.79689297081E+01  0.00000000000E+00 0. -1.
</event>
<event>
 8    1  0.3776180E-010  0.9118800E+02  0.7816164E-02  0.1184000E+00
        -11   -1    0    0    0    0  0.00000000000E+00  0.00000000000E+00  0.45593999997E+02  0.45594000000E+02  0.51100000000E-03 0. -1.
         11   -1    0    0    0    0 -0.00000000000E+00 -0.00000000000E+00 -0.45593999997E+02  0.45594000000E+02  0.51100000000E-03 0.  1.
         23    2    1    2    0    0  0.00000000000E+00  0.00000000000E+00  0.35527136788E-14  0.91188000000E+02  0.91188000000E+02 0.  0.
    9900012    2    3    3    0    0 -0.36474102592E+02  0.21501891792E+02 -0.95358207406E+01  0.47787269733E+02  0.19999994021E+02 0.  0.
         12    1    3    3    0    0  0.36474102592E+02 -0.21501891792E+02  0.95358207406E+01  0.43400730267E+02  0.00000000000E+00 0. -1.
         11    1    4    4    0    0 -0.11008192929E+02  0.12831323081E+02 -0.36865313193E+01  0.17303574111E+02  0.51100000000E-03 0. -1.
        -11    1    4    4    0    0 -0.25989847337E+02  0.10066326956E+02 -0.68342370970E+01  0.28696862197E+02  0.51100000000E-03 0.  1.
         12    1    4    4    0    0  0.52393767491E+00 -0.13957582448E+01  0.98494767566E+00  0.17868334251E+01  0.00000000000E+00 0. -1.
</event>
<event>
 8    1  0.3776180E-010  0.9118800E+02  0.7816164E-02  0.1184000E+00
        -11   -1    0    0    0    0  0.00000000000E+00  0.00000000000E+00  0.45593999997E+02  0.45594000000E+02  0.51100000000E-03 0. -1.
         11   -1    0    0    0    0 -0.00000000000E+00 -0.00000000000E+00 -0.45593999997E+02  0.45594000000E+02  0.51100000000E-03 0.  1.
         23    2    1    2    0    0 -0.44408920985E-15  0.17763568394E-14  0.00000000000E+00  0.91188000000E+02  0.91188000000E+02 0.  0.
    9900012    2    3    3    0    0 -0.13182066126E+01 -0.15906543355E+02  0.40359230174E+02  0.47787271315E+02  0.20000001233E+02 0.  0.
        -12    1    3    3    0    0  0.13182066126E+01  0.15906543355E+02 -0.40359230174E+02  0.43400728685E+02  0.00000000000E+00 0.  1.
         11    1    4    4    0    0 -0.25488971384E+00 -0.10240210307E+02  0.23152508480E+02  0.25317296954E+02  0.51100000000E-03 0. -1.
        -11    1    4    4    0    0 -0.27200255687E+01  0.44318277688E+00  0.15730345513E+02  0.15969931756E+02  0.51100000000E-03 0.  1.
         12    1    4    4    0    0  0.16567086699E+01 -0.61095158249E+01  0.14763761807E+01  0.65000426044E+01  0.00000000000E+00 0. -1.
</event>
<event>
 8    1  0.3776180E-010  0.9118800E+02  0.7816164E-02  0.1184000E+00
        -11   -1    0    0    0    0  0.00000000000E+00  0.00000000000E+00  0.45593999997E+02  0.45594000000E+02  0.51100000000E-03 0. -1.
         11   -1    0    0    0    0 -0.00000000000E+00 -0.00000000000E+00 -0.45593999997E+02  0.45594000000E+02  0.51100000000E-03 0.  1.
         23    2    1    2    0    0 -0.38857805862E-15  0.00000000000E+00  0.71054273576E-14  0.91188000000E+02  0.91188000000E+02 0.  0.
    9900012    2    3    3    0    0 -0.25108354313E+00 -0.13910382169E+01  0.43377703272E+02  0.47787272225E+02  0.20000005383E+02 0.  0.
        -12    1    3    3    0    0  0.25108354313E+00  0.13910382169E+01 -0.43377703272E+02  0.43400727775E+02  0.00000000000E+00 0.  1.
         11    1    4    4    0    0 -0.27525164445E+01  0.73790237048E+00  0.12803039015E+02  0.13116350673E+02  0.51100000000E-03 0. -1.
        -11    1    4    4    0    0 -0.65456094452E+01 -0.76186068535E+00  0.83543348373E+01  0.10640504948E+02  0.51100000000E-03 0.  1.
        -12    1    4    4    0    0  0.90470423465E+01 -0.13670799020E+01  0.22220329419E+02  0.24030416604E+02  0.00000000000E+00 0.  1.
</event>
<event>
 8    1  0.3776180E-010  0.9118800E+02  0.7816164E-02  0.1184000E+00
        -11   -1    0    0    0    0  0.00000000000E+00  0.00000000000E+00  0.45593999997E+02  0.45594000000E+02  0.51100000000E-03 0. -1.
         11   -1    0    0    0    0 -0.00000000000E+00 -0.00000000000E+00 -0.45593999997E+02  0.45594000000E+02  0.51100000000E-03 0.  1.
         23    2    1    2    0    0 -0.15543122345E-14  0.17763568394E-14  0.71054273576E-14  0.91188000000E+02  0.91188000000E+02 0.  0.
    9900012    2    3    3    0    0  0.15139265014E+01 -0.64104501151E+01 -0.42897983133E+02  0.47787276492E+02  0.20000024839E+02 0.  0.
         12    1    3    3    0    0 -0.15139265014E+01  0.64104501151E+01  0.42897983133E+02  0.43400723508E+02  0.00000000000E+00 0. -1.
         11    1    4    4    0    0  0.35319079115E+01 -0.65787198033E+00 -0.10985689572E+02  0.11558224114E+02  0.51100000000E-03 0.  1.
        -11    1    4    4    0    0  0.31731449075E+01 -0.98525406069E+01 -0.16805108022E+02  0.19737098594E+02  0.51100000000E-03 0. -1.
         12    1    4    4    0    0 -0.51911263176E+01  0.40999624721E+01 -0.15107185539E+02  0.16491953785E+02  0.00000000000E+00 0. -1.
</event>
<event>
 8    1  0.3776180E-010  0.9118800E+02  0.7816164E-02  0.1184000E+00
        -11   -1    0    0    0    0  0.00000000000E+00  0.00000000000E+00  0.45593999997E+02  0.45594000000E+02  0.51100000000E-03 0. -1.
         11   -1    0    0    0    0 -0.00000000000E+00 -0.00000000000E+00 -0.45593999997E+02  0.45594000000E+02  0.51100000000E-03 0.  1.
         23    2    1    2    0    0  0.00000000000E+00  0.00000000000E+00  0.00000000000E+00  0.91188000000E+02  0.91188000000E+02 0.  0.
    9900012    2    3    3    0    0  0.21723093072E+02  0.18531581253E+02  0.32685030838E+02  0.47787268240E+02  0.19999987215E+02 0.  0.
        -12    1    3    3    0    0 -0.21723093072E+02 -0.18531581253E+02 -0.32685030838E+02  0.43400731760E+02  0.00000000000E+00 0.  1.
         11    1    4    4    0    0  0.62959615611E+01  0.53219053520E+01  0.29230922866E+01  0.87467866861E+01  0.51100000000E-03 0. -1.
        -11    1    4    4    0    0  0.85227030438E-02 -0.25591777669E+01  0.89121629282E+00  0.27099317742E+01  0.51100000000E-03 0.  1.
        -12    1    4    4    0    0  0.15418608808E+02  0.15768853668E+02  0.28870722259E+02  0.36330549780E+02  0.00000000000E+00 0.  1.
</event>
<event>
 8    1  0.3776180E-010  0.9118800E+02  0.7816164E-02  0.1184000E+00
        -11   -1    0    0    0    0  0.00000000000E+00  0.00000000000E+00  0.45593999997E+02  0.45594000000E+02  0.51100000000E-03 0. -1.
         11   -1    0    0    0    0 -0.00000000000E+00 -0.00000000000E+00 -0.45593999997E+02  0.45594000000E+02  0.51100000000E-03 0.  1.
         23    2    1    2    0    0  0.00000000000E+00  0.00000000000E+00  0.17763568394E-14  0.91188000000E+02  0.91188000000E+02 0.  0.
    9900012    2    3    3    0    0  0.19484412424E+02  0.36518910898E+02 -0.13051826457E+02  0.47787270115E+02  0.19999995763E+02 0.  0.
         12    1    3    3    0    0 -0.19484412424E+02 -0.36518910898E+02  0.13051826457E+02  0.43400729885E+02  0.00000000000E+00 0. -1.
         11    1    4    4    0    0  0.93441878734E+01  0.65290543979E+01 -0.40689052542E+01  0.12103651869E+02  0.51100000000E-03 0.  1.
        -11    1    4    4    0    0  0.52376681751E+01  0.28975908642E+02 -0.67907392015E+01  0.30218381636E+02  0.51100000000E-03 0. -1.
         12    1    4    4    0    0  0.49025563756E+01  0.10139478579E+01 -0.21921820010E+01  0.54652366097E+01  0.00000000000E+00 0. -1.
</event>
<event>
 8    1  0.3776180E-010  0.9118800E+02  0.7816164E-02  0.1184000E+00
        -11   -1    0    0    0    0  0.00000000000E+00  0.00000000000E+00  0.45593999997E+02  0.45594000000E+02  0.51100000000E-03 0. -1.
         11   -1    0    0    0    0 -0.00000000000E+00 -0.00000000000E+00 -0.45593999997E+02  0.45594000000E+02  0.51100000000E-03 0.  1.
         23    2    1    2    0    0  0.71054273576E-14  0.00000000000E+00  0.00000000000E+00  0.91188000000E+02  0.91188000000E+02 0.  0.
    9900012    2    3    3    0    0 -0.30230199597E+02  0.97454356238E+01  0.29576758521E+02  0.47787272728E+02  0.20000007674E+02 0.  0.
        -12    1    3    3    0    0  0.30230199597E+02 -0.97454356238E+01 -0.29576758521E+02  0.43400727272E+02  0.00000000000E+00 0.  1.
         11    1    4    4    0    0 -0.18517088334E+02  0.24953300436E+01  0.55202128605E+01  0.19482863821E+02  0.51100000000E-03 0.  1.
        -11    1    4    4    0    0 -0.22053309962E+01 -0.75713391982E+00  0.54484011219E+01  0.59263658022E+01  0.51100000000E-03 0. -1.
        -12    1    4    4    0    0 -0.95077802670E+01  0.80072395000E+01  0.18608144538E+02  0.22378043104E+02  0.00000000000E+00 0.  1.
</event>
<event>
 8    1  0.3776180E-010  0.9118800E+02  0.7816164E-02  0.1184000E+00
        -11   -1    0    0    0    0  0.00000000000E+00  0.00000000000E+00  0.45593999997E+02  0.45594000000E+02  0.51100000000E-03 0. -1.
         11   -1    0    0    0    0 -0.00000000000E+00 -0.00000000000E+00 -0.45593999997E+02  0.45594000000E+02  0.51100000000E-03 0.  1.
         23    2    1    2    0    0  0.17763568394E-14 -0.17763568394E-14  0.00000000000E+00  0.91188000000E+02  0.91188000000E+02 0.  0.
    9900012    2    3    3    0    0 -0.66883694019E+01  0.13553990453E+02  0.40683887752E+02  0.47787266538E+02  0.19999979451E+02 0.  0.
        -12    1    3    3    0    0  0.66883694019E+01 -0.13553990453E+02 -0.40683887752E+02  0.43400733462E+02  0.00000000000E+00 0.  1.
         11    1    4    4    0    0 -0.11212632468E+02  0.10842884357E+02  0.15815338331E+02  0.22212973570E+02  0.51100000000E-03 0.  1.
        -11    1    4    4    0    0  0.32642682158E+00  0.14324384942E+01  0.43389451969E+01  0.45809256917E+01  0.51100000000E-03 0. -1.
        -12    1    4    4    0    0  0.41978362448E+01  0.12786676016E+01  0.20529604224E+02  0.20993367275E+02  0.00000000000E+00 0.  1.
</event>
<event>
 8    1  0.3776180E-010  0.9118800E+02  0.7816164E-02  0.1184000E+00
        -11   -1    0    0    0    0  0.00000000000E+00  0.00000000000E+00  0.45593999997E+02  0.45594000000E+02  0.51100000000E-03 0.  1.
         11   -1    0    0    0    0 -0.00000000000E+00 -0.00000000000E+00 -0.45593999997E+02  0.45594000000E+02  0.51100000000E-03 0. -1.
         23    2    1    2    0    0  0.00000000000E+00  0.00000000000E+00  0.17763568394E-14  0.91188000000E+02  0.91188000000E+02 0.  0.
    9900012    2    3    3    0    0  0.40885595810E+02  0.92171361157E+01  0.11271045633E+02  0.47787262534E+02  0.19999961197E+02 0.  0.
        -12    1    3    3    0    0 -0.40885595810E+02 -0.92171361157E+01 -0.11271045633E+02  0.43400737466E+02  0.00000000000E+00 0.  1.
         11    1    4    4    0    0  0.16842137868E+02  0.46658539927E+01 -0.28389082594E+01  0.17705569796E+02  0.51100000000E-03 0. -1.
        -11    1    4    4    0    0  0.44475437896E+01 -0.32009554226E+01  0.25216253333E+01  0.60320275166E+01  0.51100000000E-03 0.  1.
        -12    1    4    4    0    0  0.19595914153E+02  0.77522375455E+01  0.11588328559E+02  0.24049665221E+02  0.00000000000E+00 0.  1.
</event>
<event>
 8    1  0.3776180E-010  0.9118800E+02  0.7816164E-02  0.1184000E+00
        -11   -1    0    0    0    0  0.00000000000E+00  0.00000000000E+00  0.45593999997E+02  0.45594000000E+02  0.51100000000E-03 0.  1.
         11   -1    0    0    0    0 -0.00000000000E+00 -0.00000000000E+00 -0.45593999997E+02  0.45594000000E+02  0.51100000000E-03 0. -1.
         23    2    1    2    0    0  0.17763568394E-14  0.00000000000E+00 -0.17763568394E-14  0.91188000000E+02  0.91188000000E+02 0.  0.
    9900012    2    3    3    0    0  0.13835233251E+02  0.39741076747E+02 -0.10623385267E+02  0.47787272188E+02  0.20000005212E+02 0.  0.
         12    1    3    3    0    0 -0.13835233251E+02 -0.39741076747E+02  0.10623385267E+02  0.43400727812E+02  0.00000000000E+00 0. -1.
         11    1    4    4    0    0  0.29064153074E+01  0.49872762680E+01 -0.67644576637E+01  0.88925846781E+01  0.51100000000E-03 0. -1.
        -11    1    4    4    0    0 -0.24683309336E+01  0.10683699512E+02 -0.28475213493E+01  0.11328833610E+02  0.51100000000E-03 0.  1.
        -12    1    4    4    0    0  0.13397148878E+02  0.24070100967E+02 -0.10114062536E+01  0.27565853899E+02  0.00000000000E+00 0.  1.
</event>
<event>
 8    1  0.3776180E-010  0.9118800E+02  0.7816164E-02  0.1184000E+00
        -11   -1    0    0    0    0  0.00000000000E+00  0.00000000000E+00  0.45593999997E+02  0.45594000000E+02  0.51100000000E-03 0. -1.
         11   -1    0    0    0    0 -0.00000000000E+00 -0.00000000000E+00 -0.45593999997E+02  0.45594000000E+02  0.51100000000E-03 0.  1.
         23    2    1    2    0    0  0.00000000000E+00  0.00000000000E+00  0.00000000000E+00  0.91188000000E+02  0.91188000000E+02 0.  0.
    9900012    2    3    3    0    0  0.54242548525E+01  0.19740442913E+01 -0.43015157436E+02  0.47787272347E+02  0.20000005938E+02 0.  0.
         12    1    3    3    0    0 -0.54242548525E+01 -0.19740442913E+01  0.43015157436E+02  0.43400727653E+02  0.00000000000E+00 0. -1.
         11    1    4    4    0    0  0.33833920855E+01  0.50174742722E+01 -0.17758292132E+02  0.18761112169E+02  0.51100000000E-03 0. -1.
        -11    1    4    4    0    0  0.36117787359E+01  0.45838577241E+01 -0.15370723365E+02  0.16441284448E+02  0.51100000000E-03 0.  1.
         12    1    4    4    0    0 -0.15709159690E+01 -0.76272877051E+01 -0.98861419388E+01  0.12584875730E+02  0.00000000000E+00 0. -1.
</event>
<event>
 8    1  0.3776180E-010  0.9118800E+02  0.7816164E-02  0.1184000E+00
        -11   -1    0    0    0    0  0.00000000000E+00  0.00000000000E+00  0.45593999997E+02  0.45594000000E+02  0.51100000000E-03 0. -1.
         11   -1    0    0    0    0 -0.00000000000E+00 -0.00000000000E+00 -0.45593999997E+02  0.45594000000E+02  0.51100000000E-03 0.  1.
         23    2    1    2    0    0  0.00000000000E+00 -0.88817841970E-15  0.00000000000E+00  0.91188000000E+02  0.91188000000E+02 0.  0.
    9900012    2    3    3    0    0  0.52235092446E+01 -0.55435365799E+01 -0.42727127763E+02  0.47787270818E+02  0.19999998970E+02 0.  0.
         12    1    3    3    0    0 -0.52235092446E+01  0.55435365799E+01  0.42727127763E+02  0.43400729182E+02  0.00000000000E+00 0. -1.
         11    1    4    4    0    0  0.39969851907E+00  0.11727005679E+01 -0.13474092135E+02  0.13530932881E+02  0.51100000000E-03 0. -1.
        -11    1    4    4    0    0  0.35123314880E+01  0.37587075599E+01 -0.18441663438E+02  0.19145738576E+02  0.51100000000E-03 0.  1.
         12    1    4    4    0    0  0.13114792374E+01 -0.10474944708E+02 -0.10811372190E+02  0.15110599361E+02  0.00000000000E+00 0. -1.
</event>
<event>
 8    1  0.3776180E-010  0.9118800E+02  0.7816164E-02  0.1184000E+00
        -11   -1    0    0    0    0  0.00000000000E+00  0.00000000000E+00  0.45593999997E+02  0.45594000000E+02  0.51100000000E-03 0.  1.
         11   -1    0    0    0    0 -0.00000000000E+00 -0.00000000000E+00 -0.45593999997E+02  0.45594000000E+02  0.51100000000E-03 0. -1.
         23    2    1    2    0    0  0.00000000000E+00  0.00000000000E+00  0.88817841970E-15  0.91188000000E+02  0.91188000000E+02 0.  0.
    9900012    2    3    3    0    0  0.10947184581E+02  0.41699982957E+02  0.49893705259E+01  0.47787271353E+02  0.20000001405E+02 0.  0.
        -12    1    3    3    0    0 -0.10947184581E+02 -0.41699982957E+02 -0.49893705259E+01  0.43400728647E+02  0.00000000000E+00 0.  1.
         11    1    4    4    0    0  0.95365085615E+01  0.24402891370E+02 -0.56325963616E+01  0.26798735881E+02  0.51100000000E-03 0. -1.
        -11    1    4    4    0    0  0.50825961414E+00 -0.18096155836E+00  0.49726363822E-01  0.54180060294E+00  0.51100000000E-03 0.  1.
        -12    1    4    4    0    0  0.90241640580E+00  0.17478053145E+02  0.10572240524E+02  0.20446734869E+02  0.00000000000E+00 0.  1.
</event>
<event>
 8    1  0.3776180E-010  0.9118800E+02  0.7816164E-02  0.1184000E+00
        -11   -1    0    0    0    0  0.00000000000E+00  0.00000000000E+00  0.45593999997E+02  0.45594000000E+02  0.51100000000E-03 0. -1.
         11   -1    0    0    0    0 -0.00000000000E+00 -0.00000000000E+00 -0.45593999997E+02  0.45594000000E+02  0.51100000000E-03 0.  1.
         23    2    1    2    0    0 -0.11102230246E-14  0.00000000000E+00  0.00000000000E+00  0.91188000000E+02  0.91188000000E+02 0.  0.
    9900012    2    3    3    0    0 -0.53604867220E+00  0.83710811017E+01 -0.42582398490E+02  0.47787274106E+02  0.20000013959E+02 0.  0.
         12    1    3    3    0    0  0.53604867220E+00 -0.83710811017E+01  0.42582398490E+02  0.43400725894E+02  0.00000000000E+00 0. -1.
         11    1    4    4    0    0  0.23745233658E+01 -0.20283822732E+00 -0.95712712282E+00  0.25681894696E+01  0.51100000000E-03 0. -1.
        -11    1    4    4    0    0  0.62130291320E+01  0.27995860300E+01 -0.14407598321E+02  0.15937951643E+02  0.51100000000E-03 0.  1.
         12    1    4    4    0    0 -0.91236011700E+01  0.57743332991E+01 -0.27217673045E+02  0.29281132993E+02  0.00000000000E+00 0. -1.
</event>
<event>
 8    1  0.3776180E-010  0.9118800E+02  0.7816164E-02  0.1184000E+00
        -11   -1    0    0    0    0  0.00000000000E+00  0.00000000000E+00  0.45593999997E+02  0.45594000000E+02  0.51100000000E-03 0. -1.
         11   -1    0    0    0    0 -0.00000000000E+00 -0.00000000000E+00 -0.45593999997E+02  0.45594000000E+02  0.51100000000E-03 0.  1.
         23    2    1    2    0    0  0.88817841970E-15  0.35527136788E-14  0.71054273576E-14  0.91188000000E+02  0.91188000000E+02 0.  0.
    9900012    2    3    3    0    0 -0.54803978352E+01 -0.18726651493E+02 -0.38767267413E+02  0.47787271213E+02  0.20000000768E+02 0.  0.
         12    1    3    3    0    0  0.54803978352E+01  0.18726651493E+02  0.38767267413E+02  0.43400728787E+02  0.00000000000E+00 0. -1.
         11    1    4    4    0    0 -0.26390132965E+01 -0.47850779455E+00 -0.50401120816E+01  0.57092986386E+01  0.51100000000E-03 0. -1.
        -11    1    4    4    0    0 -0.52076358409E+01 -0.76595986259E+01 -0.28629291867E+02  0.30090285396E+02  0.51100000000E-03 0.  1.
         12    1    4    4    0    0  0.23662513022E+01 -0.10588545072E+02 -0.50978634643E+01  0.11987687178E+02  0.00000000000E+00 0. -1.
</event>
<event>
 8    1  0.3776180E-010  0.9118800E+02  0.7816164E-02  0.1184000E+00
        -11   -1    0    0    0    0  0.00000000000E+00  0.00000000000E+00  0.45593999997E+02  0.45594000000E+02  0.51100000000E-03 0. -1.
         11   -1    0    0    0    0 -0.00000000000E+00 -0.00000000000E+00 -0.45593999997E+02  0.45594000000E+02  0.51100000000E-03 0.  1.
         23    2    1    2    0    0  0.00000000000E+00  0.35527136788E-14  0.00000000000E+00  0.91188000000E+02  0.91188000000E+02 0.  0.
    9900012    2    3    3    0    0  0.28644692485E+02 -0.23114558250E+02  0.22996135577E+02  0.47787268875E+02  0.19999990111E+02 0.  0.
        -12    1    3    3    0    0 -0.28644692485E+02  0.23114558250E+02 -0.22996135577E+02  0.43400731125E+02  0.00000000000E+00 0.  1.
         11    1    4    4    0    0  0.81447476484E+01 -0.42098496954E+01  0.15535676941E+02  0.18039318363E+02  0.51100000000E-03 0. -1.
        -11    1    4    4    0    0  0.12812516628E+01 -0.47249565102E+01  0.87548924491E+00  0.49732586426E+01  0.51100000000E-03 0.  1.
         12    1    4    4    0    0  0.19218693174E+02 -0.14179752045E+02  0.65849693904E+01  0.24774691870E+02  0.00000000000E+00 0. -1.
</event>
<event>
 8    1  0.4237700E-010  0.9118800E+02  0.7816164E-02  0.1184000E+00
        -11   -1    0    0    0    0  0.00000000000E+00  0.00000000000E+00  0.45593999997E+02  0.45594000000E+02  0.51100000000E-03 0. -1.
         11   -1    0    0    0    0 -0.00000000000E+00 -0.00000000000E+00 -0.45593999997E+02  0.45594000000E+02  0.51100000000E-03 0.  1.
         23    2    1    2    0    0  0.00000000000E+00  0.00000000000E+00  0.00000000000E+00  0.91188000000E+02  0.91188000000E+02 0.  0.
    9900012    2    3    3    0    0 -0.14226067795E+02  0.88609224860E+01  0.40034067170E+02  0.47787268597E+02  0.19999988839E+02 0.  0.
        -12    1    3    3    0    0  0.14226067795E+02 -0.88609224860E+01 -0.40034067170E+02  0.43400731403E+02  0.00000000000E+00 0.  1.
         11    1    4    4    0    0 -0.15815791372E+02  0.51613272164E+01  0.29094049660E+02  0.33514806895E+02  0.51100000000E-03 0. -1.
        -11    1    4    4    0    0  0.89574844943E+00  0.29750978866E-01 -0.12415228024E+01  0.15312183173E+01  0.51100000000E-03 0.  1.
        -12    1    4    4    0    0  0.69397512715E+00  0.36698442907E+01  0.12181540312E+02  0.12741243384E+02  0.00000000000E+00 0.  1.
</event>
<event>
 8    1  0.3776180E-010  0.9118800E+02  0.7816164E-02  0.1184000E+00
        -11   -1    0    0    0    0  0.00000000000E+00  0.00000000000E+00  0.45593999997E+02  0.45594000000E+02  0.51100000000E-03 0. -1.
         11   -1    0    0    0    0 -0.00000000000E+00 -0.00000000000E+00 -0.45593999997E+02  0.45594000000E+02  0.51100000000E-03 0.  1.
         23    2    1    2    0    0  0.00000000000E+00  0.17763568394E-14  0.00000000000E+00  0.91188000000E+02  0.91188000000E+02 0.  0.
    9900012    2    3    3    0    0  0.34270154693E+02 -0.13638466680E+02  0.22872951240E+02  0.47787272189E+02  0.20000005220E+02 0.  0.
        -12    1    3    3    0    0 -0.34270154693E+02  0.13638466680E+02 -0.22872951240E+02  0.43400727811E+02  0.00000000000E+00 0.  1.
         11    1    4    4    0    0  0.65328529081E+01 -0.34947217717E+01  0.17168197162E+01  0.76051770248E+01  0.51100000000E-03 0. -1.
        -11    1    4    4    0    0  0.74763933678E+01 -0.43967140631E+01  0.16458936471E+02  0.18604411906E+02  0.51100000000E-03 0.  1.
        -12    1    4    4    0    0  0.20260908417E+02 -0.57470308452E+01  0.46971950522E+01  0.21577683258E+02  0.00000000000E+00 0.  1.
</event>
<event>
 8    1  0.3776180E-010  0.9118800E+02  0.7816164E-02  0.1184000E+00
        -11   -1    0    0    0    0  0.00000000000E+00  0.00000000000E+00  0.45593999997E+02  0.45594000000E+02  0.51100000000E-03 0. -1.
         11   -1    0    0    0    0 -0.00000000000E+00 -0.00000000000E+00 -0.45593999997E+02  0.45594000000E+02  0.51100000000E-03 0.  1.
         23    2    1    2    0    0  0.71054273576E-14  0.00000000000E+00  0.35527136788E-14  0.91188000000E+02  0.91188000000E+02 0.  0.
    9900012    2    3    3    0    0 -0.35451366750E+02  0.85673596843E+01 -0.23524969106E+02  0.47787271574E+02  0.20000002417E+02 0.  0.
         12    1    3    3    0    0  0.35451366750E+02 -0.85673596843E+01  0.23524969106E+02  0.43400728426E+02  0.00000000000E+00 0. -1.
         11    1    4    4    0    0 -0.64497375807E+01 -0.45660525900E+00 -0.84895767801E+00  0.65213750561E+01  0.51100000000E-03 0. -1.
        -11    1    4    4    0    0 -0.24254533321E+02  0.93151475691E+01 -0.10196776124E+02  0.27911083899E+02  0.51100000000E-03 0.  1.
         12    1    4    4    0    0 -0.47470958488E+01 -0.29118262587E+00 -0.12479235304E+02  0.13354812619E+02  0.00000000000E+00 0. -1.
</event>
<event>
 8    1  0.3776180E-010  0.9118800E+02  0.7816164E-02  0.1184000E+00
        -11   -1    0    0    0    0  0.00000000000E+00  0.00000000000E+00  0.45593999997E+02  0.45594000000E+02  0.51100000000E-03 0.  1.
         11   -1    0    0    0    0 -0.00000000000E+00 -0.00000000000E+00 -0.45593999997E+02  0.45594000000E+02  0.51100000000E-03 0. -1.
         23    2    1    2    0    0  0.35527136788E-14  0.00000000000E+00  0.00000000000E+00  0.91188000000E+02  0.91188000000E+02 0.  0.
    9900012    2    3    3    0    0  0.29246046591E+02 -0.27404317687E+02  0.16652189595E+02  0.47787270889E+02  0.19999999290E+02 0.  0.
        -12    1    3    3    0    0 -0.29246046591E+02  0.27404317687E+02 -0.16652189595E+02  0.43400729111E+02  0.00000000000E+00 0.  1.
         11    1    4    4    0    0  0.22257626322E+01  0.69778763704E+00  0.17966985304E+01  0.29443255173E+01  0.51100000000E-03 0. -1.
        -11    1    4    4    0    0  0.28469660913E+01 -0.10866025840E+02  0.94214695721E+01  0.14660826124E+02  0.51100000000E-03 0.  1.
         12    1    4    4    0    0  0.24173317867E+02 -0.17236079484E+02  0.54340214927E+01  0.30182119248E+02  0.00000000000E+00 0. -1.
</event>
<event>
 8    1  0.3776180E-010  0.9118800E+02  0.7816164E-02  0.1184000E+00
        -11   -1    0    0    0    0  0.00000000000E+00  0.00000000000E+00  0.45593999997E+02  0.45594000000E+02  0.51100000000E-03 0. -1.
         11   -1    0    0    0    0 -0.00000000000E+00 -0.00000000000E+00 -0.45593999997E+02  0.45594000000E+02  0.51100000000E-03 0.  1.
         23    2    1    2    0    0  0.77715611724E-15  0.00000000000E+00  0.00000000000E+00  0.91188000000E+02  0.91188000000E+02 0.  0.
    9900012    2    3    3    0    0 -0.35761591870E+00  0.17251990878E+02  0.39822852231E+02  0.47787324450E+02  0.20000243494E+02 0.  0.
        -12    1    3    3    0    0  0.35761591870E+00 -0.17251990878E+02 -0.39822852231E+02  0.43400675550E+02  0.00000000000E+00 0.  1.
         11    1    4    4    0    0  0.39811540465E+01  0.85572917600E+01  0.25813620479E+02  0.27484901897E+02  0.51100000000E-03 0. -1.
        -11    1    4    4    0    0  0.99014091568E+00  0.57749486035E+01  0.12841252633E+02  0.14114821283E+02  0.51100000000E-03 0.  1.
        -12    1    4    4    0    0 -0.53289108809E+01  0.29197505146E+01  0.11679791189E+01  0.61876012692E+01  0.00000000000E+00 0.  1.
</event>
<event>
 8    1  0.3776180E-010  0.9118800E+02  0.7816164E-02  0.1184000E+00
        -11   -1    0    0    0    0  0.00000000000E+00  0.00000000000E+00  0.45593999997E+02  0.45594000000E+02  0.51100000000E-03 0. -1.
         11   -1    0    0    0    0 -0.00000000000E+00 -0.00000000000E+00 -0.45593999997E+02  0.45594000000E+02  0.51100000000E-03 0.  1.
         23    2    1    2    0    0  0.35527136788E-14 -0.35527136788E-14  0.00000000000E+00  0.91188000000E+02  0.91188000000E+02 0.  0.
    9900012    2    3    3    0    0  0.29646966816E+02 -0.12368288340E+02  0.29183993186E+02  0.47787278161E+02  0.20000032447E+02 0.  0.
        -12    1    3    3    0    0 -0.29646966816E+02  0.12368288340E+02 -0.29183993186E+02  0.43400721839E+02  0.00000000000E+00 0.  1.
         11    1    4    4    0    0  0.23317657340E+01 -0.40377406607E+01  0.42233749776E+01  0.62910553601E+01  0.51100000000E-03 0. -1.
        -11    1    4    4    0    0  0.10421175211E+02 -0.68406173318E+01  0.15118400224E+01  0.12557093564E+02  0.51100000000E-03 0.  1.
         12    1    4    4    0    0  0.16894025871E+02 -0.14899303478E+01  0.23448778186E+02  0.28939129237E+02  0.00000000000E+00 0. -1.
</event>
<event>
 8    1  0.3776180E-010  0.9118800E+02  0.7816164E-02  0.1184000E+00
        -11   -1    0    0    0    0  0.00000000000E+00  0.00000000000E+00  0.45593999997E+02  0.45594000000E+02  0.51100000000E-03 0. -1.
         11   -1    0    0    0    0 -0.00000000000E+00 -0.00000000000E+00 -0.45593999997E+02  0.45594000000E+02  0.51100000000E-03 0.  1.
         23    2    1    2    0    0 -0.71054273576E-14  0.00000000000E+00 -0.17763568394E-14  0.91188000000E+02  0.91188000000E+02 0.  0.
    9900012    2    3    3    0    0 -0.30806247608E+02 -0.26671059732E+02 -0.14941669311E+02  0.47787264975E+02  0.19999972327E+02 0.  0.
         12    1    3    3    0    0  0.30806247608E+02  0.26671059732E+02  0.14941669311E+02  0.43400735025E+02  0.00000000000E+00 0. -1.
         11    1    4    4    0    0 -0.16324864076E+02 -0.98192646796E+01 -0.77795775459E+01  0.20577681429E+02  0.51100000000E-03 0.  1.
        -11    1    4    4    0    0 -0.16196787356E+02 -0.10691915667E+02 -0.31518533767E+01  0.19661819886E+02  0.51100000000E-03 0. -1.
        -12    1    4    4    0    0  0.17154038242E+01 -0.61598793858E+01 -0.40102383880E+01  0.75477636593E+01  0.00000000000E+00 0.  1.
</event>
<event>
 8    1  0.3776180E-010  0.9118800E+02  0.7816164E-02  0.1184000E+00
        -11   -1    0    0    0    0  0.00000000000E+00  0.00000000000E+00  0.45593999997E+02  0.45594000000E+02  0.51100000000E-03 0. -1.
         11   -1    0    0    0    0 -0.00000000000E+00 -0.00000000000E+00 -0.45593999997E+02  0.45594000000E+02  0.51100000000E-03 0.  1.
         23    2    1    2    0    0  0.17763568394E-14  0.00000000000E+00  0.71054273576E-14  0.91188000000E+02  0.91188000000E+02 0.  0.
    9900012    2    3    3    0    0  0.71666994168E+01 -0.20039747473E+02  0.37824207419E+02  0.47787265834E+02  0.19999976243E+02 0.  0.
        -12    1    3    3    0    0 -0.71666994168E+01  0.20039747473E+02 -0.37824207419E+02  0.43400734166E+02  0.00000000000E+00 0.  1.
         11    1    4    4    0    0  0.66613464459E+01 -0.32595679634E+01  0.10078302939E+02  0.12512813839E+02  0.51100000000E-03 0. -1.
        -11    1    4    4    0    0  0.38146129138E+00 -0.18437368803E+01  0.16423836225E+02  0.16531402694E+02  0.51100000000E-03 0.  1.
        -12    1    4    4    0    0  0.12389167948E+00 -0.14936442629E+02  0.11322068255E+02  0.18743049302E+02  0.00000000000E+00 0.  1.
</event>
<event>
 8    1  0.3776180E-010  0.9118800E+02  0.7816164E-02  0.1184000E+00
        -11   -1    0    0    0    0  0.00000000000E+00  0.00000000000E+00  0.45593999997E+02  0.45594000000E+02  0.51100000000E-03 0. -1.
         11   -1    0    0    0    0 -0.00000000000E+00 -0.00000000000E+00 -0.45593999997E+02  0.45594000000E+02  0.51100000000E-03 0.  1.
         23    2    1    2    0    0  0.00000000000E+00  0.88817841970E-15  0.00000000000E+00  0.91188000000E+02  0.91188000000E+02 0.  0.
    9900012    2    3    3    0    0 -0.33748730456E+02  0.79914396730E+01 -0.26091825631E+02  0.47787270972E+02  0.19999999668E+02 0.  0.
         12    1    3    3    0    0  0.33748730456E+02 -0.79914396730E+01  0.26091825631E+02  0.43400729028E+02  0.00000000000E+00 0. -1.
         11    1    4    4    0    0 -0.38731984355E+01  0.24156772275E+01 -0.17341116924E+00  0.45680667993E+01  0.51100000000E-03 0. -1.
        -11    1    4    4    0    0 -0.37054104896E+01  0.38218348266E+01 -0.12862695623E+02  0.13920683434E+02  0.51100000000E-03 0.  1.
        -12    1    4    4    0    0 -0.26170121531E+02  0.17539276190E+01 -0.13055718839E+02  0.29298520738E+02  0.00000000000E+00 0.  1.
</event>
<event>
 8    1  0.3776180E-010  0.9118800E+02  0.7816164E-02  0.1184000E+00
        -11   -1    0    0    0    0  0.00000000000E+00  0.00000000000E+00  0.45593999997E+02  0.45594000000E+02  0.51100000000E-03 0. -1.
         11   -1    0    0    0    0 -0.00000000000E+00 -0.00000000000E+00 -0.45593999997E+02  0.45594000000E+02  0.51100000000E-03 0.  1.
         23    2    1    2    0    0  0.00000000000E+00  0.71054273576E-14  0.35527136788E-14  0.91188000000E+02  0.91188000000E+02 0.  0.
    9900012    2    3    3    0    0 -0.87583047288E+01  0.32048345843E+02  0.27925263402E+02  0.47787254511E+02  0.19999924615E+02 0.  0.
        -12    1    3    3    0    0  0.87583047288E+01 -0.32048345843E+02 -0.27925263402E+02  0.43400745489E+02  0.00000000000E+00 0.  1.
         11    1    4    4    0    0 -0.14826048850E+01  0.81105458076E+01  0.87062026005E+01  0.11990706173E+02  0.51100000000E-03 0.  1.
        -11    1    4    4    0    0 -0.42172968111E+01  0.24138006710E+02  0.20983115920E+02  0.32260193960E+02  0.51100000000E-03 0. -1.
         12    1    4    4    0    0 -0.30584030326E+01 -0.20020667547E+00 -0.17640551188E+01  0.35363543778E+01  0.00000000000E+00 0. -1.
</event>
<event>
 8    1  0.3776180E-010  0.9118800E+02  0.7816164E-02  0.1184000E+00
        -11   -1    0    0    0    0  0.00000000000E+00  0.00000000000E+00  0.45593999997E+02  0.45594000000E+02  0.51100000000E-03 0. -1.
         11   -1    0    0    0    0 -0.00000000000E+00 -0.00000000000E+00 -0.45593999997E+02  0.45594000000E+02  0.51100000000E-03 0.  1.
         23    2    1    2    0    0  0.00000000000E+00  0.00000000000E+00  0.00000000000E+00  0.91188000000E+02  0.91188000000E+02 0.  0.
    9900012    2    3    3    0    0  0.34896342876E+02 -0.20821093978E+02 -0.15243051125E+02  0.47787270650E+02  0.19999998200E+02 0.  0.
         12    1    3    3    0    0 -0.34896342876E+02  0.20821093978E+02  0.15243051125E+02  0.43400729350E+02  0.00000000000E+00 0. -1.
         11    1    4    4    0    0  0.22453402764E+02 -0.84315194826E+01 -0.13740843090E+02  0.27641573500E+02  0.51100000000E-03 0. -1.
        -11    1    4    4    0    0  0.88900642629E+01 -0.22311289506E+01  0.58075931199E+00  0.91841418016E+01  0.51100000000E-03 0.  1.
         12    1    4    4    0    0  0.35528758488E+01 -0.10158445544E+02 -0.20829673464E+01  0.10961555348E+02  0.00000000000E+00 0. -1.
</event>
<event>
 8    1  0.3776180E-010  0.9118800E+02  0.7816164E-02  0.1184000E+00
        -11   -1    0    0    0    0  0.00000000000E+00  0.00000000000E+00  0.45593999997E+02  0.45594000000E+02  0.51100000000E-03 0. -1.
         11   -1    0    0    0    0 -0.00000000000E+00 -0.00000000000E+00 -0.45593999997E+02  0.45594000000E+02  0.51100000000E-03 0.  1.
         23    2    1    2    0    0  0.00000000000E+00  0.00000000000E+00  0.00000000000E+00  0.91188000000E+02  0.91188000000E+02 0.  0.
    9900012    2    3    3    0    0  0.27680166538E+02 -0.88286267817E+01 -0.32241076080E+02  0.47787271236E+02  0.20000000872E+02 0.  0.
         12    1    3    3    0    0 -0.27680166538E+02  0.88286267817E+01  0.32241076080E+02  0.43400728764E+02  0.00000000000E+00 0. -1.
         11    1    4    4    0    0  0.93098466005E+00 -0.40094802245E+01 -0.75494197895E+01  0.85986280026E+01  0.51100000000E-03 0. -1.
        -11    1    4    4    0    0  0.11339880998E+02 -0.87557340784E+01 -0.13952561607E+02  0.19998243822E+02  0.51100000000E-03 0.  1.
         12    1    4    4    0    0  0.15409300880E+02  0.39365875212E+01 -0.10739094684E+02  0.19190399411E+02  0.00000000000E+00 0. -1.
</event>
<event>
 8    1  0.3776180E-010  0.9118800E+02  0.7816164E-02  0.1184000E+00
        -11   -1    0    0    0    0  0.00000000000E+00  0.00000000000E+00  0.45593999997E+02  0.45594000000E+02  0.51100000000E-03 0. -1.
         11   -1    0    0    0    0 -0.00000000000E+00 -0.00000000000E+00 -0.45593999997E+02  0.45594000000E+02  0.51100000000E-03 0.  1.
         23    2    1    2    0    0  0.00000000000E+00 -0.88817841970E-15 -0.71054273576E-14  0.91188000000E+02  0.91188000000E+02 0.  0.
    9900012    2    3    3    0    0 -0.85914288917E+01  0.76298655128E+01  0.41852092407E+02  0.47787249581E+02  0.19999902138E+02 0.  0.
        -12    1    3    3    0    0  0.85914288917E+01 -0.76298655128E+01 -0.41852092407E+02  0.43400750419E+02  0.00000000000E+00 0.  1.
         11    1    4    4    0    0 -0.19618420589E+00 -0.45194418474E+01  0.60329132132E+01  0.75405493802E+01  0.51100000000E-03 0. -1.
        -11    1    4    4    0    0 -0.10063633964E+01 -0.20702854473E+01  0.52326049119E+01  0.57165552165E+01  0.51100000000E-03 0.  1.
        -12    1    4    4    0    0 -0.73888812894E+01  0.14219592808E+02  0.30586574282E+02  0.34530144984E+02  0.00000000000E+00 0.  1.
</event>
<event>
 8    1  0.3776180E-010  0.9118800E+02  0.7816164E-02  0.1184000E+00
        -11   -1    0    0    0    0  0.00000000000E+00  0.00000000000E+00  0.45593999997E+02  0.45594000000E+02  0.51100000000E-03 0. -1.
         11   -1    0    0    0    0 -0.00000000000E+00 -0.00000000000E+00 -0.45593999997E+02  0.45594000000E+02  0.51100000000E-03 0.  1.
         23    2    1    2    0    0  0.00000000000E+00 -0.17763568394E-14 -0.71054273576E-14  0.91188000000E+02  0.91188000000E+02 0.  0.
    9900012    2    3    3    0    0 -0.11902979501E+02 -0.11309850001E+02 -0.40174978989E+02  0.47787279213E+02  0.20000037244E+02 0.  0.
         12    1    3    3    0    0  0.11902979501E+02  0.11309850001E+02  0.40174978989E+02  0.43400720787E+02  0.00000000000E+00 0. -1.
         11    1    4    4    0    0 -0.74518589340E+01 -0.65593084392E+01 -0.14144201490E+02  0.17280427217E+02  0.51100000000E-03 0. -1.
        -11    1    4    4    0    0  0.10493271816E+01 -0.87947793381E+01 -0.17181063426E+02  0.19329722498E+02  0.51100000000E-03 0.  1.
         12    1    4    4    0    0 -0.55004477484E+01  0.40442377767E+01 -0.88497140739E+01  0.11177129498E+02  0.00000000000E+00 0. -1.
</event>
<event>
 8    1  0.3776180E-010  0.9118800E+02  0.7816164E-02  0.1184000E+00
        -11   -1    0    0    0    0  0.00000000000E+00  0.00000000000E+00  0.45593999997E+02  0.45594000000E+02  0.51100000000E-03 0. -1.
         11   -1    0    0    0    0 -0.00000000000E+00 -0.00000000000E+00 -0.45593999997E+02  0.45594000000E+02  0.51100000000E-03 0.  1.
         23    2    1    2    0    0 -0.88817841970E-15  0.00000000000E+00  0.00000000000E+00  0.91188000000E+02  0.91188000000E+02 0.  0.
    9900012    2    3    3    0    0  0.79856559157E+01 -0.11570790221E+02 -0.41060558192E+02  0.47787270446E+02  0.19999997272E+02 0.  0.
         12    1    3    3    0    0 -0.79856559157E+01  0.11570790221E+02  0.41060558192E+02  0.43400729554E+02  0.00000000000E+00 0. -1.
         11    1    4    4    0    0 -0.13264682785E+01  0.16325777946E+00  0.13728352779E+01  0.19159457607E+01  0.51100000000E-03 0.  1.
        -11    1    4    4    0    0  0.55248830266E+01 -0.70129611321E+01 -0.12674500625E+02  0.15503190725E+02  0.51100000000E-03 0. -1.
        -12    1    4    4    0    0  0.37872411677E+01 -0.47210868686E+01 -0.29758892845E+02  0.30368133961E+02  0.00000000000E+00 0.  1.
</event>
<event>
 8    1  0.3776180E-010  0.9118800E+02  0.7816164E-02  0.1184000E+00
        -11   -1    0    0    0    0  0.00000000000E+00  0.00000000000E+00  0.45593999997E+02  0.45594000000E+02  0.51100000000E-03 0. -1.
         11   -1    0    0    0    0 -0.00000000000E+00 -0.00000000000E+00 -0.45593999997E+02  0.45594000000E+02  0.51100000000E-03 0.  1.
         23    2    1    2    0    0  0.00000000000E+00  0.00000000000E+00 -0.71054273576E-14  0.91188000000E+02  0.91188000000E+02 0.  0.
    9900012    2    3    3    0    0  0.43821802236E+01  0.14333772351E+02  0.40730362430E+02  0.47787274695E+02  0.20000016644E+02 0.  0.
        -12    1    3    3    0    0 -0.43821802236E+01 -0.14333772351E+02 -0.40730362430E+02  0.43400725305E+02  0.00000000000E+00 0.  1.
         11    1    4    4    0    0 -0.20298301168E+00  0.10672932897E+02  0.10017659298E+02  0.14639200689E+02  0.51100000000E-03 0.  1.
        -11    1    4    4    0    0  0.19586279933E+01  0.72192965966E+01  0.23743293968E+02  0.24893743706E+02  0.51100000000E-03 0. -1.
        -12    1    4    4    0    0  0.26265352420E+01 -0.35584571431E+01  0.69694091634E+01  0.82543303001E+01  0.00000000000E+00 0.  1.
</event>
<event>
 8    1  0.3776180E-010  0.9118800E+02  0.7816164E-02  0.1184000E+00
        -11   -1    0    0    0    0  0.00000000000E+00  0.00000000000E+00  0.45593999997E+02  0.45594000000E+02  0.51100000000E-03 0. -1.
         11   -1    0    0    0    0 -0.00000000000E+00 -0.00000000000E+00 -0.45593999997E+02  0.45594000000E+02  0.51100000000E-03 0.  1.
         23    2    1    2    0    0  0.00000000000E+00  0.88817841970E-15  0.00000000000E+00  0.91188000000E+02  0.91188000000E+02 0.  0.
    9900012    2    3    3    0    0 -0.70591116554E+01 -0.53498403917E+01  0.42487309972E+02  0.47787270072E+02  0.19999995568E+02 0.  0.
        -12    1    3    3    0    0  0.70591116554E+01  0.53498403917E+01 -0.42487309972E+02  0.43400729928E+02  0.00000000000E+00 0.  1.
         11    1    4    4    0    0 -0.68588004509E+01 -0.68432224470E+01  0.90751335841E+01  0.13275198187E+02  0.51100000000E-03 0. -1.
        -11    1    4    4    0    0  0.19520173275E+01 -0.27924794197E+01  0.87911086716E+01  0.94282503623E+01  0.51100000000E-03 0.  1.
        -12    1    4    4    0    0 -0.21523285320E+01  0.42858614750E+01  0.24621067716E+02  0.25083821523E+02  0.00000000000E+00 0.  1.
</event>
<event>
 8    1  0.3776180E-010  0.9118800E+02  0.7816164E-02  0.1184000E+00
        -11   -1    0    0    0    0  0.00000000000E+00  0.00000000000E+00  0.45593999997E+02  0.45594000000E+02  0.51100000000E-03 0. -1.
         11   -1    0    0    0    0 -0.00000000000E+00 -0.00000000000E+00 -0.45593999997E+02  0.45594000000E+02  0.51100000000E-03 0.  1.
         23    2    1    2    0    0  0.00000000000E+00  0.00000000000E+00 -0.71054273576E-14  0.91188000000E+02  0.91188000000E+02 0.  0.
    9900012    2    3    3    0    0  0.18432728607E+02  0.21752321206E+02  0.32721419926E+02  0.47787305493E+02  0.20000157063E+02 0.  0.
        -12    1    3    3    0    0 -0.18432728607E+02 -0.21752321206E+02 -0.32721419926E+02  0.43400694507E+02  0.00000000000E+00 0.  1.
         11    1    4    4    0    0  0.63734174158E+01  0.62313057618E+00  0.10145607793E+02  0.11997587217E+02  0.51100000000E-03 0. -1.
        -11    1    4    4    0    0 -0.27341501628E+01  0.26831516404E+01  0.14968909198E+01  0.41128533314E+01  0.51100000000E-03 0.  1.
         12    1    4    4    0    0  0.14793461354E+02  0.18446038989E+02  0.21078921213E+02  0.31676864945E+02  0.00000000000E+00 0. -1.
</event>
<event>
 8    1  0.3776180E-010  0.9118800E+02  0.7816164E-02  0.1184000E+00
        -11   -1    0    0    0    0  0.00000000000E+00  0.00000000000E+00  0.45593999997E+02  0.45594000000E+02  0.51100000000E-03 0. -1.
         11   -1    0    0    0    0 -0.00000000000E+00 -0.00000000000E+00 -0.45593999997E+02  0.45594000000E+02  0.51100000000E-03 0.  1.
         23    2    1    2    0    0  0.00000000000E+00  0.00000000000E+00  0.00000000000E+00  0.91188000000E+02  0.91188000000E+02 0.  0.
    9900012    2    3    3    0    0 -0.23368830509E+02 -0.45227061113E+01  0.36291405501E+02  0.47787271629E+02  0.20000002666E+02 0.  0.
        -12    1    3    3    0    0  0.23368830509E+02  0.45227061113E+01 -0.36291405501E+02  0.43400728371E+02  0.00000000000E+00 0.  1.
         11    1    4    4    0    0 -0.10551962679E+02 -0.55440244516E+01  0.99186267740E+01  0.15506749526E+02  0.51100000000E-03 0. -1.
        -11    1    4    4    0    0  0.20111453818E+01 -0.21447996373E+01  0.19304304361E+01  0.35173048149E+01  0.51100000000E-03 0.  1.
        -12    1    4    4    0    0 -0.14828013211E+02  0.31661179776E+01  0.24442348290E+02  0.28763217289E+02  0.00000000000E+00 0.  1.
</event>
<event>
 8    1  0.3776180E-010  0.9118800E+02  0.7816164E-02  0.1184000E+00
        -11   -1    0    0    0    0  0.00000000000E+00  0.00000000000E+00  0.45593999997E+02  0.45594000000E+02  0.51100000000E-03 0.  1.
         11   -1    0    0    0    0 -0.00000000000E+00 -0.00000000000E+00 -0.45593999997E+02  0.45594000000E+02  0.51100000000E-03 0. -1.
         23    2    1    2    0    0  0.00000000000E+00 -0.71054273576E-14  0.35527136788E-14  0.91188000000E+02  0.91188000000E+02 0.  0.
    9900012    2    3    3    0    0 -0.25437668917E+02 -0.28447654739E+02  0.20670737005E+02  0.47787269264E+02  0.19999991883E+02 0.  0.
        -12    1    3    3    0    0  0.25437668917E+02  0.28447654739E+02 -0.20670737005E+02  0.43400730736E+02  0.00000000000E+00 0.  1.
         11    1    4    4    0    0 -0.10903602345E+02 -0.18289367242E+02  0.77149433987E+01  0.22647513111E+02  0.51100000000E-03 0. -1.
        -11    1    4    4    0    0  0.55594794277E+00 -0.16302236841E+01 -0.17155878943E+01  0.24310387614E+01  0.51100000000E-03 0.  1.
         12    1    4    4    0    0 -0.15090014514E+02 -0.85280638131E+01  0.14671381501E+02  0.22708717392E+02  0.00000000000E+00 0. -1.
</event>
<event>
 8    1  0.3776180E-010  0.9118800E+02  0.7816164E-02  0.1184000E+00
        -11   -1    0    0    0    0  0.00000000000E+00  0.00000000000E+00  0.45593999997E+02  0.45594000000E+02  0.51100000000E-03 0. -1.
         11   -1    0    0    0    0 -0.00000000000E+00 -0.00000000000E+00 -0.45593999997E+02  0.45594000000E+02  0.51100000000E-03 0.  1.
         23    2    1    2    0    0  0.00000000000E+00  0.35527136788E-14  0.00000000000E+00  0.91188000000E+02  0.91188000000E+02 0.  0.
    9900012    2    3    3    0    0  0.28514907267E+02 -0.30283087645E+02 -0.12387813726E+02  0.47787271173E+02  0.20000000588E+02 0.  0.
         12    1    3    3    0    0 -0.28514907267E+02  0.30283087645E+02  0.12387813726E+02  0.43400728827E+02  0.00000000000E+00 0. -1.
         11    1    4    4    0    0  0.18886974928E+02 -0.11133830329E+02 -0.27283033332E+01  0.22093520296E+02  0.51100000000E-03 0. -1.
        -11    1    4    4    0    0  0.11862657423E+02 -0.15511530728E+02 -0.76118823065E+01  0.20958792407E+02  0.51100000000E-03 0.  1.
         12    1    4    4    0    0 -0.22347250841E+01 -0.36377265885E+01 -0.20476280866E+01  0.47349584703E+01  0.00000000000E+00 0. -1.
</event>
<event>
 8    1  0.3776180E-010  0.9118800E+02  0.7816164E-02  0.1184000E+00
        -11   -1    0    0    0    0  0.00000000000E+00  0.00000000000E+00  0.45593999997E+02  0.45594000000E+02  0.51100000000E-03 0. -1.
         11   -1    0    0    0    0 -0.00000000000E+00 -0.00000000000E+00 -0.45593999997E+02  0.45594000000E+02  0.51100000000E-03 0.  1.
         23    2    1    2    0    0  0.88817841970E-15  0.00000000000E+00  0.00000000000E+00  0.91188000000E+02  0.91188000000E+02 0.  0.
    9900012    2    3    3    0    0 -0.43646485538E+01  0.15707661569E+02  0.40222412401E+02  0.47787271339E+02  0.20000001343E+02 0.  0.
        -12    1    3    3    0    0  0.43646485538E+01 -0.15707661569E+02 -0.40222412401E+02  0.43400728661E+02  0.00000000000E+00 0.  1.
         11    1    4    4    0    0  0.66984396148E+01  0.54584133271E+01  0.11724288198E+02  0.14564419087E+02  0.51100000000E-03 0.  1.
        -11    1    4    4    0    0 -0.26748235243E+01  0.38069372543E+01  0.27925496958E+01  0.54263971665E+01  0.51100000000E-03 0. -1.
        -12    1    4    4    0    0 -0.83882646443E+01  0.64423109872E+01  0.25705574507E+02  0.27796455086E+02  0.00000000000E+00 0.  1.
</event>
<event>
 8    1  0.3776180E-010  0.9118800E+02  0.7816164E-02  0.1184000E+00
        -11   -1    0    0    0    0  0.00000000000E+00  0.00000000000E+00  0.45593999997E+02  0.45594000000E+02  0.51100000000E-03 0. -1.
         11   -1    0    0    0    0 -0.00000000000E+00 -0.00000000000E+00 -0.45593999997E+02  0.45594000000E+02  0.51100000000E-03 0.  1.
         23    2    1    2    0    0  0.00000000000E+00 -0.66613381478E-15  0.00000000000E+00  0.91188000000E+02  0.91188000000E+02 0.  0.
    9900012    2    3    3    0    0  0.30181051032E+02  0.18292779938E+01 -0.31134890626E+02  0.47787268282E+02  0.19999987406E+02 0.  0.
         12    1    3    3    0    0 -0.30181051032E+02 -0.18292779938E+01  0.31134890626E+02  0.43400731718E+02  0.00000000000E+00 0. -1.
         11    1    4    4    0    0  0.62216324556E+01 -0.53894809850E+01 -0.33987418404E+01  0.89054287970E+01  0.51100000000E-03 0. -1.
        -11    1    4    4    0    0  0.17441866128E+02  0.11794579551E+01 -0.13446435962E+02  0.22054851064E+02  0.51100000000E-03 0.  1.
        -12    1    4    4    0    0  0.65175524483E+01  0.60393010237E+01 -0.14289712823E+02  0.16826988422E+02  0.00000000000E+00 0.  1.
</event>
<event>
 8    1  0.3776180E-010  0.9118800E+02  0.7816164E-02  0.1184000E+00
        -11   -1    0    0    0    0  0.00000000000E+00  0.00000000000E+00  0.45593999997E+02  0.45594000000E+02  0.51100000000E-03 0. -1.
         11   -1    0    0    0    0 -0.00000000000E+00 -0.00000000000E+00 -0.45593999997E+02  0.45594000000E+02  0.51100000000E-03 0.  1.
         23    2    1    2    0    0  0.00000000000E+00  0.00000000000E+00  0.00000000000E+00  0.91188000000E+02  0.91188000000E+02 0.  0.
    9900012    2    3    3    0    0 -0.35473660032E+02  0.23076657026E+02  0.96285827408E+01  0.47787282712E+02  0.20000053196E+02 0.  0.
        -12    1    3    3    0    0  0.35473660032E+02 -0.23076657026E+02 -0.96285827408E+01  0.43400717288E+02  0.00000000000E+00 0.  1.
         11    1    4    4    0    0 -0.97562730945E+01 -0.24322047349E+00  0.19345264475E+00  0.97612214953E+01  0.51100000000E-03 0.  1.
        -11    1    4    4    0    0 -0.50606369060E+01  0.12532868434E+02  0.40254838076E+01  0.14102742897E+02  0.51100000000E-03 0. -1.
         12    1    4    4    0    0 -0.20656750031E+02  0.10787009066E+02  0.54096462885E+01  0.23923318319E+02  0.00000000000E+00 0. -1.
</event>
<event>
 8    1  0.3776180E-010  0.9118800E+02  0.7816164E-02  0.1184000E+00
        -11   -1    0    0    0    0  0.00000000000E+00  0.00000000000E+00  0.45593999997E+02  0.45594000000E+02  0.51100000000E-03 0.  1.
         11   -1    0    0    0    0 -0.00000000000E+00 -0.00000000000E+00 -0.45593999997E+02  0.45594000000E+02  0.51100000000E-03 0. -1.
         23    2    1    2    0    0  0.00000000000E+00  0.00000000000E+00  0.00000000000E+00  0.91188000000E+02  0.91188000000E+02 0.  0.
    9900012    2    3    3    0    0  0.16186353927E+02 -0.26440228130E+02  0.30373337838E+02  0.47787269955E+02  0.19999995033E+02 0.  0.
        -12    1    3    3    0    0 -0.16186353927E+02  0.26440228130E+02 -0.30373337838E+02  0.43400730045E+02  0.00000000000E+00 0.  1.
         11    1    4    4    0    0 -0.40868588911E-01 -0.18908574428E+01  0.48648725635E+01  0.52195782810E+01  0.51100000000E-03 0.  1.
        -11    1    4    4    0    0  0.11362456139E+02 -0.10542327253E+02  0.32729718256E+01  0.15841667156E+02  0.51100000000E-03 0. -1.
         12    1    4    4    0    0  0.48647663770E+01 -0.14007043434E+02  0.22235493448E+02  0.26726024518E+02  0.00000000000E+00 0. -1.
</event>
<event>
 8    1  0.3776180E-010  0.9118800E+02  0.7816164E-02  0.1184000E+00
        -11   -1    0    0    0    0  0.00000000000E+00  0.00000000000E+00  0.45593999997E+02  0.45594000000E+02  0.51100000000E-03 0. -1.
         11   -1    0    0    0    0 -0.00000000000E+00 -0.00000000000E+00 -0.45593999997E+02  0.45594000000E+02  0.51100000000E-03 0.  1.
         23    2    1    2    0    0  0.00000000000E+00  0.17763568394E-14 -0.71054273576E-14  0.91188000000E+02  0.91188000000E+02 0.  0.
    9900012    2    3    3    0    0 -0.22475260696E+02  0.13797383222E+02 -0.34469099139E+02  0.47787263570E+02  0.19999965923E+02 0.  0.
         12    1    3    3    0    0  0.22475260696E+02 -0.13797383222E+02  0.34469099139E+02  0.43400736430E+02  0.00000000000E+00 0. -1.
         11    1    4    4    0    0 -0.42531056491E+01  0.29188767889E+01 -0.21800903754E+02  0.22402860400E+02  0.51100000000E-03 0. -1.
        -11    1    4    4    0    0 -0.70780702001E+01  0.49110681538E+01 -0.84255225166E+01  0.12050190791E+02  0.51100000000E-03 0.  1.
        -12    1    4    4    0    0 -0.11144084847E+02  0.59674382797E+01 -0.42426728692E+01  0.13334212379E+02  0.00000000000E+00 0.  1.
</event>
<event>
 8    1  0.3776180E-010  0.9118800E+02  0.7816164E-02  0.1184000E+00
        -11   -1    0    0    0    0  0.00000000000E+00  0.00000000000E+00  0.45593999997E+02  0.45594000000E+02  0.51100000000E-03 0. -1.
         11   -1    0    0    0    0 -0.00000000000E+00 -0.00000000000E+00 -0.45593999997E+02  0.45594000000E+02  0.51100000000E-03 0.  1.
         23    2    1    2    0    0  0.55511151231E-16  0.00000000000E+00  0.00000000000E+00  0.91188000000E+02  0.91188000000E+02 0.  0.
    9900012    2    3    3    0    0  0.19975543370E+00 -0.12318528524E+02  0.41615341510E+02  0.47787277699E+02  0.20000030341E+02 0.  0.
        -12    1    3    3    0    0 -0.19975543370E+00  0.12318528524E+02 -0.41615341510E+02  0.43400722301E+02  0.00000000000E+00 0.  1.
         11    1    4    4    0    0 -0.22016858064E+01  0.22870462790E+01  0.34530760019E+01  0.46906007301E+01  0.51100000000E-03 0.  1.
        -11    1    4    4    0    0 -0.33462516305E+01 -0.33615938702E+01  0.22415998690E+02  0.22912326613E+02  0.51100000000E-03 0. -1.
        -12    1    4    4    0    0  0.57476928706E+01 -0.11243980933E+02  0.15746266819E+02  0.20184350356E+02  0.00000000000E+00 0.  1.
</event>
<event>
 8    1  0.3776180E-010  0.9118800E+02  0.7816164E-02  0.1184000E+00
        -11   -1    0    0    0    0  0.00000000000E+00  0.00000000000E+00  0.45593999997E+02  0.45594000000E+02  0.51100000000E-03 0.  1.
         11   -1    0    0    0    0 -0.00000000000E+00 -0.00000000000E+00 -0.45593999997E+02  0.45594000000E+02  0.51100000000E-03 0. -1.
         23    2    1    2    0    0 -0.71054273576E-14 -0.35527136788E-14  0.00000000000E+00  0.91188000000E+02  0.91188000000E+02 0.  0.
    9900012    2    3    3    0    0  0.38971371190E+02  0.17517547727E+02  0.76151676694E+01  0.47787273861E+02  0.20000012841E+02 0.  0.
        -12    1    3    3    0    0 -0.38971371190E+02 -0.17517547727E+02 -0.76151676694E+01  0.43400726139E+02  0.00000000000E+00 0.  1.
         11    1    4    4    0    0  0.45269607231E+01  0.56519015586E+01  0.43958989084E+01  0.84712036978E+01  0.51100000000E-03 0. -1.
        -11    1    4    4    0    0  0.40834431040E+00 -0.16130266798E+01  0.21157811074E+01  0.26916779341E+01  0.51100000000E-03 0.  1.
         12    1    4    4    0    0  0.34036066156E+02  0.13478672848E+02  0.11034876537E+01  0.36624392229E+02  0.00000000000E+00 0. -1.
</event>
<event>
 8    1  0.3776180E-010  0.9118800E+02  0.7816164E-02  0.1184000E+00
        -11   -1    0    0    0    0  0.00000000000E+00  0.00000000000E+00  0.45593999997E+02  0.45594000000E+02  0.51100000000E-03 0. -1.
         11   -1    0    0    0    0 -0.00000000000E+00 -0.00000000000E+00 -0.45593999997E+02  0.45594000000E+02  0.51100000000E-03 0.  1.
         23    2    1    2    0    0  0.00000000000E+00  0.00000000000E+00  0.00000000000E+00  0.91188000000E+02  0.91188000000E+02 0.  0.
    9900012    2    3    3    0    0 -0.84234637035E+01  0.34382073650E+02  0.25110584203E+02  0.47787272262E+02  0.20000005550E+02 0.  0.
        -12    1    3    3    0    0  0.84234637035E+01 -0.34382073650E+02 -0.25110584203E+02  0.43400727738E+02  0.00000000000E+00 0.  1.
         11    1    4    4    0    0 -0.48483731078E+01  0.10282670311E+02  0.14283361173E+02  0.18255257795E+02  0.51100000000E-03 0. -1.
        -11    1    4    4    0    0  0.13527760101E+01 -0.10707264177E+01  0.91136737520E-01  0.17276470013E+01  0.51100000000E-03 0.  1.
         12    1    4    4    0    0 -0.49278666058E+01  0.25170129757E+02  0.10736086292E+02  0.27804367465E+02  0.00000000000E+00 0. -1.
</event>
<event>
 8    1  0.3776180E-010  0.9118800E+02  0.7816164E-02  0.1184000E+00
        -11   -1    0    0    0    0  0.00000000000E+00  0.00000000000E+00  0.45593999997E+02  0.45594000000E+02  0.51100000000E-03 0.  1.
         11   -1    0    0    0    0 -0.00000000000E+00 -0.00000000000E+00 -0.45593999997E+02  0.45594000000E+02  0.51100000000E-03 0. -1.
         23    2    1    2    0    0  0.00000000000E+00 -0.35527136788E-14 -0.35527136788E-14  0.91188000000E+02  0.91188000000E+02 0.  0.
    9900012    2    3    3    0    0  0.27297944758E+02 -0.19582366827E+02 -0.27476835029E+02  0.47787270262E+02  0.19999996434E+02 0.  0.
         12    1    3    3    0    0 -0.27297944758E+02  0.19582366827E+02  0.27476835029E+02  0.43400729738E+02  0.00000000000E+00 0. -1.
         11    1    4    4    0    0  0.17101178938E+02 -0.49687998252E+01 -0.16647602694E+02  0.24377899181E+02  0.51100000000E-03 0. -1.
        -11    1    4    4    0    0  0.40971529976E+01 -0.42451876659E+00  0.64460870750E+00  0.41692204926E+01  0.51100000000E-03 0.  1.
        -12    1    4    4    0    0  0.60996128225E+01 -0.14189048235E+02 -0.11473841042E+02  0.19240150588E+02  0.00000000000E+00 0.  1.
</event>
<event>
 8    1  0.3776180E-010  0.9118800E+02  0.7816164E-02  0.1184000E+00
        -11   -1    0    0    0    0  0.00000000000E+00  0.00000000000E+00  0.45593999997E+02  0.45594000000E+02  0.51100000000E-03 0. -1.
         11   -1    0    0    0    0 -0.00000000000E+00 -0.00000000000E+00 -0.45593999997E+02  0.45594000000E+02  0.51100000000E-03 0.  1.
         23    2    1    2    0    0  0.35527136788E-14  0.00000000000E+00  0.35527136788E-14  0.91188000000E+02  0.91188000000E+02 0.  0.
    9900012    2    3    3    0    0 -0.21149485856E+02 -0.25069216719E+02  0.28422823931E+02  0.47787270754E+02  0.19999998675E+02 0.  0.
        -12    1    3    3    0    0  0.21149485856E+02  0.25069216719E+02 -0.28422823931E+02  0.43400729246E+02  0.00000000000E+00 0.  1.
         11    1    4    4    0    0  0.25169138165E+01 -0.98727863659E+00  0.13768909610E+01  0.30340407455E+01  0.51100000000E-03 0. -1.
        -11    1    4    4    0    0 -0.84966222564E+01 -0.45188832197E+01  0.26152560045E+01  0.99725853996E+01  0.51100000000E-03 0.  1.
         12    1    4    4    0    0 -0.15169777416E+02 -0.19563054862E+02  0.24430676966E+02  0.34780644609E+02  0.00000000000E+00 0. -1.
</event>
<event>
 8    1  0.3776180E-010  0.9118800E+02  0.7816164E-02  0.1184000E+00
        -11   -1    0    0    0    0  0.00000000000E+00  0.00000000000E+00  0.45593999997E+02  0.45594000000E+02  0.51100000000E-03 0. -1.
         11   -1    0    0    0    0 -0.00000000000E+00 -0.00000000000E+00 -0.45593999997E+02  0.45594000000E+02  0.51100000000E-03 0.  1.
         23    2    1    2    0    0 -0.17763568394E-14  0.00000000000E+00  0.00000000000E+00  0.91188000000E+02  0.91188000000E+02 0.  0.
    9900012    2    3    3    0    0  0.99928143740E+01 -0.35533839089E+02 -0.22827892170E+02  0.47787277420E+02  0.20000029068E+02 0.  0.
         12    1    3    3    0    0 -0.99928143740E+01  0.35533839089E+02  0.22827892170E+02  0.43400722580E+02  0.00000000000E+00 0. -1.
         11    1    4    4    0    0  0.54398524581E+01 -0.55873950821E+01 -0.69263210359E+01  0.10430000092E+02  0.51100000000E-03 0. -1.
        -11    1    4    4    0    0  0.60131187601E+01 -0.22281930893E+02 -0.18010522421E+02  0.29274920319E+02  0.51100000000E-03 0.  1.
         12    1    4    4    0    0 -0.14601568442E+01 -0.76645131138E+01  0.21089512868E+01  0.80823570084E+01  0.00000000000E+00 0. -1.
</event>
<event>
 8    1  0.3776180E-010  0.9118800E+02  0.7816164E-02  0.1184000E+00
        -11   -1    0    0    0    0  0.00000000000E+00  0.00000000000E+00  0.45593999997E+02  0.45594000000E+02  0.51100000000E-03 0. -1.
         11   -1    0    0    0    0 -0.00000000000E+00 -0.00000000000E+00 -0.45593999997E+02  0.45594000000E+02  0.51100000000E-03 0.  1.
         23    2    1    2    0    0  0.00000000000E+00  0.00000000000E+00  0.00000000000E+00  0.91188000000E+02  0.91188000000E+02 0.  0.
    9900012    2    3    3    0    0 -0.12026051356E+02 -0.16621414230E+02  0.38245598001E+02  0.47787273178E+02  0.20000009729E+02 0.  0.
        -12    1    3    3    0    0  0.12026051356E+02  0.16621414230E+02 -0.38245598001E+02  0.43400726822E+02  0.00000000000E+00 0.  1.
         11    1    4    4    0    0 -0.10637297458E+01 -0.75524836457E+01  0.21569242977E+02  0.22878019430E+02  0.51100000000E-03 0. -1.
        -11    1    4    4    0    0 -0.54617338505E+00  0.11149912201E+01  0.76975887154E+01  0.77970752901E+01  0.51100000000E-03 0.  1.
        -12    1    4    4    0    0 -0.10416148225E+02 -0.10183921804E+02  0.89787663086E+01  0.17112178458E+02  0.00000000000E+00 0.  1.
</event>
<event>
 8    1  0.3776180E-010  0.9118800E+02  0.7816164E-02  0.1184000E+00
        -11   -1    0    0    0    0  0.00000000000E+00  0.00000000000E+00  0.45593999997E+02  0.45594000000E+02  0.51100000000E-03 0. -1.
         11   -1    0    0    0    0 -0.00000000000E+00 -0.00000000000E+00 -0.45593999997E+02  0.45594000000E+02  0.51100000000E-03 0.  1.
         23    2    1    2    0    0  0.00000000000E+00 -0.35527136788E-14  0.00000000000E+00  0.91188000000E+02  0.91188000000E+02 0.  0.
    9900012    2    3    3    0    0  0.84965366173E+01  0.18271079227E+02  0.38439561140E+02  0.47787270384E+02  0.19999996989E+02 0.  0.
        -12    1    3    3    0    0 -0.84965366173E+01 -0.18271079227E+02 -0.38439561140E+02  0.43400729616E+02  0.00000000000E+00 0.  1.
         11    1    4    4    0    0 -0.51364391260E+01  0.14651890432E+01  0.73796726113E+01  0.91098492819E+01  0.51100000000E-03 0. -1.
        -11    1    4    4    0    0  0.15073019394E+01  0.43281813650E+01  0.12126291669E+02  0.12963489614E+02  0.51100000000E-03 0.  1.
        -12    1    4    4    0    0  0.12125673804E+02  0.12477708819E+02  0.18933596859E+02  0.25713931488E+02  0.00000000000E+00 0.  1.
</event>
<event>
 8    1  0.3776180E-010  0.9118800E+02  0.7816164E-02  0.1184000E+00
        -11   -1    0    0    0    0  0.00000000000E+00  0.00000000000E+00  0.45593999997E+02  0.45594000000E+02  0.51100000000E-03 0. -1.
         11   -1    0    0    0    0 -0.00000000000E+00 -0.00000000000E+00 -0.45593999997E+02  0.45594000000E+02  0.51100000000E-03 0.  1.
         23    2    1    2    0    0  0.00000000000E+00  0.00000000000E+00  0.17763568394E-14  0.91188000000E+02  0.91188000000E+02 0.  0.
    9900012    2    3    3    0    0  0.39690695490E+02 -0.12640256559E+02 -0.12186026499E+02  0.47787232309E+02  0.19999823388E+02 0.  0.
         12    1    3    3    0    0 -0.39690695490E+02  0.12640256559E+02  0.12186026499E+02  0.43400767691E+02  0.00000000000E+00 0. -1.
         11    1    4    4    0    0  0.38092057741E+01 -0.62958985982E+00  0.94726980219E+00  0.39753933591E+01  0.51100000000E-03 0. -1.
        -11    1    4    4    0    0  0.21313251044E+02 -0.86627894854E+00 -0.13889269939E+02  0.25454212402E+02  0.51100000000E-03 0.  1.
         12    1    4    4    0    0  0.14568238672E+02 -0.11144387751E+02  0.75597363846E+00  0.18357626548E+02  0.00000000000E+00 0. -1.
</event>
<event>
 8    1  0.3776180E-010  0.9118800E+02  0.7816164E-02  0.1184000E+00
        -11   -1    0    0    0    0  0.00000000000E+00  0.00000000000E+00  0.45593999997E+02  0.45594000000E+02  0.51100000000E-03 0. -1.
         11   -1    0    0    0    0 -0.00000000000E+00 -0.00000000000E+00 -0.45593999997E+02  0.45594000000E+02  0.51100000000E-03 0.  1.
         23    2    1    2    0    0  0.35527136788E-14  0.00000000000E+00  0.00000000000E+00  0.91188000000E+02  0.91188000000E+02 0.  0.
    9900012    2    3    3    0    0  0.20551552438E+02  0.94944917455E+01 -0.37028523940E+02  0.47787271132E+02  0.20000000398E+02 0.  0.
         12    1    3    3    0    0 -0.20551552438E+02 -0.94944917455E+01  0.37028523940E+02  0.43400728868E+02  0.00000000000E+00 0. -1.
         11    1    4    4    0    0 -0.34327104415E-01  0.28195769135E+01 -0.34890535712E+01  0.44860547707E+01  0.51100000000E-03 0. -1.
        -11    1    4    4    0    0  0.22289127249E+02  0.93854279808E+01 -0.29441652273E+02  0.38101211801E+02  0.51100000000E-03 0.  1.
        -12    1    4    4    0    0 -0.17032477060E+01 -0.27105131488E+01 -0.40978180958E+01  0.52000045600E+01  0.00000000000E+00 0.  1.
</event>
<event>
 8    1  0.3776180E-010  0.9118800E+02  0.7816164E-02  0.1184000E+00
        -11   -1    0    0    0    0  0.00000000000E+00  0.00000000000E+00  0.45593999997E+02  0.45594000000E+02  0.51100000000E-03 0. -1.
         11   -1    0    0    0    0 -0.00000000000E+00 -0.00000000000E+00 -0.45593999997E+02  0.45594000000E+02  0.51100000000E-03 0.  1.
         23    2    1    2    0    0  0.71054273576E-14 -0.44408920985E-15  0.00000000000E+00  0.91188000000E+02  0.91188000000E+02 0.  0.
    9900012    2    3    3    0    0 -0.38173416627E+02  0.34823599885E+01 -0.20354035160E+02  0.47787270567E+02  0.19999997821E+02 0.  0.
         12    1    3    3    0    0  0.38173416627E+02 -0.34823599885E+01  0.20354035160E+02  0.43400729433E+02  0.00000000000E+00 0. -1.
         11    1    4    4    0    0 -0.12605557455E+02  0.40852936043E+01 -0.92799845342E-01  0.13251351427E+02  0.51100000000E-03 0. -1.
        -11    1    4    4    0    0 -0.25344076189E+01  0.12614509904E+01  0.11281418722E+01  0.30474882978E+01  0.51100000000E-03 0.  1.
        -12    1    4    4    0    0 -0.23033451553E+02 -0.18643846063E+01 -0.21389377187E+02  0.31488430841E+02  0.00000000000E+00 0.  1.
</event>
<event>
 8    1  0.3776180E-010  0.9118800E+02  0.7816164E-02  0.1184000E+00
        -11   -1    0    0    0    0  0.00000000000E+00  0.00000000000E+00  0.45593999997E+02  0.45594000000E+02  0.51100000000E-03 0. -1.
         11   -1    0    0    0    0 -0.00000000000E+00 -0.00000000000E+00 -0.45593999997E+02  0.45594000000E+02  0.51100000000E-03 0.  1.
         23    2    1    2    0    0 -0.88817841970E-15  0.35527136788E-14  0.71054273576E-14  0.91188000000E+02  0.91188000000E+02 0.  0.
    9900012    2    3    3    0    0  0.73223856552E+01 -0.19450389425E+02 -0.38101027304E+02  0.47787271181E+02  0.20000000621E+02 0.  0.
         12    1    3    3    0    0 -0.73223856552E+01  0.19450389425E+02  0.38101027304E+02  0.43400728819E+02  0.00000000000E+00 0. -1.
         11    1    4    4    0    0  0.10394372686E+01 -0.99205518688E+01 -0.24238881209E+02  0.26211088145E+02  0.51100000000E-03 0. -1.
        -11    1    4    4    0    0 -0.11065440619E+01  0.35861062390E+00 -0.76848406555E+01  0.77723752806E+01  0.51100000000E-03 0.  1.
         12    1    4    4    0    0  0.73894924486E+01 -0.98884481797E+01 -0.61773054396E+01  0.13803807755E+02  0.00000000000E+00 0. -1.
</event>
<event>
 8    1  0.3776180E-010  0.9118800E+02  0.7816164E-02  0.1184000E+00
        -11   -1    0    0    0    0  0.00000000000E+00  0.00000000000E+00  0.45593999997E+02  0.45594000000E+02  0.51100000000E-03 0. -1.
         11   -1    0    0    0    0 -0.00000000000E+00 -0.00000000000E+00 -0.45593999997E+02  0.45594000000E+02  0.51100000000E-03 0.  1.
         23    2    1    2    0    0  0.00000000000E+00  0.00000000000E+00  0.00000000000E+00  0.91188000000E+02  0.91188000000E+02 0.  0.
    9900012    2    3    3    0    0 -0.26641504204E+02  0.42682586545E+01  0.33994647891E+02  0.47787264252E+02  0.19999969030E+02 0.  0.
        -12    1    3    3    0    0  0.26641504204E+02 -0.42682586545E+01 -0.33994647891E+02  0.43400735748E+02  0.00000000000E+00 0.  1.
         11    1    4    4    0    0 -0.14280586720E+02  0.19035487084E+01  0.12820395451E+02  0.19285258477E+02  0.51100000000E-03 0. -1.
        -11    1    4    4    0    0 -0.68428917184E+01 -0.27710862590E+01  0.16385143021E+01  0.75623287090E+01  0.51100000000E-03 0.  1.
        -12    1    4    4    0    0 -0.55180257662E+01  0.51357962051E+01  0.19535738138E+02  0.20939677066E+02  0.00000000000E+00 0.  1.
</event>
<event>
 8    1  0.3776180E-010  0.9118800E+02  0.7816164E-02  0.1184000E+00
        -11   -1    0    0    0    0  0.00000000000E+00  0.00000000000E+00  0.45593999997E+02  0.45594000000E+02  0.51100000000E-03 0. -1.
         11   -1    0    0    0    0 -0.00000000000E+00 -0.00000000000E+00 -0.45593999997E+02  0.45594000000E+02  0.51100000000E-03 0.  1.
         23    2    1    2    0    0 -0.17763568394E-14  0.00000000000E+00  0.00000000000E+00  0.91188000000E+02  0.91188000000E+02 0.  0.
    9900012    2    3    3    0    0  0.43685834464E+01 -0.76686432912E+01 -0.42493897547E+02  0.47787263370E+02  0.19999965011E+02 0.  0.
         12    1    3    3    0    0 -0.43685834464E+01  0.76686432912E+01  0.42493897547E+02  0.43400736630E+02  0.00000000000E+00 0. -1.
         11    1    4    4    0    0 -0.66723345357E+01 -0.43800496157E+00 -0.71230541495E+01  0.97698412055E+01  0.51100000000E-03 0. -1.
        -11    1    4    4    0    0  0.77967868022E+00 -0.25321660916E+01 -0.65226902355E+01  0.70402593794E+01  0.51100000000E-03 0.  1.
        -12    1    4    4    0    0  0.10261239302E+02 -0.46984722380E+01 -0.28848153162E+02  0.30977162786E+02  0.00000000000E+00 0.  1.
</event>
<event>
 8    1  0.3776180E-010  0.9118800E+02  0.7816164E-02  0.1184000E+00
        -11   -1    0    0    0    0  0.00000000000E+00  0.00000000000E+00  0.45593999997E+02  0.45594000000E+02  0.51100000000E-03 0. -1.
         11   -1    0    0    0    0 -0.00000000000E+00 -0.00000000000E+00 -0.45593999997E+02  0.45594000000E+02  0.51100000000E-03 0.  1.
         23    2    1    2    0    0  0.00000000000E+00  0.00000000000E+00  0.00000000000E+00  0.91188000000E+02  0.91188000000E+02 0.  0.
    9900012    2    3    3    0    0  0.28833459511E+02 -0.12017228006E+02 -0.30130400956E+02  0.47787271687E+02  0.20000002930E+02 0.  0.
         12    1    3    3    0    0 -0.28833459511E+02  0.12017228006E+02  0.30130400956E+02  0.43400728313E+02  0.00000000000E+00 0. -1.
         11    1    4    4    0    0  0.84815407652E+01  0.20544059529E+01 -0.52711521335E+00  0.87427094359E+01  0.51100000000E-03 0. -1.
        -11    1    4    4    0    0  0.88241420779E+01 -0.26266691582E+01 -0.10265113143E+02  0.13789032685E+02  0.51100000000E-03 0.  1.
         12    1    4    4    0    0  0.11527776668E+02 -0.11444964800E+02 -0.19338172600E+02  0.25255529567E+02  0.00000000000E+00 0. -1.
</event>
<event>
 8    1  0.3776180E-010  0.9118800E+02  0.7816164E-02  0.1184000E+00
        -11   -1    0    0    0    0  0.00000000000E+00  0.00000000000E+00  0.45593999997E+02  0.45594000000E+02  0.51100000000E-03 0. -1.
         11   -1    0    0    0    0 -0.00000000000E+00 -0.00000000000E+00 -0.45593999997E+02  0.45594000000E+02  0.51100000000E-03 0.  1.
         23    2    1    2    0    0 -0.88817841970E-15  0.35527136788E-14  0.00000000000E+00  0.91188000000E+02  0.91188000000E+02 0.  0.
    9900012    2    3    3    0    0  0.55841923321E+01 -0.26570468624E+02 -0.33859270916E+02  0.47787271505E+02  0.20000002101E+02 0.  0.
         12    1    3    3    0    0 -0.55841923321E+01  0.26570468624E+02  0.33859270916E+02  0.43400728495E+02  0.00000000000E+00 0. -1.
         11    1    4    4    0    0 -0.12856660650E+01 -0.13640118726E+02 -0.17893712661E+02  0.22536431154E+02  0.51100000000E-03 0. -1.
        -11    1    4    4    0    0 -0.89410886829E-01 -0.65066882602E+01 -0.14195755579E+02  0.15616160320E+02  0.51100000000E-03 0.  1.
         12    1    4    4    0    0  0.69592692839E+01 -0.64236616375E+01 -0.17698026764E+01  0.96346800317E+01  0.00000000000E+00 0. -1.
</event>
<event>
 8    1  0.3776180E-010  0.9118800E+02  0.7816164E-02  0.1184000E+00
        -11   -1    0    0    0    0  0.00000000000E+00  0.00000000000E+00  0.45593999997E+02  0.45594000000E+02  0.51100000000E-03 0.  1.
         11   -1    0    0    0    0 -0.00000000000E+00 -0.00000000000E+00 -0.45593999997E+02  0.45594000000E+02  0.51100000000E-03 0. -1.
         23    2    1    2    0    0  0.35527136788E-14  0.71054273576E-14 -0.35527136788E-14  0.91188000000E+02  0.91188000000E+02 0.  0.
    9900012    2    3    3    0    0 -0.16689052977E+02 -0.35704893919E+02  0.18173034044E+02  0.47787272986E+02  0.20000008851E+02 0.  0.
        -12    1    3    3    0    0  0.16689052977E+02  0.35704893919E+02 -0.18173034044E+02  0.43400727014E+02  0.00000000000E+00 0.  1.
         11    1    4    4    0    0 -0.73200359126E+01 -0.16965622527E+02  0.90856929212E+01  0.20590412566E+02  0.51100000000E-03 0. -1.
        -11    1    4    4    0    0 -0.12115880591E+02 -0.11773939764E+02  0.22246863173E+01  0.17040230325E+02  0.51100000000E-03 0.  1.
         12    1    4    4    0    0  0.27468635265E+01 -0.69653316269E+01  0.68626548053E+01  0.10156630095E+02  0.00000000000E+00 0. -1.
</event>
<event>
 8    1  0.3776180E-010  0.9118800E+02  0.7816164E-02  0.1184000E+00
        -11   -1    0    0    0    0  0.00000000000E+00  0.00000000000E+00  0.45593999997E+02  0.45594000000E+02  0.51100000000E-03 0. -1.
         11   -1    0    0    0    0 -0.00000000000E+00 -0.00000000000E+00 -0.45593999997E+02  0.45594000000E+02  0.51100000000E-03 0.  1.
         23    2    1    2    0    0  0.00000000000E+00  0.35527136788E-14  0.00000000000E+00  0.91188000000E+02  0.91188000000E+02 0.  0.
    9900012    2    3    3    0    0 -0.21292519107E+02  0.29892403370E+02  0.23166704065E+02  0.47787270439E+02  0.19999997241E+02 0.  0.
        -12    1    3    3    0    0  0.21292519107E+02 -0.29892403370E+02 -0.23166704065E+02  0.43400729561E+02  0.00000000000E+00 0.  1.
         11    1    4    4    0    0 -0.27301825589E+01  0.96748683696E+01  0.39534845932E+01  0.10802176423E+02  0.51100000000E-03 0. -1.
        -11    1    4    4    0    0 -0.20453758570E+01 -0.26109013597E+01  0.11272272536E+01  0.35030001212E+01  0.51100000000E-03 0.  1.
         12    1    4    4    0    0 -0.16516960691E+02  0.22828436360E+02  0.18085992218E+02  0.33482093896E+02  0.00000000000E+00 0. -1.
</event>
<event>
 8    1  0.3776180E-010  0.9118800E+02  0.7816164E-02  0.1184000E+00
        -11   -1    0    0    0    0  0.00000000000E+00  0.00000000000E+00  0.45593999997E+02  0.45594000000E+02  0.51100000000E-03 0. -1.
         11   -1    0    0    0    0 -0.00000000000E+00 -0.00000000000E+00 -0.45593999997E+02  0.45594000000E+02  0.51100000000E-03 0.  1.
         23    2    1    2    0    0  0.17763568394E-14  0.00000000000E+00  0.00000000000E+00  0.91188000000E+02  0.91188000000E+02 0.  0.
    9900012    2    3    3    0    0  0.12159878508E+02 -0.15856962342E+02 -0.38526839849E+02  0.47787270873E+02  0.19999999218E+02 0.  0.
         12    1    3    3    0    0 -0.12159878508E+02  0.15856962342E+02  0.38526839849E+02  0.43400729127E+02  0.00000000000E+00 0. -1.
         11    1    4    4    0    0  0.31744148583E+01 -0.60814967931E+01 -0.62381869131E+01  0.92723507893E+01  0.51100000000E-03 0. -1.
        -11    1    4    4    0    0  0.57800277067E+01  0.33760524893E+01 -0.62021176239E+01  0.91253884291E+01  0.51100000000E-03 0.  1.
        -12    1    4    4    0    0  0.32054359427E+01 -0.13151518038E+02 -0.26086535312E+02  0.29389531654E+02  0.00000000000E+00 0.  1.
</event>
<event>
 8    1  0.3776180E-010  0.9118800E+02  0.7816164E-02  0.1184000E+00
        -11   -1    0    0    0    0  0.00000000000E+00  0.00000000000E+00  0.45593999997E+02  0.45594000000E+02  0.51100000000E-03 0. -1.
         11   -1    0    0    0    0 -0.00000000000E+00 -0.00000000000E+00 -0.45593999997E+02  0.45594000000E+02  0.51100000000E-03 0.  1.
         23    2    1    2    0    0  0.35527136788E-14  0.00000000000E+00  0.00000000000E+00  0.91188000000E+02  0.91188000000E+02 0.  0.
    9900012    2    3    3    0    0 -0.29330153960E+02  0.18137562014E+02 -0.26351361648E+02  0.47787270193E+02  0.19999996116E+02 0.  0.
         12    1    3    3    0    0  0.29330153960E+02 -0.18137562014E+02  0.26351361648E+02  0.43400729807E+02  0.00000000000E+00 0. -1.
         11    1    4    4    0    0 -0.68827232958E+01  0.21471533817E+01  0.40633908926E+00  0.72213059296E+01  0.51100000000E-03 0. -1.
        -11    1    4    4    0    0 -0.19320940446E+02  0.85908872640E+01 -0.13570874167E+02  0.25125101187E+02  0.51100000000E-03 0.  1.
         12    1    4    4    0    0 -0.31264902178E+01  0.73995213682E+01 -0.13186826570E+02  0.15440863076E+02  0.00000000000E+00 0. -1.
</event>
<event>
 8    1  0.3776180E-010  0.9118800E+02  0.7816164E-02  0.1184000E+00
        -11   -1    0    0    0    0  0.00000000000E+00  0.00000000000E+00  0.45593999997E+02  0.45594000000E+02  0.51100000000E-03 0. -1.
         11   -1    0    0    0    0 -0.00000000000E+00 -0.00000000000E+00 -0.45593999997E+02  0.45594000000E+02  0.51100000000E-03 0.  1.
         23    2    1    2    0    0  0.00000000000E+00  0.17763568394E-14 -0.17763568394E-14  0.91188000000E+02  0.91188000000E+02 0.  0.
    9900012    2    3    3    0    0  0.39069859845E+02  0.15226420415E+02 -0.11194886160E+02  0.47787270708E+02  0.19999998465E+02 0.  0.
         12    1    3    3    0    0 -0.39069859845E+02 -0.15226420415E+02  0.11194886160E+02  0.43400729292E+02  0.00000000000E+00 0. -1.
         11    1    4    4    0    0  0.88153265164E+01  0.66464175064E+00  0.28685462835E+01  0.92940996492E+01  0.51100000000E-03 0. -1.
        -11    1    4    4    0    0  0.62510618685E+01  0.28653607236E+01  0.22106369837E+01  0.72230867844E+01  0.51100000000E-03 0.  1.
        -12    1    4    4    0    0  0.24003471460E+02  0.11696417940E+02 -0.16274069428E+02  0.31270084274E+02  0.00000000000E+00 0.  1.
</event>
<event>
 8    1  0.3776180E-010  0.9118800E+02  0.7816164E-02  0.1184000E+00
        -11   -1    0    0    0    0  0.00000000000E+00  0.00000000000E+00  0.45593999997E+02  0.45594000000E+02  0.51100000000E-03 0. -1.
         11   -1    0    0    0    0 -0.00000000000E+00 -0.00000000000E+00 -0.45593999997E+02  0.45594000000E+02  0.51100000000E-03 0.  1.
         23    2    1    2    0    0  0.88817841970E-15  0.00000000000E+00  0.00000000000E+00  0.91188000000E+02  0.91188000000E+02 0.  0.
    9900012    2    3    3    0    0  0.43756829710E+01  0.31668628825E+02  0.29352601873E+02  0.47787263948E+02  0.19999967645E+02 0.  0.
        -12    1    3    3    0    0 -0.43756829710E+01 -0.31668628825E+02 -0.29352601873E+02  0.43400736052E+02  0.00000000000E+00 0.  1.
         11    1    4    4    0    0  0.60211845042E+01  0.15378241319E+02  0.82320479587E+01  0.18452955935E+02  0.51100000000E-03 0. -1.
        -11    1    4    4    0    0  0.44890855749E+01  0.10740284504E+02  0.92645299639E+01  0.14877402873E+02  0.51100000000E-03 0.  1.
         12    1    4    4    0    0 -0.61345871081E+01  0.55501030030E+01  0.11856023950E+02  0.14456905140E+02  0.00000000000E+00 0. -1.
</event>
<event>
 8    1  0.3776180E-010  0.9118800E+02  0.7816164E-02  0.1184000E+00
        -11   -1    0    0    0    0  0.00000000000E+00  0.00000000000E+00  0.45593999997E+02  0.45594000000E+02  0.51100000000E-03 0. -1.
         11   -1    0    0    0    0 -0.00000000000E+00 -0.00000000000E+00 -0.45593999997E+02  0.45594000000E+02  0.51100000000E-03 0.  1.
         23    2    1    2    0    0  0.00000000000E+00  0.00000000000E+00  0.00000000000E+00  0.91188000000E+02  0.91188000000E+02 0.  0.
    9900012    2    3    3    0    0  0.64564295155E+01  0.22943913381E+02  0.36270027817E+02  0.47787267734E+02  0.19999984907E+02 0.  0.
        -12    1    3    3    0    0 -0.64564295155E+01 -0.22943913381E+02 -0.36270027817E+02  0.43400732266E+02  0.00000000000E+00 0.  1.
         11    1    4    4    0    0  0.39176008097E+01 -0.22130809817E+01  0.94184273009E+01  0.10438012101E+02  0.51100000000E-03 0. -1.
        -11    1    4    4    0    0 -0.13309489553E+01  0.58001220745E+01  0.86446460712E+01  0.10494891479E+02  0.51100000000E-03 0.  1.
         12    1    4    4    0    0  0.38697776612E+01  0.19356872289E+02  0.18206954445E+02  0.26854364154E+02  0.00000000000E+00 0. -1.
</event>
<event>
 8    1  0.5569210E-010  0.9118800E+02  0.7816164E-02  0.1184000E+00
        -11   -1    0    0    0    0  0.00000000000E+00  0.00000000000E+00  0.45593999997E+02  0.45594000000E+02  0.51100000000E-03 0. -1.
         11   -1    0    0    0    0 -0.00000000000E+00 -0.00000000000E+00 -0.45593999997E+02  0.45594000000E+02  0.51100000000E-03 0.  1.
         23    2    1    2    0    0  0.00000000000E+00  0.44408920985E-15 -0.53290705182E-14  0.91188000000E+02  0.91188000000E+02 0.  0.
    9900012    2    3    3    0    0  0.40379008091E+02 -0.14620586478E+01  0.15843658766E+02  0.47787269212E+02  0.19999991643E+02 0.  0.
        -12    1    3    3    0    0 -0.40379008091E+02  0.14620586478E+01 -0.15843658766E+02  0.43400730788E+02  0.00000000000E+00 0.  1.
         11    1    4    4    0    0  0.22823972497E+02 -0.11117476551E+00  0.13018811298E+02  0.26276139904E+02  0.51100000000E-03 0. -1.
        -11    1    4    4    0    0  0.41030499103E+01 -0.16075077671E+01  0.62314060549E+01  0.76321374116E+01  0.51100000000E-03 0.  1.
        -12    1    4    4    0    0  0.13451985683E+02  0.25662388476E+00 -0.34065585870E+01  0.13878991896E+02  0.00000000000E+00 0.  1.
</event>
<event>
 8    1  0.3776180E-010  0.9118800E+02  0.7816164E-02  0.1184000E+00
        -11   -1    0    0    0    0  0.00000000000E+00  0.00000000000E+00  0.45593999997E+02  0.45594000000E+02  0.51100000000E-03 0. -1.
         11   -1    0    0    0    0 -0.00000000000E+00 -0.00000000000E+00 -0.45593999997E+02  0.45594000000E+02  0.51100000000E-03 0.  1.
         23    2    1    2    0    0  0.00000000000E+00  0.00000000000E+00  0.00000000000E+00  0.91188000000E+02  0.91188000000E+02 0.  0.
    9900012    2    3    3    0    0 -0.31398460241E+02  0.15612742048E+02  0.25573464769E+02  0.47787272816E+02  0.20000008077E+02 0.  0.
        -12    1    3    3    0    0  0.31398460241E+02 -0.15612742048E+02 -0.25573464769E+02  0.43400727184E+02  0.00000000000E+00 0.  1.
         11    1    4    4    0    0 -0.93012305992E+00  0.63187587282E+01  0.26614814787E+01  0.69191997149E+01  0.51100000000E-03 0. -1.
        -11    1    4    4    0    0 -0.80521904084E+01  0.55154991020E+00  0.66477132033E+00  0.80983886574E+01  0.51100000000E-03 0.  1.
         12    1    4    4    0    0 -0.22416146773E+02  0.87424334098E+01  0.22247211970E+02  0.32769684444E+02  0.00000000000E+00 0. -1.
</event>
<event>
 8    1  0.3776180E-010  0.9118800E+02  0.7816164E-02  0.1184000E+00
        -11   -1    0    0    0    0  0.00000000000E+00  0.00000000000E+00  0.45593999997E+02  0.45594000000E+02  0.51100000000E-03 0. -1.
         11   -1    0    0    0    0 -0.00000000000E+00 -0.00000000000E+00 -0.45593999997E+02  0.45594000000E+02  0.51100000000E-03 0.  1.
         23    2    1    2    0    0  0.00000000000E+00  0.00000000000E+00  0.00000000000E+00  0.91188000000E+02  0.91188000000E+02 0.  0.
    9900012    2    3    3    0    0  0.16327744476E+02  0.21857240884E+02 -0.33753354991E+02  0.47787271989E+02  0.20000004305E+02 0.  0.
         12    1    3    3    0    0 -0.16327744476E+02 -0.21857240884E+02  0.33753354991E+02  0.43400728011E+02  0.00000000000E+00 0. -1.
         11    1    4    4    0    0  0.27364014485E+01  0.53403618530E+01 -0.22599593171E+01  0.64120803164E+01  0.51100000000E-03 0. -1.
        -11    1    4    4    0    0  0.69142299973E+00  0.13544189738E+02 -0.14890383177E+02  0.20140671608E+02  0.51100000000E-03 0.  1.
        -12    1    4    4    0    0  0.12899920028E+02  0.29726892932E+01 -0.16603012497E+02  0.21234520064E+02  0.00000000000E+00 0.  1.
</event>
<event>
 8    1  0.3776180E-010  0.9118800E+02  0.7816164E-02  0.1184000E+00
        -11   -1    0    0    0    0  0.00000000000E+00  0.00000000000E+00  0.45593999997E+02  0.45594000000E+02  0.51100000000E-03 0. -1.
         11   -1    0    0    0    0 -0.00000000000E+00 -0.00000000000E+00 -0.45593999997E+02  0.45594000000E+02  0.51100000000E-03 0.  1.
         23    2    1    2    0    0 -0.35527136788E-14  0.00000000000E+00  0.00000000000E+00  0.91188000000E+02  0.91188000000E+02 0.  0.
    9900012    2    3    3    0    0 -0.29986772199E+02 -0.12241093305E+02 -0.28888967037E+02  0.47787270874E+02  0.19999999224E+02 0.  0.
         12    1    3    3    0    0  0.29986772199E+02  0.12241093305E+02  0.28888967037E+02  0.43400729126E+02  0.00000000000E+00 0. -1.
         11    1    4    4    0    0 -0.13602286440E+02 -0.69753305900E+01 -0.19908529947E+02  0.25100338606E+02  0.51100000000E-03 0. -1.
        -11    1    4    4    0    0 -0.58963059010E+00 -0.49903990614E+00 -0.58417168679E+01  0.58925683098E+01  0.51100000000E-03 0.  1.
        -12    1    4    4    0    0 -0.15794855169E+02 -0.47667228084E+01 -0.31387202222E+01  0.16794363958E+02  0.00000000000E+00 0.  1.
</event>
<event>
 8    1  0.3776180E-010  0.9118800E+02  0.7816164E-02  0.1184000E+00
        -11   -1    0    0    0    0  0.00000000000E+00  0.00000000000E+00  0.45593999997E+02  0.45594000000E+02  0.51100000000E-03 0. -1.
         11   -1    0    0    0    0 -0.00000000000E+00 -0.00000000000E+00 -0.45593999997E+02  0.45594000000E+02  0.51100000000E-03 0.  1.
         23    2    1    2    0    0  0.00000000000E+00  0.00000000000E+00 -0.71054273576E-14  0.91188000000E+02  0.91188000000E+02 0.  0.
    9900012    2    3    3    0    0  0.78571438706E+01  0.12595761353E+02 -0.40782782953E+02  0.47787270752E+02  0.19999998667E+02 0.  0.
         12    1    3    3    0    0 -0.78571438706E+01 -0.12595761353E+02  0.40782782953E+02  0.43400729248E+02  0.00000000000E+00 0. -1.
         11    1    4    4    0    0  0.35858597179E+01  0.68239972219E+01 -0.25076992412E+02  0.26235107713E+02  0.51100000000E-03 0.  1.
        -11    1    4    4    0    0 -0.14930598510E+01  0.55574910831E+01 -0.14580624725E+02  0.15675125278E+02  0.51100000000E-03 0. -1.
         12    1    4    4    0    0  0.57643440037E+01  0.21427304763E+00 -0.11251658160E+01  0.58770377611E+01  0.00000000000E+00 0. -1.
</event>
<event>
 8    1  0.3776180E-010  0.9118800E+02  0.7816164E-02  0.1184000E+00
        -11   -1    0    0    0    0  0.00000000000E+00  0.00000000000E+00  0.45593999997E+02  0.45594000000E+02  0.51100000000E-03 0.  1.
         11   -1    0    0    0    0 -0.00000000000E+00 -0.00000000000E+00 -0.45593999997E+02  0.45594000000E+02  0.51100000000E-03 0. -1.
         23    2    1    2    0    0  0.33306690739E-15  0.00000000000E+00  0.00000000000E+00  0.91188000000E+02  0.91188000000E+02 0.  0.
    9900012    2    3    3    0    0  0.37106030026E+00 -0.42693643476E+02  0.77934770996E+01  0.47787272306E+02  0.20000005754E+02 0.  0.
        -12    1    3    3    0    0 -0.37106030026E+00  0.42693643476E+02 -0.77934770996E+01  0.43400727694E+02  0.00000000000E+00 0.  1.
         11    1    4    4    0    0 -0.98865186804E+00 -0.41406047574E+01  0.57215235226E+01  0.71314705324E+01  0.51100000000E-03 0. -1.
        -11    1    4    4    0    0 -0.38466143486E+01 -0.13049761817E+02  0.49289195658E+01  0.14470209873E+02  0.51100000000E-03 0.  1.
         12    1    4    4    0    0  0.52063265169E+01 -0.25503276902E+02 -0.28569659889E+01  0.26185591901E+02  0.00000000000E+00 0. -1.
</event>
<event>
 8    1  0.3776180E-010  0.9118800E+02  0.7816164E-02  0.1184000E+00
        -11   -1    0    0    0    0  0.00000000000E+00  0.00000000000E+00  0.45593999997E+02  0.45594000000E+02  0.51100000000E-03 0.  1.
         11   -1    0    0    0    0 -0.00000000000E+00 -0.00000000000E+00 -0.45593999997E+02  0.45594000000E+02  0.51100000000E-03 0. -1.
         23    2    1    2    0    0  0.00000000000E+00  0.16653345369E-15  0.00000000000E+00  0.91188000000E+02  0.91188000000E+02 0.  0.
    9900012    2    3    3    0    0  0.42534702211E+02  0.43716234945E+00  0.86157551755E+01  0.47787271431E+02  0.20000001762E+02 0.  0.
        -12    1    3    3    0    0 -0.42534702211E+02 -0.43716234945E+00 -0.86157551755E+01  0.43400728569E+02  0.00000000000E+00 0.  1.
         11    1    4    4    0    0  0.44449961821E+02  0.17429574562E+01  0.77122676675E+01  0.45147714000E+02  0.51100000000E-03 0. -1.
        -11    1    4    4    0    0 -0.38007567044E+00 -0.24101247135E+00  0.59487803499E+00  0.74593878049E+00  0.51100000000E-03 0.  1.
         12    1    4    4    0    0 -0.15351839393E+01 -0.10647826354E+01  0.30860947304E+00  0.18936186509E+01  0.00000000000E+00 0. -1.
</event>
<event>
 8    1  0.3776180E-010  0.9118800E+02  0.7816164E-02  0.1184000E+00
        -11   -1    0    0    0    0  0.00000000000E+00  0.00000000000E+00  0.45593999997E+02  0.45594000000E+02  0.51100000000E-03 0. -1.
         11   -1    0    0    0    0 -0.00000000000E+00 -0.00000000000E+00 -0.45593999997E+02  0.45594000000E+02  0.51100000000E-03 0.  1.
         23    2    1    2    0    0  0.00000000000E+00  0.00000000000E+00  0.00000000000E+00  0.91188000000E+02  0.91188000000E+02 0.  0.
    9900012    2    3    3    0    0  0.29818350913E+01 -0.40488050094E+02 -0.15344326558E+02  0.47787286890E+02  0.20000072247E+02 0.  0.
         12    1    3    3    0    0 -0.29818350913E+01  0.40488050094E+02  0.15344326558E+02  0.43400713110E+02  0.00000000000E+00 0. -1.
         11    1    4    4    0    0 -0.43427151071E+01 -0.11796707915E+02 -0.11678368470E+02  0.17158256978E+02  0.51100000000E-03 0. -1.
        -11    1    4    4    0    0  0.18639466271E+01 -0.28228658973E+01 -0.24235711429E+01  0.41613178500E+01  0.51100000000E-03 0.  1.
        -12    1    4    4    0    0  0.54606035713E+01 -0.25868476282E+02 -0.12423869452E+01  0.26467712062E+02  0.00000000000E+00 0.  1.
</event>
<event>
 8    1  0.3776180E-010  0.9118800E+02  0.7816164E-02  0.1184000E+00
        -11   -1    0    0    0    0  0.00000000000E+00  0.00000000000E+00  0.45593999997E+02  0.45594000000E+02  0.51100000000E-03 0. -1.
         11   -1    0    0    0    0 -0.00000000000E+00 -0.00000000000E+00 -0.45593999997E+02  0.45594000000E+02  0.51100000000E-03 0.  1.
         23    2    1    2    0    0  0.00000000000E+00  0.00000000000E+00  0.00000000000E+00  0.91188000000E+02  0.91188000000E+02 0.  0.
    9900012    2    3    3    0    0  0.77905279166E+01 -0.33502938757E+02  0.26466661455E+02  0.47787269601E+02  0.19999993419E+02 0.  0.
        -12    1    3    3    0    0 -0.77905279166E+01  0.33502938757E+02 -0.26466661455E+02  0.43400730399E+02  0.00000000000E+00 0.  1.
         11    1    4    4    0    0  0.10067154682E+02 -0.71138634562E+01  0.81259928240E+01  0.14764363051E+02  0.51100000000E-03 0. -1.
        -11    1    4    4    0    0  0.98944727118E+00 -0.85767541404E+01  0.25669607454E+01  0.90071641052E+01  0.51100000000E-03 0.  1.
         12    1    4    4    0    0 -0.32660740362E+01 -0.17812321160E+02  0.15773707886E+02  0.24015742445E+02  0.00000000000E+00 0. -1.
</event>
<event>
 8    1  0.3776180E-010  0.9118800E+02  0.7816164E-02  0.1184000E+00
        -11   -1    0    0    0    0  0.00000000000E+00  0.00000000000E+00  0.45593999997E+02  0.45594000000E+02  0.51100000000E-03 0.  1.
         11   -1    0    0    0    0 -0.00000000000E+00 -0.00000000000E+00 -0.45593999997E+02  0.45594000000E+02  0.51100000000E-03 0. -1.
         23    2    1    2    0    0  0.00000000000E+00  0.00000000000E+00  0.17763568394E-14  0.91188000000E+02  0.91188000000E+02 0.  0.
    9900012    2    3    3    0    0  0.38751454545E+02  0.15844441664E+02 -0.11441190994E+02  0.47787280970E+02  0.20000045252E+02 0.  0.
         12    1    3    3    0    0 -0.38751454545E+02 -0.15844441664E+02  0.11441190994E+02  0.43400719030E+02  0.00000000000E+00 0. -1.
         11    1    4    4    0    0  0.16044662971E+02  0.70166564412E+01  0.40525781821E+01  0.17974650696E+02  0.51100000000E-03 0. -1.
        -11    1    4    4    0    0  0.14667466133E+02  0.43288914530E+01 -0.55798243473E+01  0.16279075649E+02  0.51100000000E-03 0.  1.
        -12    1    4    4    0    0  0.80393254411E+01  0.44988937698E+01 -0.99139448292E+01  0.13533554625E+02  0.00000000000E+00 0.  1.
</event>
<event>
 8    1  0.3776180E-010  0.9118800E+02  0.7816164E-02  0.1184000E+00
        -11   -1    0    0    0    0  0.00000000000E+00  0.00000000000E+00  0.45593999997E+02  0.45594000000E+02  0.51100000000E-03 0. -1.
         11   -1    0    0    0    0 -0.00000000000E+00 -0.00000000000E+00 -0.45593999997E+02  0.45594000000E+02  0.51100000000E-03 0.  1.
         23    2    1    2    0    0  0.00000000000E+00  0.88817841970E-15  0.00000000000E+00  0.91188000000E+02  0.91188000000E+02 0.  0.
    9900012    2    3    3    0    0 -0.15467023725E+02 -0.52379711717E+01  0.40211407969E+02  0.47787280009E+02  0.20000040871E+02 0.  0.
        -12    1    3    3    0    0  0.15467023725E+02  0.52379711717E+01 -0.40211407969E+02  0.43400719991E+02  0.00000000000E+00 0.  1.
         11    1    4    4    0    0 -0.10527764466E+02 -0.46737638267E+01  0.14057802566E+02  0.18174149394E+02  0.51100000000E-03 0. -1.
        -11    1    4    4    0    0 -0.12319494493E+01 -0.22142632542E+01 -0.55836139561E+00  0.25946924507E+01  0.51100000000E-03 0.  1.
         12    1    4    4    0    0 -0.37073098095E+01  0.16500559092E+01  0.26711966799E+02  0.27018438164E+02  0.00000000000E+00 0. -1.
</event>
<event>
 8    1  0.3776180E-010  0.9118800E+02  0.7816164E-02  0.1184000E+00
        -11   -1    0    0    0    0  0.00000000000E+00  0.00000000000E+00  0.45593999997E+02  0.45594000000E+02  0.51100000000E-03 0. -1.
         11   -1    0    0    0    0 -0.00000000000E+00 -0.00000000000E+00 -0.45593999997E+02  0.45594000000E+02  0.51100000000E-03 0.  1.
         23    2    1    2    0    0  0.00000000000E+00  0.00000000000E+00  0.00000000000E+00  0.91188000000E+02  0.91188000000E+02 0.  0.
    9900012    2    3    3    0    0  0.28205483566E+02  0.10174810755E+02  0.31377493035E+02  0.47787272515E+02  0.20000006705E+02 0.  0.
        -12    1    3    3    0    0 -0.28205483566E+02 -0.10174810755E+02 -0.31377493035E+02  0.43400727485E+02  0.00000000000E+00 0.  1.
         11    1    4    4    0    0  0.14823673438E+02 -0.25488543094E+01  0.12823664842E+02  0.19765736332E+02  0.51100000000E-03 0. -1.
        -11    1    4    4    0    0  0.64551351407E+01  0.80790610749E+00  0.27802262398E+01  0.70746830437E+01  0.51100000000E-03 0.  1.
        -12    1    4    4    0    0  0.69266749871E+01  0.11915758957E+02  0.15773601953E+02  0.20946853140E+02  0.00000000000E+00 0.  1.
</event>
<event>
 8    1  0.3776180E-010  0.9118800E+02  0.7816164E-02  0.1184000E+00
        -11   -1    0    0    0    0  0.00000000000E+00  0.00000000000E+00  0.45593999997E+02  0.45594000000E+02  0.51100000000E-03 0. -1.
         11   -1    0    0    0    0 -0.00000000000E+00 -0.00000000000E+00 -0.45593999997E+02  0.45594000000E+02  0.51100000000E-03 0.  1.
         23    2    1    2    0    0 -0.35527136788E-14 -0.35527136788E-14  0.00000000000E+00  0.91188000000E+02  0.91188000000E+02 0.  0.
    9900012    2    3    3    0    0 -0.21862710504E+02 -0.27568706280E+02  0.25408869792E+02  0.47787281796E+02  0.20000049018E+02 0.  0.
        -12    1    3    3    0    0  0.21862710504E+02  0.27568706280E+02 -0.25408869792E+02  0.43400718204E+02  0.00000000000E+00 0.  1.
         11    1    4    4    0    0  0.71303032382E+00 -0.12523052851E+02  0.61141070177E+01  0.13954123757E+02  0.51100000000E-03 0. -1.
        -11    1    4    4    0    0 -0.44296195047E+00  0.41588097896E+00 -0.64743550048E-01  0.61103540537E+00  0.51100000000E-03 0.  1.
         12    1    4    4    0    0 -0.22132778878E+02 -0.15461534408E+02  0.19359506325E+02  0.33222122633E+02  0.00000000000E+00 0. -1.
</event>
<event>
 8    1  0.3776180E-010  0.9118800E+02  0.7816164E-02  0.1184000E+00
        -11   -1    0    0    0    0  0.00000000000E+00  0.00000000000E+00  0.45593999997E+02  0.45594000000E+02  0.51100000000E-03 0. -1.
         11   -1    0    0    0    0 -0.00000000000E+00 -0.00000000000E+00 -0.45593999997E+02  0.45594000000E+02  0.51100000000E-03 0.  1.
         23    2    1    2    0    0  0.00000000000E+00  0.00000000000E+00  0.00000000000E+00  0.91188000000E+02  0.91188000000E+02 0.  0.
    9900012    2    3    3    0    0 -0.39246029097E+02 -0.56465787456E+01 -0.17649022821E+02  0.47787278141E+02  0.20000032355E+02 0.  0.
         12    1    3    3    0    0  0.39246029097E+02  0.56465787456E+01  0.17649022821E+02  0.43400721859E+02  0.00000000000E+00 0. -1.
         11    1    4    4    0    0 -0.52288022584E+01  0.12820049569E+01  0.19997789384E+00  0.53873835195E+01  0.51100000000E-03 0. -1.
        -11    1    4    4    0    0 -0.26675352110E+01 -0.64823559538E+01 -0.44566791402E+01  0.83065439283E+01  0.51100000000E-03 0.  1.
         12    1    4    4    0    0 -0.31349691627E+02 -0.44622774872E+00 -0.13392321574E+02  0.34093350693E+02  0.00000000000E+00 0. -1.
</event>
<event>
 8    1  0.3776180E-010  0.9118800E+02  0.7816164E-02  0.1184000E+00
        -11   -1    0    0    0    0  0.00000000000E+00  0.00000000000E+00  0.45593999997E+02  0.45594000000E+02  0.51100000000E-03 0.  1.
         11   -1    0    0    0    0 -0.00000000000E+00 -0.00000000000E+00 -0.45593999997E+02  0.45594000000E+02  0.51100000000E-03 0. -1.
         23    2    1    2    0    0 -0.71054273576E-14  0.00000000000E+00  0.00000000000E+00  0.91188000000E+02  0.91188000000E+02 0.  0.
    9900012    2    3    3    0    0 -0.43194040083E+02  0.27944503333E+01 -0.31763736402E+01  0.47787269581E+02  0.19999993328E+02 0.  0.
         12    1    3    3    0    0  0.43194040083E+02 -0.27944503333E+01  0.31763736402E+01  0.43400730419E+02  0.00000000000E+00 0. -1.
         11    1    4    4    0    0 -0.48316557143E+01 -0.29100775724E+01  0.49205450815E+01  0.74849991703E+01  0.51100000000E-03 0.  1.
        -11    1    4    4    0    0 -0.83219430330E+01 -0.13906585701E+01 -0.33238533800E+01  0.90684435631E+01  0.51100000000E-03 0. -1.
        -12    1    4    4    0    0 -0.30040441336E+02  0.70951864758E+01 -0.47730653417E+01  0.31233826848E+02  0.00000000000E+00 0.  1.
</event>
<event>
 8    1  0.3776180E-010  0.9118800E+02  0.7816164E-02  0.1184000E+00
        -11   -1    0    0    0    0  0.00000000000E+00  0.00000000000E+00  0.45593999997E+02  0.45594000000E+02  0.51100000000E-03 0.  1.
         11   -1    0    0    0    0 -0.00000000000E+00 -0.00000000000E+00 -0.45593999997E+02  0.45594000000E+02  0.51100000000E-03 0. -1.
         23    2    1    2    0    0  0.00000000000E+00  0.00000000000E+00  0.17763568394E-14  0.91188000000E+02  0.91188000000E+02 0.  0.
    9900012    2    3    3    0    0 -0.36986343129E+02 -0.18839967863E+02 -0.12676328879E+02  0.47787270962E+02  0.19999999625E+02 0.  0.
         12    1    3    3    0    0  0.36986343129E+02  0.18839967863E+02  0.12676328879E+02  0.43400729038E+02  0.00000000000E+00 0. -1.
         11    1    4    4    0    0 -0.13955498071E+02 -0.21589998251E+01 -0.86271025426E+01  0.16548235712E+02  0.51100000000E-03 0. -1.
        -11    1    4    4    0    0 -0.14526747170E+02 -0.52267121894E+01 -0.65233689406E+01  0.16760049112E+02  0.51100000000E-03 0.  1.
         12    1    4    4    0    0 -0.85040978893E+01 -0.11454255849E+02  0.24741426045E+01  0.14478986138E+02  0.00000000000E+00 0. -1.
</event>
<event>
 8    1  0.3776180E-010  0.9118800E+02  0.7816164E-02  0.1184000E+00
        -11   -1    0    0    0    0  0.00000000000E+00  0.00000000000E+00  0.45593999997E+02  0.45594000000E+02  0.51100000000E-03 0. -1.
         11   -1    0    0    0    0 -0.00000000000E+00 -0.00000000000E+00 -0.45593999997E+02  0.45594000000E+02  0.51100000000E-03 0.  1.
         23    2    1    2    0    0 -0.35527136788E-14  0.33306690739E-15  0.00000000000E+00  0.91188000000E+02  0.91188000000E+02 0.  0.
    9900012    2    3    3    0    0 -0.18052932039E+02  0.44223770780E+00  0.39465420634E+02  0.47787270107E+02  0.19999995726E+02 0.  0.
        -12    1    3    3    0    0  0.18052932039E+02 -0.44223770780E+00 -0.39465420634E+02  0.43400729893E+02  0.00000000000E+00 0.  1.
         11    1    4    4    0    0 -0.61258773805E+01 -0.12882912218E+01  0.27328737400E+02  0.28036511126E+02  0.51100000000E-03 0. -1.
        -11    1    4    4    0    0 -0.10188630858E+02 -0.15928550064E+01  0.12231965844E+02  0.15998949169E+02  0.51100000000E-03 0.  1.
        -12    1    4    4    0    0 -0.17384238003E+01  0.33233839359E+01 -0.95282609744E-01  0.37518098127E+01  0.00000000000E+00 0.  1.
</event>
<event>
 8    1  0.3776180E-010  0.9118800E+02  0.7816164E-02  0.1184000E+00
        -11   -1    0    0    0    0  0.00000000000E+00  0.00000000000E+00  0.45593999997E+02  0.45594000000E+02  0.51100000000E-03 0. -1.
         11   -1    0    0    0    0 -0.00000000000E+00 -0.00000000000E+00 -0.45593999997E+02  0.45594000000E+02  0.51100000000E-03 0.  1.
         23    2    1    2    0    0  0.35527136788E-14  0.00000000000E+00  0.00000000000E+00  0.91188000000E+02  0.91188000000E+02 0.  0.
    9900012    2    3    3    0    0 -0.29947893285E+02  0.26201834389E+02  0.17326593411E+02  0.47787271011E+02  0.19999999846E+02 0.  0.
        -12    1    3    3    0    0  0.29947893285E+02 -0.26201834389E+02 -0.17326593411E+02  0.43400728989E+02  0.00000000000E+00 0.  1.
         11    1    4    4    0    0 -0.46849396189E+01  0.41825852743E+01  0.11598373162E+02  0.13189576910E+02  0.51100000000E-03 0. -1.
        -11    1    4    4    0    0 -0.62274062589E+01  0.86735590099E+01  0.35310489312E+01  0.11246311459E+02  0.51100000000E-03 0.  1.
        -12    1    4    4    0    0 -0.19035547407E+02  0.13345690105E+02  0.21971713180E+01  0.23351382641E+02  0.00000000000E+00 0.  1.
</event>
<event>
 8    1  0.3776180E-010  0.9118800E+02  0.7816164E-02  0.1184000E+00
        -11   -1    0    0    0    0  0.00000000000E+00  0.00000000000E+00  0.45593999997E+02  0.45594000000E+02  0.51100000000E-03 0. -1.
         11   -1    0    0    0    0 -0.00000000000E+00 -0.00000000000E+00 -0.45593999997E+02  0.45594000000E+02  0.51100000000E-03 0.  1.
         23    2    1    2    0    0 -0.35527136788E-14  0.00000000000E+00  0.00000000000E+00  0.91188000000E+02  0.91188000000E+02 0.  0.
    9900012    2    3    3    0    0  0.13641580897E+02 -0.12478808800E+02 -0.39265884947E+02  0.47787272827E+02  0.20000008129E+02 0.  0.
         12    1    3    3    0    0 -0.13641580897E+02  0.12478808800E+02  0.39265884947E+02  0.43400727173E+02  0.00000000000E+00 0. -1.
         11    1    4    4    0    0  0.40600292605E+00 -0.49422507717E+01 -0.43436211179E+01  0.65922473970E+01  0.51100000000E-03 0. -1.
        -11    1    4    4    0    0  0.16146461632E+02 -0.49282997147E+01 -0.22223775602E+02  0.27908646753E+02  0.51100000000E-03 0.  1.
        -12    1    4    4    0    0 -0.29108836603E+01 -0.26082583131E+01 -0.12698488227E+02  0.13286378678E+02  0.00000000000E+00 0.  1.
</event>
<event>
 8    1  0.3776180E-010  0.9118800E+02  0.7816164E-02  0.1184000E+00
        -11   -1    0    0    0    0  0.00000000000E+00  0.00000000000E+00  0.45593999997E+02  0.45594000000E+02  0.51100000000E-03 0. -1.
         11   -1    0    0    0    0 -0.00000000000E+00 -0.00000000000E+00 -0.45593999997E+02  0.45594000000E+02  0.51100000000E-03 0.  1.
         23    2    1    2    0    0  0.00000000000E+00  0.00000000000E+00  0.00000000000E+00  0.91188000000E+02  0.91188000000E+02 0.  0.
    9900012    2    3    3    0    0 -0.27324053092E+02 -0.10637130407E+02  0.31997968357E+02  0.47787281116E+02  0.20000045922E+02 0.  0.
        -12    1    3    3    0    0  0.27324053092E+02  0.10637130407E+02 -0.31997968357E+02  0.43400718884E+02  0.00000000000E+00 0.  1.
         11    1    4    4    0    0 -0.18696048493E+01  0.23699471747E+01  0.89831378879E+01  0.94767525281E+01  0.51100000000E-03 0. -1.
        -11    1    4    4    0    0 -0.25266999872E+01 -0.56514741187E+01  0.24955212189E+01  0.66746534707E+01  0.51100000000E-03 0.  1.
         12    1    4    4    0    0 -0.22927748255E+02 -0.73556034628E+01  0.20519309250E+02  0.31635875118E+02  0.00000000000E+00 0. -1.
</event>
<event>
 8    1  0.3776180E-010  0.9118800E+02  0.7816164E-02  0.1184000E+00
        -11   -1    0    0    0    0  0.00000000000E+00  0.00000000000E+00  0.45593999997E+02  0.45594000000E+02  0.51100000000E-03 0.  1.
         11   -1    0    0    0    0 -0.00000000000E+00 -0.00000000000E+00 -0.45593999997E+02  0.45594000000E+02  0.51100000000E-03 0. -1.
         23    2    1    2    0    0  0.71054273576E-14 -0.88817841970E-15  0.88817841970E-15  0.91188000000E+02  0.91188000000E+02 0.  0.
    9900012    2    3    3    0    0 -0.42868785383E+02 -0.50687291355E+01  0.44942697924E+01  0.47787271478E+02  0.20000001979E+02 0.  0.
         12    1    3    3    0    0  0.42868785383E+02  0.50687291355E+01 -0.44942697924E+01  0.43400728522E+02  0.00000000000E+00 0. -1.
         11    1    4    4    0    0 -0.78531702484E+01 -0.59527738031E+01  0.72154720606E+01  0.12213551335E+02  0.51100000000E-03 0. -1.
        -11    1    4    4    0    0 -0.15532757405E+02 -0.19268266334E+01 -0.27359354454E+01  0.15889133284E+02  0.51100000000E-03 0.  1.
        -12    1    4    4    0    0 -0.19482857729E+02  0.28108713010E+01  0.14733177187E-01  0.19684586860E+02  0.00000000000E+00 0.  1.
</event>
<event>
 8    1  0.3776180E-010  0.9118800E+02  0.7816164E-02  0.1184000E+00
        -11   -1    0    0    0    0  0.00000000000E+00  0.00000000000E+00  0.45593999997E+02  0.45594000000E+02  0.51100000000E-03 0. -1.
         11   -1    0    0    0    0 -0.00000000000E+00 -0.00000000000E+00 -0.45593999997E+02  0.45594000000E+02  0.51100000000E-03 0.  1.
         23    2    1    2    0    0  0.00000000000E+00  0.00000000000E+00  0.00000000000E+00  0.91188000000E+02  0.91188000000E+02 0.  0.
    9900012    2    3    3    0    0  0.79812433703E+01 -0.20789809183E+02  0.37251934708E+02  0.47787273611E+02  0.20000011704E+02 0.  0.
        -12    1    3    3    0    0 -0.79812433703E+01  0.20789809183E+02 -0.37251934708E+02  0.43400726389E+02  0.00000000000E+00 0.  1.
         11    1    4    4    0    0 -0.43057945899E+01 -0.35721358646E+01  0.40426219314E+01  0.69023774185E+01  0.51100000000E-03 0. -1.
        -11    1    4    4    0    0  0.18938423660E+01  0.54225948024E+00  0.19079823626E+00  0.19791635807E+01  0.51100000000E-03 0.  1.
         12    1    4    4    0    0  0.10393195594E+02 -0.17759932798E+02  0.33018514540E+02  0.38905732612E+02  0.00000000000E+00 0. -1.
</event>
<event>
 8    1  0.3776180E-010  0.9118800E+02  0.7816164E-02  0.1184000E+00
        -11   -1    0    0    0    0  0.00000000000E+00  0.00000000000E+00  0.45593999997E+02  0.45594000000E+02  0.51100000000E-03 0. -1.
         11   -1    0    0    0    0 -0.00000000000E+00 -0.00000000000E+00 -0.45593999997E+02  0.45594000000E+02  0.51100000000E-03 0.  1.
         23    2    1    2    0    0 -0.35527136788E-14  0.35527136788E-14 -0.35527136788E-14  0.91188000000E+02  0.91188000000E+02 0.  0.
    9900012    2    3    3    0    0 -0.12135015366E+02  0.28178196576E+02 -0.30697778131E+02  0.47787274863E+02  0.20000017412E+02 0.  0.
         12    1    3    3    0    0  0.12135015366E+02 -0.28178196576E+02  0.30697778131E+02  0.43400725137E+02  0.00000000000E+00 0. -1.
         11    1    4    4    0    0 -0.14477264266E+02  0.12967774728E+02 -0.12491525900E+02  0.23103951644E+02  0.51100000000E-03 0. -1.
        -11    1    4    4    0    0 -0.52967148553E+00  0.18038100092E+01 -0.61325511798E+01  0.64142393676E+01  0.51100000000E-03 0.  1.
         12    1    4    4    0    0  0.28719203849E+01  0.13406611839E+02 -0.12073701051E+02  0.18269083851E+02  0.00000000000E+00 0. -1.
</event>
<event>
 8    1  0.3776180E-010  0.9118800E+02  0.7816164E-02  0.1184000E+00
        -11   -1    0    0    0    0  0.00000000000E+00  0.00000000000E+00  0.45593999997E+02  0.45594000000E+02  0.51100000000E-03 0. -1.
         11   -1    0    0    0    0 -0.00000000000E+00 -0.00000000000E+00 -0.45593999997E+02  0.45594000000E+02  0.51100000000E-03 0.  1.
         23    2    1    2    0    0 -0.71054273576E-14  0.00000000000E+00  0.00000000000E+00  0.91188000000E+02  0.91188000000E+02 0.  0.
    9900012    2    3    3    0    0 -0.28360248693E+02 -0.13449759747E+02  0.29973716063E+02  0.47787269616E+02  0.19999993489E+02 0.  0.
        -12    1    3    3    0    0  0.28360248693E+02  0.13449759747E+02 -0.29973716063E+02  0.43400730384E+02  0.00000000000E+00 0.  1.
         11    1    4    4    0    0 -0.17578913279E+02 -0.10857620283E+02  0.22580490139E+02  0.30606937865E+02  0.51100000000E-03 0. -1.
        -11    1    4    4    0    0 -0.66038346982E+01 -0.65492109230E+01  0.25100061579E+01  0.96334276148E+01  0.51100000000E-03 0.  1.
         12    1    4    4    0    0 -0.41775007166E+01  0.39570714591E+01  0.48832197658E+01  0.75469041368E+01  0.00000000000E+00 0. -1.
</event>
<event>
 8    1  0.3776180E-010  0.9118800E+02  0.7816164E-02  0.1184000E+00
        -11   -1    0    0    0    0  0.00000000000E+00  0.00000000000E+00  0.45593999997E+02  0.45594000000E+02  0.51100000000E-03 0. -1.
         11   -1    0    0    0    0 -0.00000000000E+00 -0.00000000000E+00 -0.45593999997E+02  0.45594000000E+02  0.51100000000E-03 0.  1.
         23    2    1    2    0    0  0.00000000000E+00  0.78929918157E-15  0.00000000000E+00  0.91188000000E+02  0.91188000000E+02 0.  0.
    9900012    2    3    3    0    0  0.21352701324E+02 -0.10860772993E-01 -0.37784725183E+02  0.47787269258E+02  0.19999991854E+02 0.  0.
         12    1    3    3    0    0 -0.21352701324E+02  0.10860772993E-01  0.37784725183E+02  0.43400730742E+02  0.00000000000E+00 0. -1.
         11    1    4    4    0    0  0.27664845559E+01  0.52698345379E+01 -0.82840683853E+01  0.10200508915E+02  0.51100000000E-03 0. -1.
        -11    1    4    4    0    0 -0.57304865220E+00  0.24947879691E+01 -0.24965863237E+01  0.35756531294E+01  0.51100000000E-03 0.  1.
        -12    1    4    4    0    0  0.19159265420E+02 -0.77754832801E+01 -0.27004070474E+02  0.34011107213E+02  0.00000000000E+00 0.  1.
</event>
<event>
 8    1  0.3776180E-010  0.9118800E+02  0.7816164E-02  0.1184000E+00
        -11   -1    0    0    0    0  0.00000000000E+00  0.00000000000E+00  0.45593999997E+02  0.45594000000E+02  0.51100000000E-03 0. -1.
         11   -1    0    0    0    0 -0.00000000000E+00 -0.00000000000E+00 -0.45593999997E+02  0.45594000000E+02  0.51100000000E-03 0.  1.
         23    2    1    2    0    0  0.44408920985E-15  0.00000000000E+00  0.00000000000E+00  0.91188000000E+02  0.91188000000E+02 0.  0.
    9900012    2    3    3    0    0 -0.19710687810E+01  0.25843483595E+02 -0.34811662402E+02  0.47787278857E+02  0.20000035623E+02 0.  0.
         12    1    3    3    0    0  0.19710687810E+01 -0.25843483595E+02  0.34811662402E+02  0.43400721143E+02  0.00000000000E+00 0. -1.
         11    1    4    4    0    0 -0.29596851060E+01  0.62704022375E+01 -0.48709715619E+00  0.69508951975E+01  0.51100000000E-03 0. -1.
        -11    1    4    4    0    0 -0.10515358723E+01  0.20910218788E+00  0.29929848266E+00  0.11131178099E+01  0.51100000000E-03 0.  1.
        -12    1    4    4    0    0  0.20401521973E+01  0.19363979170E+02 -0.34623863729E+02  0.39723265850E+02  0.00000000000E+00 0.  1.
</event>
<event>
 8    1  0.3776180E-010  0.9118800E+02  0.7816164E-02  0.1184000E+00
        -11   -1    0    0    0    0  0.00000000000E+00  0.00000000000E+00  0.45593999997E+02  0.45594000000E+02  0.51100000000E-03 0. -1.
         11   -1    0    0    0    0 -0.00000000000E+00 -0.00000000000E+00 -0.45593999997E+02  0.45594000000E+02  0.51100000000E-03 0.  1.
         23    2    1    2    0    0  0.00000000000E+00 -0.88817841970E-15  0.00000000000E+00  0.91188000000E+02  0.91188000000E+02 0.  0.
    9900012    2    3    3    0    0 -0.15808417289E+02  0.79272994716E+00  0.40411496212E+02  0.47787268393E+02  0.19999987911E+02 0.  0.
        -12    1    3    3    0    0  0.15808417289E+02 -0.79272994716E+00 -0.40411496212E+02  0.43400731607E+02  0.00000000000E+00 0.  1.
         11    1    4    4    0    0 -0.18609635850E+01 -0.61625627988E+01  0.91858252507E+01  0.11216940381E+02  0.51100000000E-03 0. -1.
        -11    1    4    4    0    0 -0.28113341288E+01 -0.25737082249E+01  0.10624236058E+02  0.11287247924E+02  0.51100000000E-03 0.  1.
        -12    1    4    4    0    0 -0.11136119575E+02  0.95290009709E+01  0.20601434903E+02  0.25283080088E+02  0.00000000000E+00 0.  1.
</event>
<event>
 8    1  0.3776180E-010  0.9118800E+02  0.7816164E-02  0.1184000E+00
        -11   -1    0    0    0    0  0.00000000000E+00  0.00000000000E+00  0.45593999997E+02  0.45594000000E+02  0.51100000000E-03 0. -1.
         11   -1    0    0    0    0 -0.00000000000E+00 -0.00000000000E+00 -0.45593999997E+02  0.45594000000E+02  0.51100000000E-03 0.  1.
         23    2    1    2    0    0  0.00000000000E+00  0.00000000000E+00 -0.88817841970E-15  0.91188000000E+02  0.91188000000E+02 0.  0.
    9900012    2    3    3    0    0 -0.33346573073E+02 -0.27680850071E+02  0.23235948894E+01  0.47787280080E+02  0.20000041198E+02 0.  0.
         12    1    3    3    0    0  0.33346573073E+02  0.27680850071E+02 -0.23235948894E+01  0.43400719920E+02  0.00000000000E+00 0. -1.
         11    1    4    4    0    0 -0.18634268516E+01 -0.49555489470E+01 -0.29521894278E+01  0.60617858488E+01  0.51100000000E-03 0. -1.
        -11    1    4    4    0    0 -0.15468450338E+02 -0.69335751210E+01 -0.39669341339E+01  0.17409307468E+02  0.51100000000E-03 0.  1.
        -12    1    4    4    0    0 -0.16014695883E+02 -0.15791726003E+02  0.92427184511E+01  0.24316186764E+02  0.00000000000E+00 0.  1.
</event>
<event>
 8    1  0.3776180E-010  0.9118800E+02  0.7816164E-02  0.1184000E+00
        -11   -1    0    0    0    0  0.00000000000E+00  0.00000000000E+00  0.45593999997E+02  0.45594000000E+02  0.51100000000E-03 0. -1.
         11   -1    0    0    0    0 -0.00000000000E+00 -0.00000000000E+00 -0.45593999997E+02  0.45594000000E+02  0.51100000000E-03 0.  1.
         23    2    1    2    0    0 -0.17763568394E-14  0.00000000000E+00  0.71054273576E-14  0.91188000000E+02  0.91188000000E+02 0.  0.
    9900012    2    3    3    0    0  0.81083575203E+01 -0.11272384969E+02 -0.41119475548E+02  0.47787269661E+02  0.19999993694E+02 0.  0.
         12    1    3    3    0    0 -0.81083575203E+01  0.11272384969E+02  0.41119475548E+02  0.43400730339E+02  0.00000000000E+00 0. -1.
         11    1    4    4    0    0 -0.66555304131E-01  0.11123781651E+01  0.12153058728E+01  0.16488733778E+01  0.51100000000E-03 0.  1.
        -11    1    4    4    0    0  0.24482999091E+01  0.14539387054E+01 -0.11660583315E+02  0.12003220973E+02  0.51100000000E-03 0. -1.
        -12    1    4    4    0    0  0.57266129154E+01 -0.13838701840E+02 -0.30674198106E+02  0.34135175311E+02  0.00000000000E+00 0.  1.
</event>
<event>
 8    1  0.3776180E-010  0.9118800E+02  0.7816164E-02  0.1184000E+00
        -11   -1    0    0    0    0  0.00000000000E+00  0.00000000000E+00  0.45593999997E+02  0.45594000000E+02  0.51100000000E-03 0. -1.
         11   -1    0    0    0    0 -0.00000000000E+00 -0.00000000000E+00 -0.45593999997E+02  0.45594000000E+02  0.51100000000E-03 0.  1.
         23    2    1    2    0    0 -0.44408920985E-15  0.00000000000E+00  0.00000000000E+00  0.91188000000E+02  0.91188000000E+02 0.  0.
    9900012    2    3    3    0    0 -0.24786787684E+01 -0.15320414274E+02  0.40531028486E+02  0.47787271756E+02  0.20000003244E+02 0.  0.
        -12    1    3    3    0    0  0.24786787684E+01  0.15320414274E+02 -0.40531028486E+02  0.43400728244E+02  0.00000000000E+00 0.  1.
         11    1    4    4    0    0 -0.51756716741E+01 -0.54117850967E+00  0.19482641687E+02  0.20165658403E+02  0.51100000000E-03 0. -1.
        -11    1    4    4    0    0 -0.20054754427E+01 -0.13570068964E+00  0.50213703727E+01  0.54087435795E+01  0.51100000000E-03 0.  1.
        -12    1    4    4    0    0  0.47024683484E+01 -0.14643535074E+02  0.16027016427E+02  0.22212869774E+02  0.00000000000E+00 0.  1.
</event>
<event>
 8    1  0.3776180E-010  0.9118800E+02  0.7816164E-02  0.1184000E+00
        -11   -1    0    0    0    0  0.00000000000E+00  0.00000000000E+00  0.45593999997E+02  0.45594000000E+02  0.51100000000E-03 0. -1.
         11   -1    0    0    0    0 -0.00000000000E+00 -0.00000000000E+00 -0.45593999997E+02  0.45594000000E+02  0.51100000000E-03 0.  1.
         23    2    1    2    0    0 -0.71054273576E-14 -0.11102230246E-15  0.00000000000E+00  0.91188000000E+02  0.91188000000E+02 0.  0.
    9900012    2    3    3    0    0  0.34998572792E+02  0.41628367805E+00  0.25662230294E+02  0.47787268978E+02  0.19999990580E+02 0.  0.
        -12    1    3    3    0    0 -0.34998572792E+02 -0.41628367805E+00 -0.25662230294E+02  0.43400731022E+02  0.00000000000E+00 0.  1.
         11    1    4    4    0    0  0.83685135959E+01  0.17850626755E+01  0.11483608039E+02  0.14321023791E+02  0.51100000000E-03 0. -1.
        -11    1    4    4    0    0  0.26263231668E+02 -0.48721046558E+01  0.11712989491E+02  0.29166571011E+02  0.51100000000E-03 0.  1.
         12    1    4    4    0    0  0.36682752783E+00  0.35033256584E+01  0.24656327626E+01  0.42996741765E+01  0.00000000000E+00 0. -1.
</event>
<event>
 8    1  0.3776180E-010  0.9118800E+02  0.7816164E-02  0.1184000E+00
        -11   -1    0    0    0    0  0.00000000000E+00  0.00000000000E+00  0.45593999997E+02  0.45594000000E+02  0.51100000000E-03 0. -1.
         11   -1    0    0    0    0 -0.00000000000E+00 -0.00000000000E+00 -0.45593999997E+02  0.45594000000E+02  0.51100000000E-03 0.  1.
         23    2    1    2    0    0  0.00000000000E+00  0.00000000000E+00  0.88817841970E-15  0.91188000000E+02  0.91188000000E+02 0.  0.
    9900012    2    3    3    0    0  0.28764105233E+02 -0.32081225796E+02  0.52006450014E+01  0.47787245319E+02  0.19999882709E+02 0.  0.
         12    1    3    3    0    0 -0.28764105233E+02  0.32081225796E+02 -0.52006450014E+01  0.43400754681E+02  0.00000000000E+00 0. -1.
         11    1    4    4    0    0  0.14987770898E+02 -0.13060495849E+02  0.45368722136E+01  0.20391003851E+02  0.51100000000E-03 0. -1.
        -11    1    4    4    0    0  0.95107163830E+01 -0.18167939478E+02  0.51539096818E+01  0.21144515513E+02  0.51100000000E-03 0.  1.
         12    1    4    4    0    0  0.42656179514E+01 -0.85279046869E+00 -0.44901368939E+01  0.62517259551E+01  0.00000000000E+00 0. -1.
</event>
<event>
 8    1  0.3776180E-010  0.9118800E+02  0.7816164E-02  0.1184000E+00
        -11   -1    0    0    0    0  0.00000000000E+00  0.00000000000E+00  0.45593999997E+02  0.45594000000E+02  0.51100000000E-03 0. -1.
         11   -1    0    0    0    0 -0.00000000000E+00 -0.00000000000E+00 -0.45593999997E+02  0.45594000000E+02  0.51100000000E-03 0.  1.
         23    2    1    2    0    0  0.00000000000E+00  0.00000000000E+00  0.00000000000E+00  0.91188000000E+02  0.91188000000E+02 0.  0.
    9900012    2    3    3    0    0  0.15511764172E+02 -0.10861947065E+02 -0.39051590947E+02  0.47787268701E+02  0.19999989317E+02 0.  0.
         12    1    3    3    0    0 -0.15511764172E+02  0.10861947065E+02  0.39051590947E+02  0.43400731299E+02  0.00000000000E+00 0. -1.
         11    1    4    4    0    0  0.19038515850E+02 -0.98757086456E+01 -0.29243936252E+02  0.36265720933E+02  0.51100000000E-03 0. -1.
        -11    1    4    4    0    0 -0.52201176358E+00 -0.21446415430E+00  0.50196469073E+00  0.75528800246E+00  0.51100000000E-03 0.  1.
        -12    1    4    4    0    0 -0.30047399142E+01 -0.77177426459E+00 -0.10309619386E+02  0.10766259766E+02  0.00000000000E+00 0.  1.
</event>
<event>
 8    1  0.3776180E-010  0.9118800E+02  0.7816164E-02  0.1184000E+00
        -11   -1    0    0    0    0  0.00000000000E+00  0.00000000000E+00  0.45593999997E+02  0.45594000000E+02  0.51100000000E-03 0. -1.
         11   -1    0    0    0    0 -0.00000000000E+00 -0.00000000000E+00 -0.45593999997E+02  0.45594000000E+02  0.51100000000E-03 0.  1.
         23    2    1    2    0    0  0.00000000000E+00  0.35527136788E-14  0.35527136788E-14  0.91188000000E+02  0.91188000000E+02 0.  0.
    9900012    2    3    3    0    0 -0.15718095221E+02 -0.28252039812E+02  0.28954904783E+02  0.47787276712E+02  0.20000025840E+02 0.  0.
        -12    1    3    3    0    0  0.15718095221E+02  0.28252039812E+02 -0.28954904783E+02  0.43400723288E+02  0.00000000000E+00 0.  1.
         11    1    4    4    0    0 -0.13657891849E+01 -0.35622595511E+01  0.42400954608E+01  0.57038130215E+01  0.51100000000E-03 0. -1.
        -11    1    4    4    0    0  0.88961447173E+00 -0.95177958603E+01  0.16486039633E+02  0.19057002781E+02  0.51100000000E-03 0.  1.
         12    1    4    4    0    0 -0.15241920508E+02 -0.15171984401E+02  0.82287696897E+01  0.23026460910E+02  0.00000000000E+00 0. -1.
</event>
<event>
 8    1  0.3776180E-010  0.9118800E+02  0.7816164E-02  0.1184000E+00
        -11   -1    0    0    0    0  0.00000000000E+00  0.00000000000E+00  0.45593999997E+02  0.45594000000E+02  0.51100000000E-03 0. -1.
         11   -1    0    0    0    0 -0.00000000000E+00 -0.00000000000E+00 -0.45593999997E+02  0.45594000000E+02  0.51100000000E-03 0.  1.
         23    2    1    2    0    0  0.35527136788E-14 -0.35527136788E-14  0.35527136788E-14  0.91188000000E+02  0.91188000000E+02 0.  0.
    9900012    2    3    3    0    0  0.26985014878E+02 -0.26473994922E+02  0.21320409040E+02  0.47787271011E+02  0.19999999848E+02 0.  0.
        -12    1    3    3    0    0 -0.26985014878E+02  0.26473994922E+02 -0.21320409040E+02  0.43400728989E+02  0.00000000000E+00 0.  1.
         11    1    4    4    0    0  0.18213321391E+01 -0.20675741446E+01  0.32626149175E+01  0.42704531335E+01  0.51100000000E-03 0. -1.
        -11    1    4    4    0    0  0.76537167606E+01  0.17033052081E+01  0.14916918828E+01  0.79815896799E+01  0.51100000000E-03 0.  1.
         12    1    4    4    0    0  0.17509965979E+02 -0.26109725986E+02  0.16566102240E+02  0.35535228198E+02  0.00000000000E+00 0. -1.
</event>
<event>
 8    1  0.3776180E-010  0.9118800E+02  0.7816164E-02  0.1184000E+00
        -11   -1    0    0    0    0  0.00000000000E+00  0.00000000000E+00  0.45593999997E+02  0.45594000000E+02  0.51100000000E-03 0. -1.
         11   -1    0    0    0    0 -0.00000000000E+00 -0.00000000000E+00 -0.45593999997E+02  0.45594000000E+02  0.51100000000E-03 0.  1.
         23    2    1    2    0    0  0.35527136788E-14  0.00000000000E+00  0.00000000000E+00  0.91188000000E+02  0.91188000000E+02 0.  0.
    9900012    2    3    3    0    0 -0.15584095179E+02 -0.12579605888E+02  0.38503416369E+02  0.47787267530E+02  0.19999983976E+02 0.  0.
        -12    1    3    3    0    0  0.15584095179E+02  0.12579605888E+02 -0.38503416369E+02  0.43400732470E+02  0.00000000000E+00 0.  1.
         11    1    4    4    0    0 -0.58278120050E+01 -0.73560429998E+01  0.12585101840E+02  0.15699030224E+02  0.51100000000E-03 0. -1.
        -11    1    4    4    0    0 -0.12825958589E+02 -0.59247168201E+01  0.14504886628E+02  0.20248437458E+02  0.51100000000E-03 0.  1.
         12    1    4    4    0    0  0.30696754158E+01  0.70115393175E+00  0.11413427902E+02  0.11839799849E+02  0.00000000000E+00 0. -1.
</event>
<event>
 8    1  0.3776180E-010  0.9118800E+02  0.7816164E-02  0.1184000E+00
        -11   -1    0    0    0    0  0.00000000000E+00  0.00000000000E+00  0.45593999997E+02  0.45594000000E+02  0.51100000000E-03 0. -1.
         11   -1    0    0    0    0 -0.00000000000E+00 -0.00000000000E+00 -0.45593999997E+02  0.45594000000E+02  0.51100000000E-03 0.  1.
         23    2    1    2    0    0  0.00000000000E+00  0.00000000000E+00  0.00000000000E+00  0.91188000000E+02  0.91188000000E+02 0.  0.
    9900012    2    3    3    0    0  0.26195488484E+02 -0.42118183941E+01 -0.34346469583E+02  0.47787274155E+02  0.20000014182E+02 0.  0.
         12    1    3    3    0    0 -0.26195488484E+02  0.42118183941E+01  0.34346469583E+02  0.43400725845E+02  0.00000000000E+00 0. -1.
         11    1    4    4    0    0  0.53705392598E+01 -0.57070905372E+01 -0.29748633475E+00  0.78423257214E+01  0.51100000000E-03 0. -1.
        -11    1    4    4    0    0  0.42295164916E+01  0.24666819571E+00 -0.64739970313E+01  0.77370726230E+01  0.51100000000E-03 0.  1.
         12    1    4    4    0    0  0.16595432732E+02  0.12486039474E+01 -0.27574986216E+02  0.32207875811E+02  0.00000000000E+00 0. -1.
</event>
<event>
 8    1  0.3776180E-010  0.9118800E+02  0.7816164E-02  0.1184000E+00
        -11   -1    0    0    0    0  0.00000000000E+00  0.00000000000E+00  0.45593999997E+02  0.45594000000E+02  0.51100000000E-03 0.  1.
         11   -1    0    0    0    0 -0.00000000000E+00 -0.00000000000E+00 -0.45593999997E+02  0.45594000000E+02  0.51100000000E-03 0. -1.
         23    2    1    2    0    0  0.17763568394E-14  0.00000000000E+00 -0.35527136788E-14  0.91188000000E+02  0.91188000000E+02 0.  0.
    9900012    2    3    3    0    0 -0.11990487893E+02 -0.33989005224E+02  0.24178476110E+02  0.47787274395E+02  0.20000015278E+02 0.  0.
        -12    1    3    3    0    0  0.11990487893E+02  0.33989005224E+02 -0.24178476110E+02  0.43400725605E+02  0.00000000000E+00 0.  1.
         11    1    4    4    0    0 -0.37518789926E+01 -0.29175754755E+02  0.21667129824E+02  0.36534446439E+02  0.51100000000E-03 0. -1.
        -11    1    4    4    0    0 -0.92502114074E+00 -0.31754216738E+01 -0.12000718964E+00  0.33095874220E+01  0.51100000000E-03 0.  1.
         12    1    4    4    0    0 -0.73135877595E+01 -0.16378287945E+01  0.26313534755E+01  0.79432405345E+01  0.00000000000E+00 0. -1.
</event>
<event>
 8    1  0.3776180E-010  0.9118800E+02  0.7816164E-02  0.1184000E+00
        -11   -1    0    0    0    0  0.00000000000E+00  0.00000000000E+00  0.45593999997E+02  0.45594000000E+02  0.51100000000E-03 0. -1.
         11   -1    0    0    0    0 -0.00000000000E+00 -0.00000000000E+00 -0.45593999997E+02  0.45594000000E+02  0.51100000000E-03 0.  1.
         23    2    1    2    0    0  0.35527136788E-14 -0.22204460493E-15  0.00000000000E+00  0.91188000000E+02  0.91188000000E+02 0.  0.
    9900012    2    3    3    0    0 -0.20651881487E+02  0.68180999334E+00 -0.38166189180E+02  0.47787273389E+02  0.20000010691E+02 0.  0.
         12    1    3    3    0    0  0.20651881487E+02 -0.68180999334E+00  0.38166189180E+02  0.43400726611E+02  0.00000000000E+00 0. -1.
         11    1    4    4    0    0 -0.10846419404E+02  0.23148534558E+01 -0.24684765938E+02  0.27061800200E+02  0.51100000000E-03 0. -1.
        -11    1    4    4    0    0 -0.94758510183E+01  0.51311114846E+00 -0.15225280652E+02  0.17940574316E+02  0.51100000000E-03 0.  1.
         12    1    4    4    0    0 -0.32961106539E+00 -0.21461546109E+01  0.17438574103E+01  0.27848988735E+01  0.00000000000E+00 0. -1.
</event>
<event>
 8    1  0.3776180E-010  0.9118800E+02  0.7816164E-02  0.1184000E+00
        -11   -1    0    0    0    0  0.00000000000E+00  0.00000000000E+00  0.45593999997E+02  0.45594000000E+02  0.51100000000E-03 0. -1.
         11   -1    0    0    0    0 -0.00000000000E+00 -0.00000000000E+00 -0.45593999997E+02  0.45594000000E+02  0.51100000000E-03 0.  1.
         23    2    1    2    0    0  0.00000000000E+00  0.00000000000E+00  0.35527136788E-14  0.91188000000E+02  0.91188000000E+02 0.  0.
    9900012    2    3    3    0    0  0.34795494452E+01  0.30338173116E+02  0.30840088307E+02  0.47787273518E+02  0.20000011278E+02 0.  0.
        -12    1    3    3    0    0 -0.34795494452E+01 -0.30338173116E+02 -0.30840088307E+02  0.43400726482E+02  0.00000000000E+00 0.  1.
         11    1    4    4    0    0 -0.19392505392E+01  0.15714268249E+01  0.82532377362E+01  0.86224131374E+01  0.51100000000E-03 0. -1.
        -11    1    4    4    0    0  0.34614291650E+01  0.94592019426E+00  0.51367975507E+01  0.62660151784E+01  0.51100000000E-03 0.  1.
         12    1    4    4    0    0  0.19573708194E+01  0.27820826097E+02  0.17450053020E+02  0.32898845202E+02  0.00000000000E+00 0. -1.
</event>
<event>
 8    1  0.3776180E-010  0.9118800E+02  0.7816164E-02  0.1184000E+00
        -11   -1    0    0    0    0  0.00000000000E+00  0.00000000000E+00  0.45593999997E+02  0.45594000000E+02  0.51100000000E-03 0. -1.
         11   -1    0    0    0    0 -0.00000000000E+00 -0.00000000000E+00 -0.45593999997E+02  0.45594000000E+02  0.51100000000E-03 0.  1.
         23    2    1    2    0    0  0.00000000000E+00  0.00000000000E+00  0.00000000000E+00  0.91188000000E+02  0.91188000000E+02 0.  0.
    9900012    2    3    3    0    0 -0.27037692057E+02 -0.54765762565E+01 -0.33505129508E+02  0.47787269792E+02  0.19999994290E+02 0.  0.
         12    1    3    3    0    0  0.27037692057E+02  0.54765762565E+01  0.33505129508E+02  0.43400730208E+02  0.00000000000E+00 0. -1.
         11    1    4    4    0    0 -0.70682331083E+01  0.71774827904E+01 -0.73695053756E+01  0.12481417717E+02  0.51100000000E-03 0. -1.
        -11    1    4    4    0    0 -0.63680127685E+01 -0.45049834632E+01 -0.10014545139E+02  0.12693997685E+02  0.51100000000E-03 0.  1.
         12    1    4    4    0    0 -0.13601446180E+02 -0.81490755837E+01 -0.16121078993E+02  0.22611854390E+02  0.00000000000E+00 0. -1.
</event>
<event>
 8    1  0.3776180E-010  0.9118800E+02  0.7816164E-02  0.1184000E+00
        -11   -1    0    0    0    0  0.00000000000E+00  0.00000000000E+00  0.45593999997E+02  0.45594000000E+02  0.51100000000E-03 0. -1.
         11   -1    0    0    0    0 -0.00000000000E+00 -0.00000000000E+00 -0.45593999997E+02  0.45594000000E+02  0.51100000000E-03 0.  1.
         23    2    1    2    0    0  0.00000000000E+00  0.55511151231E-16  0.00000000000E+00  0.91188000000E+02  0.91188000000E+02 0.  0.
    9900012    2    3    3    0    0  0.23300482395E+02  0.24329226684E+00  0.36614911314E+02  0.47787269574E+02  0.19999993295E+02 0.  0.
        -12    1    3    3    0    0 -0.23300482395E+02 -0.24329226684E+00 -0.36614911314E+02  0.43400730426E+02  0.00000000000E+00 0.  1.
         11    1    4    4    0    0  0.34940205528E+01 -0.42049428527E+01  0.27271578856E+01  0.61095920005E+01  0.51100000000E-03 0. -1.
        -11    1    4    4    0    0  0.10708901556E+02 -0.28200951489E+01  0.92585611735E+01  0.14434488714E+02  0.51100000000E-03 0.  1.
         12    1    4    4    0    0  0.90975602867E+01  0.72683302685E+01  0.24629192255E+02  0.27243188859E+02  0.00000000000E+00 0. -1.
</event>
<event>
 8    1  0.3776180E-010  0.9118800E+02  0.7816164E-02  0.1184000E+00
        -11   -1    0    0    0    0  0.00000000000E+00  0.00000000000E+00  0.45593999997E+02  0.45594000000E+02  0.51100000000E-03 0. -1.
         11   -1    0    0    0    0 -0.00000000000E+00 -0.00000000000E+00 -0.45593999997E+02  0.45594000000E+02  0.51100000000E-03 0.  1.
         23    2    1    2    0    0 -0.88817841970E-15  0.00000000000E+00  0.00000000000E+00  0.91188000000E+02  0.91188000000E+02 0.  0.
    9900012    2    3    3    0    0  0.23431310549E+01  0.43700284395E+01 -0.43116539475E+02  0.47787269730E+02  0.19999994006E+02 0.  0.
         12    1    3    3    0    0 -0.23431310549E+01 -0.43700284395E+01  0.43116539475E+02  0.43400730270E+02  0.00000000000E+00 0. -1.
         11    1    4    4    0    0  0.69010382938E+01 -0.49294912167E+00 -0.57734111785E+01  0.90110823582E+01  0.51100000000E-03 0. -1.
        -11    1    4    4    0    0  0.19572106635E+01  0.29337759660E+01 -0.15713910811E+02  0.16104803887E+02  0.51100000000E-03 0.  1.
         12    1    4    4    0    0 -0.65151179025E+01  0.19292015951E+01 -0.21629217486E+02  0.22671383485E+02  0.00000000000E+00 0. -1.
</event>
<event>
 8    1  0.3776180E-010  0.9118800E+02  0.7816164E-02  0.1184000E+00
        -11   -1    0    0    0    0  0.00000000000E+00  0.00000000000E+00  0.45593999997E+02  0.45594000000E+02  0.51100000000E-03 0. -1.
         11   -1    0    0    0    0 -0.00000000000E+00 -0.00000000000E+00 -0.45593999997E+02  0.45594000000E+02  0.51100000000E-03 0.  1.
         23    2    1    2    0    0  0.88817841970E-15  0.00000000000E+00  0.71054273576E-14  0.91188000000E+02  0.91188000000E+02 0.  0.
    9900012    2    3    3    0    0 -0.47299162083E+01  0.24481858766E+02 -0.35523089392E+02  0.47787269638E+02  0.19999993589E+02 0.  0.
         12    1    3    3    0    0  0.47299162083E+01 -0.24481858766E+02  0.35523089392E+02  0.43400730362E+02  0.00000000000E+00 0. -1.
         11    1    4    4    0    0 -0.29351011020E+01  0.46139499754E+01 -0.88060007942E+00  0.55388455129E+01  0.51100000000E-03 0. -1.
        -11    1    4    4    0    0 -0.13335143749E+01  0.82547197508E+01 -0.27178588603E+02  0.28435793245E+02  0.51100000000E-03 0.  1.
        -12    1    4    4    0    0 -0.46130073145E+00  0.11613189040E+02 -0.74639007090E+01  0.13812630880E+02  0.00000000000E+00 0.  1.
</event>
<event>
 8    1  0.3776180E-010  0.9118800E+02  0.7816164E-02  0.1184000E+00
        -11   -1    0    0    0    0  0.00000000000E+00  0.00000000000E+00  0.45593999997E+02  0.45594000000E+02  0.51100000000E-03 0. -1.
         11   -1    0    0    0    0 -0.00000000000E+00 -0.00000000000E+00 -0.45593999997E+02  0.45594000000E+02  0.51100000000E-03 0.  1.
         23    2    1    2    0    0  0.00000000000E+00  0.35527136788E-14 -0.71054273576E-14  0.91188000000E+02  0.91188000000E+02 0.  0.
    9900012    2    3    3    0    0  0.29421333404E+01 -0.28875137123E+02  0.32267535200E+02  0.47787268205E+02  0.19999987054E+02 0.  0.
        -12    1    3    3    0    0 -0.29421333404E+01  0.28875137123E+02 -0.32267535200E+02  0.43400731795E+02  0.00000000000E+00 0.  1.
         11    1    4    4    0    0 -0.45697061077E+00 -0.15765860165E+02  0.53945843415E+01  0.16669514371E+02  0.51100000000E-03 0.  1.
        -11    1    4    4    0    0 -0.19222358857E+01 -0.80169337607E+00  0.55646445692E+01  0.59416304591E+01  0.51100000000E-03 0. -1.
        -12    1    4    4    0    0  0.53213398369E+01 -0.12307583582E+02  0.21308306289E+02  0.25176123375E+02  0.00000000000E+00 0.  1.
</event>
<event>
 8    1  0.3776180E-010  0.9118800E+02  0.7816164E-02  0.1184000E+00
        -11   -1    0    0    0    0  0.00000000000E+00  0.00000000000E+00  0.45593999997E+02  0.45594000000E+02  0.51100000000E-03 0. -1.
         11   -1    0    0    0    0 -0.00000000000E+00 -0.00000000000E+00 -0.45593999997E+02  0.45594000000E+02  0.51100000000E-03 0.  1.
         23    2    1    2    0    0  0.35527136788E-14  0.00000000000E+00 -0.35527136788E-14  0.91188000000E+02  0.91188000000E+02 0.  0.
    9900012    2    3    3    0    0 -0.17768299028E+02  0.25273125428E+02  0.30482454417E+02  0.47787270208E+02  0.19999996185E+02 0.  0.
        -12    1    3    3    0    0  0.17768299028E+02 -0.25273125428E+02 -0.30482454417E+02  0.43400729792E+02  0.00000000000E+00 0.  1.
         11    1    4    4    0    0 -0.55541445363E+01  0.12077344639E+02  0.15721017410E+02  0.20587888763E+02  0.51100000000E-03 0. -1.
        -11    1    4    4    0    0  0.28178329375E+01  0.81438966089E-01  0.26067254979E+01  0.38395094546E+01  0.51100000000E-03 0.  1.
        -12    1    4    4    0    0 -0.15031987429E+02  0.13114341823E+02  0.12154711509E+02  0.23359871990E+02  0.00000000000E+00 0.  1.
</event>
<event>
 8    1  0.3776180E-010  0.9118800E+02  0.7816164E-02  0.1184000E+00
        -11   -1    0    0    0    0  0.00000000000E+00  0.00000000000E+00  0.45593999997E+02  0.45594000000E+02  0.51100000000E-03 0. -1.
         11   -1    0    0    0    0 -0.00000000000E+00 -0.00000000000E+00 -0.45593999997E+02  0.45594000000E+02  0.51100000000E-03 0.  1.
         23    2    1    2    0    0  0.00000000000E+00  0.00000000000E+00 -0.71054273576E-14  0.91188000000E+02  0.91188000000E+02 0.  0.
    9900012    2    3    3    0    0  0.18159909806E+02 -0.13130805528E+02 -0.37167502784E+02  0.47787266813E+02  0.19999980707E+02 0.  0.
         12    1    3    3    0    0 -0.18159909806E+02  0.13130805528E+02  0.37167502784E+02  0.43400733187E+02  0.00000000000E+00 0. -1.
         11    1    4    4    0    0  0.71389991441E+01 -0.68070777539E+01 -0.22035944588E+02  0.24143000445E+02  0.51100000000E-03 0. -1.
        -11    1    4    4    0    0  0.11934779607E+01 -0.22578517020E+00 -0.11439271579E+02  0.11503577840E+02  0.51100000000E-03 0.  1.
         12    1    4    4    0    0  0.98274327011E+01 -0.60979426035E+01 -0.36922866167E+01  0.12140688529E+02  0.00000000000E+00 0. -1.
</event>
<event>
 8    1  0.3776180E-010  0.9118800E+02  0.7816164E-02  0.1184000E+00
        -11   -1    0    0    0    0  0.00000000000E+00  0.00000000000E+00  0.45593999997E+02  0.45594000000E+02  0.51100000000E-03 0. -1.
         11   -1    0    0    0    0 -0.00000000000E+00 -0.00000000000E+00 -0.45593999997E+02  0.45594000000E+02  0.51100000000E-03 0.  1.
         23    2    1    2    0    0  0.00000000000E+00 -0.17763568394E-14  0.00000000000E+00  0.91188000000E+02  0.91188000000E+02 0.  0.
    9900012    2    3    3    0    0  0.98940029853E+01 -0.98671114493E+01 -0.41089803075E+02  0.47787273046E+02  0.20000009126E+02 0.  0.
         12    1    3    3    0    0 -0.98940029853E+01  0.98671114493E+01  0.41089803075E+02  0.43400726954E+02  0.00000000000E+00 0. -1.
         11    1    4    4    0    0  0.29721537215E+01 -0.22525814589E+01  0.23921171839E+00  0.37369832058E+01  0.51100000000E-03 0. -1.
        -11    1    4    4    0    0 -0.23180118552E+01 -0.50821906439E+01 -0.13152339046E+02  0.14289361894E+02  0.51100000000E-03 0.  1.
         12    1    4    4    0    0  0.92398611190E+01 -0.25323393465E+01 -0.28176675747E+02  0.29760927946E+02  0.00000000000E+00 0. -1.
</event>
<event>
 8    1  0.3776180E-010  0.9118800E+02  0.7816164E-02  0.1184000E+00
        -11   -1    0    0    0    0  0.00000000000E+00  0.00000000000E+00  0.45593999997E+02  0.45594000000E+02  0.51100000000E-03 0. -1.
         11   -1    0    0    0    0 -0.00000000000E+00 -0.00000000000E+00 -0.45593999997E+02  0.45594000000E+02  0.51100000000E-03 0.  1.
         23    2    1    2    0    0  0.00000000000E+00  0.00000000000E+00  0.71054273576E-14  0.91188000000E+02  0.91188000000E+02 0.  0.
    9900012    2    3    3    0    0 -0.22120004377E+02  0.96173041600E+01  0.36080925832E+02  0.47787304823E+02  0.20000154009E+02 0.  0.
        -12    1    3    3    0    0  0.22120004377E+02 -0.96173041600E+01 -0.36080925832E+02  0.43400695177E+02  0.00000000000E+00 0.  1.
         11    1    4    4    0    0 -0.87341483962E+01  0.16545311479E+01  0.61909796826E+01  0.10832869021E+02  0.51100000000E-03 0. -1.
        -11    1    4    4    0    0 -0.78389596134E+01  0.14783885390E+01  0.26446626043E+01  0.84041157205E+01  0.51100000000E-03 0.  1.
         12    1    4    4    0    0 -0.55468963674E+01  0.64843844731E+01  0.27245283545E+02  0.28550320082E+02  0.00000000000E+00 0. -1.
</event>
<event>
 8    1  0.3776180E-010  0.9118800E+02  0.7816164E-02  0.1184000E+00
        -11   -1    0    0    0    0  0.00000000000E+00  0.00000000000E+00  0.45593999997E+02  0.45594000000E+02  0.51100000000E-03 0. -1.
         11   -1    0    0    0    0 -0.00000000000E+00 -0.00000000000E+00 -0.45593999997E+02  0.45594000000E+02  0.51100000000E-03 0.  1.
         23    2    1    2    0    0  0.35527136788E-14  0.17763568394E-14  0.00000000000E+00  0.91188000000E+02  0.91188000000E+02 0.  0.
    9900012    2    3    3    0    0  0.25349618998E+02 -0.57791255021E+01  0.34750856004E+02  0.47787268808E+02  0.19999989805E+02 0.  0.
        -12    1    3    3    0    0 -0.25349618998E+02  0.57791255021E+01 -0.34750856004E+02  0.43400731192E+02  0.00000000000E+00 0.  1.
         11    1    4    4    0    0  0.59150343839E+01  0.13193663342E+01  0.96125407532E+01  0.11363507349E+02  0.51100000000E-03 0. -1.
        -11    1    4    4    0    0  0.19894733018E+02 -0.10037379037E+02  0.17848172196E+02  0.28550072342E+02  0.51100000000E-03 0.  1.
        -12    1    4    4    0    0 -0.46014840319E+00  0.29388872007E+01  0.72901430556E+01  0.78736891165E+01  0.00000000000E+00 0.  1.
</event>
<event>
 8    1  0.3776180E-010  0.9118800E+02  0.7816164E-02  0.1184000E+00
        -11   -1    0    0    0    0  0.00000000000E+00  0.00000000000E+00  0.45593999997E+02  0.45594000000E+02  0.51100000000E-03 0. -1.
         11   -1    0    0    0    0 -0.00000000000E+00 -0.00000000000E+00 -0.45593999997E+02  0.45594000000E+02  0.51100000000E-03 0.  1.
         23    2    1    2    0    0  0.00000000000E+00  0.00000000000E+00  0.00000000000E+00  0.91188000000E+02  0.91188000000E+02 0.  0.
    9900012    2    3    3    0    0  0.36199779357E+02  0.45970373530E+01 -0.23496099992E+02  0.47787268523E+02  0.19999988506E+02 0.  0.
         12    1    3    3    0    0 -0.36199779357E+02 -0.45970373530E+01  0.23496099992E+02  0.43400731477E+02  0.00000000000E+00 0. -1.
         11    1    4    4    0    0  0.70891564626E+01 -0.77444339046E+00  0.96278059455E+00  0.71960300618E+01  0.51100000000E-03 0. -1.
        -11    1    4    4    0    0  0.26218840290E+02  0.47818094824E+01 -0.14786069530E+02  0.30478207633E+02  0.51100000000E-03 0.  1.
         12    1    4    4    0    0  0.28917826038E+01  0.58967126105E+00 -0.96728110560E+01  0.10113030829E+02  0.00000000000E+00 0. -1.
</event>
<event>
 8    1  0.3776180E-010  0.9118800E+02  0.7816164E-02  0.1184000E+00
        -11   -1    0    0    0    0  0.00000000000E+00  0.00000000000E+00  0.45593999997E+02  0.45594000000E+02  0.51100000000E-03 0. -1.
         11   -1    0    0    0    0 -0.00000000000E+00 -0.00000000000E+00 -0.45593999997E+02  0.45594000000E+02  0.51100000000E-03 0.  1.
         23    2    1    2    0    0  0.00000000000E+00 -0.17763568394E-14  0.00000000000E+00  0.91188000000E+02  0.91188000000E+02 0.  0.
    9900012    2    3    3    0    0  0.18398397526E+02 -0.10686948668E+02 -0.37827389566E+02  0.47787270689E+02  0.19999998379E+02 0.  0.
         12    1    3    3    0    0 -0.18398397526E+02  0.10686948668E+02  0.37827389566E+02  0.43400729311E+02  0.00000000000E+00 0. -1.
         11    1    4    4    0    0  0.62270759221E-02  0.24963970688E+01  0.12469522704E+00  0.24995172059E+01  0.51100000000E-03 0. -1.
        -11    1    4    4    0    0  0.19214045271E+01  0.11128177411E+01 -0.75641172490E+01  0.78832752520E+01  0.51100000000E-03 0.  1.
        -12    1    4    4    0    0  0.16470765923E+02 -0.14296163478E+02 -0.30387967544E+02  0.37404478231E+02  0.00000000000E+00 0.  1.
</event>
<event>
 8    1  0.3776180E-010  0.9118800E+02  0.7816164E-02  0.1184000E+00
        -11   -1    0    0    0    0  0.00000000000E+00  0.00000000000E+00  0.45593999997E+02  0.45594000000E+02  0.51100000000E-03 0. -1.
         11   -1    0    0    0    0 -0.00000000000E+00 -0.00000000000E+00 -0.45593999997E+02  0.45594000000E+02  0.51100000000E-03 0.  1.
         23    2    1    2    0    0  0.00000000000E+00 -0.44408920985E-15  0.00000000000E+00  0.91188000000E+02  0.91188000000E+02 0.  0.
    9900012    2    3    3    0    0  0.18352078647E+02 -0.28436527945E+01 -0.39226748863E+02  0.47787274450E+02  0.20000015529E+02 0.  0.
         12    1    3    3    0    0 -0.18352078647E+02  0.28436527945E+01  0.39226748863E+02  0.43400725550E+02  0.00000000000E+00 0. -1.
         11    1    4    4    0    0  0.67206352557E+01 -0.19980028171E+01 -0.13602487491E+02  0.15303157181E+02  0.51100000000E-03 0. -1.
        -11    1    4    4    0    0  0.13605905831E+02 -0.56615903324E+01 -0.19614460547E+02  0.24533677698E+02  0.51100000000E-03 0.  1.
         12    1    4    4    0    0 -0.19744624396E+01  0.48159403549E+01 -0.60098008242E+01  0.79504395712E+01  0.00000000000E+00 0. -1.
</event>
<event>
 8    1  0.3776180E-010  0.9118800E+02  0.7816164E-02  0.1184000E+00
        -11   -1    0    0    0    0  0.00000000000E+00  0.00000000000E+00  0.45593999997E+02  0.45594000000E+02  0.51100000000E-03 0. -1.
         11   -1    0    0    0    0 -0.00000000000E+00 -0.00000000000E+00 -0.45593999997E+02  0.45594000000E+02  0.51100000000E-03 0.  1.
         23    2    1    2    0    0 -0.71054273576E-14  0.00000000000E+00  0.00000000000E+00  0.91188000000E+02  0.91188000000E+02 0.  0.
    9900012    2    3    3    0    0  0.35312751885E+02 -0.84847823728E+01  0.23762179343E+02  0.47787272532E+02  0.20000006783E+02 0.  0.
        -12    1    3    3    0    0 -0.35312751885E+02  0.84847823728E+01 -0.23762179343E+02  0.43400727468E+02  0.00000000000E+00 0.  1.
         11    1    4    4    0    0  0.20148985027E+02 -0.59229466241E+01  0.14827544788E+02  0.25708344541E+02  0.51100000000E-03 0. -1.
        -11    1    4    4    0    0  0.13776901803E+02  0.32193558633E+01  0.52853552085E+01  0.15103054506E+02  0.51100000000E-03 0.  1.
        -12    1    4    4    0    0  0.13868650550E+01 -0.57811916120E+01  0.36492793467E+01  0.69758734855E+01  0.00000000000E+00 0.  1.
</event>
<event>
 8    1  0.3776180E-010  0.9118800E+02  0.7816164E-02  0.1184000E+00
        -11   -1    0    0    0    0  0.00000000000E+00  0.00000000000E+00  0.45593999997E+02  0.45594000000E+02  0.51100000000E-03 0.  1.
         11   -1    0    0    0    0 -0.00000000000E+00 -0.00000000000E+00 -0.45593999997E+02  0.45594000000E+02  0.51100000000E-03 0. -1.
         23    2    1    2    0    0  0.00000000000E+00  0.00000000000E+00  0.00000000000E+00  0.91188000000E+02  0.91188000000E+02 0.  0.
    9900012    2    3    3    0    0  0.19277801434E+02 -0.20704250135E+02  0.32913884493E+02  0.47787269659E+02  0.19999993681E+02 0.  0.
        -12    1    3    3    0    0 -0.19277801434E+02  0.20704250135E+02 -0.32913884493E+02  0.43400730341E+02  0.00000000000E+00 0.  1.
         11    1    4    4    0    0  0.80791969303E+00 -0.41855085973E+01  0.31377286758E+01  0.52930669704E+01  0.51100000000E-03 0. -1.
        -11    1    4    4    0    0  0.42772176906E+00 -0.17973695758E+01 -0.22411241746E+01  0.29045001516E+01  0.51100000000E-03 0.  1.
         12    1    4    4    0    0  0.18042159972E+02 -0.14721371962E+02  0.32017279991E+02  0.39589702537E+02  0.00000000000E+00 0. -1.
</event>
<event>
 8    1  0.3776180E-010  0.9118800E+02  0.7816164E-02  0.1184000E+00
        -11   -1    0    0    0    0  0.00000000000E+00  0.00000000000E+00  0.45593999997E+02  0.45594000000E+02  0.51100000000E-03 0. -1.
         11   -1    0    0    0    0 -0.00000000000E+00 -0.00000000000E+00 -0.45593999997E+02  0.45594000000E+02  0.51100000000E-03 0.  1.
         23    2    1    2    0    0  0.00000000000E+00  0.00000000000E+00  0.35527136788E-14  0.91188000000E+02  0.91188000000E+02 0.  0.
    9900012    2    3    3    0    0 -0.32162698703E+02  0.16237824775E+02  0.24197459702E+02  0.47787271927E+02  0.20000004022E+02 0.  0.
        -12    1    3    3    0    0  0.32162698703E+02 -0.16237824775E+02 -0.24197459702E+02  0.43400728073E+02  0.00000000000E+00 0.  1.
         11    1    4    4    0    0 -0.95478661790E+01  0.64391575539E+01 -0.78280200961E+00  0.11542845309E+02  0.51100000000E-03 0. -1.
        -11    1    4    4    0    0 -0.49804667009E+01  0.67095377248E+01  0.77320064982E+01  0.11384501297E+02  0.51100000000E-03 0.  1.
        -12    1    4    4    0    0 -0.17634365823E+02  0.30891294959E+01  0.17248255213E+02  0.24859925320E+02  0.00000000000E+00 0.  1.
</event>
<event>
 8    1  0.4138118E-010  0.9118800E+02  0.7816164E-02  0.1184000E+00
        -11   -1    0    0    0    0  0.00000000000E+00  0.00000000000E+00  0.45593999997E+02  0.45594000000E+02  0.51100000000E-03 0. -1.
         11   -1    0    0    0    0 -0.00000000000E+00 -0.00000000000E+00 -0.45593999997E+02  0.45594000000E+02  0.51100000000E-03 0.  1.
         23    2    1    2    0    0  0.00000000000E+00  0.00000000000E+00  0.00000000000E+00  0.91188000000E+02  0.91188000000E+02 0.  0.
    9900012    2    3    3    0    0  0.35511345493E+02 -0.22365326815E+02  0.11061661073E+02  0.47787264431E+02  0.19999969844E+02 0.  0.
        -12    1    3    3    0    0 -0.35511345493E+02  0.22365326815E+02 -0.11061661073E+02  0.43400735569E+02  0.00000000000E+00 0.  1.
         11    1    4    4    0    0  0.18690634097E+02 -0.86709196088E+01  0.77616273718E+01  0.22017436489E+02  0.51100000000E-03 0. -1.
        -11    1    4    4    0    0  0.12145081880E+02 -0.66355402072E+01  0.81012666328E+01  0.16036331533E+02  0.51100000000E-03 0.  1.
        -12    1    4    4    0    0  0.46756295157E+01 -0.70588669993E+01 -0.48012329313E+01  0.97334964089E+01  0.00000000000E+00 0.  1.
</event>
<event>
 8    1  0.3776180E-010  0.9118800E+02  0.7816164E-02  0.1184000E+00
        -11   -1    0    0    0    0  0.00000000000E+00  0.00000000000E+00  0.45593999997E+02  0.45594000000E+02  0.51100000000E-03 0. -1.
         11   -1    0    0    0    0 -0.00000000000E+00 -0.00000000000E+00 -0.45593999997E+02  0.45594000000E+02  0.51100000000E-03 0.  1.
         23    2    1    2    0    0  0.00000000000E+00 -0.17763568394E-14  0.00000000000E+00  0.91188000000E+02  0.91188000000E+02 0.  0.
    9900012    2    3    3    0    0  0.12348568739E+02 -0.15931979936E+02  0.38435768248E+02  0.47787269414E+02  0.19999992567E+02 0.  0.
        -12    1    3    3    0    0 -0.12348568739E+02  0.15931979936E+02 -0.38435768248E+02  0.43400730586E+02  0.00000000000E+00 0.  1.
         11    1    4    4    0    0  0.42510327226E+00 -0.12282561988E+02  0.22464082637E+02  0.25606191648E+02  0.51100000000E-03 0. -1.
        -11    1    4    4    0    0  0.96629789308E+00 -0.63036668229E+00  0.85037464578E+01  0.85816547269E+01  0.51100000000E-03 0.  1.
        -12    1    4    4    0    0  0.10957167574E+02 -0.30190512663E+01  0.74679391534E+01  0.13599423039E+02  0.00000000000E+00 0.  1.
</event>
<event>
 8    1  0.3776180E-010  0.9118800E+02  0.7816164E-02  0.1184000E+00
        -11   -1    0    0    0    0  0.00000000000E+00  0.00000000000E+00  0.45593999997E+02  0.45594000000E+02  0.51100000000E-03 0. -1.
         11   -1    0    0    0    0 -0.00000000000E+00 -0.00000000000E+00 -0.45593999997E+02  0.45594000000E+02  0.51100000000E-03 0.  1.
         23    2    1    2    0    0 -0.88817841970E-15  0.71054273576E-14 -0.88817841970E-15  0.91188000000E+02  0.91188000000E+02 0.  0.
    9900012    2    3    3    0    0  0.53806348692E+01 -0.42530584544E+02 -0.67691674971E+01  0.47787268649E+02  0.19999989076E+02 0.  0.
         12    1    3    3    0    0 -0.53806348692E+01  0.42530584544E+02  0.67691674971E+01  0.43400731351E+02  0.00000000000E+00 0. -1.
         11    1    4    4    0    0  0.47694707858E+00  0.73865443003E+00  0.23247630394E+00  0.90946928248E+00  0.51100000000E-03 0. -1.
        -11    1    4    4    0    0  0.12558257212E+01  0.39328994670E+00 -0.25093206389E+01  0.28334547030E+01  0.51100000000E-03 0.  1.
         12    1    4    4    0    0  0.36478620695E+01 -0.43662528921E+02 -0.44923231622E+01  0.44044344663E+02  0.00000000000E+00 0. -1.
</event>
<event>
 8    1  0.3776180E-010  0.9118800E+02  0.7816164E-02  0.1184000E+00
        -11   -1    0    0    0    0  0.00000000000E+00  0.00000000000E+00  0.45593999997E+02  0.45594000000E+02  0.51100000000E-03 0. -1.
         11   -1    0    0    0    0 -0.00000000000E+00 -0.00000000000E+00 -0.45593999997E+02  0.45594000000E+02  0.51100000000E-03 0.  1.
         23    2    1    2    0    0  0.00000000000E+00  0.00000000000E+00  0.00000000000E+00  0.91188000000E+02  0.91188000000E+02 0.  0.
    9900012    2    3    3    0    0 -0.10379197973E+01 -0.93786361533E+01 -0.42362590998E+02  0.47787248743E+02  0.19999898321E+02 0.  0.
         12    1    3    3    0    0  0.10379197973E+01  0.93786361533E+01  0.42362590998E+02  0.43400751257E+02  0.00000000000E+00 0. -1.
         11    1    4    4    0    0 -0.31943030250E+01  0.13857279581E+01 -0.54581491578E+01  0.64741954156E+01  0.51100000000E-03 0. -1.
        -11    1    4    4    0    0 -0.41221836577E+00 -0.41557363943E+01 -0.47847831707E+00  0.42034522384E+01  0.51100000000E-03 0.  1.
        -12    1    4    4    0    0  0.25686015935E+01 -0.66086277172E+01 -0.36425963523E+02  0.37109601089E+02  0.00000000000E+00 0.  1.
</event>
<event>
 8    1  0.3776180E-010  0.9118800E+02  0.7816164E-02  0.1184000E+00
        -11   -1    0    0    0    0  0.00000000000E+00  0.00000000000E+00  0.45593999997E+02  0.45594000000E+02  0.51100000000E-03 0. -1.
         11   -1    0    0    0    0 -0.00000000000E+00 -0.00000000000E+00 -0.45593999997E+02  0.45594000000E+02  0.51100000000E-03 0.  1.
         23    2    1    2    0    0  0.17763568394E-14  0.71054273576E-14  0.00000000000E+00  0.91188000000E+02  0.91188000000E+02 0.  0.
    9900012    2    3    3    0    0  0.90715479644E+01  0.35320201176E+02  0.23533240693E+02  0.47787274072E+02  0.20000013803E+02 0.  0.
        -12    1    3    3    0    0 -0.90715479644E+01 -0.35320201176E+02 -0.23533240693E+02  0.43400725928E+02  0.00000000000E+00 0.  1.
         11    1    4    4    0    0  0.42612548330E+01  0.17569514267E+02  0.11166976305E+02  0.21249646688E+02  0.51100000000E-03 0. -1.
        -11    1    4    4    0    0 -0.28680384936E+01  0.14106687325E+02  0.48460303316E+01  0.15189084315E+02  0.51100000000E-03 0.  1.
         12    1    4    4    0    0  0.76783316251E+01  0.36439995836E+01  0.75202340568E+01  0.11348543069E+02  0.00000000000E+00 0. -1.
</event>
<event>
 8    1  0.3776180E-010  0.9118800E+02  0.7816164E-02  0.1184000E+00
        -11   -1    0    0    0    0  0.00000000000E+00  0.00000000000E+00  0.45593999997E+02  0.45594000000E+02  0.51100000000E-03 0. -1.
         11   -1    0    0    0    0 -0.00000000000E+00 -0.00000000000E+00 -0.45593999997E+02  0.45594000000E+02  0.51100000000E-03 0.  1.
         23    2    1    2    0    0 -0.11102230246E-14  0.00000000000E+00  0.00000000000E+00  0.91188000000E+02  0.91188000000E+02 0.  0.
    9900012    2    3    3    0    0 -0.13657153542E+01 -0.95944439961E+01 -0.42304902109E+02  0.47787271014E+02  0.19999999863E+02 0.  0.
         12    1    3    3    0    0  0.13657153542E+01  0.95944439961E+01  0.42304902109E+02  0.43400728986E+02  0.00000000000E+00 0. -1.
         11    1    4    4    0    0 -0.24548476628E+01 -0.61647647038E+01 -0.93076185565E+01  0.11430763944E+02  0.51100000000E-03 0. -1.
        -11    1    4    4    0    0 -0.40613657353E+01 -0.76045637200E+01 -0.17924447251E+02  0.19889944457E+02  0.51100000000E-03 0.  1.
        -12    1    4    4    0    0  0.51504980439E+01  0.41748844278E+01 -0.15072836302E+02  0.16466562612E+02  0.00000000000E+00 0.  1.
</event>
<event>
 8    1  0.3776180E-010  0.9118800E+02  0.7816164E-02  0.1184000E+00
        -11   -1    0    0    0    0  0.00000000000E+00  0.00000000000E+00  0.45593999997E+02  0.45594000000E+02  0.51100000000E-03 0. -1.
         11   -1    0    0    0    0 -0.00000000000E+00 -0.00000000000E+00 -0.45593999997E+02  0.45594000000E+02  0.51100000000E-03 0.  1.
         23    2    1    2    0    0  0.00000000000E+00  0.00000000000E+00  0.00000000000E+00  0.91188000000E+02  0.91188000000E+02 0.  0.
    9900012    2    3    3    0    0  0.16702583997E+02  0.19069021637E+02 -0.35228106414E+02  0.47787269823E+02  0.19999994431E+02 0.  0.
         12    1    3    3    0    0 -0.16702583997E+02 -0.19069021637E+02  0.35228106414E+02  0.43400730177E+02  0.00000000000E+00 0. -1.
         11    1    4    4    0    0  0.24151369005E+01  0.92355113610E+00 -0.18320534886E+02  0.18502103440E+02  0.51100000000E-03 0. -1.
        -11    1    4    4    0    0  0.54197136789E+01  0.26904312924E+01 -0.50581417807E+01  0.78864767441E+01  0.51100000000E-03 0.  1.
         12    1    4    4    0    0  0.88677334177E+01  0.15455039209E+02 -0.11849429747E+02  0.21398689639E+02  0.00000000000E+00 0. -1.
</event>
<event>
 8    1  0.3776180E-010  0.9118800E+02  0.7816164E-02  0.1184000E+00
        -11   -1    0    0    0    0  0.00000000000E+00  0.00000000000E+00  0.45593999997E+02  0.45594000000E+02  0.51100000000E-03 0. -1.
         11   -1    0    0    0    0 -0.00000000000E+00 -0.00000000000E+00 -0.45593999997E+02  0.45594000000E+02  0.51100000000E-03 0.  1.
         23    2    1    2    0    0  0.00000000000E+00 -0.17763568394E-14  0.00000000000E+00  0.91188000000E+02  0.91188000000E+02 0.  0.
    9900012    2    3    3    0    0  0.20541755418E+02 -0.12627485533E+02  0.36086095109E+02  0.47787269974E+02  0.19999995119E+02 0.  0.
        -12    1    3    3    0    0 -0.20541755418E+02  0.12627485533E+02 -0.36086095109E+02  0.43400730026E+02  0.00000000000E+00 0.  1.
         11    1    4    4    0    0  0.12685053048E+02 -0.73445373079E+01  0.96000169876E+01  0.17521790020E+02  0.51100000000E-03 0. -1.
        -11    1    4    4    0    0  0.29803447049E+01  0.25547904833E+01  0.27367845078E+01  0.47853316162E+01  0.51100000000E-03 0.  1.
         12    1    4    4    0    0  0.48763576658E+01 -0.78377387082E+01  0.23749293614E+02  0.25480148338E+02  0.00000000000E+00 0. -1.
</event>
<event>
 8    1  0.3776180E-010  0.9118800E+02  0.7816164E-02  0.1184000E+00
        -11   -1    0    0    0    0  0.00000000000E+00  0.00000000000E+00  0.45593999997E+02  0.45594000000E+02  0.51100000000E-03 0. -1.
         11   -1    0    0    0    0 -0.00000000000E+00 -0.00000000000E+00 -0.45593999997E+02  0.45594000000E+02  0.51100000000E-03 0.  1.
         23    2    1    2    0    0  0.00000000000E+00  0.00000000000E+00  0.00000000000E+00  0.91188000000E+02  0.91188000000E+02 0.  0.
    9900012    2    3    3    0    0  0.25846638364E+02 -0.78421799415E+01  0.33971674764E+02  0.47787272042E+02  0.20000004549E+02 0.  0.
        -12    1    3    3    0    0 -0.25846638364E+02  0.78421799415E+01 -0.33971674764E+02  0.43400727958E+02  0.00000000000E+00 0.  1.
         11    1    4    4    0    0  0.69904623942E+01  0.12490234617E+00  0.15673336709E+02  0.17162040931E+02  0.51100000000E-03 0.  1.
        -11    1    4    4    0    0  0.13830403108E+02  0.14012622522E+01  0.11052176206E+02  0.17759340787E+02  0.51100000000E-03 0. -1.
        -12    1    4    4    0    0  0.50257728620E+01 -0.93683445399E+01  0.72461618497E+01  0.12865890324E+02  0.00000000000E+00 0.  1.
</event>
<event>
 8    1  0.3776180E-010  0.9118800E+02  0.7816164E-02  0.1184000E+00
        -11   -1    0    0    0    0  0.00000000000E+00  0.00000000000E+00  0.45593999997E+02  0.45594000000E+02  0.51100000000E-03 0. -1.
         11   -1    0    0    0    0 -0.00000000000E+00 -0.00000000000E+00 -0.45593999997E+02  0.45594000000E+02  0.51100000000E-03 0.  1.
         23    2    1    2    0    0  0.00000000000E+00  0.00000000000E+00  0.00000000000E+00  0.91188000000E+02  0.91188000000E+02 0.  0.
    9900012    2    3    3    0    0  0.29995047947E+02  0.12692976239E+02 -0.28684648164E+02  0.47787267432E+02  0.19999983531E+02 0.  0.
         12    1    3    3    0    0 -0.29995047947E+02 -0.12692976239E+02  0.28684648164E+02  0.43400732568E+02  0.00000000000E+00 0. -1.
         11    1    4    4    0    0  0.61231584015E+00 -0.12394518339E+01 -0.64380446124E+00  0.15250101581E+01  0.51100000000E-03 0. -1.
        -11    1    4    4    0    0  0.30966120311E+02  0.14389678904E+02 -0.23553119954E+02  0.41481476902E+02  0.51100000000E-03 0.  1.
        -12    1    4    4    0    0 -0.15833882047E+01 -0.45725083162E+00 -0.44877237482E+01  0.47807803725E+01  0.00000000000E+00 0.  1.
</event>
<event>
 8    1  0.3776180E-010  0.9118800E+02  0.7816164E-02  0.1184000E+00
        -11   -1    0    0    0    0  0.00000000000E+00  0.00000000000E+00  0.45593999997E+02  0.45594000000E+02  0.51100000000E-03 0. -1.
         11   -1    0    0    0    0 -0.00000000000E+00 -0.00000000000E+00 -0.45593999997E+02  0.45594000000E+02  0.51100000000E-03 0.  1.
         23    2    1    2    0    0  0.88817841970E-15  0.88817841970E-15  0.71054273576E-14  0.91188000000E+02  0.91188000000E+02 0.  0.
    9900012    2    3    3    0    0  0.17590972574E+01 -0.25641133737E+01 -0.43289189825E+02  0.47787273551E+02  0.20000011430E+02 0.  0.
         12    1    3    3    0    0 -0.17590972574E+01  0.25641133737E+01  0.43289189825E+02  0.43400726449E+02  0.00000000000E+00 0. -1.
         11    1    4    4    0    0 -0.85395876495E+00  0.17487709111E+01 -0.13683683091E+01  0.23790496763E+01  0.51100000000E-03 0.  1.
        -11    1    4    4    0    0 -0.65169603650E+01 -0.50693811646E+01 -0.21282562305E+02  0.22827984061E+02  0.51100000000E-03 0. -1.
         12    1    4    4    0    0  0.91300163873E+01  0.75649687983E+00 -0.20638259211E+02  0.22580239813E+02  0.00000000000E+00 0. -1.
</event>
<event>
 8    1  0.3776180E-010  0.9118800E+02  0.7816164E-02  0.1184000E+00
        -11   -1    0    0    0    0  0.00000000000E+00  0.00000000000E+00  0.45593999997E+02  0.45594000000E+02  0.51100000000E-03 0. -1.
         11   -1    0    0    0    0 -0.00000000000E+00 -0.00000000000E+00 -0.45593999997E+02  0.45594000000E+02  0.51100000000E-03 0.  1.
         23    2    1    2    0    0  0.17763568394E-14  0.35527136788E-14  0.00000000000E+00  0.91188000000E+02  0.91188000000E+02 0.  0.
    9900012    2    3    3    0    0 -0.11287663570E+02 -0.29373189188E+02 -0.29890231071E+02  0.47787291418E+02  0.20000092892E+02 0.  0.
         12    1    3    3    0    0  0.11287663570E+02  0.29373189188E+02  0.29890231071E+02  0.43400708582E+02  0.00000000000E+00 0. -1.
         11    1    4    4    0    0 -0.20500029304E+01 -0.20279135766E+01  0.16571581832E+01  0.33258260619E+01  0.51100000000E-03 0. -1.
        -11    1    4    4    0    0 -0.30051504853E+01 -0.10907083932E+02 -0.21285935294E+02  0.24105734814E+02  0.51100000000E-03 0.  1.
         12    1    4    4    0    0 -0.62325101543E+01 -0.16438191680E+02 -0.10261453960E+02  0.20355730542E+02  0.00000000000E+00 0. -1.
</event>
<event>
 8    1  0.3776180E-010  0.9118800E+02  0.7816164E-02  0.1184000E+00
        -11   -1    0    0    0    0  0.00000000000E+00  0.00000000000E+00  0.45593999997E+02  0.45594000000E+02  0.51100000000E-03 0. -1.
         11   -1    0    0    0    0 -0.00000000000E+00 -0.00000000000E+00 -0.45593999997E+02  0.45594000000E+02  0.51100000000E-03 0.  1.
         23    2    1    2    0    0  0.00000000000E+00  0.17763568394E-14  0.00000000000E+00  0.91188000000E+02  0.91188000000E+02 0.  0.
    9900012    2    3    3    0    0 -0.13918334774E+02 -0.73772777562E+01  0.40441060878E+02  0.47787266424E+02  0.19999978935E+02 0.  0.
        -12    1    3    3    0    0  0.13918334774E+02  0.73772777562E+01 -0.40441060878E+02  0.43400733576E+02  0.00000000000E+00 0.  1.
         11    1    4    4    0    0  0.36315796161E+01 -0.55855582526E+01  0.75324819150E+01  0.10056098426E+02  0.51100000000E-03 0. -1.
        -11    1    4    4    0    0 -0.27753922623E+01  0.16660803979E+01  0.68584523329E+01  0.75839959629E+01  0.51100000000E-03 0.  1.
        -12    1    4    4    0    0 -0.14774522127E+02 -0.34577999015E+01  0.26050126630E+02  0.30147172035E+02  0.00000000000E+00 0.  1.
</event>
<event>
 8    1  0.3776180E-010  0.9118800E+02  0.7816164E-02  0.1184000E+00
        -11   -1    0    0    0    0  0.00000000000E+00  0.00000000000E+00  0.45593999997E+02  0.45594000000E+02  0.51100000000E-03 0. -1.
         11   -1    0    0    0    0 -0.00000000000E+00 -0.00000000000E+00 -0.45593999997E+02  0.45594000000E+02  0.51100000000E-03 0.  1.
         23    2    1    2    0    0  0.00000000000E+00  0.00000000000E+00 -0.71054273576E-14  0.91188000000E+02  0.91188000000E+02 0.  0.
    9900012    2    3    3    0    0  0.20492314898E+02  0.16750170149E+02 -0.34396511280E+02  0.47787272378E+02  0.20000006081E+02 0.  0.
         12    1    3    3    0    0 -0.20492314898E+02 -0.16750170149E+02  0.34396511280E+02  0.43400727622E+02  0.00000000000E+00 0. -1.
         11    1    4    4    0    0  0.12094895380E+02  0.10200172769E+02 -0.20313897606E+02  0.25748484519E+02  0.51100000000E-03 0. -1.
        -11    1    4    4    0    0  0.71152298671E+01  0.60241989562E+01 -0.16672133884E+02  0.19101767396E+02  0.51100000000E-03 0.  1.
         12    1    4    4    0    0  0.12821896505E+01  0.52579842307E+00  0.25895202109E+01  0.29370204637E+01  0.00000000000E+00 0. -1.
</event>
<event>
 8    1  0.3776180E-010  0.9118800E+02  0.7816164E-02  0.1184000E+00
        -11   -1    0    0    0    0  0.00000000000E+00  0.00000000000E+00  0.45593999997E+02  0.45594000000E+02  0.51100000000E-03 0. -1.
         11   -1    0    0    0    0 -0.00000000000E+00 -0.00000000000E+00 -0.45593999997E+02  0.45594000000E+02  0.51100000000E-03 0.  1.
         23    2    1    2    0    0  0.00000000000E+00  0.00000000000E+00  0.00000000000E+00  0.91188000000E+02  0.91188000000E+02 0.  0.
    9900012    2    3    3    0    0  0.23335549311E+02 -0.16684563305E+02 -0.32568399247E+02  0.47787272542E+02  0.20000006830E+02 0.  0.
         12    1    3    3    0    0 -0.23335549311E+02  0.16684563305E+02  0.32568399247E+02  0.43400727458E+02  0.00000000000E+00 0. -1.
         11    1    4    4    0    0  0.50575868949E+01 -0.91724325085E+01 -0.34778479949E+01  0.11036672064E+02  0.51100000000E-03 0. -1.
        -11    1    4    4    0    0  0.39334147893E+00  0.28836172664E+00  0.86959663269E+00  0.99702987374E+00  0.51100000000E-03 0.  1.
        -12    1    4    4    0    0  0.17884620937E+02 -0.78004925233E+01 -0.29960147885E+02  0.35753570604E+02  0.00000000000E+00 0.  1.
</event>
<event>
 8    1  0.3776180E-010  0.9118800E+02  0.7816164E-02  0.1184000E+00
        -11   -1    0    0    0    0  0.00000000000E+00  0.00000000000E+00  0.45593999997E+02  0.45594000000E+02  0.51100000000E-03 0. -1.
         11   -1    0    0    0    0 -0.00000000000E+00 -0.00000000000E+00 -0.45593999997E+02  0.45594000000E+02  0.51100000000E-03 0.  1.
         23    2    1    2    0    0  0.35527136788E-14  0.00000000000E+00  0.00000000000E+00  0.91188000000E+02  0.91188000000E+02 0.  0.
    9900012    2    3    3    0    0  0.20791999275E+02  0.16766138911E+02  0.34208373562E+02  0.47787268789E+02  0.19999989717E+02 0.  0.
        -12    1    3    3    0    0 -0.20791999275E+02 -0.16766138911E+02 -0.34208373562E+02  0.43400731211E+02  0.00000000000E+00 0.  1.
         11    1    4    4    0    0  0.82224888674E+01  0.50704998852E+01  0.49278704931E+01  0.10844500916E+02  0.51100000000E-03 0. -1.
        -11    1    4    4    0    0  0.10939810541E+02  0.38874043435E+00  0.16498745109E+02  0.19799978894E+02  0.51100000000E-03 0.  1.
         12    1    4    4    0    0  0.16296998673E+01  0.11306898591E+02  0.12781757961E+02  0.17142788979E+02  0.00000000000E+00 0. -1.
</event>
<event>
 8    1  0.3776180E-010  0.9118800E+02  0.7816164E-02  0.1184000E+00
        -11   -1    0    0    0    0  0.00000000000E+00  0.00000000000E+00  0.45593999997E+02  0.45594000000E+02  0.51100000000E-03 0. -1.
         11   -1    0    0    0    0 -0.00000000000E+00 -0.00000000000E+00 -0.45593999997E+02  0.45594000000E+02  0.51100000000E-03 0.  1.
         23    2    1    2    0    0 -0.35527136788E-14  0.71054273576E-14  0.35527136788E-14  0.91188000000E+02  0.91188000000E+02 0.  0.
    9900012    2    3    3    0    0  0.18500587422E+02 -0.33358632568E+02 -0.20701527304E+02  0.47787270346E+02  0.19999996817E+02 0.  0.
         12    1    3    3    0    0 -0.18500587422E+02  0.33358632568E+02  0.20701527304E+02  0.43400729654E+02  0.00000000000E+00 0. -1.
         11    1    4    4    0    0 -0.32553810293E+00 -0.26953485016E+01  0.46881127050E+00  0.27551157635E+01  0.51100000000E-03 0. -1.
        -11    1    4    4    0    0  0.11568295637E+02 -0.12433069210E+02 -0.18691611298E+02  0.25254366100E+02  0.51100000000E-03 0.  1.
        -12    1    4    4    0    0  0.72578298878E+01 -0.18230214856E+02 -0.24787272767E+01  0.19777788483E+02  0.00000000000E+00 0.  1.
</event>
<event>
 8    1  0.3776180E-010  0.9118800E+02  0.7816164E-02  0.1184000E+00
        -11   -1    0    0    0    0  0.00000000000E+00  0.00000000000E+00  0.45593999997E+02  0.45594000000E+02  0.51100000000E-03 0. -1.
         11   -1    0    0    0    0 -0.00000000000E+00 -0.00000000000E+00 -0.45593999997E+02  0.45594000000E+02  0.51100000000E-03 0.  1.
         23    2    1    2    0    0  0.35527136788E-14 -0.17763568394E-14  0.71054273576E-14  0.91188000000E+02  0.91188000000E+02 0.  0.
    9900012    2    3    3    0    0  0.16602195329E+02 -0.54708131642E+01  0.39724810286E+02  0.47787271450E+02  0.20000001850E+02 0.  0.
        -12    1    3    3    0    0 -0.16602195329E+02  0.54708131642E+01 -0.39724810286E+02  0.43400728550E+02  0.00000000000E+00 0.  1.
         11    1    4    4    0    0  0.84630951620E+01 -0.44062513214E+01  0.19068837981E+02  0.21322748712E+02  0.51100000000E-03 0. -1.
        -11    1    4    4    0    0  0.71050172552E+01 -0.41661060425E+01  0.21553978345E+02  0.23074048031E+02  0.51100000000E-03 0.  1.
        -12    1    4    4    0    0  0.10340829120E+01  0.31015441997E+01 -0.89800604087E+00  0.33904747073E+01  0.00000000000E+00 0.  1.
</event>
<event>
 8    1  0.3776180E-010  0.9118800E+02  0.7816164E-02  0.1184000E+00
        -11   -1    0    0    0    0  0.00000000000E+00  0.00000000000E+00  0.45593999997E+02  0.45594000000E+02  0.51100000000E-03 0. -1.
         11   -1    0    0    0    0 -0.00000000000E+00 -0.00000000000E+00 -0.45593999997E+02  0.45594000000E+02  0.51100000000E-03 0.  1.
         23    2    1    2    0    0  0.00000000000E+00  0.00000000000E+00  0.00000000000E+00  0.91188000000E+02  0.91188000000E+02 0.  0.
    9900012    2    3    3    0    0  0.13732674006E+02 -0.79813446988E+01  0.40389788482E+02  0.47787271755E+02  0.20000003242E+02 0.  0.
        -12    1    3    3    0    0 -0.13732674006E+02  0.79813446988E+01 -0.40389788482E+02  0.43400728245E+02  0.00000000000E+00 0.  1.
         11    1    4    4    0    0 -0.12088851091E+01 -0.79008654234E+00  0.17330539271E+01  0.22559069411E+01  0.51100000000E-03 0. -1.
        -11    1    4    4    0    0 -0.12932358701E+00 -0.60302421953E+01  0.28624787362E+01  0.66764009991E+01  0.51100000000E-03 0.  1.
         12    1    4    4    0    0  0.15070882702E+02 -0.11610159611E+01  0.35794255819E+02  0.38854963815E+02  0.00000000000E+00 0. -1.
</event>
<event>
 8    1  0.3776180E-010  0.9118800E+02  0.7816164E-02  0.1184000E+00
        -11   -1    0    0    0    0  0.00000000000E+00  0.00000000000E+00  0.45593999997E+02  0.45594000000E+02  0.51100000000E-03 0. -1.
         11   -1    0    0    0    0 -0.00000000000E+00 -0.00000000000E+00 -0.45593999997E+02  0.45594000000E+02  0.51100000000E-03 0.  1.
         23    2    1    2    0    0  0.00000000000E+00  0.00000000000E+00  0.00000000000E+00  0.91188000000E+02  0.91188000000E+02 0.  0.
    9900012    2    3    3    0    0  0.37487072700E+02  0.20820868889E+02  0.66959472491E+01  0.47787252190E+02  0.19999914033E+02 0.  0.
         12    1    3    3    0    0 -0.37487072700E+02 -0.20820868889E+02 -0.66959472491E+01  0.43400747810E+02  0.00000000000E+00 0. -1.
         11    1    4    4    0    0  0.12695797549E+02  0.82029303735E+01 -0.11607619811E+01  0.15159772781E+02  0.51100000000E-03 0. -1.
        -11    1    4    4    0    0  0.18324952414E+02  0.39106266469E+01 -0.79384310954E+00  0.18754387991E+02  0.51100000000E-03 0.  1.
         12    1    4    4    0    0  0.64663227366E+01  0.87073118691E+01  0.86505523397E+01  0.13873091418E+02  0.00000000000E+00 0. -1.
</event>
<event>
 8    1  0.3776180E-010  0.9118800E+02  0.7816164E-02  0.1184000E+00
        -11   -1    0    0    0    0  0.00000000000E+00  0.00000000000E+00  0.45593999997E+02  0.45594000000E+02  0.51100000000E-03 0. -1.
         11   -1    0    0    0    0 -0.00000000000E+00 -0.00000000000E+00 -0.45593999997E+02  0.45594000000E+02  0.51100000000E-03 0.  1.
         23    2    1    2    0    0  0.00000000000E+00  0.00000000000E+00  0.00000000000E+00  0.91188000000E+02  0.91188000000E+02 0.  0.
    9900012    2    3    3    0    0 -0.18302806455E+02 -0.38066680884E+02 -0.99778999425E+01  0.47787269535E+02  0.19999993117E+02 0.  0.
         12    1    3    3    0    0  0.18302806455E+02  0.38066680884E+02  0.99778999425E+01  0.43400730465E+02  0.00000000000E+00 0. -1.
         11    1    4    4    0    0  0.45380383604E+00 -0.11106057474E+01 -0.24651327119E+01  0.27415803100E+01  0.51100000000E-03 0. -1.
        -11    1    4    4    0    0 -0.81383496060E+01 -0.16807942861E+02 -0.11489878597E+02  0.21926171302E+02  0.51100000000E-03 0.  1.
         12    1    4    4    0    0 -0.10618260685E+02 -0.20148132276E+02  0.39771113663E+01  0.23119517923E+02  0.00000000000E+00 0. -1.
</event>
<event>
 8    1  0.3776180E-010  0.9118800E+02  0.7816164E-02  0.1184000E+00
        -11   -1    0    0    0    0  0.00000000000E+00  0.00000000000E+00  0.45593999997E+02  0.45594000000E+02  0.51100000000E-03 0. -1.
         11   -1    0    0    0    0 -0.00000000000E+00 -0.00000000000E+00 -0.45593999997E+02  0.45594000000E+02  0.51100000000E-03 0.  1.
         23    2    1    2    0    0  0.35527136788E-14 -0.88817841970E-15  0.00000000000E+00  0.91188000000E+02  0.91188000000E+02 0.  0.
    9900012    2    3    3    0    0 -0.28705848853E+02  0.51129590014E+01 -0.32147398016E+02  0.47787270660E+02  0.19999998245E+02 0.  0.
         12    1    3    3    0    0  0.28705848853E+02 -0.51129590014E+01  0.32147398016E+02  0.43400729340E+02  0.00000000000E+00 0. -1.
         11    1    4    4    0    0 -0.35668210986E+01  0.65385935608E+01 -0.65634798722E+01  0.99274713193E+01  0.51100000000E-03 0. -1.
        -11    1    4    4    0    0 -0.15158447610E+02  0.50521212924E+01 -0.15540007335E+02  0.22288882694E+02  0.51100000000E-03 0.  1.
         12    1    4    4    0    0 -0.99805801446E+01 -0.64777558518E+01 -0.10043910808E+02  0.15570916647E+02  0.00000000000E+00 0. -1.
</event>
<event>
 8    1  0.3776180E-010  0.9118800E+02  0.7816164E-02  0.1184000E+00
        -11   -1    0    0    0    0  0.00000000000E+00  0.00000000000E+00  0.45593999997E+02  0.45594000000E+02  0.51100000000E-03 0. -1.
         11   -1    0    0    0    0 -0.00000000000E+00 -0.00000000000E+00 -0.45593999997E+02  0.45594000000E+02  0.51100000000E-03 0.  1.
         23    2    1    2    0    0 -0.44408920985E-15  0.00000000000E+00 -0.35527136788E-14  0.91188000000E+02  0.91188000000E+02 0.  0.
    9900012    2    3    3    0    0 -0.19621071298E+01  0.38317214840E+02  0.20287051493E+02  0.47787271023E+02  0.19999999901E+02 0.  0.
        -12    1    3    3    0    0  0.19621071298E+01 -0.38317214840E+02 -0.20287051493E+02  0.43400728977E+02  0.00000000000E+00 0.  1.
         11    1    4    4    0    0 -0.57909684571E+01  0.18028794868E+02  0.30470960795E+01  0.19179613000E+02  0.51100000000E-03 0. -1.
        -11    1    4    4    0    0  0.42047871711E-01  0.17703368865E+02  0.10922545807E+02  0.20801755800E+02  0.51100000000E-03 0.  1.
        -12    1    4    4    0    0  0.37868134556E+01  0.25850511073E+01  0.63174096064E+01  0.78059022227E+01  0.00000000000E+00 0.  1.
</event>
<event>
 8    1  0.3776180E-010  0.9118800E+02  0.7816164E-02  0.1184000E+00
        -11   -1    0    0    0    0  0.00000000000E+00  0.00000000000E+00  0.45593999997E+02  0.45594000000E+02  0.51100000000E-03 0.  1.
         11   -1    0    0    0    0 -0.00000000000E+00 -0.00000000000E+00 -0.45593999997E+02  0.45594000000E+02  0.51100000000E-03 0. -1.
         23    2    1    2    0    0  0.00000000000E+00  0.00000000000E+00  0.55511151231E-16  0.91188000000E+02  0.91188000000E+02 0.  0.
    9900012    2    3    3    0    0 -0.38115638249E+02 -0.20755457169E+02  0.18196305197E+00  0.47787262771E+02  0.19999962278E+02 0.  0.
         12    1    3    3    0    0  0.38115638249E+02  0.20755457169E+02 -0.18196305197E+00  0.43400737229E+02  0.00000000000E+00 0. -1.
         11    1    4    4    0    0 -0.88038516789E+01 -0.46321540975E+00 -0.19915694186E+01  0.90381813386E+01  0.51100000000E-03 0.  1.
        -11    1    4    4    0    0 -0.22733070085E+02 -0.72188469928E+01  0.32600125678E+01  0.24073468998E+02  0.51100000000E-03 0. -1.
         12    1    4    4    0    0 -0.65787164856E+01 -0.13073394767E+02 -0.10864800973E+01  0.14675612434E+02  0.00000000000E+00 0. -1.
</event>
<event>
 8    1  0.3776180E-010  0.9118800E+02  0.7816164E-02  0.1184000E+00
        -11   -1    0    0    0    0  0.00000000000E+00  0.00000000000E+00  0.45593999997E+02  0.45594000000E+02  0.51100000000E-03 0.  1.
         11   -1    0    0    0    0 -0.00000000000E+00 -0.00000000000E+00 -0.45593999997E+02  0.45594000000E+02  0.51100000000E-03 0. -1.
         23    2    1    2    0    0  0.00000000000E+00  0.35527136788E-14 -0.44408920985E-15  0.91188000000E+02  0.91188000000E+02 0.  0.
    9900012    2    3    3    0    0 -0.37724090791E+02 -0.21334828328E+02  0.23112026336E+01  0.47787267478E+02  0.19999983741E+02 0.  0.
         12    1    3    3    0    0  0.37724090791E+02  0.21334828328E+02 -0.23112026336E+01  0.43400732522E+02  0.00000000000E+00 0. -1.
         11    1    4    4    0    0 -0.22487362979E+02 -0.17103247613E+02  0.69858007059E+01  0.29103332874E+02  0.51100000000E-03 0. -1.
        -11    1    4    4    0    0 -0.29386696312E+01 -0.48681466117E+01 -0.23454705028E+01  0.61510863085E+01  0.51100000000E-03 0.  1.
         12    1    4    4    0    0 -0.12298058181E+02  0.63656589590E+00 -0.23291275695E+01  0.12532848296E+02  0.00000000000E+00 0. -1.
</event>
<event>
 8    1  0.3776180E-010  0.9118800E+02  0.7816164E-02  0.1184000E+00
        -11   -1    0    0    0    0  0.00000000000E+00  0.00000000000E+00  0.45593999997E+02  0.45594000000E+02  0.51100000000E-03 0. -1.
         11   -1    0    0    0    0 -0.00000000000E+00 -0.00000000000E+00 -0.45593999997E+02  0.45594000000E+02  0.51100000000E-03 0.  1.
         23    2    1    2    0    0  0.00000000000E+00  0.00000000000E+00  0.00000000000E+00  0.91188000000E+02  0.91188000000E+02 0.  0.
    9900012    2    3    3    0    0  0.17328760519E+02  0.64306039799E+01 -0.39268121553E+02  0.47787262922E+02  0.19999962965E+02 0.  0.
         12    1    3    3    0    0 -0.17328760519E+02 -0.64306039799E+01  0.39268121553E+02  0.43400737078E+02  0.00000000000E+00 0. -1.
         11    1    4    4    0    0  0.61718225289E+01 -0.15596563169E+01 -0.12149346693E+01  0.64807397469E+01  0.51100000000E-03 0. -1.
        -11    1    4    4    0    0  0.39153611366E+01 -0.11927516526E+01 -0.13566036058E+02  0.14170040365E+02  0.51100000000E-03 0.  1.
        -12    1    4    4    0    0  0.72415768535E+01  0.91830119494E+01 -0.24487150825E+02  0.27136482810E+02  0.00000000000E+00 0.  1.
</event>
<event>
 8    1  0.3776180E-010  0.9118800E+02  0.7816164E-02  0.1184000E+00
        -11   -1    0    0    0    0  0.00000000000E+00  0.00000000000E+00  0.45593999997E+02  0.45594000000E+02  0.51100000000E-03 0. -1.
         11   -1    0    0    0    0 -0.00000000000E+00 -0.00000000000E+00 -0.45593999997E+02  0.45594000000E+02  0.51100000000E-03 0.  1.
         23    2    1    2    0    0  0.00000000000E+00 -0.17763568394E-14 -0.71054273576E-14  0.91188000000E+02  0.91188000000E+02 0.  0.
    9900012    2    3    3    0    0 -0.76345897068E+01 -0.13615540267E+02 -0.40496334912E+02  0.47787273761E+02  0.20000012388E+02 0.  0.
         12    1    3    3    0    0  0.76345897068E+01  0.13615540267E+02  0.40496334912E+02  0.43400726239E+02  0.00000000000E+00 0. -1.
         11    1    4    4    0    0  0.20103167668E+01 -0.43232716642E+01 -0.45019199697E+01  0.65573878229E+01  0.51100000000E-03 0. -1.
        -11    1    4    4    0    0  0.13643725440E+01  0.10152768879E+01 -0.16477031771E+02  0.16564566877E+02  0.51100000000E-03 0.  1.
         12    1    4    4    0    0 -0.11009279018E+02 -0.10307545491E+02 -0.19517383171E+02  0.24665319061E+02  0.00000000000E+00 0. -1.
</event>
<event>
 8    1  0.3776180E-010  0.9118800E+02  0.7816164E-02  0.1184000E+00
        -11   -1    0    0    0    0  0.00000000000E+00  0.00000000000E+00  0.45593999997E+02  0.45594000000E+02  0.51100000000E-03 0. -1.
         11   -1    0    0    0    0 -0.00000000000E+00 -0.00000000000E+00 -0.45593999997E+02  0.45594000000E+02  0.51100000000E-03 0.  1.
         23    2    1    2    0    0  0.00000000000E+00  0.00000000000E+00  0.17763568394E-14  0.91188000000E+02  0.91188000000E+02 0.  0.
    9900012    2    3    3    0    0  0.58080513661E+01  0.41422715365E+02 -0.11577937467E+02  0.47787269075E+02  0.19999991019E+02 0.  0.
         12    1    3    3    0    0 -0.58080513661E+01 -0.41422715365E+02  0.11577937467E+02  0.43400730925E+02  0.00000000000E+00 0. -1.
         11    1    4    4    0    0  0.47429607790E+00  0.15204964698E+02 -0.10090116090E+02  0.18254488522E+02  0.51100000000E-03 0. -1.
        -11    1    4    4    0    0  0.69397228510E+00  0.12838223016E+02 -0.66313899491E+01  0.14466405934E+02  0.51100000000E-03 0.  1.
         12    1    4    4    0    0  0.46397830031E+01  0.13379527651E+02  0.51435685720E+01  0.15066374618E+02  0.00000000000E+00 0. -1.
</event>
<event>
 8    1  0.3776180E-010  0.9118800E+02  0.7816164E-02  0.1184000E+00
        -11   -1    0    0    0    0  0.00000000000E+00  0.00000000000E+00  0.45593999997E+02  0.45594000000E+02  0.51100000000E-03 0. -1.
         11   -1    0    0    0    0 -0.00000000000E+00 -0.00000000000E+00 -0.45593999997E+02  0.45594000000E+02  0.51100000000E-03 0.  1.
         23    2    1    2    0    0  0.88817841970E-15  0.00000000000E+00  0.17763568394E-14  0.91188000000E+02  0.91188000000E+02 0.  0.
    9900012    2    3    3    0    0  0.26279594899E+01 -0.41856986292E+02  0.11167384924E+02  0.47787263157E+02  0.19999964036E+02 0.  0.
        -12    1    3    3    0    0 -0.26279594899E+01  0.41856986292E+02 -0.11167384924E+02  0.43400736843E+02  0.00000000000E+00 0.  1.
         11    1    4    4    0    0  0.55288120987E+01 -0.74386144810E+01 -0.55429757419E+00  0.92848260448E+01  0.51100000000E-03 0. -1.
        -11    1    4    4    0    0  0.34243049423E+01 -0.19302764785E+02  0.10054646934E+02  0.22032215456E+02  0.51100000000E-03 0.  1.
        -12    1    4    4    0    0 -0.63251575512E+01 -0.15115607026E+02  0.16670355642E+01  0.16470221655E+02  0.00000000000E+00 0.  1.
</event>
<event>
 8    1  0.3776180E-010  0.9118800E+02  0.7816164E-02  0.1184000E+00
        -11   -1    0    0    0    0  0.00000000000E+00  0.00000000000E+00  0.45593999997E+02  0.45594000000E+02  0.51100000000E-03 0. -1.
         11   -1    0    0    0    0 -0.00000000000E+00 -0.00000000000E+00 -0.45593999997E+02  0.45594000000E+02  0.51100000000E-03 0.  1.
         23    2    1    2    0    0  0.00000000000E+00 -0.17763568394E-14  0.00000000000E+00  0.91188000000E+02  0.91188000000E+02 0.  0.
    9900012    2    3    3    0    0 -0.19983355356E+02 -0.10756608644E+02  0.36994374667E+02  0.47787275607E+02  0.20000020803E+02 0.  0.
        -12    1    3    3    0    0  0.19983355356E+02  0.10756608644E+02 -0.36994374667E+02  0.43400724393E+02  0.00000000000E+00 0.  1.
         11    1    4    4    0    0  0.16079242794E+01 -0.49471938325E+00  0.10620971945E+02  0.10753381472E+02  0.51100000000E-03 0.  1.
        -11    1    4    4    0    0 -0.48384616095E+01 -0.15957763623E+01  0.12856046343E+02  0.13828779439E+02  0.51100000000E-03 0. -1.
        -12    1    4    4    0    0 -0.16752818026E+02 -0.86661128983E+01  0.13517356379E+02  0.23205114696E+02  0.00000000000E+00 0.  1.
</event>
<event>
 8    1  0.3776180E-010  0.9118800E+02  0.7816164E-02  0.1184000E+00
        -11   -1    0    0    0    0  0.00000000000E+00  0.00000000000E+00  0.45593999997E+02  0.45594000000E+02  0.51100000000E-03 0. -1.
         11   -1    0    0    0    0 -0.00000000000E+00 -0.00000000000E+00 -0.45593999997E+02  0.45594000000E+02  0.51100000000E-03 0.  1.
         23    2    1    2    0    0 -0.71054273576E-14  0.35527136788E-14  0.00000000000E+00  0.91188000000E+02  0.91188000000E+02 0.  0.
    9900012    2    3    3    0    0 -0.28938473757E+02  0.30479401725E+02 -0.10825619081E+02  0.47787271649E+02  0.20000002758E+02 0.  0.
         12    1    3    3    0    0  0.28938473757E+02 -0.30479401725E+02  0.10825619081E+02  0.43400728351E+02  0.00000000000E+00 0. -1.
         11    1    4    4    0    0 -0.12927264210E+02  0.16558961126E+02 -0.11812118877E+02  0.24100612153E+02  0.51100000000E-03 0. -1.
        -11    1    4    4    0    0 -0.14038869420E+00  0.36270141089E+01 -0.25584253448E+01  0.44407748016E+01  0.51100000000E-03 0.  1.
         12    1    4    4    0    0 -0.15870820853E+02  0.10293426490E+02  0.35449251405E+01  0.19245884695E+02  0.00000000000E+00 0. -1.
</event>
<event>
 8    1  0.3776180E-010  0.9118800E+02  0.7816164E-02  0.1184000E+00
        -11   -1    0    0    0    0  0.00000000000E+00  0.00000000000E+00  0.45593999997E+02  0.45594000000E+02  0.51100000000E-03 0. -1.
         11   -1    0    0    0    0 -0.00000000000E+00 -0.00000000000E+00 -0.45593999997E+02  0.45594000000E+02  0.51100000000E-03 0.  1.
         23    2    1    2    0    0  0.00000000000E+00 -0.17763568394E-14 -0.71054273576E-14  0.91188000000E+02  0.91188000000E+02 0.  0.
    9900012    2    3    3    0    0  0.22550725633E+02 -0.14788707578E+02 -0.34005625230E+02  0.47787266761E+02  0.19999980471E+02 0.  0.
         12    1    3    3    0    0 -0.22550725633E+02  0.14788707578E+02  0.34005625230E+02  0.43400733239E+02  0.00000000000E+00 0. -1.
         11    1    4    4    0    0  0.52026387909E+01 -0.13908987659E+02 -0.22163470763E+02  0.26678583632E+02  0.51100000000E-03 0. -1.
        -11    1    4    4    0    0  0.45673502155E+01 -0.21155285527E+00 -0.41624052038E+01  0.61831270359E+01  0.51100000000E-03 0.  1.
         12    1    4    4    0    0  0.12780736627E+02 -0.66816706350E+00 -0.76797492634E+01  0.14925556094E+02  0.00000000000E+00 0. -1.
</event>
<event>
 8    1  0.3776180E-010  0.9118800E+02  0.7816164E-02  0.1184000E+00
        -11   -1    0    0    0    0  0.00000000000E+00  0.00000000000E+00  0.45593999997E+02  0.45594000000E+02  0.51100000000E-03 0. -1.
         11   -1    0    0    0    0 -0.00000000000E+00 -0.00000000000E+00 -0.45593999997E+02  0.45594000000E+02  0.51100000000E-03 0.  1.
         23    2    1    2    0    0  0.00000000000E+00  0.71054273576E-14  0.00000000000E+00  0.91188000000E+02  0.91188000000E+02 0.  0.
    9900012    2    3    3    0    0 -0.10551887288E+02  0.41264035804E+02  0.83405336383E+01  0.47787222616E+02  0.19999779194E+02 0.  0.
         12    1    3    3    0    0  0.10551887288E+02 -0.41264035804E+02 -0.83405336383E+01  0.43400777384E+02  0.00000000000E+00 0. -1.
         11    1    4    4    0    0 -0.35221282454E+01  0.72908609452E+01 -0.33431111528E+01  0.87600475536E+01  0.51100000000E-03 0. -1.
        -11    1    4    4    0    0 -0.49684813577E+01  0.30931740761E+02  0.54607725773E+01  0.31800604253E+02  0.51100000000E-03 0.  1.
        -12    1    4    4    0    0 -0.20612776849E+01  0.30414340981E+01  0.62228722139E+01  0.72265708090E+01  0.00000000000E+00 0.  1.
</event>
<event>
 8    1  0.3776180E-010  0.9118800E+02  0.7816164E-02  0.1184000E+00
        -11   -1    0    0    0    0  0.00000000000E+00  0.00000000000E+00  0.45593999997E+02  0.45594000000E+02  0.51100000000E-03 0. -1.
         11   -1    0    0    0    0 -0.00000000000E+00 -0.00000000000E+00 -0.45593999997E+02  0.45594000000E+02  0.51100000000E-03 0.  1.
         23    2    1    2    0    0  0.00000000000E+00  0.35527136788E-14  0.00000000000E+00  0.91188000000E+02  0.91188000000E+02 0.  0.
    9900012    2    3    3    0    0  0.35797466602E+01 -0.31787410038E+02 -0.29332049306E+02  0.47787272592E+02  0.20000007054E+02 0.  0.
         12    1    3    3    0    0 -0.35797466602E+01  0.31787410038E+02  0.29332049306E+02  0.43400727408E+02  0.00000000000E+00 0. -1.
         11    1    4    4    0    0 -0.35357682113E+01 -0.51526116408E+00 -0.39067149598E+01  0.52942962657E+01  0.51100000000E-03 0. -1.
        -11    1    4    4    0    0  0.36842289962E+01 -0.22343445733E+01 -0.60069987828E+01  0.73925552826E+01  0.51100000000E-03 0.  1.
        -12    1    4    4    0    0  0.34312858753E+01 -0.29037804301E+02 -0.19418335564E+02  0.35100421043E+02  0.00000000000E+00 0.  1.
</event>
<event>
 8    1  0.3776180E-010  0.9118800E+02  0.7816164E-02  0.1184000E+00
        -11   -1    0    0    0    0  0.00000000000E+00  0.00000000000E+00  0.45593999997E+02  0.45594000000E+02  0.51100000000E-03 0. -1.
         11   -1    0    0    0    0 -0.00000000000E+00 -0.00000000000E+00 -0.45593999997E+02  0.45594000000E+02  0.51100000000E-03 0.  1.
         23    2    1    2    0    0  0.00000000000E+00  0.00000000000E+00  0.00000000000E+00  0.91188000000E+02  0.91188000000E+02 0.  0.
    9900012    2    3    3    0    0  0.50472370409E+01 -0.22432692974E+02 -0.36809277815E+02  0.47787271330E+02  0.20000001303E+02 0.  0.
         12    1    3    3    0    0 -0.50472370409E+01  0.22432692974E+02  0.36809277815E+02  0.43400728670E+02  0.00000000000E+00 0. -1.
         11    1    4    4    0    0  0.11602228854E+01 -0.41002065517E-01  0.19327598072E+00  0.11769257322E+01  0.51100000000E-03 0. -1.
        -11    1    4    4    0    0  0.14374845294E+01 -0.16405363603E+02 -0.10972799869E+02  0.19789003359E+02  0.51100000000E-03 0.  1.
         12    1    4    4    0    0  0.24495296261E+01 -0.59863273050E+01 -0.26029753927E+02  0.26821342239E+02  0.00000000000E+00 0. -1.
</event>
<event>
 8    1  0.3776180E-010  0.9118800E+02  0.7816164E-02  0.1184000E+00
        -11   -1    0    0    0    0  0.00000000000E+00  0.00000000000E+00  0.45593999997E+02  0.45594000000E+02  0.51100000000E-03 0. -1.
         11   -1    0    0    0    0 -0.00000000000E+00 -0.00000000000E+00 -0.45593999997E+02  0.45594000000E+02  0.51100000000E-03 0.  1.
         23    2    1    2    0    0  0.71054273576E-14  0.00000000000E+00  0.00000000000E+00  0.91188000000E+02  0.91188000000E+02 0.  0.
    9900012    2    3    3    0    0  0.38584789017E+02  0.10199884384E+02 -0.17052846879E+02  0.47787272223E+02  0.20000005372E+02 0.  0.
         12    1    3    3    0    0 -0.38584789017E+02 -0.10199884384E+02  0.17052846879E+02  0.43400727777E+02  0.00000000000E+00 0. -1.
         11    1    4    4    0    0  0.17134813169E+01  0.16662877488E+01 -0.25121726514E+01  0.34674983456E+01  0.51100000000E-03 0. -1.
        -11    1    4    4    0    0  0.37706224386E+02  0.65620323049E+01 -0.16250243703E+02  0.41579923594E+02  0.51100000000E-03 0.  1.
        -12    1    4    4    0    0 -0.83491668662E+00  0.19715643306E+01  0.17095694746E+01  0.27398502827E+01  0.00000000000E+00 0.  1.
</event>
<event>
 8    1  0.3776180E-010  0.9118800E+02  0.7816164E-02  0.1184000E+00
        -11   -1    0    0    0    0  0.00000000000E+00  0.00000000000E+00  0.45593999997E+02  0.45594000000E+02  0.51100000000E-03 0. -1.
         11   -1    0    0    0    0 -0.00000000000E+00 -0.00000000000E+00 -0.45593999997E+02  0.45594000000E+02  0.51100000000E-03 0.  1.
         23    2    1    2    0    0  0.00000000000E+00  0.00000000000E+00  0.00000000000E+00  0.91188000000E+02  0.91188000000E+02 0.  0.
    9900012    2    3    3    0    0 -0.19750078103E+02 -0.20047284232E+02 -0.33040338302E+02  0.47787272526E+02  0.20000006756E+02 0.  0.
         12    1    3    3    0    0  0.19750078103E+02  0.20047284232E+02  0.33040338302E+02  0.43400727474E+02  0.00000000000E+00 0. -1.
         11    1    4    4    0    0 -0.11728858104E+02 -0.21485451529E+01 -0.11986200655E+02  0.16907139472E+02  0.51100000000E-03 0. -1.
        -11    1    4    4    0    0 -0.78548391063E+01 -0.52301170023E+01 -0.12197299785E+02  0.15421632325E+02  0.51100000000E-03 0.  1.
         12    1    4    4    0    0 -0.16638089297E+00 -0.12668622077E+02 -0.88568378612E+01  0.15458500730E+02  0.00000000000E+00 0. -1.
</event>
<event>
 8    1  0.3776180E-010  0.9118800E+02  0.7816164E-02  0.1184000E+00
        -11   -1    0    0    0    0  0.00000000000E+00  0.00000000000E+00  0.45593999997E+02  0.45594000000E+02  0.51100000000E-03 0. -1.
         11   -1    0    0    0    0 -0.00000000000E+00 -0.00000000000E+00 -0.45593999997E+02  0.45594000000E+02  0.51100000000E-03 0.  1.
         23    2    1    2    0    0 -0.44408920985E-15  0.00000000000E+00  0.71054273576E-14  0.91188000000E+02  0.91188000000E+02 0.  0.
    9900012    2    3    3    0    0 -0.39004746109E+01 -0.22026950636E+02  0.37191700306E+02  0.47787276179E+02  0.20000023412E+02 0.  0.
        -12    1    3    3    0    0  0.39004746109E+01  0.22026950636E+02 -0.37191700306E+02  0.43400723821E+02  0.00000000000E+00 0.  1.
         11    1    4    4    0    0 -0.17608837239E+01 -0.11204509919E+02  0.18065911122E+02  0.21331172001E+02  0.51100000000E-03 0. -1.
        -11    1    4    4    0    0 -0.48059367631E+01 -0.12774479666E+02  0.10503621009E+02  0.17222381179E+02  0.51100000000E-03 0.  1.
         12    1    4    4    0    0  0.26663458761E+01  0.19520389492E+01  0.86221681747E+01  0.92337229991E+01  0.00000000000E+00 0. -1.
</event>
<event>
 8    1  0.3776180E-010  0.9118800E+02  0.7816164E-02  0.1184000E+00
        -11   -1    0    0    0    0  0.00000000000E+00  0.00000000000E+00  0.45593999997E+02  0.45594000000E+02  0.51100000000E-03 0. -1.
         11   -1    0    0    0    0 -0.00000000000E+00 -0.00000000000E+00 -0.45593999997E+02  0.45594000000E+02  0.51100000000E-03 0.  1.
         23    2    1    2    0    0  0.00000000000E+00 -0.17763568394E-14  0.00000000000E+00  0.91188000000E+02  0.91188000000E+02 0.  0.
    9900012    2    3    3    0    0 -0.14130330435E+02  0.14011912932E+02  0.38569722005E+02  0.47787269617E+02  0.19999993491E+02 0.  0.
        -12    1    3    3    0    0  0.14130330435E+02 -0.14011912932E+02 -0.38569722005E+02  0.43400730383E+02  0.00000000000E+00 0.  1.
         11    1    4    4    0    0 -0.72421510665E+01  0.53945594792E+01  0.69139600251E+01  0.11373340210E+02  0.51100000000E-03 0. -1.
        -11    1    4    4    0    0 -0.29572092847E+01  0.11783668058E+02  0.16862688326E+02  0.20783411113E+02  0.51100000000E-03 0.  1.
        -12    1    4    4    0    0 -0.39309700840E+01 -0.31663146057E+01  0.14793073654E+02  0.15630518294E+02  0.00000000000E+00 0.  1.
</event>
<event>
 8    1  0.3776180E-010  0.9118800E+02  0.7816164E-02  0.1184000E+00
        -11   -1    0    0    0    0  0.00000000000E+00  0.00000000000E+00  0.45593999997E+02  0.45594000000E+02  0.51100000000E-03 0. -1.
         11   -1    0    0    0    0 -0.00000000000E+00 -0.00000000000E+00 -0.45593999997E+02  0.45594000000E+02  0.51100000000E-03 0.  1.
         23    2    1    2    0    0 -0.17763568394E-14  0.00000000000E+00  0.00000000000E+00  0.91188000000E+02  0.91188000000E+02 0.  0.
    9900012    2    3    3    0    0 -0.99588907010E+01 -0.13737652701E+02  0.39946473863E+02  0.47787269824E+02  0.19999994435E+02 0.  0.
        -12    1    3    3    0    0  0.99588907010E+01  0.13737652701E+02 -0.39946473863E+02  0.43400730176E+02  0.00000000000E+00 0.  1.
         11    1    4    4    0    0 -0.11063946483E+02 -0.14480716738E+01  0.21250577267E+02  0.24001976123E+02  0.51100000000E-03 0. -1.
        -11    1    4    4    0    0 -0.32475842818E+01 -0.67409179096E+01  0.78198084587E+01  0.10822947035E+02  0.51100000000E-03 0.  1.
         12    1    4    4    0    0  0.43526400637E+01 -0.55486631178E+01  0.10876088137E+02  0.12962346666E+02  0.00000000000E+00 0. -1.
</event>
<event>
 8    1  0.3776180E-010  0.9118800E+02  0.7816164E-02  0.1184000E+00
        -11   -1    0    0    0    0  0.00000000000E+00  0.00000000000E+00  0.45593999997E+02  0.45594000000E+02  0.51100000000E-03 0.  1.
         11   -1    0    0    0    0 -0.00000000000E+00 -0.00000000000E+00 -0.45593999997E+02  0.45594000000E+02  0.51100000000E-03 0. -1.
         23    2    1    2    0    0  0.00000000000E+00  0.00000000000E+00  0.00000000000E+00  0.91188000000E+02  0.91188000000E+02 0.  0.
    9900012    2    3    3    0    0  0.32296201479E+02  0.17849880089E+02 -0.22846456897E+02  0.47787269108E+02  0.19999991173E+02 0.  0.
         12    1    3    3    0    0 -0.32296201479E+02 -0.17849880089E+02  0.22846456897E+02  0.43400730892E+02  0.00000000000E+00 0. -1.
         11    1    4    4    0    0  0.33691842790E+01 -0.25582143031E+01 -0.35452113330E+00  0.42451794570E+01  0.51100000000E-03 0. -1.
        -11    1    4    4    0    0  0.53513667068E+00 -0.64975587655E+00  0.83866264687E+00  0.11882378768E+01  0.51100000000E-03 0.  1.
        -12    1    4    4    0    0  0.28391880529E+02  0.21057850269E+02 -0.23330598411E+02  0.42353851775E+02  0.00000000000E+00 0.  1.
</event>
<event>
 8    1  0.3776180E-010  0.9118800E+02  0.7816164E-02  0.1184000E+00
        -11   -1    0    0    0    0  0.00000000000E+00  0.00000000000E+00  0.45593999997E+02  0.45594000000E+02  0.51100000000E-03 0. -1.
         11   -1    0    0    0    0 -0.00000000000E+00 -0.00000000000E+00 -0.45593999997E+02  0.45594000000E+02  0.51100000000E-03 0.  1.
         23    2    1    2    0    0  0.00000000000E+00  0.35527136788E-14  0.00000000000E+00  0.91188000000E+02  0.91188000000E+02 0.  0.
    9900012    2    3    3    0    0  0.43996422635E+01 -0.31157567812E+02  0.29891003954E+02  0.47787274184E+02  0.20000014314E+02 0.  0.
        -12    1    3    3    0    0 -0.43996422635E+01  0.31157567812E+02 -0.29891003954E+02  0.43400725816E+02  0.00000000000E+00 0.  1.
         11    1    4    4    0    0  0.19810684151E+01 -0.10041954126E+02  0.17789555280E+02  0.20523979928E+02  0.51100000000E-03 0. -1.
        -11    1    4    4    0    0 -0.47734609547E+01 -0.73730893270E+01  0.57757949941E+01  0.10512287277E+02  0.51100000000E-03 0.  1.
        -12    1    4    4    0    0  0.71920348031E+01 -0.13742524359E+02  0.63256536791E+01  0.16751006980E+02  0.00000000000E+00 0.  1.
</event>
<event>
 8    1  0.3776180E-010  0.9118800E+02  0.7816164E-02  0.1184000E+00
        -11   -1    0    0    0    0  0.00000000000E+00  0.00000000000E+00  0.45593999997E+02  0.45594000000E+02  0.51100000000E-03 0. -1.
         11   -1    0    0    0    0 -0.00000000000E+00 -0.00000000000E+00 -0.45593999997E+02  0.45594000000E+02  0.51100000000E-03 0.  1.
         23    2    1    2    0    0  0.00000000000E+00 -0.44408920985E-15  0.00000000000E+00  0.91188000000E+02  0.91188000000E+02 0.  0.
    9900012    2    3    3    0    0  0.83005632898E+01 -0.18599647464E+01  0.42558953479E+02  0.47787270271E+02  0.19999996474E+02 0.  0.
        -12    1    3    3    0    0 -0.83005632898E+01  0.18599647464E+01 -0.42558953479E+02  0.43400729729E+02  0.00000000000E+00 0.  1.
         11    1    4    4    0    0  0.77184832038E+01  0.45132003923E+01  0.16331795246E+02  0.18619116439E+02  0.51100000000E-03 0. -1.
        -11    1    4    4    0    0 -0.30445169644E+01  0.16964321955E+01  0.11203675611E+02  0.11733256717E+02  0.51100000000E-03 0.  1.
         12    1    4    4    0    0  0.36265970504E+01 -0.80695973342E+01  0.15023482622E+02  0.17434897115E+02  0.00000000000E+00 0. -1.
</event>
<event>
 8    1  0.3776180E-010  0.9118800E+02  0.7816164E-02  0.1184000E+00
        -11   -1    0    0    0    0  0.00000000000E+00  0.00000000000E+00  0.45593999997E+02  0.45594000000E+02  0.51100000000E-03 0. -1.
         11   -1    0    0    0    0 -0.00000000000E+00 -0.00000000000E+00 -0.45593999997E+02  0.45594000000E+02  0.51100000000E-03 0.  1.
         23    2    1    2    0    0  0.00000000000E+00  0.00000000000E+00  0.00000000000E+00  0.91188000000E+02  0.91188000000E+02 0.  0.
    9900012    2    3    3    0    0 -0.20701436139E+02  0.78645318452E+01  0.37325942024E+02  0.47787236558E+02  0.19999842762E+02 0.  0.
        -12    1    3    3    0    0  0.20701436139E+02 -0.78645318452E+01 -0.37325942024E+02  0.43400763442E+02  0.00000000000E+00 0.  1.
         11    1    4    4    0    0 -0.16248829441E+02 -0.18035541372E+00  0.17460789668E+02  0.23852382740E+02  0.51100000000E-03 0. -1.
        -11    1    4    4    0    0 -0.16077061637E+01 -0.16005692327E+01  0.84685101189E+00  0.24215073559E+01  0.51100000000E-03 0.  1.
        -12    1    4    4    0    0 -0.28449005345E+01  0.96454564916E+01  0.19018301344E+02  0.21513346462E+02  0.00000000000E+00 0.  1.
</event>
<event>
 8    1  0.3776180E-010  0.9118800E+02  0.7816164E-02  0.1184000E+00
        -11   -1    0    0    0    0  0.00000000000E+00  0.00000000000E+00  0.45593999997E+02  0.45594000000E+02  0.51100000000E-03 0. -1.
         11   -1    0    0    0    0 -0.00000000000E+00 -0.00000000000E+00 -0.45593999997E+02  0.45594000000E+02  0.51100000000E-03 0.  1.
         23    2    1    2    0    0 -0.35527136788E-14 -0.71054273576E-14  0.71054273576E-14  0.91188000000E+02  0.91188000000E+02 0.  0.
    9900012    2    3    3    0    0 -0.24820747247E+02 -0.23866411560E+02  0.26418729477E+02  0.47787258510E+02  0.19999942852E+02 0.  0.
        -12    1    3    3    0    0  0.24820747247E+02  0.23866411560E+02 -0.26418729477E+02  0.43400741490E+02  0.00000000000E+00 0.  1.
         11    1    4    4    0    0 -0.10719425961E+02 -0.21952317877E+02  0.16448078170E+02  0.29450800139E+02  0.51100000000E-03 0. -1.
        -11    1    4    4    0    0 -0.28607164422E+01 -0.14273300905E+01 -0.15370095219E+00  0.32007177311E+01  0.51100000000E-03 0.  1.
         12    1    4    4    0    0 -0.11240604843E+02 -0.48676359307E+00  0.10124352260E+02  0.15135740640E+02  0.00000000000E+00 0. -1.
</event>
<event>
 8    1  0.3776180E-010  0.9118800E+02  0.7816164E-02  0.1184000E+00
        -11   -1    0    0    0    0  0.00000000000E+00  0.00000000000E+00  0.45593999997E+02  0.45594000000E+02  0.51100000000E-03 0. -1.
         11   -1    0    0    0    0 -0.00000000000E+00 -0.00000000000E+00 -0.45593999997E+02  0.45594000000E+02  0.51100000000E-03 0.  1.
         23    2    1    2    0    0  0.00000000000E+00  0.00000000000E+00  0.71054273576E-14  0.91188000000E+02  0.91188000000E+02 0.  0.
    9900012    2    3    3    0    0  0.53436380609E+01  0.72228761090E+01 -0.42460559327E+02  0.47787268378E+02  0.19999987841E+02 0.  0.
         12    1    3    3    0    0 -0.53436380609E+01 -0.72228761090E+01  0.42460559327E+02  0.43400731622E+02  0.00000000000E+00 0. -1.
         11    1    4    4    0    0  0.64674475407E+01  0.56706928662E+00 -0.16755542053E+02  0.17969352660E+02  0.51100000000E-03 0.  1.
        -11    1    4    4    0    0 -0.62992550993E+01  0.14859963883E+01 -0.18292059129E+02  0.19403304551E+02  0.51100000000E-03 0. -1.
         12    1    4    4    0    0  0.51754456195E+01  0.51698104341E+01 -0.74129581447E+01  0.10414611166E+02  0.00000000000E+00 0. -1.
</event>
<event>
 8    1  0.3776180E-010  0.9118800E+02  0.7816164E-02  0.1184000E+00
        -11   -1    0    0    0    0  0.00000000000E+00  0.00000000000E+00  0.45593999997E+02  0.45594000000E+02  0.51100000000E-03 0. -1.
         11   -1    0    0    0    0 -0.00000000000E+00 -0.00000000000E+00 -0.45593999997E+02  0.45594000000E+02  0.51100000000E-03 0.  1.
         23    2    1    2    0    0  0.00000000000E+00 -0.35527136788E-14 -0.35527136788E-14  0.91188000000E+02  0.91188000000E+02 0.  0.
    9900012    2    3    3    0    0 -0.13104565207E+02 -0.27519767137E+02 -0.30895886052E+02  0.47787274344E+02  0.20000015045E+02 0.  0.
         12    1    3    3    0    0  0.13104565207E+02  0.27519767137E+02  0.30895886052E+02  0.43400725656E+02  0.00000000000E+00 0. -1.
         11    1    4    4    0    0  0.92063222998E+00 -0.24480293338E+01 -0.19483032029E+01  0.32613336158E+01  0.51100000000E-03 0. -1.
        -11    1    4    4    0    0 -0.34508147348E+01 -0.17742719855E+01  0.20053855238E+01  0.43678066318E+01  0.51100000000E-03 0.  1.
        -12    1    4    4    0    0 -0.10574382702E+02 -0.23297465818E+02 -0.30952968373E+02  0.40158134097E+02  0.00000000000E+00 0.  1.
</event>
<event>
 8    1  0.3776180E-010  0.9118800E+02  0.7816164E-02  0.1184000E+00
        -11   -1    0    0    0    0  0.00000000000E+00  0.00000000000E+00  0.45593999997E+02  0.45594000000E+02  0.51100000000E-03 0. -1.
         11   -1    0    0    0    0 -0.00000000000E+00 -0.00000000000E+00 -0.45593999997E+02  0.45594000000E+02  0.51100000000E-03 0.  1.
         23    2    1    2    0    0  0.00000000000E+00 -0.27755575616E-16  0.00000000000E+00  0.91188000000E+02  0.91188000000E+02 0.  0.
    9900012    2    3    3    0    0  0.12278774406E+02 -0.15381921292E+00 -0.41627292972E+02  0.47787268653E+02  0.19999989098E+02 0.  0.
         12    1    3    3    0    0 -0.12278774406E+02  0.15381921292E+00  0.41627292972E+02  0.43400731347E+02  0.00000000000E+00 0. -1.
         11    1    4    4    0    0 -0.91798820963E+00  0.49178143679E+01 -0.13183272118E+02  0.14100576744E+02  0.51100000000E-03 0. -1.
        -11    1    4    4    0    0  0.28723634431E+00  0.28732642360E+01 -0.47385616202E+01  0.55490646578E+01  0.51100000000E-03 0.  1.
        -12    1    4    4    0    0  0.12909526271E+02 -0.79448978168E+01 -0.23705459233E+02  0.28137627251E+02  0.00000000000E+00 0.  1.
</event>
<event>
 8    1  0.3776180E-010  0.9118800E+02  0.7816164E-02  0.1184000E+00
        -11   -1    0    0    0    0  0.00000000000E+00  0.00000000000E+00  0.45593999997E+02  0.45594000000E+02  0.51100000000E-03 0. -1.
         11   -1    0    0    0    0 -0.00000000000E+00 -0.00000000000E+00 -0.45593999997E+02  0.45594000000E+02  0.51100000000E-03 0.  1.
         23    2    1    2    0    0  0.00000000000E+00  0.00000000000E+00 -0.17763568394E-14  0.91188000000E+02  0.91188000000E+02 0.  0.
    9900012    2    3    3    0    0  0.38457210091E+02 -0.14193569825E+02  0.14255140664E+02  0.47787268811E+02  0.19999989818E+02 0.  0.
        -12    1    3    3    0    0 -0.38457210091E+02  0.14193569825E+02 -0.14255140664E+02  0.43400731189E+02  0.00000000000E+00 0.  1.
         11    1    4    4    0    0  0.38161500256E+01  0.27820687689E+01  0.27257049894E+01  0.54527401922E+01  0.51100000000E-03 0. -1.
        -11    1    4    4    0    0  0.58520623955E+01 -0.33039672976E+01  0.77231392340E+01  0.10237661553E+02  0.51100000000E-03 0.  1.
         12    1    4    4    0    0  0.28788997670E+02 -0.13671671296E+02  0.38062964406E+01  0.32096867066E+02  0.00000000000E+00 0. -1.
</event>
<event>
 8    1  0.3776180E-010  0.9118800E+02  0.7816164E-02  0.1184000E+00
        -11   -1    0    0    0    0  0.00000000000E+00  0.00000000000E+00  0.45593999997E+02  0.45594000000E+02  0.51100000000E-03 0. -1.
         11   -1    0    0    0    0 -0.00000000000E+00 -0.00000000000E+00 -0.45593999997E+02  0.45594000000E+02  0.51100000000E-03 0.  1.
         23    2    1    2    0    0  0.35527136788E-14 -0.35527136788E-14 -0.17763568394E-14  0.91188000000E+02  0.91188000000E+02 0.  0.
    9900012    2    3    3    0    0  0.25400075020E+02 -0.31575154483E+02 -0.15539279010E+02  0.47787269778E+02  0.19999994225E+02 0.  0.
         12    1    3    3    0    0 -0.25400075020E+02  0.31575154483E+02  0.15539279010E+02  0.43400730222E+02  0.00000000000E+00 0. -1.
         11    1    4    4    0    0 -0.91094279216E+00  0.49284549541E+00 -0.28960106731E+00  0.10754452530E+01  0.51100000000E-03 0. -1.
        -11    1    4    4    0    0  0.33149838088E+01 -0.15381035716E+02 -0.50750752995E+01  0.16532445884E+02  0.51100000000E-03 0.  1.
        -12    1    4    4    0    0  0.22996034003E+02 -0.16686964263E+02 -0.10174602644E+02  0.30179378641E+02  0.00000000000E+00 0.  1.
</event>
<event>
 8    1  0.3776180E-010  0.9118800E+02  0.7816164E-02  0.1184000E+00
        -11   -1    0    0    0    0  0.00000000000E+00  0.00000000000E+00  0.45593999997E+02  0.45594000000E+02  0.51100000000E-03 0. -1.
         11   -1    0    0    0    0 -0.00000000000E+00 -0.00000000000E+00 -0.45593999997E+02  0.45594000000E+02  0.51100000000E-03 0.  1.
         23    2    1    2    0    0 -0.35527136788E-14  0.00000000000E+00  0.00000000000E+00  0.91188000000E+02  0.91188000000E+02 0.  0.
    9900012    2    3    3    0    0  0.31259874892E+02 -0.29447326674E+02 -0.62688351322E+01  0.47787272812E+02  0.20000008059E+02 0.  0.
         12    1    3    3    0    0 -0.31259874892E+02  0.29447326674E+02  0.62688351322E+01  0.43400727188E+02  0.00000000000E+00 0. -1.
         11    1    4    4    0    0  0.72344787924E+01 -0.36245589235E+01  0.84471048786E-01  0.80921101331E+01  0.51100000000E-03 0. -1.
        -11    1    4    4    0    0  0.26362593428E+02 -0.21518014482E+02 -0.70365066647E+01  0.34749441806E+02  0.51100000000E-03 0.  1.
         12    1    4    4    0    0 -0.23371973284E+01 -0.43047532686E+01  0.68320048373E+00  0.49457208733E+01  0.00000000000E+00 0. -1.
</event>
<event>
 8    1  0.3776180E-010  0.9118800E+02  0.7816164E-02  0.1184000E+00
        -11   -1    0    0    0    0  0.00000000000E+00  0.00000000000E+00  0.45593999997E+02  0.45594000000E+02  0.51100000000E-03 0. -1.
         11   -1    0    0    0    0 -0.00000000000E+00 -0.00000000000E+00 -0.45593999997E+02  0.45594000000E+02  0.51100000000E-03 0.  1.
         23    2    1    2    0    0  0.00000000000E+00 -0.71054273576E-14  0.00000000000E+00  0.91188000000E+02  0.91188000000E+02 0.  0.
    9900012    2    3    3    0    0  0.24390927204E+02  0.29933560952E+02  0.19816356966E+02  0.47787269539E+02  0.19999993135E+02 0.  0.
        -12    1    3    3    0    0 -0.24390927204E+02 -0.29933560952E+02 -0.19816356966E+02  0.43400730461E+02  0.00000000000E+00 0.  1.
         11    1    4    4    0    0  0.15802914603E+02  0.11074907930E+02  0.77114436930E+01  0.20781050496E+02  0.51100000000E-03 0. -1.
        -11    1    4    4    0    0  0.12664517252E+01 -0.16727031300E+01  0.53314063810E-01  0.20987325661E+01  0.51100000000E-03 0.  1.
        -12    1    4    4    0    0  0.73215608762E+01  0.20531356152E+02  0.12051599209E+02  0.24907486477E+02  0.00000000000E+00 0.  1.
</event>
<event>
 8    1  0.3776180E-010  0.9118800E+02  0.7816164E-02  0.1184000E+00
        -11   -1    0    0    0    0  0.00000000000E+00  0.00000000000E+00  0.45593999997E+02  0.45594000000E+02  0.51100000000E-03 0. -1.
         11   -1    0    0    0    0 -0.00000000000E+00 -0.00000000000E+00 -0.45593999997E+02  0.45594000000E+02  0.51100000000E-03 0.  1.
         23    2    1    2    0    0 -0.35527136788E-14  0.00000000000E+00 -0.71054273576E-14  0.91188000000E+02  0.91188000000E+02 0.  0.
    9900012    2    3    3    0    0  0.25440429489E+02 -0.65387035596E+01  0.34549290988E+02  0.47787267234E+02  0.19999982629E+02 0.  0.
        -12    1    3    3    0    0 -0.25440429489E+02  0.65387035596E+01 -0.34549290988E+02  0.43400732766E+02  0.00000000000E+00 0.  1.
         11    1    4    4    0    0  0.10672367346E+02 -0.61560273123E+01  0.29557223532E+02  0.32022266632E+02  0.51100000000E-03 0. -1.
        -11    1    4    4    0    0  0.25797176277E+01 -0.33211087041E+00  0.19083669499E-01  0.26010776836E+01  0.51100000000E-03 0.  1.
         12    1    4    4    0    0  0.12188344516E+02 -0.50565376821E-01  0.49729837863E+01  0.13163922919E+02  0.00000000000E+00 0. -1.
</event>
<event>
 8    1  0.3776180E-010  0.9118800E+02  0.7816164E-02  0.1184000E+00
        -11   -1    0    0    0    0  0.00000000000E+00  0.00000000000E+00  0.45593999997E+02  0.45594000000E+02  0.51100000000E-03 0. -1.
         11   -1    0    0    0    0 -0.00000000000E+00 -0.00000000000E+00 -0.45593999997E+02  0.45594000000E+02  0.51100000000E-03 0.  1.
         23    2    1    2    0    0  0.00000000000E+00  0.00000000000E+00  0.00000000000E+00  0.91188000000E+02  0.91188000000E+02 0.  0.
    9900012    2    3    3    0    0 -0.26073917026E+02 -0.23380011660E+02 -0.25634922435E+02  0.47787270253E+02  0.19999996392E+02 0.  0.
         12    1    3    3    0    0  0.26073917026E+02  0.23380011660E+02  0.25634922435E+02  0.43400729747E+02  0.00000000000E+00 0. -1.
         11    1    4    4    0    0 -0.14154233332E+01  0.93095192556E+00 -0.86138099390E+00  0.19005452317E+01  0.51100000000E-03 0. -1.
        -11    1    4    4    0    0 -0.10776498425E+02 -0.19962051025E+02 -0.89350894321E+01  0.24381390913E+02  0.51100000000E-03 0.  1.
        -12    1    4    4    0    0 -0.13881995268E+02 -0.43489125609E+01 -0.15838452009E+02  0.21505334109E+02  0.00000000000E+00 0.  1.
</event>
<event>
 8    1  0.3776180E-010  0.9118800E+02  0.7816164E-02  0.1184000E+00
        -11   -1    0    0    0    0  0.00000000000E+00  0.00000000000E+00  0.45593999997E+02  0.45594000000E+02  0.51100000000E-03 0. -1.
         11   -1    0    0    0    0 -0.00000000000E+00 -0.00000000000E+00 -0.45593999997E+02  0.45594000000E+02  0.51100000000E-03 0.  1.
         23    2    1    2    0    0 -0.17763568394E-14 -0.71054273576E-14  0.00000000000E+00  0.91188000000E+02  0.91188000000E+02 0.  0.
    9900012    2    3    3    0    0  0.12633924686E+02  0.32502020399E+02 -0.25838450395E+02  0.47787275331E+02  0.20000019545E+02 0.  0.
         12    1    3    3    0    0 -0.12633924686E+02 -0.32502020399E+02  0.25838450395E+02  0.43400724669E+02  0.00000000000E+00 0. -1.
         11    1    4    4    0    0  0.31738244582E+00  0.25899751901E+01  0.28340659162E+01  0.38523542128E+01  0.51100000000E-03 0. -1.
        -11    1    4    4    0    0  0.97898227579E+01  0.13736776561E+02 -0.15745724592E+02  0.23075257379E+02  0.51100000000E-03 0.  1.
        -12    1    4    4    0    0  0.25267194825E+01  0.16175268648E+02 -0.12926791719E+02  0.20859663739E+02  0.00000000000E+00 0.  1.
</event>
<event>
 8    1  0.3776180E-010  0.9118800E+02  0.7816164E-02  0.1184000E+00
        -11   -1    0    0    0    0  0.00000000000E+00  0.00000000000E+00  0.45593999997E+02  0.45594000000E+02  0.51100000000E-03 0. -1.
         11   -1    0    0    0    0 -0.00000000000E+00 -0.00000000000E+00 -0.45593999997E+02  0.45594000000E+02  0.51100000000E-03 0.  1.
         23    2    1    2    0    0  0.71054273576E-14  0.00000000000E+00  0.00000000000E+00  0.91188000000E+02  0.91188000000E+02 0.  0.
    9900012    2    3    3    0    0 -0.34156368790E+02 -0.17787566107E+02  0.20014201949E+02  0.47787270552E+02  0.19999997757E+02 0.  0.
        -12    1    3    3    0    0  0.34156368790E+02  0.17787566107E+02 -0.20014201949E+02  0.43400729448E+02  0.00000000000E+00 0.  1.
         11    1    4    4    0    0  0.11736929643E+01  0.11415619232E+00 -0.31948378251E+00  0.12217434097E+01  0.51100000000E-03 0. -1.
        -11    1    4    4    0    0 -0.24334118028E+00 -0.37668570971E+01  0.35521333238E+01  0.51832498233E+01  0.51100000000E-03 0.  1.
         12    1    4    4    0    0 -0.35086720574E+02 -0.14134865203E+02  0.16781552408E+02  0.41382277319E+02  0.00000000000E+00 0. -1.
</event>
<event>
 8    1  0.3776180E-010  0.9118800E+02  0.7816164E-02  0.1184000E+00
        -11   -1    0    0    0    0  0.00000000000E+00  0.00000000000E+00  0.45593999997E+02  0.45594000000E+02  0.51100000000E-03 0. -1.
         11   -1    0    0    0    0 -0.00000000000E+00 -0.00000000000E+00 -0.45593999997E+02  0.45594000000E+02  0.51100000000E-03 0.  1.
         23    2    1    2    0    0  0.00000000000E+00  0.00000000000E+00 -0.71054273576E-14  0.91188000000E+02  0.91188000000E+02 0.  0.
    9900012    2    3    3    0    0  0.19049844603E+02 -0.15606162357E+02  0.35737579866E+02  0.47787268467E+02  0.19999988248E+02 0.  0.
        -12    1    3    3    0    0 -0.19049844603E+02  0.15606162357E+02 -0.35737579866E+02  0.43400731533E+02  0.00000000000E+00 0.  1.
         11    1    4    4    0    0  0.10405058969E+01  0.11354976429E+01  0.70926398696E+01  0.72579300079E+01  0.51100000000E-03 0. -1.
        -11    1    4    4    0    0  0.24420339990E+01 -0.22992776057E+01 -0.14851049435E+01  0.36682072617E+01  0.51100000000E-03 0.  1.
         12    1    4    4    0    0  0.15567304707E+02 -0.14442382395E+02  0.30130044940E+02  0.36861131197E+02  0.00000000000E+00 0. -1.
</event>
<event>
 8    1  0.3776180E-010  0.9118800E+02  0.7816164E-02  0.1184000E+00
        -11   -1    0    0    0    0  0.00000000000E+00  0.00000000000E+00  0.45593999997E+02  0.45594000000E+02  0.51100000000E-03 0. -1.
         11   -1    0    0    0    0 -0.00000000000E+00 -0.00000000000E+00 -0.45593999997E+02  0.45594000000E+02  0.51100000000E-03 0.  1.
         23    2    1    2    0    0  0.00000000000E+00  0.00000000000E+00  0.00000000000E+00  0.91188000000E+02  0.91188000000E+02 0.  0.
    9900012    2    3    3    0    0  0.22357585362E+02 -0.26944489223E+02  0.25646755410E+02  0.47787272059E+02  0.20000004627E+02 0.  0.
        -12    1    3    3    0    0 -0.22357585362E+02  0.26944489223E+02 -0.25646755410E+02  0.43400727941E+02  0.00000000000E+00 0.  1.
         11    1    4    4    0    0 -0.13651268187E+01 -0.42146704706E+00  0.17924234741E+01  0.22921579078E+01  0.51100000000E-03 0.  1.
        -11    1    4    4    0    0  0.62427355049E+01 -0.14635304285E+02  0.16971438193E+02  0.23263567928E+02  0.51100000000E-03 0. -1.
         12    1    4    4    0    0  0.17479976676E+02 -0.11887717890E+02  0.68828937430E+01  0.22231546224E+02  0.00000000000E+00 0. -1.
</event>
<event>
 8    1  0.3776180E-010  0.9118800E+02  0.7816164E-02  0.1184000E+00
        -11   -1    0    0    0    0  0.00000000000E+00  0.00000000000E+00  0.45593999997E+02  0.45594000000E+02  0.51100000000E-03 0.  1.
         11   -1    0    0    0    0 -0.00000000000E+00 -0.00000000000E+00 -0.45593999997E+02  0.45594000000E+02  0.51100000000E-03 0. -1.
         23    2    1    2    0    0  0.35527136788E-14 -0.71054273576E-14  0.00000000000E+00  0.91188000000E+02  0.91188000000E+02 0.  0.
    9900012    2    3    3    0    0 -0.31621956505E+02 -0.29337397235E+02 -0.47949928039E+01  0.47787274595E+02  0.20000016186E+02 0.  0.
        -12    1    3    3    0    0  0.31621956505E+02  0.29337397235E+02  0.47949928039E+01  0.43400725405E+02  0.00000000000E+00 0.  1.
         11    1    4    4    0    0 -0.12336659616E+02 -0.19050798984E+02 -0.56720198842E+01  0.23394399378E+02  0.51100000000E-03 0. -1.
        -11    1    4    4    0    0 -0.56201416528E+01 -0.57465791661E+01 -0.42691081965E+01  0.91013432725E+01  0.51100000000E-03 0.  1.
        -12    1    4    4    0    0 -0.13665155236E+02 -0.45400190849E+01  0.51461352769E+01  0.15291531944E+02  0.00000000000E+00 0.  1.
</event>
<event>
 8    1  0.3776180E-010  0.9118800E+02  0.7816164E-02  0.1184000E+00
        -11   -1    0    0    0    0  0.00000000000E+00  0.00000000000E+00  0.45593999997E+02  0.45594000000E+02  0.51100000000E-03 0. -1.
         11   -1    0    0    0    0 -0.00000000000E+00 -0.00000000000E+00 -0.45593999997E+02  0.45594000000E+02  0.51100000000E-03 0.  1.
         23    2    1    2    0    0  0.19428902931E-15  0.00000000000E+00  0.71054273576E-14  0.91188000000E+02  0.91188000000E+02 0.  0.
    9900012    2    3    3    0    0  0.23972556137E+00 -0.21165871078E+02  0.37888937764E+02  0.47787272222E+02  0.20000005367E+02 0.  0.
        -12    1    3    3    0    0 -0.23972556137E+00  0.21165871078E+02 -0.37888937764E+02  0.43400727778E+02  0.00000000000E+00 0.  1.
         11    1    4    4    0    0  0.15450297964E+01 -0.48550958419E+01  0.94084558747E+01  0.10699444608E+02  0.51100000000E-03 0. -1.
        -11    1    4    4    0    0 -0.57056996634E+01  0.89616799627E+00  0.49481818471E+01  0.76054342138E+01  0.51100000000E-03 0.  1.
        -12    1    4    4    0    0  0.44003954284E+01 -0.17206943233E+02  0.23532300042E+02  0.29482393400E+02  0.00000000000E+00 0.  1.
</event>
<event>
 8    1  0.3776180E-010  0.9118800E+02  0.7816164E-02  0.1184000E+00
        -11   -1    0    0    0    0  0.00000000000E+00  0.00000000000E+00  0.45593999997E+02  0.45594000000E+02  0.51100000000E-03 0. -1.
         11   -1    0    0    0    0 -0.00000000000E+00 -0.00000000000E+00 -0.45593999997E+02  0.45594000000E+02  0.51100000000E-03 0.  1.
         23    2    1    2    0    0 -0.35527136788E-14 -0.35527136788E-14 -0.71054273576E-14  0.91188000000E+02  0.91188000000E+02 0.  0.
    9900012    2    3    3    0    0  0.15775627728E+02  0.24457089469E+02  0.32196328183E+02  0.47787271849E+02  0.20000003670E+02 0.  0.
        -12    1    3    3    0    0 -0.15775627728E+02 -0.24457089469E+02 -0.32196328183E+02  0.43400728151E+02  0.00000000000E+00 0.  1.
         11    1    4    4    0    0  0.10757105172E+02  0.20647518471E+02  0.20464776406E+02  0.30997458030E+02  0.51100000000E-03 0. -1.
        -11    1    4    4    0    0  0.78146561391E+01  0.33938109637E+01  0.60674904245E+01  0.10459504947E+02  0.51100000000E-03 0.  1.
         12    1    4    4    0    0 -0.27961335825E+01  0.41576003491E+00  0.56640613524E+01  0.63303088725E+01  0.00000000000E+00 0. -1.
</event>
<event>
 8    1  0.3776180E-010  0.9118800E+02  0.7816164E-02  0.1184000E+00
        -11   -1    0    0    0    0  0.00000000000E+00  0.00000000000E+00  0.45593999997E+02  0.45594000000E+02  0.51100000000E-03 0. -1.
         11   -1    0    0    0    0 -0.00000000000E+00 -0.00000000000E+00 -0.45593999997E+02  0.45594000000E+02  0.51100000000E-03 0.  1.
         23    2    1    2    0    0  0.00000000000E+00  0.00000000000E+00  0.00000000000E+00  0.91188000000E+02  0.91188000000E+02 0.  0.
    9900012    2    3    3    0    0 -0.14590060662E+02 -0.23400721990E+02 -0.33513579168E+02  0.47787266729E+02  0.19999980325E+02 0.  0.
         12    1    3    3    0    0  0.14590060662E+02  0.23400721990E+02  0.33513579168E+02  0.43400733271E+02  0.00000000000E+00 0. -1.
         11    1    4    4    0    0 -0.36432584078E+01  0.18240789769E+01 -0.24612247382E+01  0.47600654841E+01  0.51100000000E-03 0. -1.
        -11    1    4    4    0    0 -0.84914176530E+01 -0.59980668172E+01 -0.10466710467E+02  0.14752389893E+02  0.51100000000E-03 0.  1.
        -12    1    4    4    0    0 -0.24553846007E+01 -0.19226734150E+02 -0.20585643963E+02  0.28274811352E+02  0.00000000000E+00 0.  1.
</event>
<event>
 8    1  0.3776180E-010  0.9118800E+02  0.7816164E-02  0.1184000E+00
        -11   -1    0    0    0    0  0.00000000000E+00  0.00000000000E+00  0.45593999997E+02  0.45594000000E+02  0.51100000000E-03 0. -1.
         11   -1    0    0    0    0 -0.00000000000E+00 -0.00000000000E+00 -0.45593999997E+02  0.45594000000E+02  0.51100000000E-03 0.  1.
         23    2    1    2    0    0  0.35527136788E-14 -0.17763568394E-14  0.71054273576E-14  0.91188000000E+02  0.91188000000E+02 0.  0.
    9900012    2    3    3    0    0 -0.25821209102E+02  0.13572264635E+02 -0.32135373236E+02  0.47787269363E+02  0.19999992335E+02 0.  0.
         12    1    3    3    0    0  0.25821209102E+02 -0.13572264635E+02  0.32135373236E+02  0.43400730637E+02  0.00000000000E+00 0. -1.
         11    1    4    4    0    0 -0.13578933176E+02  0.63806268608E+00 -0.14174069964E+02  0.19639216119E+02  0.51100000000E-03 0. -1.
        -11    1    4    4    0    0 -0.14282284010E+02  0.11220351487E+02 -0.17873558772E+02  0.25482229641E+02  0.51100000000E-03 0.  1.
        -12    1    4    4    0    0  0.20400080835E+01  0.17138504614E+01 -0.87744499879E-01  0.26658236030E+01  0.00000000000E+00 0.  1.
</event>
<event>
 8    1  0.3776180E-010  0.9118800E+02  0.7816164E-02  0.1184000E+00
        -11   -1    0    0    0    0  0.00000000000E+00  0.00000000000E+00  0.45593999997E+02  0.45594000000E+02  0.51100000000E-03 0. -1.
         11   -1    0    0    0    0 -0.00000000000E+00 -0.00000000000E+00 -0.45593999997E+02  0.45594000000E+02  0.51100000000E-03 0.  1.
         23    2    1    2    0    0  0.00000000000E+00  0.00000000000E+00  0.00000000000E+00  0.91188000000E+02  0.91188000000E+02 0.  0.
    9900012    2    3    3    0    0 -0.11096161594E+02  0.18958737505E+02  0.37430808472E+02  0.47787263223E+02  0.19999964339E+02 0.  0.
        -12    1    3    3    0    0  0.11096161594E+02 -0.18958737505E+02 -0.37430808472E+02  0.43400736777E+02  0.00000000000E+00 0.  1.
         11    1    4    4    0    0 -0.15058723134E+01 -0.86809565536E-01  0.21124100521E+00  0.15230923637E+01  0.51100000000E-03 0.  1.
        -11    1    4    4    0    0  0.83990072672E+00 -0.87661278292E+00  0.13591693206E+02  0.13645805497E+02  0.51100000000E-03 0. -1.
         12    1    4    4    0    0 -0.10430190007E+02  0.19922159853E+02  0.23627874261E+02  0.32618365362E+02  0.00000000000E+00 0. -1.
</event>
<event>
 8    1  0.3776180E-010  0.9118800E+02  0.7816164E-02  0.1184000E+00
        -11   -1    0    0    0    0  0.00000000000E+00  0.00000000000E+00  0.45593999997E+02  0.45594000000E+02  0.51100000000E-03 0. -1.
         11   -1    0    0    0    0 -0.00000000000E+00 -0.00000000000E+00 -0.45593999997E+02  0.45594000000E+02  0.51100000000E-03 0.  1.
         23    2    1    2    0    0 -0.71054273576E-14 -0.17763568394E-14  0.00000000000E+00  0.91188000000E+02  0.91188000000E+02 0.  0.
    9900012    2    3    3    0    0  0.35118941234E+02  0.11114121525E+02  0.22951236499E+02  0.47787274343E+02  0.20000015040E+02 0.  0.
        -12    1    3    3    0    0 -0.35118941234E+02 -0.11114121525E+02 -0.22951236499E+02  0.43400725657E+02  0.00000000000E+00 0.  1.
         11    1    4    4    0    0  0.10353191938E+02  0.49970470002E+01  0.79713205553E+01  0.13989317842E+02  0.51100000000E-03 0. -1.
        -11    1    4    4    0    0  0.18945689526E+02  0.11634562548E+02  0.11805439949E+02  0.25172814899E+02  0.51100000000E-03 0.  1.
        -12    1    4    4    0    0  0.58200597698E+01 -0.55174880229E+01  0.31744759954E+01  0.86251416019E+01  0.00000000000E+00 0.  1.
</event>
<event>
 8    1  0.3776180E-010  0.9118800E+02  0.7816164E-02  0.1184000E+00
        -11   -1    0    0    0    0  0.00000000000E+00  0.00000000000E+00  0.45593999997E+02  0.45594000000E+02  0.51100000000E-03 0. -1.
         11   -1    0    0    0    0 -0.00000000000E+00 -0.00000000000E+00 -0.45593999997E+02  0.45594000000E+02  0.51100000000E-03 0.  1.
         23    2    1    2    0    0  0.00000000000E+00  0.00000000000E+00  0.00000000000E+00  0.91188000000E+02  0.91188000000E+02 0.  0.
    9900012    2    3    3    0    0  0.22169276511E+02  0.17606266780E+02 -0.32896290685E+02  0.47787269687E+02  0.19999993810E+02 0.  0.
         12    1    3    3    0    0 -0.22169276511E+02 -0.17606266780E+02  0.32896290685E+02  0.43400730313E+02  0.00000000000E+00 0. -1.
         11    1    4    4    0    0  0.10334379025E+02  0.61431116470E+00 -0.17034793212E+02  0.19933914519E+02  0.51100000000E-03 0. -1.
        -11    1    4    4    0    0 -0.10906943602E+01  0.13222253989E+01 -0.39494624805E+01  0.43053627418E+01  0.51100000000E-03 0.  1.
        -12    1    4    4    0    0  0.12925591846E+02  0.15669730216E+02 -0.11912034992E+02  0.23547992425E+02  0.00000000000E+00 0.  1.
</event>
<event>
 8    1  0.3776180E-010  0.9118800E+02  0.7816164E-02  0.1184000E+00
        -11   -1    0    0    0    0  0.00000000000E+00  0.00000000000E+00  0.45593999997E+02  0.45594000000E+02  0.51100000000E-03 0. -1.
         11   -1    0    0    0    0 -0.00000000000E+00 -0.00000000000E+00 -0.45593999997E+02  0.45594000000E+02  0.51100000000E-03 0.  1.
         23    2    1    2    0    0  0.00000000000E+00 -0.35527136788E-14  0.00000000000E+00  0.91188000000E+02  0.91188000000E+02 0.  0.
    9900012    2    3    3    0    0  0.34133350155E+02 -0.26436727411E+02 -0.44313757455E+01  0.47787271434E+02  0.20000001778E+02 0.  0.
         12    1    3    3    0    0 -0.34133350155E+02  0.26436727411E+02  0.44313757455E+01  0.43400728566E+02  0.00000000000E+00 0. -1.
         11    1    4    4    0    0  0.77930223346E+01 -0.10391934421E+02  0.18001313455E+01  0.13113503393E+02  0.51100000000E-03 0. -1.
        -11    1    4    4    0    0  0.13418861767E+02 -0.15039780746E+02  0.30506224242E+00  0.20158222125E+02  0.51100000000E-03 0.  1.
         12    1    4    4    0    0  0.12921466054E+02 -0.10050122434E+01 -0.65365693335E+01  0.14515545916E+02  0.00000000000E+00 0. -1.
</event>
<event>
 8    1  0.3776180E-010  0.9118800E+02  0.7816164E-02  0.1184000E+00
        -11   -1    0    0    0    0  0.00000000000E+00  0.00000000000E+00  0.45593999997E+02  0.45594000000E+02  0.51100000000E-03 0. -1.
         11   -1    0    0    0    0 -0.00000000000E+00 -0.00000000000E+00 -0.45593999997E+02  0.45594000000E+02  0.51100000000E-03 0.  1.
         23    2    1    2    0    0  0.00000000000E+00  0.88817841970E-15  0.00000000000E+00  0.91188000000E+02  0.91188000000E+02 0.  0.
    9900012    2    3    3    0    0  0.99803479316E+01 -0.77852842032E+01 -0.41513911250E+02  0.47787276247E+02  0.20000023722E+02 0.  0.
         12    1    3    3    0    0 -0.99803479316E+01  0.77852842032E+01  0.41513911250E+02  0.43400723753E+02  0.00000000000E+00 0. -1.
         11    1    4    4    0    0  0.83413876488E+00 -0.44639171849E+01 -0.34744834979E+01  0.57178999598E+01  0.51100000000E-03 0. -1.
        -11    1    4    4    0    0  0.30460853227E+01  0.48403711520E+01 -0.53598525634E+01  0.78381023497E+01  0.51100000000E-03 0.  1.
        -12    1    4    4    0    0  0.61001238440E+01 -0.81617381703E+01 -0.32679575189E+02  0.34231273938E+02  0.00000000000E+00 0.  1.
</event>
<event>
 8    1  0.3776180E-010  0.9118800E+02  0.7816164E-02  0.1184000E+00
        -11   -1    0    0    0    0  0.00000000000E+00  0.00000000000E+00  0.45593999997E+02  0.45594000000E+02  0.51100000000E-03 0.  1.
         11   -1    0    0    0    0 -0.00000000000E+00 -0.00000000000E+00 -0.45593999997E+02  0.45594000000E+02  0.51100000000E-03 0. -1.
         23    2    1    2    0    0  0.00000000000E+00 -0.88817841970E-15  0.00000000000E+00  0.91188000000E+02  0.91188000000E+02 0.  0.
    9900012    2    3    3    0    0  0.31370602962E+02 -0.45694791000E+01  0.29641683519E+02  0.47787259554E+02  0.19999947608E+02 0.  0.
        -12    1    3    3    0    0 -0.31370602962E+02  0.45694791000E+01 -0.29641683519E+02  0.43400740446E+02  0.00000000000E+00 0.  1.
         11    1    4    4    0    0 -0.13515306359E+01 -0.32278223662E+01  0.17686691819E+01  0.39209263221E+01  0.51100000000E-03 0. -1.
        -11    1    4    4    0    0  0.39817177413E+01  0.22229732050E+01  0.61880031863E+01  0.76868114154E+01  0.51100000000E-03 0.  1.
         12    1    4    4    0    0  0.28740415857E+02 -0.35646299388E+01  0.21685011151E+02  0.36179521816E+02  0.00000000000E+00 0. -1.
</event>
<event>
 8    1  0.3776180E-010  0.9118800E+02  0.7816164E-02  0.1184000E+00
        -11   -1    0    0    0    0  0.00000000000E+00  0.00000000000E+00  0.45593999997E+02  0.45594000000E+02  0.51100000000E-03 0. -1.
         11   -1    0    0    0    0 -0.00000000000E+00 -0.00000000000E+00 -0.45593999997E+02  0.45594000000E+02  0.51100000000E-03 0.  1.
         23    2    1    2    0    0  0.88817841970E-15  0.00000000000E+00  0.00000000000E+00  0.91188000000E+02  0.91188000000E+02 0.  0.
    9900012    2    3    3    0    0  0.36642545983E+01  0.12553368458E+02  0.41383681872E+02  0.47787274813E+02  0.20000017184E+02 0.  0.
        -12    1    3    3    0    0 -0.36642545983E+01 -0.12553368458E+02 -0.41383681872E+02  0.43400725187E+02  0.00000000000E+00 0.  1.
         11    1    4    4    0    0 -0.25881086856E+01  0.83344291137E-01  0.10577665597E+01  0.27971634195E+01  0.51100000000E-03 0. -1.
        -11    1    4    4    0    0 -0.17232490146E+01  0.91793560467E+01  0.11044903333E+02  0.14464441036E+02  0.51100000000E-03 0.  1.
         12    1    4    4    0    0  0.79756122985E+01  0.32906681201E+01  0.29281011980E+02  0.30525670358E+02  0.00000000000E+00 0. -1.
</event>
<event>
 8    1  0.3776180E-010  0.9118800E+02  0.7816164E-02  0.1184000E+00
        -11   -1    0    0    0    0  0.00000000000E+00  0.00000000000E+00  0.45593999997E+02  0.45594000000E+02  0.51100000000E-03 0. -1.
         11   -1    0    0    0    0 -0.00000000000E+00 -0.00000000000E+00 -0.45593999997E+02  0.45594000000E+02  0.51100000000E-03 0.  1.
         23    2    1    2    0    0 -0.44408920985E-15  0.00000000000E+00  0.00000000000E+00  0.91188000000E+02  0.91188000000E+02 0.  0.
    9900012    2    3    3    0    0  0.28727897063E+01 -0.40191786352E+02 -0.16124203442E+02  0.47787279413E+02  0.20000038153E+02 0.  0.
         12    1    3    3    0    0 -0.28727897063E+01  0.40191786352E+02  0.16124203442E+02  0.43400720587E+02  0.00000000000E+00 0. -1.
         11    1    4    4    0    0  0.30709770777E+01 -0.13198040023E+02  0.20194296322E+01  0.13700264850E+02  0.51100000000E-03 0. -1.
        -11    1    4    4    0    0  0.14895358942E+01 -0.46996061896E+01  0.52755339788E+00  0.49581577593E+01  0.51100000000E-03 0.  1.
        -12    1    4    4    0    0 -0.16877232657E+01 -0.22294140140E+02 -0.18671186472E+02  0.29128856803E+02  0.00000000000E+00 0.  1.
</event>
<event>
 8    1  0.3776180E-010  0.9118800E+02  0.7816164E-02  0.1184000E+00
        -11   -1    0    0    0    0  0.00000000000E+00  0.00000000000E+00  0.45593999997E+02  0.45594000000E+02  0.51100000000E-03 0. -1.
         11   -1    0    0    0    0 -0.00000000000E+00 -0.00000000000E+00 -0.45593999997E+02  0.45594000000E+02  0.51100000000E-03 0.  1.
         23    2    1    2    0    0 -0.35527136788E-14 -0.88817841970E-15  0.00000000000E+00  0.91188000000E+02  0.91188000000E+02 0.  0.
    9900012    2    3    3    0    0 -0.18493023486E+02 -0.56150453506E+01 -0.38860039458E+02  0.47787270529E+02  0.19999997650E+02 0.  0.
         12    1    3    3    0    0  0.18493023486E+02  0.56150453506E+01  0.38860039458E+02  0.43400729471E+02  0.00000000000E+00 0. -1.
         11    1    4    4    0    0 -0.12356313977E+02 -0.11923446222E+02 -0.22500967093E+02  0.28304426956E+02  0.51100000000E-03 0. -1.
        -11    1    4    4    0    0 -0.15702769264E+01 -0.90882387036E+00 -0.46383863752E+01  0.49805982452E+01  0.51100000000E-03 0.  1.
        -12    1    4    4    0    0 -0.45664325821E+01  0.72172247413E+01 -0.11720685990E+02  0.14502245328E+02  0.00000000000E+00 0.  1.
</event>
<event>
 8    1  0.3776180E-010  0.9118800E+02  0.7816164E-02  0.1184000E+00
        -11   -1    0    0    0    0  0.00000000000E+00  0.00000000000E+00  0.45593999997E+02  0.45594000000E+02  0.51100000000E-03 0.  1.
         11   -1    0    0    0    0 -0.00000000000E+00 -0.00000000000E+00 -0.45593999997E+02  0.45594000000E+02  0.51100000000E-03 0. -1.
         23    2    1    2    0    0  0.00000000000E+00  0.71054273576E-14  0.17763568394E-14  0.91188000000E+02  0.91188000000E+02 0.  0.
    9900012    2    3    3    0    0  0.34620876917E+00 -0.40603138519E+02 -0.15326093445E+02  0.47787264311E+02  0.19999969298E+02 0.  0.
         12    1    3    3    0    0 -0.34620876917E+00  0.40603138519E+02  0.15326093445E+02  0.43400735689E+02  0.00000000000E+00 0. -1.
         11    1    4    4    0    0 -0.26217398881E+01  0.89951038637E+00 -0.21219443297E+01  0.34907430406E+01  0.51100000000E-03 0. -1.
        -11    1    4    4    0    0  0.27640368920E+01 -0.61169478116E+01 -0.62738834521E+00  0.67417035582E+01  0.51100000000E-03 0.  1.
        -12    1    4    4    0    0  0.20391176535E+00 -0.35385701093E+02 -0.12576760770E+02  0.37554817712E+02  0.00000000000E+00 0.  1.
</event>
<event>
 8    1  0.3776180E-010  0.9118800E+02  0.7816164E-02  0.1184000E+00
        -11   -1    0    0    0    0  0.00000000000E+00  0.00000000000E+00  0.45593999997E+02  0.45594000000E+02  0.51100000000E-03 0. -1.
         11   -1    0    0    0    0 -0.00000000000E+00 -0.00000000000E+00 -0.45593999997E+02  0.45594000000E+02  0.51100000000E-03 0.  1.
         23    2    1    2    0    0 -0.44408920985E-15  0.00000000000E+00  0.00000000000E+00  0.91188000000E+02  0.91188000000E+02 0.  0.
    9900012    2    3    3    0    0 -0.38459815298E+01 -0.15467199538E+02 -0.40368271748E+02  0.47787271903E+02  0.20000003914E+02 0.  0.
         12    1    3    3    0    0  0.38459815298E+01  0.15467199538E+02  0.40368271748E+02  0.43400728097E+02  0.00000000000E+00 0. -1.
         11    1    4    4    0    0 -0.38469508482E+01 -0.49409765699E+00 -0.10997002119E+01  0.40314394625E+01  0.51100000000E-03 0. -1.
        -11    1    4    4    0    0 -0.26361105855E+01 -0.11974596960E+02 -0.16056272271E+02  0.20202572383E+02  0.51100000000E-03 0.  1.
         12    1    4    4    0    0  0.26370799039E+01 -0.29985049203E+01 -0.23212299265E+02  0.23553260058E+02  0.00000000000E+00 0. -1.
</event>
<event>
 8    1  0.3776180E-010  0.9118800E+02  0.7816164E-02  0.1184000E+00
        -11   -1    0    0    0    0  0.00000000000E+00  0.00000000000E+00  0.45593999997E+02  0.45594000000E+02  0.51100000000E-03 0. -1.
         11   -1    0    0    0    0 -0.00000000000E+00 -0.00000000000E+00 -0.45593999997E+02  0.45594000000E+02  0.51100000000E-03 0.  1.
         23    2    1    2    0    0  0.17763568394E-14  0.00000000000E+00  0.00000000000E+00  0.91188000000E+02  0.91188000000E+02 0.  0.
    9900012    2    3    3    0    0 -0.14976342357E+02  0.35062614095E+02 -0.20735126741E+02  0.47787271682E+02  0.20000002905E+02 0.  0.
         12    1    3    3    0    0  0.14976342357E+02 -0.35062614095E+02  0.20735126741E+02  0.43400728318E+02  0.00000000000E+00 0. -1.
         11    1    4    4    0    0 -0.97850197791E+01  0.69651601069E+01 -0.68460865347E+01  0.13824940090E+02  0.51100000000E-03 0. -1.
        -11    1    4    4    0    0 -0.84772787963E+01  0.13409851988E+02 -0.59297092315E+01  0.16936641874E+02  0.51100000000E-03 0.  1.
        -12    1    4    4    0    0  0.32859562186E+01  0.14687602001E+02 -0.79593309749E+01  0.17025689718E+02  0.00000000000E+00 0.  1.
</event>
<event>
 8    1  0.3776180E-010  0.9118800E+02  0.7816164E-02  0.1184000E+00
        -11   -1    0    0    0    0  0.00000000000E+00  0.00000000000E+00  0.45593999997E+02  0.45594000000E+02  0.51100000000E-03 0. -1.
         11   -1    0    0    0    0 -0.00000000000E+00 -0.00000000000E+00 -0.45593999997E+02  0.45594000000E+02  0.51100000000E-03 0.  1.
         23    2    1    2    0    0  0.00000000000E+00  0.00000000000E+00  0.00000000000E+00  0.91188000000E+02  0.91188000000E+02 0.  0.
    9900012    2    3    3    0    0  0.26147828792E+02 -0.29209048345E+02  0.18621106611E+02  0.47787273426E+02  0.20000010857E+02 0.  0.
        -12    1    3    3    0    0 -0.26147828792E+02  0.29209048345E+02 -0.18621106611E+02  0.43400726574E+02  0.00000000000E+00 0.  1.
         11    1    4    4    0    0  0.13350959448E+02 -0.75172627675E+01  0.18151018602E+01  0.15428932326E+02  0.51100000000E-03 0. -1.
        -11    1    4    4    0    0  0.30974089508E+01 -0.64959652845E+01 -0.69876914620E+00  0.72304761784E+01  0.51100000000E-03 0.  1.
         12    1    4    4    0    0  0.96994603927E+01 -0.15195820293E+02  0.17504773897E+02  0.25127864921E+02  0.00000000000E+00 0. -1.
</event>
<event>
 8    1  0.3776180E-010  0.9118800E+02  0.7816164E-02  0.1184000E+00
        -11   -1    0    0    0    0  0.00000000000E+00  0.00000000000E+00  0.45593999997E+02  0.45594000000E+02  0.51100000000E-03 0. -1.
         11   -1    0    0    0    0 -0.00000000000E+00 -0.00000000000E+00 -0.45593999997E+02  0.45594000000E+02  0.51100000000E-03 0.  1.
         23    2    1    2    0    0  0.35527136788E-14  0.00000000000E+00  0.00000000000E+00  0.91188000000E+02  0.91188000000E+02 0.  0.
    9900012    2    3    3    0    0 -0.31657783713E+02 -0.88476118688E+01  0.28339492213E+02  0.47787281985E+02  0.20000049881E+02 0.  0.
        -12    1    3    3    0    0  0.31657783713E+02  0.88476118688E+01 -0.28339492213E+02  0.43400718015E+02  0.00000000000E+00 0.  1.
         11    1    4    4    0    0 -0.92331466499E+01 -0.10980567337E+02  0.14987113416E+02  0.20746985923E+02  0.51100000000E-03 0.  1.
        -11    1    4    4    0    0 -0.11183234071E+02 -0.21389967561E+01  0.77524227910E+01  0.13774617628E+02  0.51100000000E-03 0. -1.
        -12    1    4    4    0    0 -0.11241402992E+02  0.42719522242E+01  0.55999560056E+01  0.13265678434E+02  0.00000000000E+00 0.  1.
</event>
<event>
 8    1  0.3776180E-010  0.9118800E+02  0.7816164E-02  0.1184000E+00
        -11   -1    0    0    0    0  0.00000000000E+00  0.00000000000E+00  0.45593999997E+02  0.45594000000E+02  0.51100000000E-03 0. -1.
         11   -1    0    0    0    0 -0.00000000000E+00 -0.00000000000E+00 -0.45593999997E+02  0.45594000000E+02  0.51100000000E-03 0.  1.
         23    2    1    2    0    0  0.88817841970E-15  0.00000000000E+00  0.00000000000E+00  0.91188000000E+02  0.91188000000E+02 0.  0.
    9900012    2    3    3    0    0 -0.54495327518E+01 -0.27118600807E+02 -0.33444092683E+02  0.47787271293E+02  0.20000001131E+02 0.  0.
         12    1    3    3    0    0  0.54495327518E+01  0.27118600807E+02  0.33444092683E+02  0.43400728707E+02  0.00000000000E+00 0. -1.
         11    1    4    4    0    0 -0.42809114804E+01 -0.12700846195E+01 -0.16932898519E+01  0.47756202558E+01  0.51100000000E-03 0. -1.
        -11    1    4    4    0    0 -0.45050441275E+01 -0.17326606691E+02 -0.12929989727E+02  0.22083735115E+02  0.51100000000E-03 0.  1.
         12    1    4    4    0    0  0.33364228561E+01 -0.85219094968E+01 -0.18820813104E+02  0.20927915922E+02  0.00000000000E+00 0. -1.
</event>
<event>
 8    1  0.3776180E-010  0.9118800E+02  0.7816164E-02  0.1184000E+00
        -11   -1    0    0    0    0  0.00000000000E+00  0.00000000000E+00  0.45593999997E+02  0.45594000000E+02  0.51100000000E-03 0. -1.
         11   -1    0    0    0    0 -0.00000000000E+00 -0.00000000000E+00 -0.45593999997E+02  0.45594000000E+02  0.51100000000E-03 0.  1.
         23    2    1    2    0    0  0.00000000000E+00  0.00000000000E+00  0.00000000000E+00  0.91188000000E+02  0.91188000000E+02 0.  0.
    9900012    2    3    3    0    0 -0.38121738717E+02  0.17705025204E+02 -0.10811523741E+02  0.47787263533E+02  0.19999965753E+02 0.  0.
         12    1    3    3    0    0  0.38121738717E+02 -0.17705025204E+02  0.10811523741E+02  0.43400736467E+02  0.00000000000E+00 0. -1.
         11    1    4    4    0    0 -0.86382602945E+01  0.74461974502E+01  0.49664236939E+01  0.12439082038E+02  0.51100000000E-03 0. -1.
        -11    1    4    4    0    0 -0.11700750531E+02  0.64740655773E+01 -0.54662695309E+01  0.14446494071E+02  0.51100000000E-03 0.  1.
         12    1    4    4    0    0 -0.17782727891E+02  0.37847621763E+01 -0.10311677904E+02  0.20901687424E+02  0.00000000000E+00 0. -1.
</event>
<event>
 8    1  0.3776180E-010  0.9118800E+02  0.7816164E-02  0.1184000E+00
        -11   -1    0    0    0    0  0.00000000000E+00  0.00000000000E+00  0.45593999997E+02  0.45594000000E+02  0.51100000000E-03 0. -1.
         11   -1    0    0    0    0 -0.00000000000E+00 -0.00000000000E+00 -0.45593999997E+02  0.45594000000E+02  0.51100000000E-03 0.  1.
         23    2    1    2    0    0  0.00000000000E+00  0.71054273576E-14  0.00000000000E+00  0.91188000000E+02  0.91188000000E+02 0.  0.
    9900012    2    3    3    0    0  0.92481249656E+01 -0.37079694885E+02 -0.20571628890E+02  0.47787268401E+02  0.19999987946E+02 0.  0.
         12    1    3    3    0    0 -0.92481249656E+01  0.37079694885E+02  0.20571628890E+02  0.43400731599E+02  0.00000000000E+00 0. -1.
         11    1    4    4    0    0  0.41560697469E+01 -0.30466893822E+02 -0.14388225156E+02  0.33948866820E+02  0.51100000000E-03 0. -1.
        -11    1    4    4    0    0 -0.25661417292E+01 -0.28896874705E+01 -0.19680324771E+01  0.43368801164E+01  0.51100000000E-03 0.  1.
         12    1    4    4    0    0  0.76581969480E+01 -0.37231135925E+01 -0.42153712563E+01  0.95015214647E+01  0.00000000000E+00 0. -1.
</event>
<event>
 8    1  0.3776180E-010  0.9118800E+02  0.7816164E-02  0.1184000E+00
        -11   -1    0    0    0    0  0.00000000000E+00  0.00000000000E+00  0.45593999997E+02  0.45594000000E+02  0.51100000000E-03 0. -1.
         11   -1    0    0    0    0 -0.00000000000E+00 -0.00000000000E+00 -0.45593999997E+02  0.45594000000E+02  0.51100000000E-03 0.  1.
         23    2    1    2    0    0  0.00000000000E+00  0.35527136788E-14  0.71054273576E-14  0.91188000000E+02  0.91188000000E+02 0.  0.
    9900012    2    3    3    0    0 -0.70882026212E+01  0.17274415191E+02  0.39178758358E+02  0.47787272552E+02  0.20000006873E+02 0.  0.
        -12    1    3    3    0    0  0.70882026212E+01 -0.17274415191E+02 -0.39178758358E+02  0.43400727448E+02  0.00000000000E+00 0.  1.
         11    1    4    4    0    0  0.27987931083E+01  0.20213802740E+01  0.27339010258E+01  0.44037979240E+01  0.51100000000E-03 0. -1.
        -11    1    4    4    0    0 -0.54435919968E+00  0.15268664260E+01 -0.13452795640E+01  0.21065197335E+01  0.51100000000E-03 0.  1.
        -12    1    4    4    0    0 -0.93426365299E+01  0.13726168491E+02  0.37790136896E+02  0.41276954895E+02  0.00000000000E+00 0.  1.
</event>
<event>
 8    1  0.3776180E-010  0.9118800E+02  0.7816164E-02  0.1184000E+00
        -11   -1    0    0    0    0  0.00000000000E+00  0.00000000000E+00  0.45593999997E+02  0.45594000000E+02  0.51100000000E-03 0. -1.
         11   -1    0    0    0    0 -0.00000000000E+00 -0.00000000000E+00 -0.45593999997E+02  0.45594000000E+02  0.51100000000E-03 0.  1.
         23    2    1    2    0    0  0.00000000000E+00  0.22204460493E-15 -0.71054273576E-14  0.91188000000E+02  0.91188000000E+02 0.  0.
    9900012    2    3    3    0    0 -0.86334074772E+01  0.83888583040E+00 -0.42525095651E+02  0.47787271732E+02  0.20000003133E+02 0.  0.
         12    1    3    3    0    0  0.86334074772E+01 -0.83888583040E+00  0.42525095651E+02  0.43400728268E+02  0.00000000000E+00 0. -1.
         11    1    4    4    0    0 -0.78885794245E+01 -0.95334715546E+00 -0.14543529389E+02  0.16572652277E+02  0.51100000000E-03 0. -1.
        -11    1    4    4    0    0 -0.71050472859E+01  0.22534478905E+01 -0.15425396799E+02  0.17131917319E+02  0.51100000000E-03 0.  1.
         12    1    4    4    0    0  0.63602192332E+01 -0.46121490469E+00 -0.12556169463E+02  0.14082702136E+02  0.00000000000E+00 0. -1.
</event>
<event>
 8    1  0.3776180E-010  0.9118800E+02  0.7816164E-02  0.1184000E+00
        -11   -1    0    0    0    0  0.00000000000E+00  0.00000000000E+00  0.45593999997E+02  0.45594000000E+02  0.51100000000E-03 0. -1.
         11   -1    0    0    0    0 -0.00000000000E+00 -0.00000000000E+00 -0.45593999997E+02  0.45594000000E+02  0.51100000000E-03 0.  1.
         23    2    1    2    0    0  0.00000000000E+00  0.55511151231E-15  0.35527136788E-14  0.91188000000E+02  0.91188000000E+02 0.  0.
    9900012    2    3    3    0    0 -0.35930517039E+02 -0.72695577884E+00  0.24332966079E+02  0.47787265472E+02  0.19999974593E+02 0.  0.
        -12    1    3    3    0    0  0.35930517039E+02  0.72695577884E+00 -0.24332966079E+02  0.43400734528E+02  0.00000000000E+00 0.  1.
         11    1    4    4    0    0 -0.20117438435E+02 -0.32032334142E+01  0.94225607837E+01  0.22444524621E+02  0.51100000000E-03 0. -1.
        -11    1    4    4    0    0 -0.26769258287E+01 -0.47786651627E+01  0.43131489397E+01  0.69717161923E+01  0.51100000000E-03 0.  1.
         12    1    4    4    0    0 -0.13136152775E+02  0.72549427981E+01  0.10597256355E+02  0.18371024658E+02  0.00000000000E+00 0. -1.
</event>
<event>
 8    1  0.3776180E-010  0.9118800E+02  0.7816164E-02  0.1184000E+00
        -11   -1    0    0    0    0  0.00000000000E+00  0.00000000000E+00  0.45593999997E+02  0.45594000000E+02  0.51100000000E-03 0. -1.
         11   -1    0    0    0    0 -0.00000000000E+00 -0.00000000000E+00 -0.45593999997E+02  0.45594000000E+02  0.51100000000E-03 0.  1.
         23    2    1    2    0    0  0.00000000000E+00  0.00000000000E+00  0.00000000000E+00  0.91188000000E+02  0.91188000000E+02 0.  0.
    9900012    2    3    3    0    0 -0.22728432551E+02 -0.12239217156E+02 -0.34889004609E+02  0.47787277363E+02  0.20000028808E+02 0.  0.
         12    1    3    3    0    0  0.22728432551E+02  0.12239217156E+02  0.34889004609E+02  0.43400722637E+02  0.00000000000E+00 0. -1.
         11    1    4    4    0    0 -0.87190580330E+01 -0.90196823405E+01 -0.65194661009E+01  0.14137895211E+02  0.51100000000E-03 0. -1.
        -11    1    4    4    0    0 -0.95128829929E+01 -0.20614066640E+01 -0.75505660389E+01  0.12318903687E+02  0.51100000000E-03 0.  1.
        -12    1    4    4    0    0 -0.44964915252E+01 -0.11581281513E+01 -0.20818972469E+02  0.21330478465E+02  0.00000000000E+00 0.  1.
</event>
<event>
 8    1  0.3776180E-010  0.9118800E+02  0.7816164E-02  0.1184000E+00
        -11   -1    0    0    0    0  0.00000000000E+00  0.00000000000E+00  0.45593999997E+02  0.45594000000E+02  0.51100000000E-03 0. -1.
         11   -1    0    0    0    0 -0.00000000000E+00 -0.00000000000E+00 -0.45593999997E+02  0.45594000000E+02  0.51100000000E-03 0.  1.
         23    2    1    2    0    0  0.71054273576E-14  0.00000000000E+00  0.71054273576E-14  0.91188000000E+02  0.91188000000E+02 0.  0.
    9900012    2    3    3    0    0 -0.29144847462E+02  0.45881902738E+01 -0.31830011861E+02  0.47787270990E+02  0.19999999750E+02 0.  0.
         12    1    3    3    0    0  0.29144847462E+02 -0.45881902738E+01  0.31830011861E+02  0.43400729010E+02  0.00000000000E+00 0. -1.
         11    1    4    4    0    0 -0.61399055761E+01 -0.59035453736E+01 -0.60651301552E+01  0.10456390033E+02  0.51100000000E-03 0.  1.
        -11    1    4    4    0    0 -0.12516399766E+02  0.28822245198E+01 -0.73022139307E+01  0.14774634000E+02  0.51100000000E-03 0. -1.
        -12    1    4    4    0    0 -0.10488542120E+02  0.76095111276E+01 -0.18462667775E+02  0.22556246957E+02  0.00000000000E+00 0.  1.
</event>
<event>
 8    1  0.3776180E-010  0.9118800E+02  0.7816164E-02  0.1184000E+00
        -11   -1    0    0    0    0  0.00000000000E+00  0.00000000000E+00  0.45593999997E+02  0.45594000000E+02  0.51100000000E-03 0. -1.
         11   -1    0    0    0    0 -0.00000000000E+00 -0.00000000000E+00 -0.45593999997E+02  0.45594000000E+02  0.51100000000E-03 0.  1.
         23    2    1    2    0    0 -0.29858927830E-15  0.71054273576E-14  0.00000000000E+00  0.91188000000E+02  0.91188000000E+02 0.  0.
    9900012    2    3    3    0    0 -0.15251121300E-02  0.37904380862E+02 -0.21139560759E+02  0.47787272818E+02  0.20000008087E+02 0.  0.
         12    1    3    3    0    0  0.15251121300E-02 -0.37904380862E+02  0.21139560759E+02  0.43400727182E+02  0.00000000000E+00 0. -1.
         11    1    4    4    0    0 -0.39972122299E+01  0.71620586766E+01 -0.91339228857E+01  0.12276047313E+02  0.51100000000E-03 0. -1.
        -11    1    4    4    0    0  0.36767196571E+00  0.17206728168E+02 -0.12840662308E+02  0.21472989678E+02  0.51100000000E-03 0.  1.
         12    1    4    4    0    0  0.36280151521E+01  0.13535594017E+02  0.83502443423E+00  0.14038235827E+02  0.00000000000E+00 0. -1.
</event>
<event>
 8    1  0.3776180E-010  0.9118800E+02  0.7816164E-02  0.1184000E+00
        -11   -1    0    0    0    0  0.00000000000E+00  0.00000000000E+00  0.45593999997E+02  0.45594000000E+02  0.51100000000E-03 0. -1.
         11   -1    0    0    0    0 -0.00000000000E+00 -0.00000000000E+00 -0.45593999997E+02  0.45594000000E+02  0.51100000000E-03 0.  1.
         23    2    1    2    0    0  0.44408920985E-15  0.44408920985E-15  0.71054273576E-14  0.91188000000E+02  0.91188000000E+02 0.  0.
    9900012    2    3    3    0    0 -0.34700921670E+01  0.34999279625E+01 -0.43119981049E+02  0.47787264971E+02  0.19999972307E+02 0.  0.
         12    1    3    3    0    0  0.34700921670E+01 -0.34999279625E+01  0.43119981049E+02  0.43400735029E+02  0.00000000000E+00 0. -1.
         11    1    4    4    0    0 -0.22537269992E+01  0.11763746597E+00 -0.51190420049E+01  0.55944360993E+01  0.51100000000E-03 0. -1.
        -11    1    4    4    0    0 -0.81615668446E+00 -0.10493007382E+01 -0.37710298104E+02  0.37733721353E+02  0.51100000000E-03 0.  1.
         12    1    4    4    0    0 -0.40020848333E+00  0.44315912347E+01 -0.29064094020E+00  0.44591075181E+01  0.00000000000E+00 0. -1.
</event>
<event>
 8    1  0.3776180E-010  0.9118800E+02  0.7816164E-02  0.1184000E+00
        -11   -1    0    0    0    0  0.00000000000E+00  0.00000000000E+00  0.45593999997E+02  0.45594000000E+02  0.51100000000E-03 0. -1.
         11   -1    0    0    0    0 -0.00000000000E+00 -0.00000000000E+00 -0.45593999997E+02  0.45594000000E+02  0.51100000000E-03 0.  1.
         23    2    1    2    0    0  0.71054273576E-14  0.00000000000E+00  0.00000000000E+00  0.91188000000E+02  0.91188000000E+02 0.  0.
    9900012    2    3    3    0    0  0.30299747636E+02 -0.10903188535E+02 -0.29097576724E+02  0.47787271916E+02  0.20000003972E+02 0.  0.
         12    1    3    3    0    0 -0.30299747636E+02  0.10903188535E+02  0.29097576724E+02  0.43400728084E+02  0.00000000000E+00 0. -1.
         11    1    4    4    0    0  0.55420200147E+00 -0.43900387234E+01 -0.39034169462E+01  0.59005291261E+01  0.51100000000E-03 0. -1.
        -11    1    4    4    0    0  0.53283213377E+01  0.38145275957E+01 -0.77586645305E+01  0.10155712905E+02  0.51100000000E-03 0.  1.
        -12    1    4    4    0    0  0.24417224297E+02 -0.10327677407E+02 -0.17435495248E+02  0.31731029884E+02  0.00000000000E+00 0.  1.
</event>
<event>
 8    1  0.3776180E-010  0.9118800E+02  0.7816164E-02  0.1184000E+00
        -11   -1    0    0    0    0  0.00000000000E+00  0.00000000000E+00  0.45593999997E+02  0.45594000000E+02  0.51100000000E-03 0. -1.
         11   -1    0    0    0    0 -0.00000000000E+00 -0.00000000000E+00 -0.45593999997E+02  0.45594000000E+02  0.51100000000E-03 0.  1.
         23    2    1    2    0    0 -0.88817841970E-15  0.71054273576E-14  0.71054273576E-14  0.91188000000E+02  0.91188000000E+02 0.  0.
    9900012    2    3    3    0    0 -0.23637517964E+01  0.27784216584E+02  0.33257685244E+02  0.47787266809E+02  0.19999980688E+02 0.  0.
        -12    1    3    3    0    0  0.23637517964E+01 -0.27784216584E+02 -0.33257685244E+02  0.43400733191E+02  0.00000000000E+00 0.  1.
         11    1    4    4    0    0 -0.19243975424E+01  0.18123692019E+02  0.16238985089E+02  0.24410574661E+02  0.51100000000E-03 0. -1.
        -11    1    4    4    0    0 -0.63315037868E+01  0.55300683287E+01  0.11797858833E+02  0.14486513356E+02  0.51100000000E-03 0.  1.
         12    1    4    4    0    0  0.58921495327E+01  0.41304562362E+01  0.52208413228E+01  0.88901787920E+01  0.00000000000E+00 0. -1.
</event>
<event>
 8    1  0.3776180E-010  0.9118800E+02  0.7816164E-02  0.1184000E+00
        -11   -1    0    0    0    0  0.00000000000E+00  0.00000000000E+00  0.45593999997E+02  0.45594000000E+02  0.51100000000E-03 0. -1.
         11   -1    0    0    0    0 -0.00000000000E+00 -0.00000000000E+00 -0.45593999997E+02  0.45594000000E+02  0.51100000000E-03 0.  1.
         23    2    1    2    0    0  0.00000000000E+00  0.00000000000E+00  0.00000000000E+00  0.91188000000E+02  0.91188000000E+02 0.  0.
    9900012    2    3    3    0    0 -0.16672331484E+02  0.67897891171E+01  0.39491204911E+02  0.47787272601E+02  0.20000007099E+02 0.  0.
        -12    1    3    3    0    0  0.16672331484E+02 -0.67897891171E+01 -0.39491204911E+02  0.43400727399E+02  0.00000000000E+00 0.  1.
         11    1    4    4    0    0 -0.27574236582E+01  0.35160270763E+01  0.11897159392E+02  0.12708588965E+02  0.51100000000E-03 0. -1.
        -11    1    4    4    0    0 -0.45794180415E+01  0.86245321720E+00 -0.11169662615E+01  0.47919212265E+01  0.51100000000E-03 0.  1.
        -12    1    4    4    0    0 -0.93354897847E+01  0.24113088235E+01  0.28711011781E+02  0.30286762410E+02  0.00000000000E+00 0.  1.
</event>
<event>
 8    1  0.3776180E-010  0.9118800E+02  0.7816164E-02  0.1184000E+00
        -11   -1    0    0    0    0  0.00000000000E+00  0.00000000000E+00  0.45593999997E+02  0.45594000000E+02  0.51100000000E-03 0. -1.
         11   -1    0    0    0    0 -0.00000000000E+00 -0.00000000000E+00 -0.45593999997E+02  0.45594000000E+02  0.51100000000E-03 0.  1.
         23    2    1    2    0    0  0.00000000000E+00  0.00000000000E+00  0.00000000000E+00  0.91188000000E+02  0.91188000000E+02 0.  0.
    9900012    2    3    3    0    0 -0.19151792553E+02 -0.17696849988E+02 -0.34693726957E+02  0.47787258674E+02  0.19999943597E+02 0.  0.
         12    1    3    3    0    0  0.19151792553E+02  0.17696849988E+02  0.34693726957E+02  0.43400741326E+02  0.00000000000E+00 0. -1.
         11    1    4    4    0    0 -0.15998045347E+02 -0.87820529889E+01 -0.21394843284E+02  0.28121188258E+02  0.51100000000E-03 0. -1.
        -11    1    4    4    0    0 -0.37601379886E+01 -0.49948301041E+01 -0.14272480756E+02  0.15581741644E+02  0.51100000000E-03 0.  1.
         12    1    4    4    0    0  0.60639078302E+00 -0.39199668949E+01  0.97359708266E+00  0.40843287720E+01  0.00000000000E+00 0. -1.
</event>
<event>
 8    1  0.3776180E-010  0.9118800E+02  0.7816164E-02  0.1184000E+00
        -11   -1    0    0    0    0  0.00000000000E+00  0.00000000000E+00  0.45593999997E+02  0.45594000000E+02  0.51100000000E-03 0. -1.
         11   -1    0    0    0    0 -0.00000000000E+00 -0.00000000000E+00 -0.45593999997E+02  0.45594000000E+02  0.51100000000E-03 0.  1.
         23    2    1    2    0    0 -0.35527136788E-14 -0.44408920985E-15  0.00000000000E+00  0.91188000000E+02  0.91188000000E+02 0.  0.
    9900012    2    3    3    0    0  0.30963559995E+02  0.24301982502E+01  0.30314605336E+02  0.47787271806E+02  0.20000003471E+02 0.  0.
        -12    1    3    3    0    0 -0.30963559995E+02 -0.24301982502E+01 -0.30314605336E+02  0.43400728194E+02  0.00000000000E+00 0.  1.
         11    1    4    4    0    0  0.90162949420E+01 -0.32467943227E+00  0.41334439063E+01  0.99239281539E+01  0.51100000000E-03 0. -1.
        -11    1    4    4    0    0  0.11724049171E+02  0.49308922241E+01  0.39835586487E+01  0.13328006860E+02  0.51100000000E-03 0.  1.
         12    1    4    4    0    0  0.10223215881E+02 -0.21760145417E+01  0.22197602781E+02  0.24535336792E+02  0.00000000000E+00 0. -1.
</event>
<event>
 8    1  0.3776180E-010  0.9118800E+02  0.7816164E-02  0.1184000E+00
        -11   -1    0    0    0    0  0.00000000000E+00  0.00000000000E+00  0.45593999997E+02  0.45594000000E+02  0.51100000000E-03 0.  1.
         11   -1    0    0    0    0 -0.00000000000E+00 -0.00000000000E+00 -0.45593999997E+02  0.45594000000E+02  0.51100000000E-03 0. -1.
         23    2    1    2    0    0  0.00000000000E+00 -0.71054273576E-14  0.00000000000E+00  0.91188000000E+02  0.91188000000E+02 0.  0.
    9900012    2    3    3    0    0  0.22861592312E+02  0.33266227661E+02 -0.15947703418E+02  0.47787267862E+02  0.19999985490E+02 0.  0.
         12    1    3    3    0    0 -0.22861592312E+02 -0.33266227661E+02  0.15947703418E+02  0.43400732138E+02  0.00000000000E+00 0. -1.
         11    1    4    4    0    0  0.10371500039E+02  0.52691677655E+01 -0.62345558633E+01  0.13198554052E+02  0.51100000000E-03 0.  1.
        -11    1    4    4    0    0  0.29903925905E+01  0.63082754225E+00  0.16481089060E+01  0.34722693531E+01  0.51100000000E-03 0. -1.
        -12    1    4    4    0    0  0.94996996827E+01  0.27366232353E+02 -0.11361256460E+02  0.31116444457E+02  0.00000000000E+00 0.  1.
</event>
<event>
 8    1  0.3776180E-010  0.9118800E+02  0.7816164E-02  0.1184000E+00
        -11   -1    0    0    0    0  0.00000000000E+00  0.00000000000E+00  0.45593999997E+02  0.45594000000E+02  0.51100000000E-03 0. -1.
         11   -1    0    0    0    0 -0.00000000000E+00 -0.00000000000E+00 -0.45593999997E+02  0.45594000000E+02  0.51100000000E-03 0.  1.
         23    2    1    2    0    0  0.00000000000E+00  0.00000000000E+00 -0.22204460493E-15  0.91188000000E+02  0.91188000000E+02 0.  0.
    9900012    2    3    3    0    0  0.12389277243E+01  0.43342427565E+02 -0.18768174285E+01  0.47787269444E+02  0.19999992705E+02 0.  0.
         12    1    3    3    0    0 -0.12389277243E+01 -0.43342427565E+02  0.18768174285E+01  0.43400730556E+02  0.00000000000E+00 0. -1.
         11    1    4    4    0    0 -0.16431167844E+01 -0.48111525453E+00  0.19673995899E+01  0.26080579102E+01  0.51100000000E-03 0. -1.
        -11    1    4    4    0    0  0.42891063027E+01  0.13016574674E+02  0.18165637216E+01  0.13824888901E+02  0.51100000000E-03 0.  1.
         12    1    4    4    0    0 -0.14070617939E+01  0.30806968145E+02 -0.56607807400E+01  0.31354322633E+02  0.00000000000E+00 0. -1.
</event>
<event>
 8    1  0.3776180E-010  0.9118800E+02  0.7816164E-02  0.1184000E+00
        -11   -1    0    0    0    0  0.00000000000E+00  0.00000000000E+00  0.45593999997E+02  0.45594000000E+02  0.51100000000E-03 0. -1.
         11   -1    0    0    0    0 -0.00000000000E+00 -0.00000000000E+00 -0.45593999997E+02  0.45594000000E+02  0.51100000000E-03 0.  1.
         23    2    1    2    0    0  0.35527136788E-14  0.00000000000E+00  0.17763568394E-14  0.91188000000E+02  0.91188000000E+02 0.  0.
    9900012    2    3    3    0    0  0.22262777568E+02  0.36337743052E+02  0.82195047109E+01  0.47787273130E+02  0.20000009509E+02 0.  0.
        -12    1    3    3    0    0 -0.22262777568E+02 -0.36337743052E+02 -0.82195047109E+01  0.43400726870E+02  0.00000000000E+00 0.  1.
         11    1    4    4    0    0  0.15931099863E+01  0.32385325072E+01  0.42459864905E+01  0.55726558989E+01  0.51100000000E-03 0. -1.
        -11    1    4    4    0    0 -0.11429911099E+01 -0.40301617751E-01  0.22255413854E+01  0.25022165408E+01  0.51100000000E-03 0.  1.
        -12    1    4    4    0    0  0.21812658692E+02  0.33139512162E+02  0.17479768349E+01  0.39712400690E+02  0.00000000000E+00 0.  1.
</event>
<event>
 8    1  0.3776180E-010  0.9118800E+02  0.7816164E-02  0.1184000E+00
        -11   -1    0    0    0    0  0.00000000000E+00  0.00000000000E+00  0.45593999997E+02  0.45594000000E+02  0.51100000000E-03 0. -1.
         11   -1    0    0    0    0 -0.00000000000E+00 -0.00000000000E+00 -0.45593999997E+02  0.45594000000E+02  0.51100000000E-03 0.  1.
         23    2    1    2    0    0  0.00000000000E+00  0.17763568394E-14  0.00000000000E+00  0.91188000000E+02  0.91188000000E+02 0.  0.
    9900012    2    3    3    0    0  0.43097674743E+01  0.15483606621E+02  0.40315096304E+02  0.47787272360E+02  0.20000005998E+02 0.  0.
        -12    1    3    3    0    0 -0.43097674743E+01 -0.15483606621E+02 -0.40315096304E+02  0.43400727640E+02  0.00000000000E+00 0.  1.
         11    1    4    4    0    0  0.44274928186E+01  0.67958357674E+00  0.30609196225E+01  0.54252885355E+01  0.51100000000E-03 0. -1.
        -11    1    4    4    0    0  0.29641658749E+01  0.94357566025E+01  0.87881052542E+01  0.13230668019E+02  0.51100000000E-03 0.  1.
        -12    1    4    4    0    0 -0.30818912192E+01  0.53682664419E+01  0.28466071427E+02  0.29131315806E+02  0.00000000000E+00 0.  1.
</event>
<event>
 8    1  0.3776180E-010  0.9118800E+02  0.7816164E-02  0.1184000E+00
        -11   -1    0    0    0    0  0.00000000000E+00  0.00000000000E+00  0.45593999997E+02  0.45594000000E+02  0.51100000000E-03 0. -1.
         11   -1    0    0    0    0 -0.00000000000E+00 -0.00000000000E+00 -0.45593999997E+02  0.45594000000E+02  0.51100000000E-03 0.  1.
         23    2    1    2    0    0  0.00000000000E+00  0.00000000000E+00  0.00000000000E+00  0.91188000000E+02  0.91188000000E+02 0.  0.
    9900012    2    3    3    0    0 -0.79868592832E+01 -0.35558733665E+02  0.23567158273E+02  0.47787257954E+02  0.19999940318E+02 0.  0.
        -12    1    3    3    0    0  0.79868592832E+01  0.35558733665E+02 -0.23567158273E+02  0.43400742046E+02  0.00000000000E+00 0.  1.
         11    1    4    4    0    0  0.28781926438E+00 -0.27538105043E+01  0.77576291337E+01  0.82369364608E+01  0.51100000000E-03 0. -1.
        -11    1    4    4    0    0 -0.48471076315E+01 -0.20419878661E+01  0.16524343955E+01  0.55131394440E+01  0.51100000000E-03 0.  1.
         12    1    4    4    0    0 -0.34275709161E+01 -0.30762935294E+02  0.14157094744E+02  0.34037182050E+02  0.00000000000E+00 0. -1.
</event>
<event>
 8    1  0.3776180E-010  0.9118800E+02  0.7816164E-02  0.1184000E+00
        -11   -1    0    0    0    0  0.00000000000E+00  0.00000000000E+00  0.45593999997E+02  0.45594000000E+02  0.51100000000E-03 0.  1.
         11   -1    0    0    0    0 -0.00000000000E+00 -0.00000000000E+00 -0.45593999997E+02  0.45594000000E+02  0.51100000000E-03 0. -1.
         23    2    1    2    0    0  0.88817841970E-15  0.00000000000E+00  0.66613381478E-15  0.91188000000E+02  0.91188000000E+02 0.  0.
    9900012    2    3    3    0    0 -0.21103617822E+01 -0.43341435310E+02 -0.83049694327E+00  0.47787269975E+02  0.19999995123E+02 0.  0.
         12    1    3    3    0    0  0.21103617822E+01  0.43341435310E+02  0.83049694327E+00  0.43400730025E+02  0.00000000000E+00 0. -1.
         11    1    4    4    0    0  0.28341242280E+01 -0.28059123247E+02 -0.46458868938E+01  0.28582003478E+02  0.51100000000E-03 0. -1.
        -11    1    4    4    0    0  0.16345306197E+01 -0.10196322956E+02  0.34277617390E+01  0.10880544241E+02  0.51100000000E-03 0.  1.
         12    1    4    4    0    0 -0.65790166299E+01 -0.50859891061E+01  0.38762821152E+00  0.83247222556E+01  0.00000000000E+00 0. -1.
</event>
<event>
 8    1  0.3776180E-010  0.9118800E+02  0.7816164E-02  0.1184000E+00
        -11   -1    0    0    0    0  0.00000000000E+00  0.00000000000E+00  0.45593999997E+02  0.45594000000E+02  0.51100000000E-03 0. -1.
         11   -1    0    0    0    0 -0.00000000000E+00 -0.00000000000E+00 -0.45593999997E+02  0.45594000000E+02  0.51100000000E-03 0.  1.
         23    2    1    2    0    0  0.00000000000E+00  0.00000000000E+00 -0.35527136788E-14  0.91188000000E+02  0.91188000000E+02 0.  0.
    9900012    2    3    3    0    0 -0.33598206178E+02  0.24057922363E+01  0.27367797580E+02  0.47787266837E+02  0.19999980817E+02 0.  0.
        -12    1    3    3    0    0  0.33598206178E+02 -0.24057922363E+01 -0.27367797580E+02  0.43400733163E+02  0.00000000000E+00 0.  1.
         11    1    4    4    0    0 -0.98054246110E+01 -0.69614930845E+00  0.17451788372E+01  0.99838181622E+01  0.51100000000E-03 0. -1.
        -11    1    4    4    0    0  0.66824427453E+00  0.55285547699E-02 -0.11979250023E+01  0.13717162781E+01  0.51100000000E-03 0.  1.
        -12    1    4    4    0    0 -0.24461025842E+02  0.30964129899E+01  0.26820543746E+02  0.36431732397E+02  0.00000000000E+00 0.  1.
</event>
<event>
 8    1  0.3776180E-010  0.9118800E+02  0.7816164E-02  0.1184000E+00
        -11   -1    0    0    0    0  0.00000000000E+00  0.00000000000E+00  0.45593999997E+02  0.45594000000E+02  0.51100000000E-03 0. -1.
         11   -1    0    0    0    0 -0.00000000000E+00 -0.00000000000E+00 -0.45593999997E+02  0.45594000000E+02  0.51100000000E-03 0.  1.
         23    2    1    2    0    0  0.00000000000E+00  0.35527136788E-14  0.00000000000E+00  0.91188000000E+02  0.91188000000E+02 0.  0.
    9900012    2    3    3    0    0 -0.27205175159E+02 -0.26963953570E+02  0.20407026352E+02  0.47787273369E+02  0.20000010597E+02 0.  0.
        -12    1    3    3    0    0  0.27205175159E+02  0.26963953570E+02 -0.20407026352E+02  0.43400726631E+02  0.00000000000E+00 0.  1.
         11    1    4    4    0    0 -0.21118716107E+02 -0.24572360258E+02  0.22825968126E+02  0.39633645805E+02  0.51100000000E-03 0. -1.
        -11    1    4    4    0    0 -0.20742883192E+01  0.65031457894E+00  0.63524919885E+00  0.22647566952E+01  0.51100000000E-03 0.  1.
        -12    1    4    4    0    0 -0.40121707336E+01 -0.30419078912E+01 -0.30541909723E+01  0.58888708688E+01  0.00000000000E+00 0.  1.
</event>
<event>
 8    1  0.3776180E-010  0.9118800E+02  0.7816164E-02  0.1184000E+00
        -11   -1    0    0    0    0  0.00000000000E+00  0.00000000000E+00  0.45593999997E+02  0.45594000000E+02  0.51100000000E-03 0. -1.
         11   -1    0    0    0    0 -0.00000000000E+00 -0.00000000000E+00 -0.45593999997E+02  0.45594000000E+02  0.51100000000E-03 0.  1.
         23    2    1    2    0    0  0.00000000000E+00 -0.88817841970E-15  0.00000000000E+00  0.91188000000E+02  0.91188000000E+02 0.  0.
    9900012    2    3    3    0    0  0.13449653700E+02  0.57052471205E+01  0.40867838505E+02  0.47787271280E+02  0.20000001072E+02 0.  0.
        -12    1    3    3    0    0 -0.13449653700E+02 -0.57052471205E+01 -0.40867838505E+02  0.43400728720E+02  0.00000000000E+00 0.  1.
         11    1    4    4    0    0  0.46339052703E+01  0.33805105143E+01  0.32358549144E+01  0.65857183875E+01  0.51100000000E-03 0. -1.
        -11    1    4    4    0    0  0.44949597239E+01  0.72883822133E+01  0.12023900589E+02  0.14761414697E+02  0.51100000000E-03 0.  1.
         12    1    4    4    0    0  0.43207887059E+01 -0.49636456072E+01  0.25608083002E+02  0.26440138196E+02  0.00000000000E+00 0. -1.
</event>
<event>
 8    1  0.3776180E-010  0.9118800E+02  0.7816164E-02  0.1184000E+00
        -11   -1    0    0    0    0  0.00000000000E+00  0.00000000000E+00  0.45593999997E+02  0.45594000000E+02  0.51100000000E-03 0.  1.
         11   -1    0    0    0    0 -0.00000000000E+00 -0.00000000000E+00 -0.45593999997E+02  0.45594000000E+02  0.51100000000E-03 0. -1.
         23    2    1    2    0    0  0.00000000000E+00  0.35527136788E-14  0.00000000000E+00  0.91188000000E+02  0.91188000000E+02 0.  0.
    9900012    2    3    3    0    0  0.34046270935E+02 -0.17923318901E+02 -0.20080569524E+02  0.47787271926E+02  0.20000004017E+02 0.  0.
         12    1    3    3    0    0 -0.34046270935E+02  0.17923318901E+02  0.20080569524E+02  0.43400728074E+02  0.00000000000E+00 0. -1.
         11    1    4    4    0    0  0.15049913221E+02 -0.92997835311E+01 -0.72122379979E+01  0.19105031768E+02  0.51100000000E-03 0. -1.
        -11    1    4    4    0    0  0.11239523701E+02 -0.12592571103E+02 -0.77097738650E+01  0.18556410033E+02  0.51100000000E-03 0.  1.
         12    1    4    4    0    0  0.77568340134E+01  0.39690357329E+01 -0.51585576611E+01  0.10125830124E+02  0.00000000000E+00 0. -1.
</event>
<event>
 8    1  0.3776180E-010  0.9118800E+02  0.7816164E-02  0.1184000E+00
        -11   -1    0    0    0    0  0.00000000000E+00  0.00000000000E+00  0.45593999997E+02  0.45594000000E+02  0.51100000000E-03 0. -1.
         11   -1    0    0    0    0 -0.00000000000E+00 -0.00000000000E+00 -0.45593999997E+02  0.45594000000E+02  0.51100000000E-03 0.  1.
         23    2    1    2    0    0  0.00000000000E+00  0.00000000000E+00  0.00000000000E+00  0.91188000000E+02  0.91188000000E+02 0.  0.
    9900012    2    3    3    0    0 -0.10459288908E+02 -0.32768303106E+02 -0.26466295755E+02  0.47787271620E+02  0.20000002625E+02 0.  0.
         12    1    3    3    0    0  0.10459288908E+02  0.32768303106E+02  0.26466295755E+02  0.43400728380E+02  0.00000000000E+00 0. -1.
         11    1    4    4    0    0 -0.17161724630E+01 -0.16235704472E+02 -0.39640335527E+01  0.16800503263E+02  0.51100000000E-03 0. -1.
        -11    1    4    4    0    0 -0.20434966352E+01 -0.71971861543E+01 -0.24446916485E+01  0.78709519472E+01  0.51100000000E-03 0.  1.
         12    1    4    4    0    0 -0.66996198102E+01 -0.93354124796E+01 -0.20057570554E+02  0.23115816410E+02  0.00000000000E+00 0. -1.
</event>
<event>
 8    1  0.3776180E-010  0.9118800E+02  0.7816164E-02  0.1184000E+00
        -11   -1    0    0    0    0  0.00000000000E+00  0.00000000000E+00  0.45593999997E+02  0.45594000000E+02  0.51100000000E-03 0. -1.
         11   -1    0    0    0    0 -0.00000000000E+00 -0.00000000000E+00 -0.45593999997E+02  0.45594000000E+02  0.51100000000E-03 0.  1.
         23    2    1    2    0    0  0.17763568394E-14 -0.44408920985E-15  0.71054273576E-14  0.91188000000E+02  0.91188000000E+02 0.  0.
    9900012    2    3    3    0    0 -0.96195837531E+01  0.24470837839E+01 -0.42250425381E+02  0.47787273560E+02  0.20000011471E+02 0.  0.
         12    1    3    3    0    0  0.96195837531E+01 -0.24470837839E+01  0.42250425381E+02  0.43400726440E+02  0.00000000000E+00 0. -1.
         11    1    4    4    0    0  0.42667808870E+01 -0.62962482028E+00 -0.16388805610E+02  0.16946822597E+02  0.51100000000E-03 0. -1.
        -11    1    4    4    0    0 -0.73135766759E+00  0.33206630686E+01 -0.33970067723E+01  0.48063855989E+01  0.51100000000E-03 0.  1.
        -12    1    4    4    0    0 -0.13155006973E+02 -0.24395446446E+00 -0.22464612998E+02  0.26034065364E+02  0.00000000000E+00 0.  1.
</event>
<event>
 8    1  0.3776180E-010  0.9118800E+02  0.7816164E-02  0.1184000E+00
        -11   -1    0    0    0    0  0.00000000000E+00  0.00000000000E+00  0.45593999997E+02  0.45594000000E+02  0.51100000000E-03 0. -1.
         11   -1    0    0    0    0 -0.00000000000E+00 -0.00000000000E+00 -0.45593999997E+02  0.45594000000E+02  0.51100000000E-03 0.  1.
         23    2    1    2    0    0  0.35527136788E-14  0.17763568394E-14  0.71054273576E-14  0.91188000000E+02  0.91188000000E+02 0.  0.
    9900012    2    3    3    0    0 -0.24993098578E+02 -0.66360803962E+01  0.34855832634E+02  0.47787290234E+02  0.20000087493E+02 0.  0.
        -12    1    3    3    0    0  0.24993098578E+02  0.66360803962E+01 -0.34855832634E+02  0.43400709766E+02  0.00000000000E+00 0.  1.
         11    1    4    4    0    0 -0.14485216916E+02 -0.95803629424E+01  0.19750609225E+02  0.26300027152E+02  0.51100000000E-03 0. -1.
        -11    1    4    4    0    0 -0.55627585192E+01 -0.97156108727E+00  0.13983307939E+02  0.15080487872E+02  0.51100000000E-03 0.  1.
        -12    1    4    4    0    0 -0.49451231430E+01  0.39158436335E+01  0.11219154708E+01  0.64067752095E+01  0.00000000000E+00 0.  1.
</event>
<event>
 8    1  0.3776180E-010  0.9118800E+02  0.7816164E-02  0.1184000E+00
        -11   -1    0    0    0    0  0.00000000000E+00  0.00000000000E+00  0.45593999997E+02  0.45594000000E+02  0.51100000000E-03 0. -1.
         11   -1    0    0    0    0 -0.00000000000E+00 -0.00000000000E+00 -0.45593999997E+02  0.45594000000E+02  0.51100000000E-03 0.  1.
         23    2    1    2    0    0 -0.71054273576E-14  0.17763568394E-14  0.00000000000E+00  0.91188000000E+02  0.91188000000E+02 0.  0.
    9900012    2    3    3    0    0  0.41785557887E+02 -0.80650717987E+01 -0.85173365426E+01  0.47787271287E+02  0.20000001104E+02 0.  0.
         12    1    3    3    0    0 -0.41785557887E+02  0.80650717987E+01  0.85173365426E+01  0.43400728713E+02  0.00000000000E+00 0. -1.
         11    1    4    4    0    0 -0.10756648515E+01  0.78205649510E+00  0.50880082470E+00  0.14239191601E+01  0.51100000000E-03 0. -1.
        -11    1    4    4    0    0  0.37209118245E+02 -0.47339815689E+01 -0.39335829627E+01  0.37714746947E+02  0.51100000000E-03 0.  1.
         12    1    4    4    0    0  0.56521044936E+01 -0.41131467249E+01 -0.50925544046E+01  0.86486051795E+01  0.00000000000E+00 0. -1.
</event>
<event>
 8    1  0.3776180E-010  0.9118800E+02  0.7816164E-02  0.1184000E+00
        -11   -1    0    0    0    0  0.00000000000E+00  0.00000000000E+00  0.45593999997E+02  0.45594000000E+02  0.51100000000E-03 0. -1.
         11   -1    0    0    0    0 -0.00000000000E+00 -0.00000000000E+00 -0.45593999997E+02  0.45594000000E+02  0.51100000000E-03 0.  1.
         23    2    1    2    0    0  0.17763568394E-14  0.00000000000E+00  0.00000000000E+00  0.91188000000E+02  0.91188000000E+02 0.  0.
    9900012    2    3    3    0    0  0.13161673887E+02 -0.23198376502E+02  0.34237885831E+02  0.47787226297E+02  0.19999795978E+02 0.  0.
        -12    1    3    3    0    0 -0.13161673887E+02  0.23198376502E+02 -0.34237885831E+02  0.43400773703E+02  0.00000000000E+00 0.  1.
         11    1    4    4    0    0  0.53344946845E+01 -0.48028095795E+01  0.47186902537E+01  0.85901019417E+01  0.51100000000E-03 0. -1.
        -11    1    4    4    0    0 -0.17684017020E+01 -0.82603363566E+01  0.25392565022E+01  0.88208970717E+01  0.51100000000E-03 0.  1.
        -12    1    4    4    0    0  0.95955809049E+01 -0.10135230566E+02  0.26979939075E+02  0.30376227284E+02  0.00000000000E+00 0.  1.
</event>
<event>
 8    1  0.3776180E-010  0.9118800E+02  0.7816164E-02  0.1184000E+00
        -11   -1    0    0    0    0  0.00000000000E+00  0.00000000000E+00  0.45593999997E+02  0.45594000000E+02  0.51100000000E-03 0. -1.
         11   -1    0    0    0    0 -0.00000000000E+00 -0.00000000000E+00 -0.45593999997E+02  0.45594000000E+02  0.51100000000E-03 0.  1.
         23    2    1    2    0    0  0.00000000000E+00  0.35527136788E-14  0.00000000000E+00  0.91188000000E+02  0.91188000000E+02 0.  0.
    9900012    2    3    3    0    0 -0.58816976253E+01 -0.28082931496E+02 -0.32563475928E+02  0.47787246863E+02  0.19999889745E+02 0.  0.
         12    1    3    3    0    0  0.58816976253E+01  0.28082931496E+02  0.32563475928E+02  0.43400753137E+02  0.00000000000E+00 0. -1.
         11    1    4    4    0    0  0.26080896377E+01 -0.35240111969E+01 -0.39293222863E+01  0.58873050171E+01  0.51100000000E-03 0. -1.
        -11    1    4    4    0    0 -0.66514368477E+01 -0.60112123837E+01 -0.16677315741E+01  0.91190797412E+01  0.51100000000E-03 0.  1.
        -12    1    4    4    0    0 -0.18383504153E+01 -0.18547707915E+02 -0.26966422068E+02  0.32780862104E+02  0.00000000000E+00 0.  1.
</event>
<event>
 8    1  0.3776180E-010  0.9118800E+02  0.7816164E-02  0.1184000E+00
        -11   -1    0    0    0    0  0.00000000000E+00  0.00000000000E+00  0.45593999997E+02  0.45594000000E+02  0.51100000000E-03 0. -1.
         11   -1    0    0    0    0 -0.00000000000E+00 -0.00000000000E+00 -0.45593999997E+02  0.45594000000E+02  0.51100000000E-03 0.  1.
         23    2    1    2    0    0  0.00000000000E+00  0.00000000000E+00  0.00000000000E+00  0.91188000000E+02  0.91188000000E+02 0.  0.
    9900012    2    3    3    0    0 -0.21686920777E+02 -0.17907320282E+02  0.33054944772E+02  0.47787262375E+02  0.19999960474E+02 0.  0.
        -12    1    3    3    0    0  0.21686920777E+02  0.17907320282E+02 -0.33054944772E+02  0.43400737625E+02  0.00000000000E+00 0.  1.
         11    1    4    4    0    0 -0.94281277683E+01 -0.70099804165E+01  0.78719921984E+01  0.14142053602E+02  0.51100000000E-03 0. -1.
        -11    1    4    4    0    0  0.70764529071E+00 -0.91467078902E+01  0.92414451220E+01  0.13021802306E+02  0.51100000000E-03 0.  1.
        -12    1    4    4    0    0 -0.12966438300E+02 -0.17506319753E+01  0.15941507451E+02  0.20623406467E+02  0.00000000000E+00 0.  1.
</event>
<event>
 8    1  0.3776180E-010  0.9118800E+02  0.7816164E-02  0.1184000E+00
        -11   -1    0    0    0    0  0.00000000000E+00  0.00000000000E+00  0.45593999997E+02  0.45594000000E+02  0.51100000000E-03 0. -1.
         11   -1    0    0    0    0 -0.00000000000E+00 -0.00000000000E+00 -0.45593999997E+02  0.45594000000E+02  0.51100000000E-03 0.  1.
         23    2    1    2    0    0  0.00000000000E+00  0.17763568394E-14  0.71054273576E-14  0.91188000000E+02  0.91188000000E+02 0.  0.
    9900012    2    3    3    0    0 -0.77660346453E+01  0.26638685699E+01  0.42617085042E+02  0.47787269277E+02  0.19999991940E+02 0.  0.
        -12    1    3    3    0    0  0.77660346453E+01 -0.26638685699E+01 -0.42617085042E+02  0.43400730723E+02  0.00000000000E+00 0.  1.
         11    1    4    4    0    0  0.60416187504E+00  0.70518478855E+00 -0.85506721547E+00  0.12623142879E+01  0.51100000000E-03 0. -1.
        -11    1    4    4    0    0  0.52207430069E+00  0.64456785049E+01  0.14159938057E+02  0.15566733087E+02  0.51100000000E-03 0.  1.
         12    1    4    4    0    0 -0.88922708210E+01 -0.44869947235E+01  0.29312214201E+02  0.30958221902E+02  0.00000000000E+00 0. -1.
</event>
<event>
 8    1  0.3776180E-010  0.9118800E+02  0.7816164E-02  0.1184000E+00
        -11   -1    0    0    0    0  0.00000000000E+00  0.00000000000E+00  0.45593999997E+02  0.45594000000E+02  0.51100000000E-03 0.  1.
         11   -1    0    0    0    0 -0.00000000000E+00 -0.00000000000E+00 -0.45593999997E+02  0.45594000000E+02  0.51100000000E-03 0. -1.
         23    2    1    2    0    0 -0.71054273576E-14  0.00000000000E+00  0.00000000000E+00  0.91188000000E+02  0.91188000000E+02 0.  0.
    9900012    2    3    3    0    0  0.33079745253E+02  0.27550671355E+02  0.55058468176E+01  0.47787269737E+02  0.19999994040E+02 0.  0.
        -12    1    3    3    0    0 -0.33079745253E+02 -0.27550671355E+02 -0.55058468176E+01  0.43400730263E+02  0.00000000000E+00 0.  1.
         11    1    4    4    0    0  0.22228819149E+01  0.34151010171E+00  0.32851136730E+01  0.39811813904E+01  0.51100000000E-03 0. -1.
        -11    1    4    4    0    0  0.24551906761E+01 -0.10935885343E+01 -0.21914698933E+01  0.34679154679E+01  0.51100000000E-03 0.  1.
        -12    1    4    4    0    0  0.28401672662E+02  0.28302749788E+02  0.44122030379E+01  0.40338172879E+02  0.00000000000E+00 0.  1.
</event>
<event>
 8    1  0.3776180E-010  0.9118800E+02  0.7816164E-02  0.1184000E+00
        -11   -1    0    0    0    0  0.00000000000E+00  0.00000000000E+00  0.45593999997E+02  0.45594000000E+02  0.51100000000E-03 0. -1.
         11   -1    0    0    0    0 -0.00000000000E+00 -0.00000000000E+00 -0.45593999997E+02  0.45594000000E+02  0.51100000000E-03 0.  1.
         23    2    1    2    0    0 -0.35527136788E-14  0.35527136788E-14 -0.35527136788E-14  0.91188000000E+02  0.91188000000E+02 0.  0.
    9900012    2    3    3    0    0 -0.23966082590E+02  0.28955661612E+02 -0.21698386031E+02  0.47787269471E+02  0.19999992827E+02 0.  0.
         12    1    3    3    0    0  0.23966082590E+02 -0.28955661612E+02  0.21698386031E+02  0.43400730529E+02  0.00000000000E+00 0. -1.
         11    1    4    4    0    0 -0.22851129560E+02  0.19644157771E+02 -0.99424351504E+01  0.31731988177E+02  0.51100000000E-03 0.  1.
        -11    1    4    4    0    0  0.33137513971E+00 -0.72204502369E+00 -0.75818272078E+00  0.10981802214E+01  0.51100000000E-03 0. -1.
        -12    1    4    4    0    0 -0.14463281692E+01  0.10033548865E+02 -0.10997768160E+02  0.14957101073E+02  0.00000000000E+00 0.  1.
</event>
<event>
 8    1  0.3776180E-010  0.9118800E+02  0.7816164E-02  0.1184000E+00
        -11   -1    0    0    0    0  0.00000000000E+00  0.00000000000E+00  0.45593999997E+02  0.45594000000E+02  0.51100000000E-03 0. -1.
         11   -1    0    0    0    0 -0.00000000000E+00 -0.00000000000E+00 -0.45593999997E+02  0.45594000000E+02  0.51100000000E-03 0.  1.
         23    2    1    2    0    0  0.00000000000E+00  0.35527136788E-14 -0.35527136788E-14  0.91188000000E+02  0.91188000000E+02 0.  0.
    9900012    2    3    3    0    0  0.18183910605E+02 -0.24643176153E+02  0.30751948434E+02  0.47787273413E+02  0.20000010799E+02 0.  0.
        -12    1    3    3    0    0 -0.18183910605E+02  0.24643176153E+02 -0.30751948434E+02  0.43400726587E+02  0.00000000000E+00 0.  1.
         11    1    4    4    0    0  0.19000688719E+01  0.90156043236E+00 -0.59538209940E+00  0.21857614318E+01  0.51100000000E-03 0. -1.
        -11    1    4    4    0    0  0.47616063296E+00 -0.43257449278E+01 -0.28545159513E+00  0.43612247137E+01  0.51100000000E-03 0.  1.
         12    1    4    4    0    0  0.15807681100E+02 -0.21218991658E+02  0.31632782128E+02  0.41240287268E+02  0.00000000000E+00 0. -1.
</event>
<event>
 8    1  0.3776180E-010  0.9118800E+02  0.7816164E-02  0.1184000E+00
        -11   -1    0    0    0    0  0.00000000000E+00  0.00000000000E+00  0.45593999997E+02  0.45594000000E+02  0.51100000000E-03 0. -1.
         11   -1    0    0    0    0 -0.00000000000E+00 -0.00000000000E+00 -0.45593999997E+02  0.45594000000E+02  0.51100000000E-03 0.  1.
         23    2    1    2    0    0  0.17763568394E-14 -0.88817841970E-15  0.00000000000E+00  0.91188000000E+02  0.91188000000E+02 0.  0.
    9900012    2    3    3    0    0  0.93881196833E+01 -0.72090139552E+01  0.41755436692E+02  0.47787272278E+02  0.20000005626E+02 0.  0.
        -12    1    3    3    0    0 -0.93881196833E+01  0.72090139552E+01 -0.41755436692E+02  0.43400727722E+02  0.00000000000E+00 0.  1.
         11    1    4    4    0    0  0.65296324787E+01 -0.11761545521E+02  0.25732931866E+02  0.29037111358E+02  0.51100000000E-03 0. -1.
        -11    1    4    4    0    0  0.15730588269E+01 -0.10083576215E+01  0.14055311330E+00  0.18737808315E+01  0.51100000000E-03 0.  1.
         12    1    4    4    0    0  0.12854283777E+01  0.55608891876E+01  0.15881951713E+02  0.16876380089E+02  0.00000000000E+00 0. -1.
</event>
<event>
 8    1  0.3776180E-010  0.9118800E+02  0.7816164E-02  0.1184000E+00
        -11   -1    0    0    0    0  0.00000000000E+00  0.00000000000E+00  0.45593999997E+02  0.45594000000E+02  0.51100000000E-03 0. -1.
         11   -1    0    0    0    0 -0.00000000000E+00 -0.00000000000E+00 -0.45593999997E+02  0.45594000000E+02  0.51100000000E-03 0.  1.
         23    2    1    2    0    0  0.00000000000E+00  0.00000000000E+00  0.00000000000E+00  0.91188000000E+02  0.91188000000E+02 0.  0.
    9900012    2    3    3    0    0 -0.24740015566E+02  0.22972218048E+02 -0.27273276571E+02  0.47787276651E+02  0.20000025565E+02 0.  0.
         12    1    3    3    0    0  0.24740015566E+02 -0.22972218048E+02  0.27273276571E+02  0.43400723349E+02  0.00000000000E+00 0. -1.
         11    1    4    4    0    0 -0.80524117605E+01  0.53579274119E+01 -0.18491783284E+01  0.98472423583E+01  0.51100000000E-03 0. -1.
        -11    1    4    4    0    0 -0.31686151847E+01  0.99393445823E+01 -0.33805956859E+01  0.10966271945E+02  0.51100000000E-03 0.  1.
        -12    1    4    4    0    0 -0.13518988621E+02  0.76749460536E+01 -0.22043502557E+02  0.26973762348E+02  0.00000000000E+00 0.  1.
</event>
<event>
 8    1  0.3776180E-010  0.9118800E+02  0.7816164E-02  0.1184000E+00
        -11   -1    0    0    0    0  0.00000000000E+00  0.00000000000E+00  0.45593999997E+02  0.45594000000E+02  0.51100000000E-03 0. -1.
         11   -1    0    0    0    0 -0.00000000000E+00 -0.00000000000E+00 -0.45593999997E+02  0.45594000000E+02  0.51100000000E-03 0.  1.
         23    2    1    2    0    0  0.00000000000E+00  0.00000000000E+00  0.00000000000E+00  0.91188000000E+02  0.91188000000E+02 0.  0.
    9900012    2    3    3    0    0  0.16349859852E+02  0.24132052964E+02  0.32155065634E+02  0.47787284069E+02  0.20000059382E+02 0.  0.
        -12    1    3    3    0    0 -0.16349859852E+02 -0.24132052964E+02 -0.32155065634E+02  0.43400715931E+02  0.00000000000E+00 0.  1.
         11    1    4    4    0    0  0.60950207078E+00  0.14556999820E+02  0.16926698303E+02  0.22333626043E+02  0.51100000000E-03 0. -1.
        -11    1    4    4    0    0  0.61207082765E+00 -0.45924369563E+00  0.40779130578E+01  0.41490855183E+01  0.51100000000E-03 0.  1.
        -12    1    4    4    0    0  0.15128286953E+02  0.10034296840E+02  0.11150454273E+02  0.21304572507E+02  0.00000000000E+00 0.  1.
</event>
<event>
 8    1  0.3776180E-010  0.9118800E+02  0.7816164E-02  0.1184000E+00
        -11   -1    0    0    0    0  0.00000000000E+00  0.00000000000E+00  0.45593999997E+02  0.45594000000E+02  0.51100000000E-03 0. -1.
         11   -1    0    0    0    0 -0.00000000000E+00 -0.00000000000E+00 -0.45593999997E+02  0.45594000000E+02  0.51100000000E-03 0.  1.
         23    2    1    2    0    0  0.00000000000E+00 -0.35527136788E-14  0.35527136788E-14  0.91188000000E+02  0.91188000000E+02 0.  0.
    9900012    2    3    3    0    0  0.92738094709E+01  0.29023982657E+02 -0.30906763435E+02  0.47787272617E+02  0.20000007169E+02 0.  0.
         12    1    3    3    0    0 -0.92738094709E+01 -0.29023982657E+02  0.30906763435E+02  0.43400727383E+02  0.00000000000E+00 0. -1.
         11    1    4    4    0    0  0.33689361036E+01  0.44134819861E+01 -0.38802669849E+01  0.67738486732E+01  0.51100000000E-03 0.  1.
        -11    1    4    4    0    0 -0.47838750432E+01  0.56243991553E+01 -0.16485241155E+01  0.75655111068E+01  0.51100000000E-03 0. -1.
         12    1    4    4    0    0  0.10688748411E+02  0.18986101516E+02 -0.25377972334E+02  0.33447912837E+02  0.00000000000E+00 0. -1.
</event>
<event>
 8    1  0.3776180E-010  0.9118800E+02  0.7816164E-02  0.1184000E+00
        -11   -1    0    0    0    0  0.00000000000E+00  0.00000000000E+00  0.45593999997E+02  0.45594000000E+02  0.51100000000E-03 0.  1.
         11   -1    0    0    0    0 -0.00000000000E+00 -0.00000000000E+00 -0.45593999997E+02  0.45594000000E+02  0.51100000000E-03 0. -1.
         23    2    1    2    0    0  0.00000000000E+00  0.00000000000E+00  0.00000000000E+00  0.91188000000E+02  0.91188000000E+02 0.  0.
    9900012    2    3    3    0    0 -0.40618845339E+02  0.11032911470E+02  0.10583323355E+02  0.47787280358E+02  0.20000042465E+02 0.  0.
         12    1    3    3    0    0  0.40618845339E+02 -0.11032911470E+02 -0.10583323355E+02  0.43400719642E+02  0.00000000000E+00 0. -1.
         11    1    4    4    0    0  0.70189577336E+00 -0.83070981168E+00 -0.53085849132E+00  0.12101848895E+01  0.51100000000E-03 0. -1.
        -11    1    4    4    0    0 -0.11313128657E+02  0.10100789792E+02  0.33660637792E+01  0.15535225137E+02  0.51100000000E-03 0.  1.
         12    1    4    4    0    0 -0.30007612455E+02  0.17628314904E+01  0.77481180672E+01  0.31041870332E+02  0.00000000000E+00 0. -1.
</event>
<event>
 8    1  0.3776180E-010  0.9118800E+02  0.7816164E-02  0.1184000E+00
        -11   -1    0    0    0    0  0.00000000000E+00  0.00000000000E+00  0.45593999997E+02  0.45594000000E+02  0.51100000000E-03 0. -1.
         11   -1    0    0    0    0 -0.00000000000E+00 -0.00000000000E+00 -0.45593999997E+02  0.45594000000E+02  0.51100000000E-03 0.  1.
         23    2    1    2    0    0 -0.17763568394E-14  0.35527136788E-14  0.71054273576E-14  0.91188000000E+02  0.91188000000E+02 0.  0.
    9900012    2    3    3    0    0 -0.13394024202E+02  0.19275793632E+02  0.36505713987E+02  0.47787271225E+02  0.20000000824E+02 0.  0.
        -12    1    3    3    0    0  0.13394024202E+02 -0.19275793632E+02 -0.36505713987E+02  0.43400728775E+02  0.00000000000E+00 0.  1.
         11    1    4    4    0    0  0.14227003069E+01  0.41987230953E+01  0.17331035967E+01  0.47599369883E+01  0.51100000000E-03 0. -1.
        -11    1    4    4    0    0 -0.89498201296E+00  0.89918953432E+01  0.72330119934E+01  0.11574611761E+02  0.51100000000E-03 0.  1.
         12    1    4    4    0    0 -0.13921742496E+02  0.60851751932E+01  0.27539598397E+02  0.31452722476E+02  0.00000000000E+00 0. -1.
</event>
<event>
 8    1  0.3776180E-010  0.9118800E+02  0.7816164E-02  0.1184000E+00
        -11   -1    0    0    0    0  0.00000000000E+00  0.00000000000E+00  0.45593999997E+02  0.45594000000E+02  0.51100000000E-03 0.  1.
         11   -1    0    0    0    0 -0.00000000000E+00 -0.00000000000E+00 -0.45593999997E+02  0.45594000000E+02  0.51100000000E-03 0. -1.
         23    2    1    2    0    0  0.00000000000E+00  0.00000000000E+00 -0.35527136788E-14  0.91188000000E+02  0.91188000000E+02 0.  0.
    9900012    2    3    3    0    0  0.70884750415E+01 -0.35992230368E+02  0.23193439210E+02  0.47787277106E+02  0.20000027639E+02 0.  0.
        -12    1    3    3    0    0 -0.70884750415E+01  0.35992230368E+02 -0.23193439210E+02  0.43400722894E+02  0.00000000000E+00 0.  1.
         11    1    4    4    0    0  0.32029154763E+01 -0.26782591456E+02  0.98394059776E+01  0.28712014609E+02  0.51100000000E-03 0. -1.
        -11    1    4    4    0    0 -0.18403491716E+01 -0.64289198520E+01  0.95542709679E+01  0.11661989090E+02  0.51100000000E-03 0.  1.
        -12    1    4    4    0    0  0.57259087368E+01 -0.27807190604E+01  0.37997622647E+01  0.74132734081E+01  0.00000000000E+00 0.  1.
</event>
<event>
 8    1  0.3776180E-010  0.9118800E+02  0.7816164E-02  0.1184000E+00
        -11   -1    0    0    0    0  0.00000000000E+00  0.00000000000E+00  0.45593999997E+02  0.45594000000E+02  0.51100000000E-03 0. -1.
         11   -1    0    0    0    0 -0.00000000000E+00 -0.00000000000E+00 -0.45593999997E+02  0.45594000000E+02  0.51100000000E-03 0.  1.
         23    2    1    2    0    0 -0.17763568394E-14  0.00000000000E+00  0.00000000000E+00  0.91188000000E+02  0.91188000000E+02 0.  0.
    9900012    2    3    3    0    0 -0.61551489197E+01 -0.32143044522E+02 -0.28505471588E+02  0.47787273280E+02  0.20000010192E+02 0.  0.
         12    1    3    3    0    0  0.61551489197E+01  0.32143044522E+02  0.28505471588E+02  0.43400726720E+02  0.00000000000E+00 0. -1.
         11    1    4    4    0    0 -0.38395724025E+01 -0.70319620810E+01 -0.61820329071E+00  0.80357316103E+01  0.51100000000E-03 0. -1.
        -11    1    4    4    0    0 -0.62797115998E+01 -0.18259771597E+02 -0.14304546278E+02  0.24030690399E+02  0.51100000000E-03 0.  1.
         12    1    4    4    0    0  0.39641350827E+01 -0.68513108446E+01 -0.13582722019E+02  0.15720851271E+02  0.00000000000E+00 0. -1.
</event>
<event>
 8    1  0.3776180E-010  0.9118800E+02  0.7816164E-02  0.1184000E+00
        -11   -1    0    0    0    0  0.00000000000E+00  0.00000000000E+00  0.45593999997E+02  0.45594000000E+02  0.51100000000E-03 0. -1.
         11   -1    0    0    0    0 -0.00000000000E+00 -0.00000000000E+00 -0.45593999997E+02  0.45594000000E+02  0.51100000000E-03 0.  1.
         23    2    1    2    0    0  0.00000000000E+00 -0.88817841970E-15  0.00000000000E+00  0.91188000000E+02  0.91188000000E+02 0.  0.
    9900012    2    3    3    0    0  0.23391672782E+02  0.41059110548E+01  0.36326220920E+02  0.47787272040E+02  0.20000004538E+02 0.  0.
        -12    1    3    3    0    0 -0.23391672782E+02 -0.41059110548E+01 -0.36326220920E+02  0.43400727960E+02  0.00000000000E+00 0.  1.
         11    1    4    4    0    0  0.82385557424E+01  0.26889550921E+01  0.21687584546E+02  0.23354990985E+02  0.51100000000E-03 0. -1.
        -11    1    4    4    0    0  0.64189549291E+01  0.24427218854E+01 -0.54090298144E+00  0.68892995934E+01  0.51100000000E-03 0.  1.
        -12    1    4    4    0    0  0.87341621103E+01 -0.10257659226E+01  0.15179539356E+02  0.17542981462E+02  0.00000000000E+00 0.  1.
</event>
<event>
 8    1  0.3936197E-010  0.9118800E+02  0.7816164E-02  0.1184000E+00
        -11   -1    0    0    0    0  0.00000000000E+00  0.00000000000E+00  0.45593999997E+02  0.45594000000E+02  0.51100000000E-03 0.  1.
         11   -1    0    0    0    0 -0.00000000000E+00 -0.00000000000E+00 -0.45593999997E+02  0.45594000000E+02  0.51100000000E-03 0. -1.
         23    2    1    2    0    0  0.00000000000E+00  0.00000000000E+00  0.00000000000E+00  0.91188000000E+02  0.91188000000E+02 0.  0.
    9900012    2    3    3    0    0  0.24973679256E+02  0.18690180809E+02  0.30176413236E+02  0.47787269246E+02  0.19999991798E+02 0.  0.
        -12    1    3    3    0    0 -0.24973679256E+02 -0.18690180809E+02 -0.30176413236E+02  0.43400730754E+02  0.00000000000E+00 0.  1.
         11    1    4    4    0    0  0.96349663376E+01  0.14996610676E+02  0.11647057175E+02  0.21292835630E+02  0.51100000000E-03 0. -1.
        -11    1    4    4    0    0  0.47689784963E+01  0.61871500197E+01  0.99761619936E+01  0.12670745426E+02  0.51100000000E-03 0.  1.
        -12    1    4    4    0    0  0.10569734422E+02 -0.24935798866E+01  0.85531940674E+01  0.13823688190E+02  0.00000000000E+00 0.  1.
</event>
<event>
 8    1  0.3776180E-010  0.9118800E+02  0.7816164E-02  0.1184000E+00
        -11   -1    0    0    0    0  0.00000000000E+00  0.00000000000E+00  0.45593999997E+02  0.45594000000E+02  0.51100000000E-03 0. -1.
         11   -1    0    0    0    0 -0.00000000000E+00 -0.00000000000E+00 -0.45593999997E+02  0.45594000000E+02  0.51100000000E-03 0.  1.
         23    2    1    2    0    0  0.00000000000E+00  0.88817841970E-15  0.00000000000E+00  0.91188000000E+02  0.91188000000E+02 0.  0.
    9900012    2    3    3    0    0  0.16024365278E+02 -0.56825770766E+01 -0.39931832277E+02  0.47787271967E+02  0.20000004207E+02 0.  0.
         12    1    3    3    0    0 -0.16024365278E+02  0.56825770766E+01  0.39931832277E+02  0.43400728033E+02  0.00000000000E+00 0. -1.
         11    1    4    4    0    0  0.10930718132E+02  0.12362874244E+01 -0.14409014000E+02  0.18128118772E+02  0.51100000000E-03 0. -1.
        -11    1    4    4    0    0  0.49236069901E+01 -0.23545110134E+01 -0.21853115986E+01  0.58788787153E+01  0.51100000000E-03 0.  1.
         12    1    4    4    0    0  0.17004015588E+00 -0.45643534876E+01 -0.23337506678E+02  0.23780274480E+02  0.00000000000E+00 0. -1.
</event>
<event>
 8    1  0.3776180E-010  0.9118800E+02  0.7816164E-02  0.1184000E+00
        -11   -1    0    0    0    0  0.00000000000E+00  0.00000000000E+00  0.45593999997E+02  0.45594000000E+02  0.51100000000E-03 0. -1.
         11   -1    0    0    0    0 -0.00000000000E+00 -0.00000000000E+00 -0.45593999997E+02  0.45594000000E+02  0.51100000000E-03 0.  1.
         23    2    1    2    0    0  0.00000000000E+00  0.00000000000E+00  0.00000000000E+00  0.91188000000E+02  0.91188000000E+02 0.  0.
    9900012    2    3    3    0    0 -0.26261742976E+01  0.40060158580E+02  0.16489699867E+02  0.47787270759E+02  0.19999998701E+02 0.  0.
        -12    1    3    3    0    0  0.26261742976E+01 -0.40060158580E+02 -0.16489699867E+02  0.43400729241E+02  0.00000000000E+00 0.  1.
         11    1    4    4    0    0  0.57958204253E+00  0.16012746663E+02  0.13538701498E+02  0.20977140167E+02  0.51100000000E-03 0. -1.
        -11    1    4    4    0    0  0.14138159507E+01  0.15421555288E+02  0.59283930910E+01  0.16582191892E+02  0.51100000000E-03 0.  1.
        -12    1    4    4    0    0 -0.46195722908E+01  0.86258566290E+01 -0.29773947224E+01  0.10227938701E+02  0.00000000000E+00 0.  1.
</event>
<event>
 8    1  0.3776180E-010  0.9118800E+02  0.7816164E-02  0.1184000E+00
        -11   -1    0    0    0    0  0.00000000000E+00  0.00000000000E+00  0.45593999997E+02  0.45594000000E+02  0.51100000000E-03 0. -1.
         11   -1    0    0    0    0 -0.00000000000E+00 -0.00000000000E+00 -0.45593999997E+02  0.45594000000E+02  0.51100000000E-03 0.  1.
         23    2    1    2    0    0  0.00000000000E+00  0.17763568394E-14  0.00000000000E+00  0.91188000000E+02  0.91188000000E+02 0.  0.
    9900012    2    3    3    0    0  0.21790973730E+02  0.14067784789E+02 -0.34797594969E+02  0.47787288939E+02  0.20000081588E+02 0.  0.
         12    1    3    3    0    0 -0.21790973730E+02 -0.14067784789E+02  0.34797594969E+02  0.43400711061E+02  0.00000000000E+00 0. -1.
         11    1    4    4    0    0  0.46851546243E+01  0.71881757674E+01 -0.22156924853E+01  0.88617062786E+01  0.51100000000E-03 0. -1.
        -11    1    4    4    0    0  0.42498517707E+00 -0.88526009711E+00  0.47667328397E+00  0.10915656284E+01  0.51100000000E-03 0.  1.
        -12    1    4    4    0    0  0.16680833929E+02  0.77648691191E+01 -0.33058575768E+02  0.37834017032E+02  0.00000000000E+00 0.  1.
</event>
<event>
 8    1  0.3776180E-010  0.9118800E+02  0.7816164E-02  0.1184000E+00
        -11   -1    0    0    0    0  0.00000000000E+00  0.00000000000E+00  0.45593999997E+02  0.45594000000E+02  0.51100000000E-03 0.  1.
         11   -1    0    0    0    0 -0.00000000000E+00 -0.00000000000E+00 -0.45593999997E+02  0.45594000000E+02  0.51100000000E-03 0. -1.
         23    2    1    2    0    0 -0.35527136788E-14  0.53290705182E-14 -0.35527136788E-14  0.91188000000E+02  0.91188000000E+02 0.  0.
    9900012    2    3    3    0    0  0.30005542610E+02 -0.13259984101E+02  0.28415905133E+02  0.47787269243E+02  0.19999991788E+02 0.  0.
        -12    1    3    3    0    0 -0.30005542610E+02  0.13259984101E+02 -0.28415905133E+02  0.43400730757E+02  0.00000000000E+00 0.  1.
         11    1    4    4    0    0  0.12738262433E+02 -0.84979575610E+01  0.94463268002E+01  0.17991989962E+02  0.51100000000E-03 0. -1.
        -11    1    4    4    0    0  0.39915112003E+01 -0.82043694747E+01  0.91970779212E+01  0.12954925036E+02  0.51100000000E-03 0.  1.
         12    1    4    4    0    0  0.13275768976E+02  0.34423429344E+01  0.97725004116E+01  0.16840354245E+02  0.00000000000E+00 0. -1.
</event>
<event>
 8    1  0.3776180E-010  0.9118800E+02  0.7816164E-02  0.1184000E+00
        -11   -1    0    0    0    0  0.00000000000E+00  0.00000000000E+00  0.45593999997E+02  0.45594000000E+02  0.51100000000E-03 0. -1.
         11   -1    0    0    0    0 -0.00000000000E+00 -0.00000000000E+00 -0.45593999997E+02  0.45594000000E+02  0.51100000000E-03 0.  1.
         23    2    1    2    0    0 -0.22204460493E-15 -0.17763568394E-14 -0.71054273576E-14  0.91188000000E+02  0.91188000000E+02 0.  0.
    9900012    2    3    3    0    0  0.10203734922E+01  0.13434573125E+02 -0.41256421854E+02  0.47787294230E+02  0.20000105714E+02 0.  0.
         12    1    3    3    0    0 -0.10203734922E+01 -0.13434573125E+02  0.41256421854E+02  0.43400705770E+02  0.00000000000E+00 0. -1.
         11    1    4    4    0    0 -0.80365407383E+00 -0.33246582557E+01 -0.11433824710E+02  0.11934469412E+02  0.51100000000E-03 0. -1.
        -11    1    4    4    0    0 -0.22431326345E+01  0.54693663022E+00 -0.82244292435E+01  0.85423662024E+01  0.51100000000E-03 0.  1.
         12    1    4    4    0    0  0.40671602005E+01  0.16212294750E+02 -0.21598167901E+02  0.27310458616E+02  0.00000000000E+00 0. -1.
</event>
<event>
 8    1  0.3776180E-010  0.9118800E+02  0.7816164E-02  0.1184000E+00
        -11   -1    0    0    0    0  0.00000000000E+00  0.00000000000E+00  0.45593999997E+02  0.45594000000E+02  0.51100000000E-03 0. -1.
         11   -1    0    0    0    0 -0.00000000000E+00 -0.00000000000E+00 -0.45593999997E+02  0.45594000000E+02  0.51100000000E-03 0.  1.
         23    2    1    2    0    0  0.00000000000E+00  0.44408920985E-15 -0.71054273576E-14  0.91188000000E+02  0.91188000000E+02 0.  0.
    9900012    2    3    3    0    0 -0.47209947570E+01 -0.27560296394E+01  0.43055078344E+02  0.47787271180E+02  0.20000000618E+02 0.  0.
        -12    1    3    3    0    0  0.47209947570E+01  0.27560296394E+01 -0.43055078344E+02  0.43400728820E+02  0.00000000000E+00 0.  1.
         11    1    4    4    0    0  0.27935526778E+01  0.48402014195E+01  0.79120146795E+01  0.96866641779E+01  0.51100000000E-03 0. -1.
        -11    1    4    4    0    0 -0.10926252154E-01 -0.23256925188E+01  0.21721914343E+02  0.21846064361E+02  0.51100000000E-03 0.  1.
        -12    1    4    4    0    0 -0.75036211826E+01 -0.52705385400E+01  0.13421149322E+02  0.16254542641E+02  0.00000000000E+00 0.  1.
</event>
<event>
 8    1  0.4348898E-010  0.9118800E+02  0.7816164E-02  0.1184000E+00
        -11   -1    0    0    0    0  0.00000000000E+00  0.00000000000E+00  0.45593999997E+02  0.45594000000E+02  0.51100000000E-03 0. -1.
         11   -1    0    0    0    0 -0.00000000000E+00 -0.00000000000E+00 -0.45593999997E+02  0.45594000000E+02  0.51100000000E-03 0.  1.
         23    2    1    2    0    0 -0.22204460493E-15  0.44408920985E-15  0.00000000000E+00  0.91188000000E+02  0.91188000000E+02 0.  0.
    9900012    2    3    3    0    0 -0.14287519863E+01 -0.16582817355E+01  0.43345490002E+02  0.47787277263E+02  0.20000028352E+02 0.  0.
        -12    1    3    3    0    0  0.14287519863E+01  0.16582817355E+01 -0.43345490002E+02  0.43400722737E+02  0.00000000000E+00 0.  1.
         11    1    4    4    0    0  0.44021707994E+01  0.23643099514E+01  0.26882986959E+02  0.27343446333E+02  0.51100000000E-03 0. -1.
        -11    1    4    4    0    0 -0.12414965306E+01  0.20370621596E+01  0.10542588323E+02  0.10809121365E+02  0.51100000000E-03 0.  1.
        -12    1    4    4    0    0 -0.45894262550E+01 -0.60596538466E+01  0.59199147204E+01  0.96347095642E+01  0.00000000000E+00 0.  1.
</event>
<event>
 8    1  0.3776180E-010  0.9118800E+02  0.7816164E-02  0.1184000E+00
        -11   -1    0    0    0    0  0.00000000000E+00  0.00000000000E+00  0.45593999997E+02  0.45594000000E+02  0.51100000000E-03 0. -1.
         11   -1    0    0    0    0 -0.00000000000E+00 -0.00000000000E+00 -0.45593999997E+02  0.45594000000E+02  0.51100000000E-03 0.  1.
         23    2    1    2    0    0  0.71054273576E-14  0.17763568394E-14 -0.35527136788E-14  0.91188000000E+02  0.91188000000E+02 0.  0.
    9900012    2    3    3    0    0  0.36845065958E+02  0.11410566206E+02 -0.19896320673E+02  0.47787268636E+02  0.19999989020E+02 0.  0.
         12    1    3    3    0    0 -0.36845065958E+02 -0.11410566206E+02  0.19896320673E+02  0.43400731364E+02  0.00000000000E+00 0. -1.
         11    1    4    4    0    0  0.11194422407E+02  0.57097878014E+01  0.24791674467E+01  0.12808709586E+02  0.51100000000E-03 0. -1.
        -11    1    4    4    0    0  0.99606648718E+01  0.42706540302E+01 -0.66321529236E+01  0.12705856256E+02  0.51100000000E-03 0.  1.
         12    1    4    4    0    0  0.15689978679E+02  0.14301243747E+01 -0.15743335196E+02  0.22272702794E+02  0.00000000000E+00 0. -1.
</event>
<event>
 8    1  0.3776180E-010  0.9118800E+02  0.7816164E-02  0.1184000E+00
        -11   -1    0    0    0    0  0.00000000000E+00  0.00000000000E+00  0.45593999997E+02  0.45594000000E+02  0.51100000000E-03 0. -1.
         11   -1    0    0    0    0 -0.00000000000E+00 -0.00000000000E+00 -0.45593999997E+02  0.45594000000E+02  0.51100000000E-03 0.  1.
         23    2    1    2    0    0  0.00000000000E+00  0.00000000000E+00  0.00000000000E+00  0.91188000000E+02  0.91188000000E+02 0.  0.
    9900012    2    3    3    0    0  0.66753337278E+01  0.11151644280E+02 -0.41408987162E+02  0.47787268804E+02  0.19999989785E+02 0.  0.
         12    1    3    3    0    0 -0.66753337278E+01 -0.11151644280E+02  0.41408987162E+02  0.43400731196E+02  0.00000000000E+00 0. -1.
         11    1    4    4    0    0  0.40506534996E+01 -0.52003904462E+01 -0.12317295505E+02  0.13970240634E+02  0.51100000000E-03 0.  1.
        -11    1    4    4    0    0  0.12871418476E+01  0.63598089417E+01 -0.16202494538E+02  0.17453502039E+02  0.51100000000E-03 0. -1.
        -12    1    4    4    0    0  0.13375383806E+01  0.99922257843E+01 -0.12889197120E+02  0.16363526131E+02  0.00000000000E+00 0.  1.
</event>
<event>
 8    1  0.3776180E-010  0.9118800E+02  0.7816164E-02  0.1184000E+00
        -11   -1    0    0    0    0  0.00000000000E+00  0.00000000000E+00  0.45593999997E+02  0.45594000000E+02  0.51100000000E-03 0. -1.
         11   -1    0    0    0    0 -0.00000000000E+00 -0.00000000000E+00 -0.45593999997E+02  0.45594000000E+02  0.51100000000E-03 0.  1.
         23    2    1    2    0    0  0.00000000000E+00 -0.35527136788E-14  0.00000000000E+00  0.91188000000E+02  0.91188000000E+02 0.  0.
    9900012    2    3    3    0    0  0.22768847321E+02  0.29476027437E+02  0.22279277185E+02  0.47787276576E+02  0.20000025223E+02 0.  0.
        -12    1    3    3    0    0 -0.22768847321E+02 -0.29476027437E+02 -0.22279277185E+02  0.43400723424E+02  0.00000000000E+00 0.  1.
         11    1    4    4    0    0 -0.11451026059E+01  0.66880825260E+01  0.28166244693E+01  0.73467735446E+01  0.51100000000E-03 0. -1.
        -11    1    4    4    0    0 -0.68118191203E-02 -0.97604973175E+00  0.25248898407E+01  0.27069888158E+01  0.51100000000E-03 0.  1.
        -12    1    4    4    0    0  0.23920761746E+02  0.23763994643E+02  0.16937762875E+02  0.37733514216E+02  0.00000000000E+00 0.  1.
</event>
<event>
 8    1  0.3776180E-010  0.9118800E+02  0.7816164E-02  0.1184000E+00
        -11   -1    0    0    0    0  0.00000000000E+00  0.00000000000E+00  0.45593999997E+02  0.45594000000E+02  0.51100000000E-03 0. -1.
         11   -1    0    0    0    0 -0.00000000000E+00 -0.00000000000E+00 -0.45593999997E+02  0.45594000000E+02  0.51100000000E-03 0.  1.
         23    2    1    2    0    0 -0.71054273576E-14  0.00000000000E+00  0.00000000000E+00  0.91188000000E+02  0.91188000000E+02 0.  0.
    9900012    2    3    3    0    0 -0.36224608440E+02  0.21417854868E+02  0.10614917229E+02  0.47787271532E+02  0.20000002224E+02 0.  0.
        -12    1    3    3    0    0  0.36224608440E+02 -0.21417854868E+02 -0.10614917229E+02  0.43400728468E+02  0.00000000000E+00 0.  1.
         11    1    4    4    0    0 -0.65284313214E+01  0.31629626171E+00  0.84051055563E+01  0.10647359227E+02  0.51100000000E-03 0. -1.
        -11    1    4    4    0    0 -0.23476007820E+01  0.45007696296E+01  0.51691376940E+00  0.51024853548E+01  0.51100000000E-03 0.  1.
         12    1    4    4    0    0 -0.27348576336E+02  0.16600788977E+02  0.16928979029E+01  0.32037426950E+02  0.00000000000E+00 0. -1.
</event>
<event>
 8    1  0.3776180E-010  0.9118800E+02  0.7816164E-02  0.1184000E+00
        -11   -1    0    0    0    0  0.00000000000E+00  0.00000000000E+00  0.45593999997E+02  0.45594000000E+02  0.51100000000E-03 0. -1.
         11   -1    0    0    0    0 -0.00000000000E+00 -0.00000000000E+00 -0.45593999997E+02  0.45594000000E+02  0.51100000000E-03 0.  1.
         23    2    1    2    0    0  0.17763568394E-14  0.00000000000E+00  0.00000000000E+00  0.91188000000E+02  0.91188000000E+02 0.  0.
    9900012    2    3    3    0    0  0.81938117066E+01  0.68371286901E+01  0.42068259493E+02  0.47787270331E+02  0.19999996748E+02 0.  0.
        -12    1    3    3    0    0 -0.81938117066E+01 -0.68371286901E+01 -0.42068259493E+02  0.43400729669E+02  0.00000000000E+00 0.  1.
         11    1    4    4    0    0  0.75270205780E+01 -0.29508200094E+01  0.12341049323E+02  0.14753469970E+02  0.51100000000E-03 0. -1.
        -11    1    4    4    0    0  0.28574481032E+00  0.39662209021E+01  0.15646046741E+01  0.42732360557E+01  0.51100000000E-03 0.  1.
         12    1    4    4    0    0  0.38104631833E+00  0.58217277975E+01  0.28162605496E+02  0.28760564305E+02  0.00000000000E+00 0. -1.
</event>
<event>
 8    1  0.3776180E-010  0.9118800E+02  0.7816164E-02  0.1184000E+00
        -11   -1    0    0    0    0  0.00000000000E+00  0.00000000000E+00  0.45593999997E+02  0.45594000000E+02  0.51100000000E-03 0. -1.
         11   -1    0    0    0    0 -0.00000000000E+00 -0.00000000000E+00 -0.45593999997E+02  0.45594000000E+02  0.51100000000E-03 0.  1.
         23    2    1    2    0    0  0.17763568394E-14  0.00000000000E+00  0.00000000000E+00  0.91188000000E+02  0.91188000000E+02 0.  0.
    9900012    2    3    3    0    0 -0.10385415121E+02  0.27259999234E+02  0.32135012340E+02  0.47787269319E+02  0.19999992135E+02 0.  0.
        -12    1    3    3    0    0  0.10385415121E+02 -0.27259999234E+02 -0.32135012340E+02  0.43400730681E+02  0.00000000000E+00 0.  1.
         11    1    4    4    0    0 -0.31940307387E+01  0.44256163123E+01  0.11176433471E+02  0.12437868688E+02  0.51100000000E-03 0. -1.
        -11    1    4    4    0    0 -0.10266070429E+02  0.72191775772E+01  0.91087366591E+01  0.15507346992E+02  0.51100000000E-03 0.  1.
         12    1    4    4    0    0  0.30746860460E+01  0.15615205345E+02  0.11849842210E+02  0.19842053640E+02  0.00000000000E+00 0. -1.
</event>
<event>
 8    1  0.3776180E-010  0.9118800E+02  0.7816164E-02  0.1184000E+00
        -11   -1    0    0    0    0  0.00000000000E+00  0.00000000000E+00  0.45593999997E+02  0.45594000000E+02  0.51100000000E-03 0. -1.
         11   -1    0    0    0    0 -0.00000000000E+00 -0.00000000000E+00 -0.45593999997E+02  0.45594000000E+02  0.51100000000E-03 0.  1.
         23    2    1    2    0    0 -0.35527136788E-14  0.00000000000E+00  0.71054273576E-14  0.91188000000E+02  0.91188000000E+02 0.  0.
    9900012    2    3    3    0    0 -0.23045395037E+02  0.10253366100E+02  0.35318565757E+02  0.47787276089E+02  0.20000023002E+02 0.  0.
        -12    1    3    3    0    0  0.23045395037E+02 -0.10253366100E+02 -0.35318565757E+02  0.43400723911E+02  0.00000000000E+00 0.  1.
         11    1    4    4    0    0 -0.36570325911E+01 -0.23156478410E+01  0.46494272877E+01  0.63524236840E+01  0.51100000000E-03 0.  1.
        -11    1    4    4    0    0  0.92788147035E+00  0.58253095880E+01  0.10392048197E+02  0.11949471193E+02  0.51100000000E-03 0. -1.
         12    1    4    4    0    0 -0.20316243917E+02  0.67437043527E+01  0.20277090273E+02  0.29485381212E+02  0.00000000000E+00 0. -1.
</event>
<event>
 8    1  0.3776180E-010  0.9118800E+02  0.7816164E-02  0.1184000E+00
        -11   -1    0    0    0    0  0.00000000000E+00  0.00000000000E+00  0.45593999997E+02  0.45594000000E+02  0.51100000000E-03 0.  1.
         11   -1    0    0    0    0 -0.00000000000E+00 -0.00000000000E+00 -0.45593999997E+02  0.45594000000E+02  0.51100000000E-03 0. -1.
         23    2    1    2    0    0  0.35527136788E-14  0.00000000000E+00  0.00000000000E+00  0.91188000000E+02  0.91188000000E+02 0.  0.
    9900012    2    3    3    0    0 -0.16606309355E+02  0.26325743682E+02  0.30245806918E+02  0.47787272737E+02  0.20000007717E+02 0.  0.
        -12    1    3    3    0    0  0.16606309355E+02 -0.26325743682E+02 -0.30245806918E+02  0.43400727263E+02  0.00000000000E+00 0.  1.
         11    1    4    4    0    0 -0.26884752264E+01  0.53543036535E+00  0.16054584771E+01  0.31768037242E+01  0.51100000000E-03 0. -1.
        -11    1    4    4    0    0  0.37723690791E+01  0.13073641503E+01  0.31033218609E+01  0.50567357380E+01  0.51100000000E-03 0.  1.
        -12    1    4    4    0    0 -0.17690203208E+02  0.24482949167E+02  0.25537026580E+02  0.39553733275E+02  0.00000000000E+00 0.  1.
</event>
<event>
 8    1  0.3776180E-010  0.9118800E+02  0.7816164E-02  0.1184000E+00
        -11   -1    0    0    0    0  0.00000000000E+00  0.00000000000E+00  0.45593999997E+02  0.45594000000E+02  0.51100000000E-03 0. -1.
         11   -1    0    0    0    0 -0.00000000000E+00 -0.00000000000E+00 -0.45593999997E+02  0.45594000000E+02  0.51100000000E-03 0.  1.
         23    2    1    2    0    0  0.00000000000E+00  0.00000000000E+00  0.00000000000E+00  0.91188000000E+02  0.91188000000E+02 0.  0.
    9900012    2    3    3    0    0 -0.24764449674E+02  0.12466386712E+02  0.33390636134E+02  0.47787270205E+02  0.19999996171E+02 0.  0.
        -12    1    3    3    0    0  0.24764449674E+02 -0.12466386712E+02 -0.33390636134E+02  0.43400729795E+02  0.00000000000E+00 0.  1.
         11    1    4    4    0    0 -0.65222981361E+01  0.43458601691E+01  0.41671243796E+00  0.78486000727E+01  0.51100000000E-03 0. -1.
        -11    1    4    4    0    0 -0.33758560447E+01 -0.25535854192E+01  0.60924134832E+01  0.74185379178E+01  0.51100000000E-03 0.  1.
         12    1    4    4    0    0 -0.14866295494E+02  0.10674111962E+02  0.26881510213E+02  0.32520132214E+02  0.00000000000E+00 0. -1.
</event>
<event>
 8    1  0.3776180E-010  0.9118800E+02  0.7816164E-02  0.1184000E+00
        -11   -1    0    0    0    0  0.00000000000E+00  0.00000000000E+00  0.45593999997E+02  0.45594000000E+02  0.51100000000E-03 0. -1.
         11   -1    0    0    0    0 -0.00000000000E+00 -0.00000000000E+00 -0.45593999997E+02  0.45594000000E+02  0.51100000000E-03 0.  1.
         23    2    1    2    0    0  0.00000000000E+00  0.00000000000E+00  0.00000000000E+00  0.91188000000E+02  0.91188000000E+02 0.  0.
    9900012    2    3    3    0    0  0.18351643882E+02  0.38646238090E+02  0.73012354249E+01  0.47787278918E+02  0.20000035900E+02 0.  0.
         12    1    3    3    0    0 -0.18351643882E+02 -0.38646238090E+02 -0.73012354249E+01  0.43400721082E+02  0.00000000000E+00 0. -1.
         11    1    4    4    0    0 -0.36316362625E+00  0.57804606582E+01  0.23159720595E+01  0.62377351724E+01  0.51100000000E-03 0. -1.
        -11    1    4    4    0    0  0.14736373500E+02  0.24645051009E+02 -0.36927730647E+01  0.28951266231E+02  0.51100000000E-03 0.  1.
        -12    1    4    4    0    0  0.39784340080E+01  0.82207264227E+01  0.86780364300E+01  0.12598277515E+02  0.00000000000E+00 0.  1.
</event>
<event>
 8    1  0.3776180E-010  0.9118800E+02  0.7816164E-02  0.1184000E+00
        -11   -1    0    0    0    0  0.00000000000E+00  0.00000000000E+00  0.45593999997E+02  0.45594000000E+02  0.51100000000E-03 0. -1.
         11   -1    0    0    0    0 -0.00000000000E+00 -0.00000000000E+00 -0.45593999997E+02  0.45594000000E+02  0.51100000000E-03 0.  1.
         23    2    1    2    0    0  0.00000000000E+00  0.88817841970E-15  0.00000000000E+00  0.91188000000E+02  0.91188000000E+02 0.  0.
    9900012    2    3    3    0    0  0.15552172603E+02 -0.50270478722E+01 -0.40205442088E+02  0.47787321935E+02  0.20000232029E+02 0.  0.
         12    1    3    3    0    0 -0.15552172603E+02  0.50270478722E+01  0.40205442088E+02  0.43400678065E+02  0.00000000000E+00 0. -1.
         11    1    4    4    0    0  0.79698699974E+01 -0.59502259512E+01 -0.79955116740E+01  0.12761356661E+02  0.51100000000E-03 0. -1.
        -11    1    4    4    0    0  0.22995678958E+01 -0.57599704108E+00 -0.19680821615E-01  0.23706903413E+01  0.51100000000E-03 0.  1.
        -12    1    4    4    0    0  0.52827347100E+01  0.14991751200E+01 -0.32190249593E+02  0.32655274932E+02  0.00000000000E+00 0.  1.
</event>
<event>
 8    1  0.3776180E-010  0.9118800E+02  0.7816164E-02  0.1184000E+00
        -11   -1    0    0    0    0  0.00000000000E+00  0.00000000000E+00  0.45593999997E+02  0.45594000000E+02  0.51100000000E-03 0. -1.
         11   -1    0    0    0    0 -0.00000000000E+00 -0.00000000000E+00 -0.45593999997E+02  0.45594000000E+02  0.51100000000E-03 0.  1.
         23    2    1    2    0    0  0.00000000000E+00  0.71054273576E-14  0.00000000000E+00  0.91188000000E+02  0.91188000000E+02 0.  0.
    9900012    2    3    3    0    0 -0.84779125224E+01  0.32727502986E+02 -0.27215046245E+02  0.47787271958E+02  0.20000004167E+02 0.  0.
         12    1    3    3    0    0  0.84779125224E+01 -0.32727502986E+02  0.27215046245E+02  0.43400728042E+02  0.00000000000E+00 0. -1.
         11    1    4    4    0    0 -0.57777141081E+01  0.42807094634E+01  0.16202155985E-01  0.71907382511E+01  0.51100000000E-03 0. -1.
        -11    1    4    4    0    0  0.18876726218E+01  0.88735593131E+00 -0.27349456665E+01  0.34395692369E+01  0.51100000000E-03 0.  1.
        -12    1    4    4    0    0 -0.45878710360E+01  0.27559437591E+02 -0.24496302735E+02  0.37156964470E+02  0.00000000000E+00 0.  1.
</event>
<event>
 8    1  0.3776180E-010  0.9118800E+02  0.7816164E-02  0.1184000E+00
        -11   -1    0    0    0    0  0.00000000000E+00  0.00000000000E+00  0.45593999997E+02  0.45594000000E+02  0.51100000000E-03 0. -1.
         11   -1    0    0    0    0 -0.00000000000E+00 -0.00000000000E+00 -0.45593999997E+02  0.45594000000E+02  0.51100000000E-03 0.  1.
         23    2    1    2    0    0  0.35527136788E-14  0.35527136788E-14  0.00000000000E+00  0.91188000000E+02  0.91188000000E+02 0.  0.
    9900012    2    3    3    0    0 -0.22831722516E+02 -0.22303714074E+02 -0.29408847592E+02  0.47787268080E+02  0.19999986483E+02 0.  0.
         12    1    3    3    0    0  0.22831722516E+02  0.22303714074E+02  0.29408847592E+02  0.43400731920E+02  0.00000000000E+00 0. -1.
         11    1    4    4    0    0 -0.93988185079E+00  0.27055461432E+00 -0.20278188795E+01  0.22513612243E+01  0.51100000000E-03 0. -1.
        -11    1    4    4    0    0 -0.18673598441E+02 -0.12121776059E+02 -0.87273236785E+01  0.23912484447E+02  0.51100000000E-03 0.  1.
        -12    1    4    4    0    0 -0.32182422242E+01 -0.10452492629E+02 -0.18653705034E+02  0.21623422409E+02  0.00000000000E+00 0.  1.
</event>
<event>
 8    1  0.3776180E-010  0.9118800E+02  0.7816164E-02  0.1184000E+00
        -11   -1    0    0    0    0  0.00000000000E+00  0.00000000000E+00  0.45593999997E+02  0.45594000000E+02  0.51100000000E-03 0. -1.
         11   -1    0    0    0    0 -0.00000000000E+00 -0.00000000000E+00 -0.45593999997E+02  0.45594000000E+02  0.51100000000E-03 0.  1.
         23    2    1    2    0    0  0.00000000000E+00 -0.17763568394E-14  0.00000000000E+00  0.91188000000E+02  0.91188000000E+02 0.  0.
    9900012    2    3    3    0    0  0.31590423966E+02  0.12785309550E+02 -0.26873851311E+02  0.47787275226E+02  0.20000019066E+02 0.  0.
         12    1    3    3    0    0 -0.31590423966E+02 -0.12785309550E+02  0.26873851311E+02  0.43400724774E+02  0.00000000000E+00 0. -1.
         11    1    4    4    0    0  0.12504826695E+02  0.91797944103E+01 -0.77328878886E+01  0.17333114880E+02  0.51100000000E-03 0. -1.
        -11    1    4    4    0    0  0.83114691175E+01  0.32516539510E+01 -0.52258034598E+00  0.89401824807E+01  0.51100000000E-03 0.  1.
        -12    1    4    4    0    0  0.10774128153E+02  0.35386118826E+00 -0.18618383077E+02  0.21513977865E+02  0.00000000000E+00 0.  1.
</event>
<event>
 8    1  0.3776180E-010  0.9118800E+02  0.7816164E-02  0.1184000E+00
        -11   -1    0    0    0    0  0.00000000000E+00  0.00000000000E+00  0.45593999997E+02  0.45594000000E+02  0.51100000000E-03 0. -1.
         11   -1    0    0    0    0 -0.00000000000E+00 -0.00000000000E+00 -0.45593999997E+02  0.45594000000E+02  0.51100000000E-03 0.  1.
         23    2    1    2    0    0  0.00000000000E+00  0.00000000000E+00 -0.71054273576E-14  0.91188000000E+02  0.91188000000E+02 0.  0.
    9900012    2    3    3    0    0  0.20672981768E+02 -0.20621641787E+02  0.32109165369E+02  0.47787276667E+02  0.20000025634E+02 0.  0.
        -12    1    3    3    0    0 -0.20672981768E+02  0.20621641787E+02 -0.32109165369E+02  0.43400723333E+02  0.00000000000E+00 0.  1.
         11    1    4    4    0    0  0.19295608694E+02 -0.20206091642E+02  0.19073547105E+02  0.33829082957E+02  0.51100000000E-03 0. -1.
        -11    1    4    4    0    0  0.16898690426E+01  0.98838235740E+00  0.18933472422E+01  0.27234759235E+01  0.51100000000E-03 0.  1.
        -12    1    4    4    0    0 -0.31249596879E+00 -0.14039325023E+01  0.11142271022E+02  0.11234717786E+02  0.00000000000E+00 0.  1.
</event>
<event>
 8    1  0.3776180E-010  0.9118800E+02  0.7816164E-02  0.1184000E+00
        -11   -1    0    0    0    0  0.00000000000E+00  0.00000000000E+00  0.45593999997E+02  0.45594000000E+02  0.51100000000E-03 0. -1.
         11   -1    0    0    0    0 -0.00000000000E+00 -0.00000000000E+00 -0.45593999997E+02  0.45594000000E+02  0.51100000000E-03 0.  1.
         23    2    1    2    0    0  0.00000000000E+00 -0.17763568394E-14 -0.71054273576E-14  0.91188000000E+02  0.91188000000E+02 0.  0.
    9900012    2    3    3    0    0 -0.87572647000E+01 -0.97310786152E+01  0.41379216952E+02  0.47787272223E+02  0.20000005373E+02 0.  0.
        -12    1    3    3    0    0  0.87572647000E+01  0.97310786152E+01 -0.41379216952E+02  0.43400727777E+02  0.00000000000E+00 0.  1.
         11    1    4    4    0    0 -0.80811025634E+00  0.30923535528E+01  0.72607521625E+01  0.79331087795E+01  0.51100000000E-03 0.  1.
        -11    1    4    4    0    0  0.13951269572E+01  0.80421089349E+00  0.12705324941E+02  0.12806967499E+02  0.51100000000E-03 0. -1.
        -12    1    4    4    0    0 -0.93442814009E+01 -0.13627643061E+02  0.21413139848E+02  0.27047195945E+02  0.00000000000E+00 0.  1.
</event>
<event>
 8    1  0.3776180E-010  0.9118800E+02  0.7816164E-02  0.1184000E+00
        -11   -1    0    0    0    0  0.00000000000E+00  0.00000000000E+00  0.45593999997E+02  0.45594000000E+02  0.51100000000E-03 0. -1.
         11   -1    0    0    0    0 -0.00000000000E+00 -0.00000000000E+00 -0.45593999997E+02  0.45594000000E+02  0.51100000000E-03 0.  1.
         23    2    1    2    0    0  0.00000000000E+00  0.35527136788E-14 -0.17763568394E-14  0.91188000000E+02  0.91188000000E+02 0.  0.
    9900012    2    3    3    0    0 -0.32480454033E+02 -0.28242839895E+02 -0.55665348059E+01  0.47787260268E+02  0.19999950868E+02 0.  0.
         12    1    3    3    0    0  0.32480454033E+02  0.28242839895E+02  0.55665348059E+01  0.43400739732E+02  0.00000000000E+00 0. -1.
         11    1    4    4    0    0 -0.30776022120E+01 -0.41913507767E+01 -0.79467137859E+00  0.52602813204E+01  0.51100000000E-03 0. -1.
        -11    1    4    4    0    0 -0.31360214150E+02 -0.24970338204E+02 -0.43337785952E+01  0.40320744769E+02  0.51100000000E-03 0.  1.
         12    1    4    4    0    0  0.19573623297E+01  0.91884908551E+00 -0.43808483207E+00  0.22062341788E+01  0.00000000000E+00 0. -1.
</event>
<event>
 8    1  0.4299618E-010  0.9118800E+02  0.7816164E-02  0.1184000E+00
        -11   -1    0    0    0    0  0.00000000000E+00  0.00000000000E+00  0.45593999997E+02  0.45594000000E+02  0.51100000000E-03 0. -1.
         11   -1    0    0    0    0 -0.00000000000E+00 -0.00000000000E+00 -0.45593999997E+02  0.45594000000E+02  0.51100000000E-03 0.  1.
         23    2    1    2    0    0  0.00000000000E+00  0.00000000000E+00  0.00000000000E+00  0.91188000000E+02  0.91188000000E+02 0.  0.
    9900012    2    3    3    0    0 -0.36240884453E+01 -0.90868562930E+01  0.42283781234E+02  0.47787272704E+02  0.20000007567E+02 0.  0.
        -12    1    3    3    0    0  0.36240884453E+01  0.90868562930E+01 -0.42283781234E+02  0.43400727296E+02  0.00000000000E+00 0.  1.
         11    1    4    4    0    0 -0.79627416583E+01 -0.49107396855E+01  0.25317409280E+02  0.26990587839E+02  0.51100000000E-03 0. -1.
        -11    1    4    4    0    0 -0.17257183015E+01 -0.41349658335E+00 -0.56986090126E+00  0.18638199453E+01  0.51100000000E-03 0.  1.
        -12    1    4    4    0    0  0.60643715144E+01 -0.37626200241E+01  0.17536232855E+02  0.18932864919E+02  0.00000000000E+00 0.  1.
</event>
<event>
 8    1  0.3776180E-010  0.9118800E+02  0.7816164E-02  0.1184000E+00
        -11   -1    0    0    0    0  0.00000000000E+00  0.00000000000E+00  0.45593999997E+02  0.45594000000E+02  0.51100000000E-03 0.  1.
         11   -1    0    0    0    0 -0.00000000000E+00 -0.00000000000E+00 -0.45593999997E+02  0.45594000000E+02  0.51100000000E-03 0. -1.
         23    2    1    2    0    0  0.00000000000E+00  0.38857805862E-15  0.00000000000E+00  0.91188000000E+02  0.91188000000E+02 0.  0.
    9900012    2    3    3    0    0  0.31904656540E+02 -0.44476926191E+00 -0.29419687705E+02  0.47787274738E+02  0.20000016840E+02 0.  0.
         12    1    3    3    0    0 -0.31904656540E+02  0.44476926191E+00  0.29419687705E+02  0.43400725262E+02  0.00000000000E+00 0. -1.
         11    1    4    4    0    0  0.28716101348E-01 -0.13684891876E+01 -0.83342449699E+00  0.16025554356E+01  0.51100000000E-03 0. -1.
        -11    1    4    4    0    0  0.28409404497E+02 -0.34663316094E+01 -0.16921911333E+02  0.33248470673E+02  0.51100000000E-03 0.  1.
         12    1    4    4    0    0  0.34665359412E+01  0.43900515351E+01 -0.11664351875E+02  0.12936248629E+02  0.00000000000E+00 0. -1.
</event>
<event>
 8    1  0.3776180E-010  0.9118800E+02  0.7816164E-02  0.1184000E+00
        -11   -1    0    0    0    0  0.00000000000E+00  0.00000000000E+00  0.45593999997E+02  0.45594000000E+02  0.51100000000E-03 0. -1.
         11   -1    0    0    0    0 -0.00000000000E+00 -0.00000000000E+00 -0.45593999997E+02  0.45594000000E+02  0.51100000000E-03 0.  1.
         23    2    1    2    0    0 -0.88817841970E-15  0.00000000000E+00  0.00000000000E+00  0.91188000000E+02  0.91188000000E+02 0.  0.
    9900012    2    3    3    0    0 -0.78635521401E+01  0.33903538916E+02  0.25929499170E+02  0.47787258872E+02  0.19999944501E+02 0.  0.
        -12    1    3    3    0    0  0.78635521401E+01 -0.33903538916E+02 -0.25929499170E+02  0.43400741128E+02  0.00000000000E+00 0.  1.
         11    1    4    4    0    0  0.16200559012E+01  0.26277641003E+01  0.14153696196E+01  0.33960266064E+01  0.51100000000E-03 0. -1.
        -11    1    4    4    0    0  0.32143756509E+01  0.11098103036E+01  0.57059843949E+01  0.66424504448E+01  0.51100000000E-03 0.  1.
         12    1    4    4    0    0 -0.12697983692E+02  0.30165964512E+02  0.18808145155E+02  0.37748781821E+02  0.00000000000E+00 0. -1.
</event>
<event>
 8    1  0.3776180E-010  0.9118800E+02  0.7816164E-02  0.1184000E+00
        -11   -1    0    0    0    0  0.00000000000E+00  0.00000000000E+00  0.45593999997E+02  0.45594000000E+02  0.51100000000E-03 0. -1.
         11   -1    0    0    0    0 -0.00000000000E+00 -0.00000000000E+00 -0.45593999997E+02  0.45594000000E+02  0.51100000000E-03 0.  1.
         23    2    1    2    0    0  0.17763568394E-14  0.17763568394E-14  0.00000000000E+00  0.91188000000E+02  0.91188000000E+02 0.  0.
    9900012    2    3    3    0    0 -0.11394800614E+02 -0.10780645595E+02  0.40466772695E+02  0.47787268522E+02  0.19999988501E+02 0.  0.
        -12    1    3    3    0    0  0.11394800614E+02  0.10780645595E+02 -0.40466772695E+02  0.43400731478E+02  0.00000000000E+00 0.  1.
         11    1    4    4    0    0  0.22761681252E+00 -0.52493375731E+01  0.17537435902E+01  0.55392211737E+01  0.51100000000E-03 0. -1.
        -11    1    4    4    0    0 -0.79666328619E+00 -0.10113242573E+01 -0.45143961285E+00  0.13642753131E+01  0.51100000000E-03 0.  1.
         12    1    4    4    0    0 -0.10825754140E+02 -0.45199837646E+01  0.39164468717E+02  0.40883772035E+02  0.00000000000E+00 0. -1.
</event>
<event>
 8    1  0.3776180E-010  0.9118800E+02  0.7816164E-02  0.1184000E+00
        -11   -1    0    0    0    0  0.00000000000E+00  0.00000000000E+00  0.45593999997E+02  0.45594000000E+02  0.51100000000E-03 0. -1.
         11   -1    0    0    0    0 -0.00000000000E+00 -0.00000000000E+00 -0.45593999997E+02  0.45594000000E+02  0.51100000000E-03 0.  1.
         23    2    1    2    0    0  0.00000000000E+00  0.00000000000E+00  0.00000000000E+00  0.91188000000E+02  0.91188000000E+02 0.  0.
    9900012    2    3    3    0    0 -0.25221576767E+02 -0.76868090354E+01 -0.34473242247E+02  0.47787315688E+02  0.20000203548E+02 0.  0.
         12    1    3    3    0    0  0.25221576767E+02  0.76868090354E+01  0.34473242247E+02  0.43400684312E+02  0.00000000000E+00 0. -1.
         11    1    4    4    0    0  0.23573434087E+00 -0.19580098082E+01 -0.15691985105E+01  0.25202692941E+01  0.51100000000E-03 0. -1.
        -11    1    4    4    0    0 -0.15303253219E+02 -0.57676432044E+01 -0.76634839108E+01  0.18060571783E+02  0.51100000000E-03 0.  1.
         12    1    4    4    0    0 -0.10154057888E+02  0.38843977170E-01 -0.25240559825E+02  0.27206474611E+02  0.00000000000E+00 0. -1.
</event>
<event>
 8    1  0.3776180E-010  0.9118800E+02  0.7816164E-02  0.1184000E+00
        -11   -1    0    0    0    0  0.00000000000E+00  0.00000000000E+00  0.45593999997E+02  0.45594000000E+02  0.51100000000E-03 0.  1.
         11   -1    0    0    0    0 -0.00000000000E+00 -0.00000000000E+00 -0.45593999997E+02  0.45594000000E+02  0.51100000000E-03 0. -1.
         23    2    1    2    0    0  0.88817841970E-15  0.71054273576E-14  0.00000000000E+00  0.91188000000E+02  0.91188000000E+02 0.  0.
    9900012    2    3    3    0    0 -0.49926099947E+01 -0.40975669054E+02  0.13404902382E+02  0.47787274005E+02  0.20000013499E+02 0.  0.
         12    1    3    3    0    0  0.49926099947E+01  0.40975669054E+02 -0.13404902382E+02  0.43400725995E+02  0.00000000000E+00 0. -1.
         11    1    4    4    0    0 -0.80933924449E+01 -0.12320415467E+02  0.93471072560E+01  0.17454628408E+02  0.51100000000E-03 0. -1.
        -11    1    4    4    0    0  0.26753029560E-01 -0.17138700028E+02  0.61927009503E+01  0.18223207722E+02  0.51100000000E-03 0.  1.
        -12    1    4    4    0    0  0.30740294206E+01 -0.11516553559E+02 -0.21349058242E+01  0.12109437874E+02  0.00000000000E+00 0.  1.
</event>
<event>
 8    1  0.3776180E-010  0.9118800E+02  0.7816164E-02  0.1184000E+00
        -11   -1    0    0    0    0  0.00000000000E+00  0.00000000000E+00  0.45593999997E+02  0.45594000000E+02  0.51100000000E-03 0. -1.
         11   -1    0    0    0    0 -0.00000000000E+00 -0.00000000000E+00 -0.45593999997E+02  0.45594000000E+02  0.51100000000E-03 0.  1.
         23    2    1    2    0    0  0.00000000000E+00  0.00000000000E+00  0.00000000000E+00  0.91188000000E+02  0.91188000000E+02 0.  0.
    9900012    2    3    3    0    0 -0.17643821785E+02 -0.35813996733E+02  0.17019883758E+02  0.47787271293E+02  0.20000001134E+02 0.  0.
         12    1    3    3    0    0  0.17643821785E+02  0.35813996733E+02 -0.17019883758E+02  0.43400728707E+02  0.00000000000E+00 0. -1.
         11    1    4    4    0    0 -0.88764232144E+01 -0.83421701763E+01  0.17952592498E+01  0.12312824549E+02  0.51100000000E-03 0. -1.
        -11    1    4    4    0    0  0.66343396962E+00 -0.40248112713E+01 -0.23352034983E+01  0.47002580825E+01  0.51100000000E-03 0.  1.
        -12    1    4    4    0    0 -0.94308325405E+01 -0.23447015285E+02  0.17559828006E+02  0.30774188662E+02  0.00000000000E+00 0.  1.
</event>
<event>
 8    1  0.3776180E-010  0.9118800E+02  0.7816164E-02  0.1184000E+00
        -11   -1    0    0    0    0  0.00000000000E+00  0.00000000000E+00  0.45593999997E+02  0.45594000000E+02  0.51100000000E-03 0. -1.
         11   -1    0    0    0    0 -0.00000000000E+00 -0.00000000000E+00 -0.45593999997E+02  0.45594000000E+02  0.51100000000E-03 0.  1.
         23    2    1    2    0    0  0.00000000000E+00  0.00000000000E+00  0.00000000000E+00  0.91188000000E+02  0.91188000000E+02 0.  0.
    9900012    2    3    3    0    0 -0.33103760056E+02 -0.35055644502E+01 -0.27847358759E+02  0.47787270723E+02  0.19999998533E+02 0.  0.
         12    1    3    3    0    0  0.33103760056E+02  0.35055644502E+01  0.27847358759E+02  0.43400729277E+02  0.00000000000E+00 0. -1.
         11    1    4    4    0    0 -0.12521082880E+02  0.25267431698E+01 -0.42192872513E+01  0.13452298417E+02  0.51100000000E-03 0. -1.
        -11    1    4    4    0    0 -0.11923897286E+02 -0.38771605200E+01 -0.46661706467E+01  0.13378521927E+02  0.51100000000E-03 0.  1.
         12    1    4    4    0    0 -0.86587798899E+01 -0.21551471000E+01 -0.18961900861E+02  0.20956450379E+02  0.00000000000E+00 0. -1.
</event>
<event>
 8    1  0.3776180E-010  0.9118800E+02  0.7816164E-02  0.1184000E+00
        -11   -1    0    0    0    0  0.00000000000E+00  0.00000000000E+00  0.45593999997E+02  0.45594000000E+02  0.51100000000E-03 0. -1.
         11   -1    0    0    0    0 -0.00000000000E+00 -0.00000000000E+00 -0.45593999997E+02  0.45594000000E+02  0.51100000000E-03 0.  1.
         23    2    1    2    0    0  0.35527136788E-14  0.00000000000E+00  0.00000000000E+00  0.91188000000E+02  0.91188000000E+02 0.  0.
    9900012    2    3    3    0    0  0.25958445195E+02  0.24932842050E+02  0.24251521888E+02  0.47787264943E+02  0.19999972179E+02 0.  0.
        -12    1    3    3    0    0 -0.25958445195E+02 -0.24932842050E+02 -0.24251521888E+02  0.43400735057E+02  0.00000000000E+00 0.  1.
         11    1    4    4    0    0  0.18647275604E+00 -0.19045320484E+00  0.81319060432E+00  0.85575915540E+00  0.51100000000E-03 0. -1.
        -11    1    4    4    0    0  0.18691227339E+01  0.12650682776E+01  0.10541772790E+02  0.10780676758E+02  0.51100000000E-03 0.  1.
         12    1    4    4    0    0  0.23902849706E+02  0.23858226977E+02  0.12896558494E+02  0.36150829029E+02  0.00000000000E+00 0. -1.
</event>
<event>
 8    1  0.3776180E-010  0.9118800E+02  0.7816164E-02  0.1184000E+00
        -11   -1    0    0    0    0  0.00000000000E+00  0.00000000000E+00  0.45593999997E+02  0.45594000000E+02  0.51100000000E-03 0. -1.
         11   -1    0    0    0    0 -0.00000000000E+00 -0.00000000000E+00 -0.45593999997E+02  0.45594000000E+02  0.51100000000E-03 0.  1.
         23    2    1    2    0    0  0.88817841970E-15  0.88817841970E-15  0.00000000000E+00  0.91188000000E+02  0.91188000000E+02 0.  0.
    9900012    2    3    3    0    0 -0.75679260347E+01 -0.58899466789E+01 -0.42327986568E+02  0.47787269324E+02  0.19999992156E+02 0.  0.
         12    1    3    3    0    0  0.75679260347E+01  0.58899466789E+01  0.42327986568E+02  0.43400730676E+02  0.00000000000E+00 0. -1.
         11    1    4    4    0    0 -0.13095288756E+01 -0.52720211663E+01 -0.33570746698E+01  0.63858455708E+01  0.51100000000E-03 0. -1.
        -11    1    4    4    0    0  0.34513199615E+01 -0.20788725138E+01 -0.89381795235E+01  0.98043038438E+01  0.51100000000E-03 0.  1.
        -12    1    4    4    0    0 -0.97097171206E+01  0.14609470012E+01 -0.30032732374E+02  0.31597119909E+02  0.00000000000E+00 0.  1.
</event>
<event>
 8    1  0.3776180E-010  0.9118800E+02  0.7816164E-02  0.1184000E+00
        -11   -1    0    0    0    0  0.00000000000E+00  0.00000000000E+00  0.45593999997E+02  0.45594000000E+02  0.51100000000E-03 0. -1.
         11   -1    0    0    0    0 -0.00000000000E+00 -0.00000000000E+00 -0.45593999997E+02  0.45594000000E+02  0.51100000000E-03 0.  1.
         23    2    1    2    0    0  0.00000000000E+00  0.00000000000E+00 -0.35527136788E-14  0.91188000000E+02  0.91188000000E+02 0.  0.
    9900012    2    3    3    0    0  0.28008913579E+02  0.18524532716E+02 -0.27494821818E+02  0.47787276745E+02  0.20000025993E+02 0.  0.
         12    1    3    3    0    0 -0.28008913579E+02 -0.18524532716E+02  0.27494821818E+02  0.43400723255E+02  0.00000000000E+00 0. -1.
         11    1    4    4    0    0  0.46333974121E+01  0.75204161215E+01 -0.83367186723E+00  0.88724314178E+01  0.51100000000E-03 0. -1.
        -11    1    4    4    0    0  0.13806341486E+02  0.11611667842E+02 -0.13049722787E+02  0.22265245572E+02  0.51100000000E-03 0.  1.
        -12    1    4    4    0    0  0.95691746803E+01 -0.60755124739E+00 -0.13611427164E+02  0.16649599755E+02  0.00000000000E+00 0.  1.
</event>
<event>
 8    1  0.3776180E-010  0.9118800E+02  0.7816164E-02  0.1184000E+00
        -11   -1    0    0    0    0  0.00000000000E+00  0.00000000000E+00  0.45593999997E+02  0.45594000000E+02  0.51100000000E-03 0. -1.
         11   -1    0    0    0    0 -0.00000000000E+00 -0.00000000000E+00 -0.45593999997E+02  0.45594000000E+02  0.51100000000E-03 0.  1.
         23    2    1    2    0    0 -0.10658141036E-13 -0.17763568394E-14  0.00000000000E+00  0.91188000000E+02  0.91188000000E+02 0.  0.
    9900012    2    3    3    0    0 -0.26687490548E+02 -0.67088902903E+01 -0.33561760907E+02  0.47787272404E+02  0.20000006197E+02 0.  0.
         12    1    3    3    0    0  0.26687490548E+02  0.67088902903E+01  0.33561760907E+02  0.43400727596E+02  0.00000000000E+00 0. -1.
         11    1    4    4    0    0 -0.36092685789E+01 -0.51626697408E+01 -0.17768439898E+02  0.18851987566E+02  0.51100000000E-03 0. -1.
        -11    1    4    4    0    0 -0.18578930367E+02 -0.11409567554E+01 -0.15803446324E+02  0.24417767135E+02  0.51100000000E-03 0.  1.
        -12    1    4    4    0    0 -0.44992916028E+01 -0.40526379412E+00  0.10125314468E-01  0.45175177024E+01  0.00000000000E+00 0.  1.
</event>
<event>
 8    1  0.3776180E-010  0.9118800E+02  0.7816164E-02  0.1184000E+00
        -11   -1    0    0    0    0  0.00000000000E+00  0.00000000000E+00  0.45593999997E+02  0.45594000000E+02  0.51100000000E-03 0. -1.
         11   -1    0    0    0    0 -0.00000000000E+00 -0.00000000000E+00 -0.45593999997E+02  0.45594000000E+02  0.51100000000E-03 0.  1.
         23    2    1    2    0    0  0.00000000000E+00  0.00000000000E+00  0.17763568394E-14  0.91188000000E+02  0.91188000000E+02 0.  0.
    9900012    2    3    3    0    0  0.62675629507E+01 -0.41187305775E+02  0.12163339434E+02  0.47787270415E+02  0.19999997131E+02 0.  0.
        -12    1    3    3    0    0 -0.62675629507E+01  0.41187305775E+02 -0.12163339434E+02  0.43400729585E+02  0.00000000000E+00 0.  1.
         11    1    4    4    0    0  0.34956858215E+01 -0.14800976039E+02  0.72433932094E+01  0.16845042491E+02  0.51100000000E-03 0. -1.
        -11    1    4    4    0    0 -0.57529454437E+01 -0.16571482753E+02  0.31473010569E+01  0.17821782350E+02  0.51100000000E-03 0.  1.
         12    1    4    4    0    0  0.85248225728E+01 -0.98148469824E+01  0.17726451680E+01  0.13120445575E+02  0.00000000000E+00 0. -1.
</event>
<event>
 8    1  0.3776180E-010  0.9118800E+02  0.7816164E-02  0.1184000E+00
        -11   -1    0    0    0    0  0.00000000000E+00  0.00000000000E+00  0.45593999997E+02  0.45594000000E+02  0.51100000000E-03 0. -1.
         11   -1    0    0    0    0 -0.00000000000E+00 -0.00000000000E+00 -0.45593999997E+02  0.45594000000E+02  0.51100000000E-03 0.  1.
         23    2    1    2    0    0  0.00000000000E+00 -0.88817841970E-15  0.00000000000E+00  0.91188000000E+02  0.91188000000E+02 0.  0.
    9900012    2    3    3    0    0 -0.46385722139E+01 -0.78082572137E+01  0.42439818061E+02  0.47787269707E+02  0.19999993902E+02 0.  0.
        -12    1    3    3    0    0  0.46385722139E+01  0.78082572137E+01 -0.42439818061E+02  0.43400730293E+02  0.00000000000E+00 0.  1.
         11    1    4    4    0    0 -0.18857595066E+01  0.25297280140E+01  0.12998169132E+02  0.13375650033E+02  0.51100000000E-03 0. -1.
        -11    1    4    4    0    0 -0.55924818287E+01  0.11383666025E+01  0.68707534256E+01  0.89319082185E+01  0.51100000000E-03 0.  1.
        -12    1    4    4    0    0  0.28396691214E+01 -0.11476351830E+02  0.22570895503E+02  0.25479711456E+02  0.00000000000E+00 0.  1.
</event>
<event>
 8    1  0.3776180E-010  0.9118800E+02  0.7816164E-02  0.1184000E+00
        -11   -1    0    0    0    0  0.00000000000E+00  0.00000000000E+00  0.45593999997E+02  0.45594000000E+02  0.51100000000E-03 0. -1.
         11   -1    0    0    0    0 -0.00000000000E+00 -0.00000000000E+00 -0.45593999997E+02  0.45594000000E+02  0.51100000000E-03 0.  1.
         23    2    1    2    0    0  0.00000000000E+00  0.00000000000E+00  0.71054273576E-14  0.91188000000E+02  0.91188000000E+02 0.  0.
    9900012    2    3    3    0    0  0.19834229392E+02  0.26735336514E+02  0.27846875982E+02  0.47787269867E+02  0.19999994632E+02 0.  0.
        -12    1    3    3    0    0 -0.19834229392E+02 -0.26735336514E+02 -0.27846875982E+02  0.43400730133E+02  0.00000000000E+00 0.  1.
         11    1    4    4    0    0  0.29357311703E+01  0.14243665507E+00  0.28187837408E+01  0.40723884568E+01  0.51100000000E-03 0. -1.
        -11    1    4    4    0    0  0.15716242629E+02  0.17595441354E+02  0.89120824034E+01  0.25219537106E+02  0.51100000000E-03 0.  1.
         12    1    4    4    0    0  0.11822555929E+01  0.89974585048E+01  0.16116009838E+02  0.18495344304E+02  0.00000000000E+00 0. -1.
</event>
<event>
 8    1  0.3776180E-010  0.9118800E+02  0.7816164E-02  0.1184000E+00
        -11   -1    0    0    0    0  0.00000000000E+00  0.00000000000E+00  0.45593999997E+02  0.45594000000E+02  0.51100000000E-03 0.  1.
         11   -1    0    0    0    0 -0.00000000000E+00 -0.00000000000E+00 -0.45593999997E+02  0.45594000000E+02  0.51100000000E-03 0. -1.
         23    2    1    2    0    0  0.00000000000E+00  0.00000000000E+00  0.00000000000E+00  0.91188000000E+02  0.91188000000E+02 0.  0.
    9900012    2    3    3    0    0  0.42130379013E+02 -0.12894253918E+01 -0.10343775882E+02  0.47787249395E+02  0.19999901291E+02 0.  0.
         12    1    3    3    0    0 -0.42130379013E+02  0.12894253918E+01  0.10343775882E+02  0.43400750605E+02  0.00000000000E+00 0. -1.
         11    1    4    4    0    0  0.14677783242E+02  0.29913536947E+00 -0.86097862762E+01  0.17019260350E+02  0.51100000000E-03 0. -1.
        -11    1    4    4    0    0  0.18514017651E+02 -0.63380022515E+01 -0.48803701899E+01  0.20168220932E+02  0.51100000000E-03 0.  1.
         12    1    4    4    0    0  0.89385781195E+01  0.47494414903E+01  0.31463805841E+01  0.10599768113E+02  0.00000000000E+00 0. -1.
</event>
<event>
 8    1  0.3776180E-010  0.9118800E+02  0.7816164E-02  0.1184000E+00
        -11   -1    0    0    0    0  0.00000000000E+00  0.00000000000E+00  0.45593999997E+02  0.45594000000E+02  0.51100000000E-03 0. -1.
         11   -1    0    0    0    0 -0.00000000000E+00 -0.00000000000E+00 -0.45593999997E+02  0.45594000000E+02  0.51100000000E-03 0.  1.
         23    2    1    2    0    0  0.00000000000E+00 -0.77715611724E-15  0.17763568394E-14  0.91188000000E+02  0.91188000000E+02 0.  0.
    9900012    2    3    3    0    0 -0.40968685243E+02 -0.59764289389E+00  0.14311982599E+02  0.47787271970E+02  0.20000004222E+02 0.  0.
        -12    1    3    3    0    0  0.40968685243E+02  0.59764289389E+00 -0.14311982599E+02  0.43400728030E+02  0.00000000000E+00 0.  1.
         11    1    4    4    0    0 -0.19402687431E+02 -0.62553524855E+01  0.12283112959E+02  0.23800600381E+02  0.51100000000E-03 0. -1.
        -11    1    4    4    0    0 -0.60074431015E+01 -0.18039838857E+01  0.24299898858E+01  0.67267065927E+01  0.51100000000E-03 0.  1.
        -12    1    4    4    0    0 -0.15558554711E+02  0.74616934774E+01 -0.40112024599E+00  0.17259964997E+02  0.00000000000E+00 0.  1.
</event>
<event>
 8    1  0.3776180E-010  0.9118800E+02  0.7816164E-02  0.1184000E+00
        -11   -1    0    0    0    0  0.00000000000E+00  0.00000000000E+00  0.45593999997E+02  0.45594000000E+02  0.51100000000E-03 0. -1.
         11   -1    0    0    0    0 -0.00000000000E+00 -0.00000000000E+00 -0.45593999997E+02  0.45594000000E+02  0.51100000000E-03 0.  1.
         23    2    1    2    0    0 -0.88817841970E-15  0.00000000000E+00  0.00000000000E+00  0.91188000000E+02  0.91188000000E+02 0.  0.
    9900012    2    3    3    0    0 -0.73618299451E+01 -0.19201577492E+02  0.38219449439E+02  0.47787269202E+02  0.19999991600E+02 0.  0.
        -12    1    3    3    0    0  0.73618299451E+01  0.19201577492E+02 -0.38219449439E+02  0.43400730798E+02  0.00000000000E+00 0.  1.
         11    1    4    4    0    0  0.19148411088E+01  0.19701836166E+01  0.67341923901E+01  0.72730727594E+01  0.51100000000E-03 0. -1.
        -11    1    4    4    0    0  0.21708601925E+01 -0.57382625934E+01  0.58550598066E+01  0.84806849468E+01  0.51100000000E-03 0.  1.
        -12    1    4    4    0    0 -0.11447531246E+02 -0.15433498516E+02  0.25630197243E+02  0.32033511496E+02  0.00000000000E+00 0.  1.
</event>
<event>
 8    1  0.3776180E-010  0.9118800E+02  0.7816164E-02  0.1184000E+00
        -11   -1    0    0    0    0  0.00000000000E+00  0.00000000000E+00  0.45593999997E+02  0.45594000000E+02  0.51100000000E-03 0. -1.
         11   -1    0    0    0    0 -0.00000000000E+00 -0.00000000000E+00 -0.45593999997E+02  0.45594000000E+02  0.51100000000E-03 0.  1.
         23    2    1    2    0    0  0.00000000000E+00  0.71054273576E-14  0.00000000000E+00  0.91188000000E+02  0.91188000000E+02 0.  0.
    9900012    2    3    3    0    0  0.50028012892E+01  0.42843478401E+02  0.47991219619E+01  0.47787271506E+02  0.20000002103E+02 0.  0.
        -12    1    3    3    0    0 -0.50028012892E+01 -0.42843478401E+02 -0.47991219619E+01  0.43400728494E+02  0.00000000000E+00 0.  1.
         11    1    4    4    0    0  0.37611310472E+01  0.13487050718E+02  0.54209484254E+01  0.15014437249E+02  0.51100000000E-03 0. -1.
        -11    1    4    4    0    0 -0.32836625481E+00  0.29923825052E+02  0.16296431887E+01  0.29969966088E+02  0.51100000000E-03 0.  1.
        -12    1    4    4    0    0  0.15700364968E+01 -0.56739736870E+00 -0.22514696523E+01  0.28028681686E+01  0.00000000000E+00 0.  1.
</event>
<event>
 8    1  0.4476764E-010  0.9118800E+02  0.7816164E-02  0.1184000E+00
        -11   -1    0    0    0    0  0.00000000000E+00  0.00000000000E+00  0.45593999997E+02  0.45594000000E+02  0.51100000000E-03 0. -1.
         11   -1    0    0    0    0 -0.00000000000E+00 -0.00000000000E+00 -0.45593999997E+02  0.45594000000E+02  0.51100000000E-03 0.  1.
         23    2    1    2    0    0 -0.17763568394E-14 -0.35527136788E-14 -0.35527136788E-14  0.91188000000E+02  0.91188000000E+02 0.  0.
    9900012    2    3    3    0    0  0.11570631653E+02  0.29156723693E+02  0.29993821896E+02  0.47787269531E+02  0.19999993098E+02 0.  0.
        -12    1    3    3    0    0 -0.11570631653E+02 -0.29156723693E+02 -0.29993821896E+02  0.43400730469E+02  0.00000000000E+00 0.  1.
         11    1    4    4    0    0  0.92040064841E+01  0.18283536560E+02  0.22959305633E+02  0.30759245113E+02  0.51100000000E-03 0. -1.
        -11    1    4    4    0    0  0.57187704630E+01  0.24145897941E+01  0.42118981379E+01  0.75016441976E+01  0.51100000000E-03 0.  1.
        -12    1    4    4    0    0 -0.33521452943E+01  0.84585973391E+01  0.28226181248E+01  0.95263802201E+01  0.00000000000E+00 0.  1.
</event>
<event>
 8    1  0.3776180E-010  0.9118800E+02  0.7816164E-02  0.1184000E+00
        -11   -1    0    0    0    0  0.00000000000E+00  0.00000000000E+00  0.45593999997E+02  0.45594000000E+02  0.51100000000E-03 0. -1.
         11   -1    0    0    0    0 -0.00000000000E+00 -0.00000000000E+00 -0.45593999997E+02  0.45594000000E+02  0.51100000000E-03 0.  1.
         23    2    1    2    0    0  0.00000000000E+00  0.71054273576E-14  0.00000000000E+00  0.91188000000E+02  0.91188000000E+02 0.  0.
    9900012    2    3    3    0    0 -0.23452611842E+02 -0.35458356851E+02 -0.87351670315E+01  0.47787271713E+02  0.20000003047E+02 0.  0.
         12    1    3    3    0    0  0.23452611842E+02  0.35458356851E+02  0.87351670315E+01  0.43400728287E+02  0.00000000000E+00 0. -1.
         11    1    4    4    0    0 -0.67323172608E+01 -0.14721572029E+02 -0.22275342958E+01  0.16340461683E+02  0.51100000000E-03 0. -1.
        -11    1    4    4    0    0 -0.61823628813E+01 -0.82125625671E+01  0.50074696108E+01  0.11434270719E+02  0.51100000000E-03 0.  1.
         12    1    4    4    0    0 -0.10537931700E+02 -0.12524222255E+02 -0.11515102347E+02  0.20012539310E+02  0.00000000000E+00 0. -1.
</event>
<event>
 8    1  0.3776180E-010  0.9118800E+02  0.7816164E-02  0.1184000E+00
        -11   -1    0    0    0    0  0.00000000000E+00  0.00000000000E+00  0.45593999997E+02  0.45594000000E+02  0.51100000000E-03 0. -1.
         11   -1    0    0    0    0 -0.00000000000E+00 -0.00000000000E+00 -0.45593999997E+02  0.45594000000E+02  0.51100000000E-03 0.  1.
         23    2    1    2    0    0  0.00000000000E+00 -0.35527136788E-14  0.00000000000E+00  0.91188000000E+02  0.91188000000E+02 0.  0.
    9900012    2    3    3    0    0  0.18100804564E+02 -0.23400605214E+02  0.31755261347E+02  0.47787261832E+02  0.19999957999E+02 0.  0.
        -12    1    3    3    0    0 -0.18100804564E+02  0.23400605214E+02 -0.31755261347E+02  0.43400738168E+02  0.00000000000E+00 0.  1.
         11    1    4    4    0    0  0.28849930021E+01 -0.80731314172E+01  0.13164777376E+02  0.15710187749E+02  0.51100000000E-03 0. -1.
        -11    1    4    4    0    0  0.11330653874E+02 -0.32886115290E+01  0.14685570489E+02  0.18837851891E+02  0.51100000000E-03 0.  1.
         12    1    4    4    0    0  0.38851576883E+01 -0.12038862267E+02  0.39049134823E+01  0.13239222192E+02  0.00000000000E+00 0. -1.
</event>
<event>
 8    1  0.3776180E-010  0.9118800E+02  0.7816164E-02  0.1184000E+00
        -11   -1    0    0    0    0  0.00000000000E+00  0.00000000000E+00  0.45593999997E+02  0.45594000000E+02  0.51100000000E-03 0. -1.
         11   -1    0    0    0    0 -0.00000000000E+00 -0.00000000000E+00 -0.45593999997E+02  0.45594000000E+02  0.51100000000E-03 0.  1.
         23    2    1    2    0    0  0.00000000000E+00 -0.44408920985E-15  0.00000000000E+00  0.91188000000E+02  0.91188000000E+02 0.  0.
    9900012    2    3    3    0    0 -0.21450122029E+02  0.35663632192E+01  0.37560571903E+02  0.47787271396E+02  0.20000001605E+02 0.  0.
        -12    1    3    3    0    0  0.21450122029E+02 -0.35663632192E+01 -0.37560571903E+02  0.43400728604E+02  0.00000000000E+00 0.  1.
         11    1    4    4    0    0 -0.31656106529E+01 -0.22727170610E+01  0.83898906985E+00  0.39862559584E+01  0.51100000000E-03 0. -1.
        -11    1    4    4    0    0  0.15693221584E+01 -0.79099730980E+00  0.84116779159E+01  0.85932982261E+01  0.51100000000E-03 0.  1.
        -12    1    4    4    0    0 -0.19853833535E+02  0.66300775900E+01  0.28309904917E+02  0.35207717212E+02  0.00000000000E+00 0.  1.
</event>
<event>
 8    1  0.3776180E-010  0.9118800E+02  0.7816164E-02  0.1184000E+00
        -11   -1    0    0    0    0  0.00000000000E+00  0.00000000000E+00  0.45593999997E+02  0.45594000000E+02  0.51100000000E-03 0. -1.
         11   -1    0    0    0    0 -0.00000000000E+00 -0.00000000000E+00 -0.45593999997E+02  0.45594000000E+02  0.51100000000E-03 0.  1.
         23    2    1    2    0    0  0.00000000000E+00 -0.88817841970E-15  0.00000000000E+00  0.91188000000E+02  0.91188000000E+02 0.  0.
    9900012    2    3    3    0    0  0.64118325837E+01 -0.42074772797E+01 -0.42717780870E+02  0.47787271152E+02  0.20000000489E+02 0.  0.
         12    1    3    3    0    0 -0.64118325837E+01  0.42074772797E+01  0.42717780870E+02  0.43400728848E+02  0.00000000000E+00 0. -1.
         11    1    4    4    0    0  0.56531645612E+01 -0.41545518974E+01 -0.68856743774E+01  0.98301110328E+01  0.51100000000E-03 0. -1.
        -11    1    4    4    0    0 -0.13236647103E+01  0.20243706859E+01 -0.45887690952E+00  0.24618556453E+01  0.51100000000E-03 0.  1.
         12    1    4    4    0    0  0.20823327328E+01 -0.20772960682E+01 -0.35373229583E+02  0.35495304474E+02  0.00000000000E+00 0. -1.
</event>
<event>
 8    1  0.3776180E-010  0.9118800E+02  0.7816164E-02  0.1184000E+00
        -11   -1    0    0    0    0  0.00000000000E+00  0.00000000000E+00  0.45593999997E+02  0.45594000000E+02  0.51100000000E-03 0. -1.
         11   -1    0    0    0    0 -0.00000000000E+00 -0.00000000000E+00 -0.45593999997E+02  0.45594000000E+02  0.51100000000E-03 0.  1.
         23    2    1    2    0    0  0.88817841970E-15  0.00000000000E+00  0.00000000000E+00  0.91188000000E+02  0.91188000000E+02 0.  0.
    9900012    2    3    3    0    0  0.34622151375E+01 -0.12447426293E+02  0.41433056209E+02  0.47787268418E+02  0.19999988026E+02 0.  0.
        -12    1    3    3    0    0 -0.34622151375E+01  0.12447426293E+02 -0.41433056209E+02  0.43400731582E+02  0.00000000000E+00 0.  1.
         11    1    4    4    0    0  0.86638069938E+00 -0.80932079288E+01  0.13175795572E+02  0.15487163050E+02  0.51100000000E-03 0.  1.
        -11    1    4    4    0    0 -0.53801580047E+01 -0.31981696039E+01  0.19110212752E+02  0.20109068120E+02  0.51100000000E-03 0. -1.
         12    1    4    4    0    0  0.79759924429E+01 -0.11560487606E+01  0.91470478849E+01  0.12191037249E+02  0.00000000000E+00 0. -1.
</event>
<event>
 8    1  0.3776180E-010  0.9118800E+02  0.7816164E-02  0.1184000E+00
        -11   -1    0    0    0    0  0.00000000000E+00  0.00000000000E+00  0.45593999997E+02  0.45594000000E+02  0.51100000000E-03 0. -1.
         11   -1    0    0    0    0 -0.00000000000E+00 -0.00000000000E+00 -0.45593999997E+02  0.45594000000E+02  0.51100000000E-03 0.  1.
         23    2    1    2    0    0  0.00000000000E+00 -0.17763568394E-14 -0.71054273576E-14  0.91188000000E+02  0.91188000000E+02 0.  0.
    9900012    2    3    3    0    0 -0.25991787140E+02  0.93982545039E+01  0.33462262204E+02  0.47787272146E+02  0.20000005022E+02 0.  0.
        -12    1    3    3    0    0  0.25991787140E+02 -0.93982545039E+01 -0.33462262204E+02  0.43400727854E+02  0.00000000000E+00 0.  1.
         11    1    4    4    0    0 -0.57262363995E+01  0.72700005346E+01  0.92787669503E+01  0.13104892501E+02  0.51100000000E-03 0. -1.
        -11    1    4    4    0    0 -0.11976975961E+02  0.56847679472E+01  0.63545283648E+01  0.14701856032E+02  0.51100000000E-03 0.  1.
        -12    1    4    4    0    0 -0.82885747801E+01 -0.35565139778E+01  0.17828966889E+02  0.19980523614E+02  0.00000000000E+00 0.  1.
</event>
<event>
 8    1  0.3776180E-010  0.9118800E+02  0.7816164E-02  0.1184000E+00
        -11   -1    0    0    0    0  0.00000000000E+00  0.00000000000E+00  0.45593999997E+02  0.45594000000E+02  0.51100000000E-03 0. -1.
         11   -1    0    0    0    0 -0.00000000000E+00 -0.00000000000E+00 -0.45593999997E+02  0.45594000000E+02  0.51100000000E-03 0.  1.
         23    2    1    2    0    0 -0.88817841970E-15 -0.35527136788E-14  0.00000000000E+00  0.91188000000E+02  0.91188000000E+02 0.  0.
    9900012    2    3    3    0    0 -0.56497789911E+01 -0.30673075741E+02 -0.30180550849E+02  0.47787271577E+02  0.20000002430E+02 0.  0.
         12    1    3    3    0    0  0.56497789911E+01  0.30673075741E+02  0.30180550849E+02  0.43400728423E+02  0.00000000000E+00 0. -1.
         11    1    4    4    0    0 -0.21401459543E+01  0.78048365936E+00 -0.26650147945E+01  0.35059497378E+01  0.51100000000E-03 0. -1.
        -11    1    4    4    0    0 -0.36143223254E+01 -0.62105515336E+00 -0.15886104793E+01  0.39965884066E+01  0.51100000000E-03 0.  1.
         12    1    4    4    0    0  0.10468928864E+00 -0.30832504247E+02 -0.25926925575E+02  0.40284733433E+02  0.00000000000E+00 0. -1.
</event>
<event>
 8    1  0.3776180E-010  0.9118800E+02  0.7816164E-02  0.1184000E+00
        -11   -1    0    0    0    0  0.00000000000E+00  0.00000000000E+00  0.45593999997E+02  0.45594000000E+02  0.51100000000E-03 0. -1.
         11   -1    0    0    0    0 -0.00000000000E+00 -0.00000000000E+00 -0.45593999997E+02  0.45594000000E+02  0.51100000000E-03 0.  1.
         23    2    1    2    0    0 -0.44408920985E-15  0.00000000000E+00 -0.71054273576E-14  0.91188000000E+02  0.91188000000E+02 0.  0.
    9900012    2    3    3    0    0 -0.28340204356E+01 -0.10239462668E+02  0.42080221291E+02  0.47787270842E+02  0.19999999076E+02 0.  0.
        -12    1    3    3    0    0  0.28340204356E+01  0.10239462668E+02 -0.42080221291E+02  0.43400729158E+02  0.00000000000E+00 0.  1.
         11    1    4    4    0    0 -0.50592667257E+00 -0.33981582885E+00  0.41502657288E+01  0.41947756169E+01  0.51100000000E-03 0. -1.
        -11    1    4    4    0    0  0.55876623408E+01  0.30050828555E+01  0.11466597588E+02  0.13104783627E+02  0.51100000000E-03 0.  1.
        -12    1    4    4    0    0 -0.79157561038E+01 -0.12904729695E+02  0.26463357974E+02  0.30487711598E+02  0.00000000000E+00 0.  1.
</event>
<event>
 8    1  0.3776180E-010  0.9118800E+02  0.7816164E-02  0.1184000E+00
        -11   -1    0    0    0    0  0.00000000000E+00  0.00000000000E+00  0.45593999997E+02  0.45594000000E+02  0.51100000000E-03 0. -1.
         11   -1    0    0    0    0 -0.00000000000E+00 -0.00000000000E+00 -0.45593999997E+02  0.45594000000E+02  0.51100000000E-03 0.  1.
         23    2    1    2    0    0  0.00000000000E+00  0.00000000000E+00  0.00000000000E+00  0.91188000000E+02  0.91188000000E+02 0.  0.
    9900012    2    3    3    0    0 -0.31256509666E+02 -0.10007539949E+02  0.28399001571E+02  0.47787267949E+02  0.19999985887E+02 0.  0.
        -12    1    3    3    0    0  0.31256509666E+02  0.10007539949E+02 -0.28399001571E+02  0.43400732051E+02  0.00000000000E+00 0.  1.
         11    1    4    4    0    0 -0.34300279655E+01 -0.45327403885E+01  0.10865295038E+02  0.12262359634E+02  0.51100000000E-03 0. -1.
        -11    1    4    4    0    0 -0.46837374316E+01 -0.49548591275E+01  0.60156387755E+00  0.68446990190E+01  0.51100000000E-03 0.  1.
         12    1    4    4    0    0 -0.23142744269E+02 -0.51994043305E+00  0.16932142656E+02  0.28680209296E+02  0.00000000000E+00 0. -1.
</event>
<event>
 8    1  0.3776180E-010  0.9118800E+02  0.7816164E-02  0.1184000E+00
        -11   -1    0    0    0    0  0.00000000000E+00  0.00000000000E+00  0.45593999997E+02  0.45594000000E+02  0.51100000000E-03 0. -1.
         11   -1    0    0    0    0 -0.00000000000E+00 -0.00000000000E+00 -0.45593999997E+02  0.45594000000E+02  0.51100000000E-03 0.  1.
         23    2    1    2    0    0 -0.17763568394E-14  0.00000000000E+00  0.00000000000E+00  0.91188000000E+02  0.91188000000E+02 0.  0.
    9900012    2    3    3    0    0  0.29334128135E+01  0.94037025336E+01 -0.42268058557E+02  0.47787270672E+02  0.19999998300E+02 0.  0.
         12    1    3    3    0    0 -0.29334128135E+01 -0.94037025336E+01  0.42268058557E+02  0.43400729328E+02  0.00000000000E+00 0. -1.
         11    1    4    4    0    0 -0.30540538899E+01  0.38387976378E+01 -0.16307840403E+02  0.17029658579E+02  0.51100000000E-03 0. -1.
        -11    1    4    4    0    0 -0.41246538767E+01  0.23487538800E+01 -0.34379284011E+01  0.58607820591E+01  0.51100000000E-03 0.  1.
        -12    1    4    4    0    0  0.10112120580E+02  0.32161510158E+01 -0.22522289753E+02  0.24896830033E+02  0.00000000000E+00 0.  1.
</event>
<event>
 8    1  0.3776180E-010  0.9118800E+02  0.7816164E-02  0.1184000E+00
        -11   -1    0    0    0    0  0.00000000000E+00  0.00000000000E+00  0.45593999997E+02  0.45594000000E+02  0.51100000000E-03 0. -1.
         11   -1    0    0    0    0 -0.00000000000E+00 -0.00000000000E+00 -0.45593999997E+02  0.45594000000E+02  0.51100000000E-03 0.  1.
         23    2    1    2    0    0  0.00000000000E+00  0.00000000000E+00  0.00000000000E+00  0.91188000000E+02  0.91188000000E+02 0.  0.
    9900012    2    3    3    0    0  0.26113055342E+02  0.41403707818E+01  0.34417854127E+02  0.47787274059E+02  0.20000013743E+02 0.  0.
        -12    1    3    3    0    0 -0.26113055342E+02 -0.41403707818E+01 -0.34417854127E+02  0.43400725941E+02  0.00000000000E+00 0.  1.
         11    1    4    4    0    0  0.11908397910E+02  0.30186939370E+01  0.53066088751E+01  0.13382172913E+02  0.51100000000E-03 0. -1.
        -11    1    4    4    0    0  0.54529825596E+01  0.12996198314E-01  0.18598610986E+01  0.57614469766E+01  0.51100000000E-03 0.  1.
        -12    1    4    4    0    0  0.87516748725E+01  0.11086806465E+01  0.27251384154E+02  0.28643654169E+02  0.00000000000E+00 0.  1.
</event>
<event>
 8    1  0.3776180E-010  0.9118800E+02  0.7816164E-02  0.1184000E+00
        -11   -1    0    0    0    0  0.00000000000E+00  0.00000000000E+00  0.45593999997E+02  0.45594000000E+02  0.51100000000E-03 0. -1.
         11   -1    0    0    0    0 -0.00000000000E+00 -0.00000000000E+00 -0.45593999997E+02  0.45594000000E+02  0.51100000000E-03 0.  1.
         23    2    1    2    0    0  0.44408920985E-15 -0.35527136788E-14  0.00000000000E+00  0.91188000000E+02  0.91188000000E+02 0.  0.
    9900012    2    3    3    0    0  0.39191873717E+01 -0.31321914931E+02 -0.29785914511E+02  0.47787273188E+02  0.20000009772E+02 0.  0.
         12    1    3    3    0    0 -0.39191873717E+01  0.31321914931E+02  0.29785914511E+02  0.43400726812E+02  0.00000000000E+00 0. -1.
         11    1    4    4    0    0  0.67193388704E+00 -0.81963974209E+01 -0.10211491322E+01  0.82870484276E+01  0.51100000000E-03 0. -1.
        -11    1    4    4    0    0  0.65060960592E+01 -0.43509562920E+01 -0.63380326678E+01  0.10071284176E+02  0.51100000000E-03 0.  1.
        -12    1    4    4    0    0 -0.32588425745E+01 -0.18774561218E+02 -0.22426732711E+02  0.29428940585E+02  0.00000000000E+00 0.  1.
</event>
<event>
 8    1  0.3776180E-010  0.9118800E+02  0.7816164E-02  0.1184000E+00
        -11   -1    0    0    0    0  0.00000000000E+00  0.00000000000E+00  0.45593999997E+02  0.45594000000E+02  0.51100000000E-03 0. -1.
         11   -1    0    0    0    0 -0.00000000000E+00 -0.00000000000E+00 -0.45593999997E+02  0.45594000000E+02  0.51100000000E-03 0.  1.
         23    2    1    2    0    0 -0.17763568394E-14 -0.88817841970E-15  0.00000000000E+00  0.91188000000E+02  0.91188000000E+02 0.  0.
    9900012    2    3    3    0    0  0.11639776865E+02 -0.55933018676E+01 -0.41434937865E+02  0.47787268358E+02  0.19999987750E+02 0.  0.
         12    1    3    3    0    0 -0.11639776865E+02  0.55933018676E+01  0.41434937865E+02  0.43400731642E+02  0.00000000000E+00 0. -1.
         11    1    4    4    0    0 -0.30832005216E+01 -0.12388982634E-02 -0.86969425125E+00  0.32035129691E+01  0.51100000000E-03 0. -1.
        -11    1    4    4    0    0  0.50790719202E+01  0.25326015286E+01 -0.96441172283E+01  0.11190176024E+02  0.51100000000E-03 0.  1.
         12    1    4    4    0    0  0.96439054668E+01 -0.81246644979E+01 -0.30921126385E+02  0.33393579365E+02  0.00000000000E+00 0. -1.
</event>
<event>
 8    1  0.4275238E-010  0.9118800E+02  0.7816164E-02  0.1184000E+00
        -11   -1    0    0    0    0  0.00000000000E+00  0.00000000000E+00  0.45593999997E+02  0.45594000000E+02  0.51100000000E-03 0. -1.
         11   -1    0    0    0    0 -0.00000000000E+00 -0.00000000000E+00 -0.45593999997E+02  0.45594000000E+02  0.51100000000E-03 0.  1.
         23    2    1    2    0    0  0.00000000000E+00 -0.35527136788E-14  0.00000000000E+00  0.91188000000E+02  0.91188000000E+02 0.  0.
    9900012    2    3    3    0    0  0.22035126234E+02 -0.27507739691E+02  0.25325899118E+02  0.47787266167E+02  0.19999977762E+02 0.  0.
        -12    1    3    3    0    0 -0.22035126234E+02  0.27507739691E+02 -0.25325899118E+02  0.43400733833E+02  0.00000000000E+00 0.  1.
         11    1    4    4    0    0  0.11118826083E+02 -0.68296238244E+01  0.59237899303E+01  0.14330503915E+02  0.51100000000E-03 0. -1.
        -11    1    4    4    0    0  0.13513761253E+02 -0.20610231009E+02  0.17842645843E+02  0.30426359894E+02  0.51100000000E-03 0.  1.
        -12    1    4    4    0    0 -0.25974611022E+01 -0.67884858159E-01  0.15594633444E+01  0.30304023584E+01  0.00000000000E+00 0.  1.
</event>
<event>
 8    1  0.3776180E-010  0.9118800E+02  0.7816164E-02  0.1184000E+00
        -11   -1    0    0    0    0  0.00000000000E+00  0.00000000000E+00  0.45593999997E+02  0.45594000000E+02  0.51100000000E-03 0. -1.
         11   -1    0    0    0    0 -0.00000000000E+00 -0.00000000000E+00 -0.45593999997E+02  0.45594000000E+02  0.51100000000E-03 0.  1.
         23    2    1    2    0    0  0.17763568394E-14  0.00000000000E+00  0.00000000000E+00  0.91188000000E+02  0.91188000000E+02 0.  0.
    9900012    2    3    3    0    0 -0.10151199060E+02 -0.24098426805E+02 -0.34638739524E+02  0.47787270828E+02  0.19999999015E+02 0.  0.
         12    1    3    3    0    0  0.10151199060E+02  0.24098426805E+02  0.34638739524E+02  0.43400729172E+02  0.00000000000E+00 0. -1.
         11    1    4    4    0    0 -0.23770202379E+01 -0.11268240687E+02 -0.10706679578E+02  0.15724390648E+02  0.51100000000E-03 0. -1.
        -11    1    4    4    0    0 -0.10083537042E+02 -0.14076826149E+02 -0.15527354392E+02  0.23257976876E+02  0.51100000000E-03 0.  1.
         12    1    4    4    0    0  0.23093582201E+01  0.12466400311E+01 -0.84047055534E+01  0.88049033042E+01  0.00000000000E+00 0. -1.
</event>
<event>
 8    1  0.3776180E-010  0.9118800E+02  0.7816164E-02  0.1184000E+00
        -11   -1    0    0    0    0  0.00000000000E+00  0.00000000000E+00  0.45593999997E+02  0.45594000000E+02  0.51100000000E-03 0. -1.
         11   -1    0    0    0    0 -0.00000000000E+00 -0.00000000000E+00 -0.45593999997E+02  0.45594000000E+02  0.51100000000E-03 0.  1.
         23    2    1    2    0    0  0.71054273576E-14  0.00000000000E+00 -0.71054273576E-14  0.91188000000E+02  0.91188000000E+02 0.  0.
    9900012    2    3    3    0    0  0.31396159757E+02 -0.42991693557E+01 -0.29655041090E+02  0.47787272279E+02  0.20000005630E+02 0.  0.
         12    1    3    3    0    0 -0.31396159757E+02  0.42991693557E+01  0.29655041090E+02  0.43400727721E+02  0.00000000000E+00 0. -1.
         11    1    4    4    0    0  0.13772999197E+00 -0.28797561850E+01 -0.30171147777E+01  0.41731219822E+01  0.51100000000E-03 0. -1.
        -11    1    4    4    0    0  0.22056596188E+02 -0.67750061698E+01 -0.22389449335E+02  0.32150918895E+02  0.51100000000E-03 0.  1.
         12    1    4    4    0    0  0.92018335771E+01  0.53555929991E+01 -0.42484769777E+01  0.11463231402E+02  0.00000000000E+00 0. -1.
</event>
<event>
 8    1  0.3776180E-010  0.9118800E+02  0.7816164E-02  0.1184000E+00
        -11   -1    0    0    0    0  0.00000000000E+00  0.00000000000E+00  0.45593999997E+02  0.45594000000E+02  0.51100000000E-03 0. -1.
         11   -1    0    0    0    0 -0.00000000000E+00 -0.00000000000E+00 -0.45593999997E+02  0.45594000000E+02  0.51100000000E-03 0.  1.
         23    2    1    2    0    0  0.00000000000E+00 -0.44408920985E-15  0.44408920985E-15  0.91188000000E+02  0.91188000000E+02 0.  0.
    9900012    2    3    3    0    0 -0.43188092082E+02 -0.26371184041E+01  0.33849019248E+01  0.47787271294E+02  0.20000001138E+02 0.  0.
        -12    1    3    3    0    0  0.43188092082E+02  0.26371184041E+01 -0.33849019248E+01  0.43400728706E+02  0.00000000000E+00 0.  1.
         11    1    4    4    0    0 -0.27695895139E+02 -0.19518998431E+01  0.96892958179E+01  0.29406716482E+02  0.51100000000E-03 0. -1.
        -11    1    4    4    0    0 -0.87631764575E+01 -0.15092320523E+01  0.32563460108E+00  0.88981504352E+01  0.51100000000E-03 0.  1.
        -12    1    4    4    0    0 -0.67290204853E+01  0.82401349131E+00 -0.66300284942E+01  0.94824043765E+01  0.00000000000E+00 0.  1.
</event>
<event>
 8    1  0.3776180E-010  0.9118800E+02  0.7816164E-02  0.1184000E+00
        -11   -1    0    0    0    0  0.00000000000E+00  0.00000000000E+00  0.45593999997E+02  0.45594000000E+02  0.51100000000E-03 0. -1.
         11   -1    0    0    0    0 -0.00000000000E+00 -0.00000000000E+00 -0.45593999997E+02  0.45594000000E+02  0.51100000000E-03 0.  1.
         23    2    1    2    0    0  0.17763568394E-14  0.00000000000E+00  0.00000000000E+00  0.91188000000E+02  0.91188000000E+02 0.  0.
    9900012    2    3    3    0    0 -0.12690706293E+02 -0.36026069588E+02 -0.20608043378E+02  0.47787272264E+02  0.20000005558E+02 0.  0.
         12    1    3    3    0    0  0.12690706293E+02  0.36026069588E+02  0.20608043378E+02  0.43400727736E+02  0.00000000000E+00 0. -1.
         11    1    4    4    0    0 -0.30881302272E+01 -0.22342432317E+01 -0.33670909249E+01  0.50858325450E+01  0.51100000000E-03 0.  1.
        -11    1    4    4    0    0 -0.88253749654E+01 -0.67199090219E+01 -0.93080031158E+01  0.14480446913E+02  0.51100000000E-03 0. -1.
         12    1    4    4    0    0 -0.77720110028E+00 -0.27071917335E+02 -0.79329493373E+01  0.28220992805E+02  0.00000000000E+00 0. -1.
</event>
<event>
 8    1  0.3776180E-010  0.9118800E+02  0.7816164E-02  0.1184000E+00
        -11   -1    0    0    0    0  0.00000000000E+00  0.00000000000E+00  0.45593999997E+02  0.45594000000E+02  0.51100000000E-03 0. -1.
         11   -1    0    0    0    0 -0.00000000000E+00 -0.00000000000E+00 -0.45593999997E+02  0.45594000000E+02  0.51100000000E-03 0.  1.
         23    2    1    2    0    0  0.00000000000E+00  0.00000000000E+00 -0.35527136788E-14  0.91188000000E+02  0.91188000000E+02 0.  0.
    9900012    2    3    3    0    0 -0.29698897407E+02 -0.42729833616E+01 -0.31358258358E+02  0.47787271190E+02  0.20000000666E+02 0.  0.
         12    1    3    3    0    0  0.29698897407E+02  0.42729833616E+01  0.31358258358E+02  0.43400728810E+02  0.00000000000E+00 0. -1.
         11    1    4    4    0    0 -0.23224624799E+01 -0.46471313482E+01 -0.51277184460E+01  0.72995313864E+01  0.51100000000E-03 0. -1.
        -11    1    4    4    0    0 -0.10728072785E+02 -0.65406812139E+01 -0.82805463149E+01  0.15047906962E+02  0.51100000000E-03 0.  1.
         12    1    4    4    0    0 -0.16648362142E+02  0.69148292006E+01 -0.17949993597E+02  0.25439832842E+02  0.00000000000E+00 0. -1.
</event>
<event>
 8    1  0.3776180E-010  0.9118800E+02  0.7816164E-02  0.1184000E+00
        -11   -1    0    0    0    0  0.00000000000E+00  0.00000000000E+00  0.45593999997E+02  0.45594000000E+02  0.51100000000E-03 0. -1.
         11   -1    0    0    0    0 -0.00000000000E+00 -0.00000000000E+00 -0.45593999997E+02  0.45594000000E+02  0.51100000000E-03 0.  1.
         23    2    1    2    0    0 -0.22204460493E-14  0.44408920985E-15  0.00000000000E+00  0.91188000000E+02  0.91188000000E+02 0.  0.
    9900012    2    3    3    0    0  0.21731644582E+01  0.10113373808E+01 -0.43334488315E+02  0.47787270460E+02  0.19999997337E+02 0.  0.
         12    1    3    3    0    0 -0.21731644582E+01 -0.10113373808E+01  0.43334488315E+02  0.43400729540E+02  0.00000000000E+00 0. -1.
         11    1    4    4    0    0  0.45169016888E+01 -0.54064620792E+01 -0.96013154005E+01  0.11908714908E+02  0.51100000000E-03 0. -1.
        -11    1    4    4    0    0  0.38772256779E+01  0.28760277755E+01 -0.10276863750E+02  0.11354221397E+02  0.51100000000E-03 0.  1.
         12    1    4    4    0    0 -0.62209629084E+01  0.35417716845E+01 -0.23456309164E+02  0.24524334155E+02  0.00000000000E+00 0. -1.
</event>
<event>
 8    1  0.3776180E-010  0.9118800E+02  0.7816164E-02  0.1184000E+00
        -11   -1    0    0    0    0  0.00000000000E+00  0.00000000000E+00  0.45593999997E+02  0.45594000000E+02  0.51100000000E-03 0. -1.
         11   -1    0    0    0    0 -0.00000000000E+00 -0.00000000000E+00 -0.45593999997E+02  0.45594000000E+02  0.51100000000E-03 0.  1.
         23    2    1    2    0    0  0.00000000000E+00  0.00000000000E+00  0.00000000000E+00  0.91188000000E+02  0.91188000000E+02 0.  0.
    9900012    2    3    3    0    0 -0.41595839838E+01 -0.26519551224E+02 -0.34103295322E+02  0.47787268580E+02  0.19999988762E+02 0.  0.
         12    1    3    3    0    0  0.41595839838E+01  0.26519551224E+02  0.34103295322E+02  0.43400731420E+02  0.00000000000E+00 0. -1.
         11    1    4    4    0    0 -0.58639994182E+01 -0.51794793153E-01 -0.37931630039E+01  0.69840717145E+01  0.51100000000E-03 0.  1.
        -11    1    4    4    0    0  0.72900484896E+00 -0.15548896428E+02 -0.12839258181E+02  0.20177863591E+02  0.51100000000E-03 0. -1.
        -12    1    4    4    0    0  0.97541058541E+00 -0.10918860003E+02 -0.17470874136E+02  0.20625333274E+02  0.00000000000E+00 0.  1.
</event>
<event>
 8    1  0.3776180E-010  0.9118800E+02  0.7816164E-02  0.1184000E+00
        -11   -1    0    0    0    0  0.00000000000E+00  0.00000000000E+00  0.45593999997E+02  0.45594000000E+02  0.51100000000E-03 0. -1.
         11   -1    0    0    0    0 -0.00000000000E+00 -0.00000000000E+00 -0.45593999997E+02  0.45594000000E+02  0.51100000000E-03 0.  1.
         23    2    1    2    0    0 -0.35527136788E-14  0.00000000000E+00  0.22204460493E-15  0.91188000000E+02  0.91188000000E+02 0.  0.
    9900012    2    3    3    0    0  0.30707014340E+02  0.30645817295E+02  0.12395023542E+01  0.47787271741E+02  0.20000003174E+02 0.  0.
         12    1    3    3    0    0 -0.30707014340E+02 -0.30645817295E+02 -0.12395023542E+01  0.43400728259E+02  0.00000000000E+00 0. -1.
         11    1    4    4    0    0  0.55228393530E+01  0.13005996707E+02  0.10079411996E+01  0.14165932747E+02  0.51100000000E-03 0. -1.
        -11    1    4    4    0    0  0.15955199677E+02  0.16609937471E+02 -0.40677234316E+01  0.23388133609E+02  0.51100000000E-03 0.  1.
         12    1    4    4    0    0  0.92289753100E+01  0.10298831174E+01  0.42992845862E+01  0.10233205385E+02  0.00000000000E+00 0. -1.
</event>
<event>
 8    1  0.3776180E-010  0.9118800E+02  0.7816164E-02  0.1184000E+00
        -11   -1    0    0    0    0  0.00000000000E+00  0.00000000000E+00  0.45593999997E+02  0.45594000000E+02  0.51100000000E-03 0. -1.
         11   -1    0    0    0    0 -0.00000000000E+00 -0.00000000000E+00 -0.45593999997E+02  0.45594000000E+02  0.51100000000E-03 0.  1.
         23    2    1    2    0    0  0.35527136788E-14 -0.88817841970E-15  0.00000000000E+00  0.91188000000E+02  0.91188000000E+02 0.  0.
    9900012    2    3    3    0    0  0.21128598590E+02 -0.40084269794E+01 -0.37697991382E+02  0.47787265911E+02  0.19999976594E+02 0.  0.
         12    1    3    3    0    0 -0.21128598590E+02  0.40084269794E+01  0.37697991382E+02  0.43400734089E+02  0.00000000000E+00 0. -1.
         11    1    4    4    0    0 -0.10080179716E+01  0.39056857619E+00 -0.73904533947E+01  0.74690993891E+01  0.51100000000E-03 0. -1.
        -11    1    4    4    0    0  0.23055884076E+02 -0.10858266590E+01 -0.27303357263E+02  0.35752288432E+02  0.51100000000E-03 0.  1.
         12    1    4    4    0    0 -0.91926751467E+00 -0.33131688966E+01 -0.30041807246E+01  0.45658780893E+01  0.00000000000E+00 0. -1.
</event>
<event>
 8    1  0.3776180E-010  0.9118800E+02  0.7816164E-02  0.1184000E+00
        -11   -1    0    0    0    0  0.00000000000E+00  0.00000000000E+00  0.45593999997E+02  0.45594000000E+02  0.51100000000E-03 0. -1.
         11   -1    0    0    0    0 -0.00000000000E+00 -0.00000000000E+00 -0.45593999997E+02  0.45594000000E+02  0.51100000000E-03 0.  1.
         23    2    1    2    0    0  0.88817841970E-15  0.00000000000E+00 -0.71054273576E-14  0.91188000000E+02  0.91188000000E+02 0.  0.
    9900012    2    3    3    0    0 -0.45564893412E+01 -0.19267812740E+02  0.38621394237E+02  0.47787282314E+02  0.20000051381E+02 0.  0.
        -12    1    3    3    0    0  0.45564893412E+01  0.19267812740E+02 -0.38621394237E+02  0.43400717686E+02  0.00000000000E+00 0.  1.
         11    1    4    4    0    0 -0.34049228132E+01 -0.46294967507E+01  0.11697336994E+02  0.13032782993E+02  0.51100000000E-03 0. -1.
        -11    1    4    4    0    0  0.57355048967E+01 -0.82139755934E+01  0.21893878196E+02  0.24077111833E+02  0.51100000000E-03 0.  1.
         12    1    4    4    0    0 -0.68870714247E+01 -0.64243403961E+01  0.50301790463E+01  0.10677387488E+02  0.00000000000E+00 0. -1.
</event>
<event>
 8    1  0.3776180E-010  0.9118800E+02  0.7816164E-02  0.1184000E+00
        -11   -1    0    0    0    0  0.00000000000E+00  0.00000000000E+00  0.45593999997E+02  0.45594000000E+02  0.51100000000E-03 0. -1.
         11   -1    0    0    0    0 -0.00000000000E+00 -0.00000000000E+00 -0.45593999997E+02  0.45594000000E+02  0.51100000000E-03 0.  1.
         23    2    1    2    0    0  0.00000000000E+00 -0.35527136788E-14  0.00000000000E+00  0.91188000000E+02  0.91188000000E+02 0.  0.
    9900012    2    3    3    0    0  0.38389744237E+02 -0.19473911259E+02  0.55333360641E+01  0.47787268551E+02  0.19999988633E+02 0.  0.
         12    1    3    3    0    0 -0.38389744237E+02  0.19473911259E+02 -0.55333360641E+01  0.43400731449E+02  0.00000000000E+00 0. -1.
         11    1    4    4    0    0  0.33188377296E+01 -0.58334738617E+01  0.35983162047E+01  0.76152466107E+01  0.51100000000E-03 0. -1.
        -11    1    4    4    0    0  0.14485517792E+02 -0.12640224095E+02 -0.14771690899E+01  0.19281792439E+02  0.51100000000E-03 0.  1.
         12    1    4    4    0    0  0.20585388715E+02 -0.10002133018E+01  0.34121889493E+01  0.20890229501E+02  0.00000000000E+00 0. -1.
</event>
<event>
 8    1  0.3776180E-010  0.9118800E+02  0.7816164E-02  0.1184000E+00
        -11   -1    0    0    0    0  0.00000000000E+00  0.00000000000E+00  0.45593999997E+02  0.45594000000E+02  0.51100000000E-03 0. -1.
         11   -1    0    0    0    0 -0.00000000000E+00 -0.00000000000E+00 -0.45593999997E+02  0.45594000000E+02  0.51100000000E-03 0.  1.
         23    2    1    2    0    0  0.00000000000E+00  0.26645352591E-14  0.17763568394E-14  0.91188000000E+02  0.91188000000E+02 0.  0.
    9900012    2    3    3    0    0 -0.40414066500E+02  0.51984452364E+01 -0.14943315551E+02  0.47787270932E+02  0.19999999488E+02 0.  0.
         12    1    3    3    0    0  0.40414066500E+02 -0.51984452364E+01  0.14943315551E+02  0.43400729068E+02  0.00000000000E+00 0. -1.
         11    1    4    4    0    0 -0.10305046039E+02  0.67590835447E+01 -0.45969710284E+00  0.12332497959E+02  0.51100000000E-03 0. -1.
        -11    1    4    4    0    0 -0.10276330475E+02  0.20822799117E+01  0.23844304039E+00  0.10487884105E+02  0.51100000000E-03 0.  1.
         12    1    4    4    0    0 -0.19832689987E+02 -0.36429182201E+01 -0.14722061489E+02  0.24966888868E+02  0.00000000000E+00 0. -1.
</event>
<event>
 8    1  0.3776180E-010  0.9118800E+02  0.7816164E-02  0.1184000E+00
        -11   -1    0    0    0    0  0.00000000000E+00  0.00000000000E+00  0.45593999997E+02  0.45594000000E+02  0.51100000000E-03 0. -1.
         11   -1    0    0    0    0 -0.00000000000E+00 -0.00000000000E+00 -0.45593999997E+02  0.45594000000E+02  0.51100000000E-03 0.  1.
         23    2    1    2    0    0  0.00000000000E+00 -0.17763568394E-14  0.00000000000E+00  0.91188000000E+02  0.91188000000E+02 0.  0.
    9900012    2    3    3    0    0 -0.38287107868E+02 -0.12619360892E+02  0.16077098105E+02  0.47787262890E+02  0.19999962821E+02 0.  0.
        -12    1    3    3    0    0  0.38287107868E+02  0.12619360892E+02 -0.16077098105E+02  0.43400737110E+02  0.00000000000E+00 0.  1.
         11    1    4    4    0    0 -0.55853415065E+01 -0.68558481832E+01  0.74330203939E+01  0.11551990586E+02  0.51100000000E-03 0. -1.
        -11    1    4    4    0    0 -0.16510241728E+02 -0.79377807507E+01  0.14254707767E+01  0.18374667680E+02  0.51100000000E-03 0.  1.
        -12    1    4    4    0    0 -0.16191524633E+02  0.21742680419E+01  0.72186069347E+01  0.17860604624E+02  0.00000000000E+00 0.  1.
</event>
<event>
 8    1  0.3776180E-010  0.9118800E+02  0.7816164E-02  0.1184000E+00
        -11   -1    0    0    0    0  0.00000000000E+00  0.00000000000E+00  0.45593999997E+02  0.45594000000E+02  0.51100000000E-03 0. -1.
         11   -1    0    0    0    0 -0.00000000000E+00 -0.00000000000E+00 -0.45593999997E+02  0.45594000000E+02  0.51100000000E-03 0.  1.
         23    2    1    2    0    0  0.00000000000E+00  0.00000000000E+00  0.00000000000E+00  0.91188000000E+02  0.91188000000E+02 0.  0.
    9900012    2    3    3    0    0 -0.20057079078E+01  0.27782087083E+02  0.33282970361E+02  0.47787270249E+02  0.19999996371E+02 0.  0.
        -12    1    3    3    0    0  0.20057079078E+01 -0.27782087083E+02 -0.33282970361E+02  0.43400729751E+02  0.00000000000E+00 0.  1.
         11    1    4    4    0    0  0.24514694469E+00  0.25057533729E+01 -0.92997734473E+00  0.26839812058E+01  0.51100000000E-03 0. -1.
        -11    1    4    4    0    0 -0.17322475860E+01 -0.78513595296E+00 -0.22215261704E+00  0.19148034390E+01  0.51100000000E-03 0.  1.
         12    1    4    4    0    0 -0.51860726651E+00  0.26061469663E+02  0.34435100323E+02  0.43188485604E+02  0.00000000000E+00 0. -1.
</event>
<event>
 8    1  0.3776180E-010  0.9118800E+02  0.7816164E-02  0.1184000E+00
        -11   -1    0    0    0    0  0.00000000000E+00  0.00000000000E+00  0.45593999997E+02  0.45594000000E+02  0.51100000000E-03 0. -1.
         11   -1    0    0    0    0 -0.00000000000E+00 -0.00000000000E+00 -0.45593999997E+02  0.45594000000E+02  0.51100000000E-03 0.  1.
         23    2    1    2    0    0  0.88817841970E-15  0.17763568394E-14  0.00000000000E+00  0.91188000000E+02  0.91188000000E+02 0.  0.
    9900012    2    3    3    0    0 -0.66835816352E+01 -0.14520763675E+02 -0.40349730654E+02  0.47787267229E+02  0.19999982604E+02 0.  0.
         12    1    3    3    0    0  0.66835816352E+01  0.14520763675E+02  0.40349730654E+02  0.43400732771E+02  0.00000000000E+00 0. -1.
         11    1    4    4    0    0  0.25471557149E+01 -0.29219235674E+00 -0.83178546528E+00  0.26954120150E+01  0.51100000000E-03 0. -1.
        -11    1    4    4    0    0 -0.86267310056E-01 -0.72288057474E+01 -0.52330238210E+01  0.89245511458E+01  0.51100000000E-03 0.  1.
        -12    1    4    4    0    0 -0.91444700401E+01 -0.69997655714E+01 -0.34284921368E+02  0.36167304068E+02  0.00000000000E+00 0.  1.
</event>
<event>
 8    1  0.3776180E-010  0.9118800E+02  0.7816164E-02  0.1184000E+00
        -11   -1    0    0    0    0  0.00000000000E+00  0.00000000000E+00  0.45593999997E+02  0.45594000000E+02  0.51100000000E-03 0. -1.
         11   -1    0    0    0    0 -0.00000000000E+00 -0.00000000000E+00 -0.45593999997E+02  0.45594000000E+02  0.51100000000E-03 0.  1.
         23    2    1    2    0    0 -0.33306690739E-15  0.00000000000E+00  0.00000000000E+00  0.91188000000E+02  0.91188000000E+02 0.  0.
    9900012    2    3    3    0    0  0.83959981859E+00 -0.34412075521E+02  0.26433450822E+02  0.47787271990E+02  0.20000004310E+02 0.  0.
        -12    1    3    3    0    0 -0.83959981859E+00  0.34412075521E+02 -0.26433450822E+02  0.43400728010E+02  0.00000000000E+00 0.  1.
         11    1    4    4    0    0 -0.43794106016E+01 -0.70866040018E+01  0.79258968447E+01  0.11498653597E+02  0.51100000000E-03 0. -1.
        -11    1    4    4    0    0 -0.39691934142E+01 -0.82448957710E+01  0.97506935982E+01  0.13371941839E+02  0.51100000000E-03 0.  1.
         12    1    4    4    0    0  0.91882038344E+01 -0.19080575748E+02  0.87568603788E+01  0.22916676554E+02  0.00000000000E+00 0. -1.
</event>
<event>
 8    1  0.3776180E-010  0.9118800E+02  0.7816164E-02  0.1184000E+00
        -11   -1    0    0    0    0  0.00000000000E+00  0.00000000000E+00  0.45593999997E+02  0.45594000000E+02  0.51100000000E-03 0.  1.
         11   -1    0    0    0    0 -0.00000000000E+00 -0.00000000000E+00 -0.45593999997E+02  0.45594000000E+02  0.51100000000E-03 0. -1.
         23    2    1    2    0    0  0.35527136788E-14  0.00000000000E+00  0.00000000000E+00  0.91188000000E+02  0.91188000000E+02 0.  0.
    9900012    2    3    3    0    0 -0.28741788019E+02  0.31904515630E+02 -0.62956186087E+01  0.47787270631E+02  0.19999998113E+02 0.  0.
        -12    1    3    3    0    0  0.28741788019E+02 -0.31904515630E+02  0.62956186087E+01  0.43400729369E+02  0.00000000000E+00 0.  1.
         11    1    4    4    0    0 -0.10309970678E+02  0.99023017109E+01 -0.67865827262E+01  0.15824309777E+02  0.51100000000E-03 0. -1.
        -11    1    4    4    0    0 -0.28404648029E+01 -0.12741932274E+01 -0.22092408995E+01  0.38174015102E+01  0.51100000000E-03 0.  1.
        -12    1    4    4    0    0 -0.15591352538E+02  0.23276407147E+02  0.27002050170E+01  0.28145559344E+02  0.00000000000E+00 0.  1.
</event>
<event>
 8    1  0.3776180E-010  0.9118800E+02  0.7816164E-02  0.1184000E+00
        -11   -1    0    0    0    0  0.00000000000E+00  0.00000000000E+00  0.45593999997E+02  0.45594000000E+02  0.51100000000E-03 0. -1.
         11   -1    0    0    0    0 -0.00000000000E+00 -0.00000000000E+00 -0.45593999997E+02  0.45594000000E+02  0.51100000000E-03 0.  1.
         23    2    1    2    0    0  0.00000000000E+00  0.00000000000E+00  0.71054273576E-14  0.91188000000E+02  0.91188000000E+02 0.  0.
    9900012    2    3    3    0    0 -0.17381496966E+02  0.22160883432E+02 -0.33021239957E+02  0.47787268674E+02  0.19999989194E+02 0.  0.
         12    1    3    3    0    0  0.17381496966E+02 -0.22160883432E+02  0.33021239957E+02  0.43400731326E+02  0.00000000000E+00 0. -1.
         11    1    4    4    0    0 -0.62129549379E+01  0.47990123300E+01 -0.16042947954E+02  0.17860781274E+02  0.51100000000E-03 0. -1.
        -11    1    4    4    0    0 -0.91858302660E+01  0.15167407934E+02 -0.19268463366E+02  0.26185939392E+02  0.51100000000E-03 0.  1.
         12    1    4    4    0    0 -0.19827117622E+01  0.21944631679E+01  0.22901713628E+01  0.37405480077E+01  0.00000000000E+00 0. -1.
</event>
<event>
 8    1  0.3776180E-010  0.9118800E+02  0.7816164E-02  0.1184000E+00
        -11   -1    0    0    0    0  0.00000000000E+00  0.00000000000E+00  0.45593999997E+02  0.45594000000E+02  0.51100000000E-03 0. -1.
         11   -1    0    0    0    0 -0.00000000000E+00 -0.00000000000E+00 -0.45593999997E+02  0.45594000000E+02  0.51100000000E-03 0.  1.
         23    2    1    2    0    0  0.00000000000E+00 -0.11102230246E-14 -0.71054273576E-14  0.91188000000E+02  0.91188000000E+02 0.  0.
    9900012    2    3    3    0    0  0.18407611455E+02  0.14773729024E+01  0.39275950219E+02  0.47787273557E+02  0.20000011455E+02 0.  0.
        -12    1    3    3    0    0 -0.18407611455E+02 -0.14773729024E+01 -0.39275950219E+02  0.43400726443E+02  0.00000000000E+00 0.  1.
         11    1    4    4    0    0  0.53584958428E+01  0.62231138360E+01  0.19968062648E+02  0.21590834854E+02  0.51100000000E-03 0. -1.
        -11    1    4    4    0    0 -0.16998487692E+01  0.64204065597E+00  0.98881937093E+00  0.20686870356E+01  0.51100000000E-03 0.  1.
         12    1    4    4    0    0  0.14748964382E+02 -0.53877815896E+01  0.18319068200E+02  0.24127751667E+02  0.00000000000E+00 0. -1.
</event>
<event>
 8    1  0.3776180E-010  0.9118800E+02  0.7816164E-02  0.1184000E+00
        -11   -1    0    0    0    0  0.00000000000E+00  0.00000000000E+00  0.45593999997E+02  0.45594000000E+02  0.51100000000E-03 0. -1.
         11   -1    0    0    0    0 -0.00000000000E+00 -0.00000000000E+00 -0.45593999997E+02  0.45594000000E+02  0.51100000000E-03 0.  1.
         23    2    1    2    0    0  0.00000000000E+00  0.00000000000E+00  0.00000000000E+00  0.91188000000E+02  0.91188000000E+02 0.  0.
    9900012    2    3    3    0    0 -0.24942937945E+02  0.14599298935E+01 -0.35487202597E+02  0.47787273085E+02  0.20000009302E+02 0.  0.
         12    1    3    3    0    0  0.24942937945E+02 -0.14599298935E+01  0.35487202597E+02  0.43400726915E+02  0.00000000000E+00 0. -1.
         11    1    4    4    0    0 -0.81510943034E+01  0.49168799332E+01 -0.10475860619E+02  0.14154847318E+02  0.51100000000E-03 0. -1.
        -11    1    4    4    0    0 -0.14506445002E+02 -0.19926523854E+01 -0.85651670544E+01  0.16963776026E+02  0.51100000000E-03 0.  1.
         12    1    4    4    0    0 -0.22853986395E+01 -0.14642976544E+01 -0.16446174924E+02  0.16668649741E+02  0.00000000000E+00 0. -1.
</event>
<event>
 8    1  0.3776180E-010  0.9118800E+02  0.7816164E-02  0.1184000E+00
        -11   -1    0    0    0    0  0.00000000000E+00  0.00000000000E+00  0.45593999997E+02  0.45594000000E+02  0.51100000000E-03 0. -1.
         11   -1    0    0    0    0 -0.00000000000E+00 -0.00000000000E+00 -0.45593999997E+02  0.45594000000E+02  0.51100000000E-03 0.  1.
         23    2    1    2    0    0  0.00000000000E+00  0.17763568394E-14  0.00000000000E+00  0.91188000000E+02  0.91188000000E+02 0.  0.
    9900012    2    3    3    0    0  0.18759058799E+02 -0.87794371787E+01 -0.38139771042E+02  0.47787274898E+02  0.20000017572E+02 0.  0.
         12    1    3    3    0    0 -0.18759058799E+02  0.87794371787E+01  0.38139771042E+02  0.43400725102E+02  0.00000000000E+00 0. -1.
         11    1    4    4    0    0  0.98346546942E+01 -0.10118401674E+01 -0.21770237963E+02  0.23909987760E+02  0.51100000000E-03 0. -1.
        -11    1    4    4    0    0  0.84902730284E+01  0.96182877177E+00 -0.68270091995E+01  0.10936997099E+02  0.51100000000E-03 0.  1.
         12    1    4    4    0    0  0.43413107648E+00 -0.87294257830E+01 -0.95425238798E+01  0.12940290039E+02  0.00000000000E+00 0. -1.
</event>
<event>
 8    1  0.3776180E-010  0.9118800E+02  0.7816164E-02  0.1184000E+00
        -11   -1    0    0    0    0  0.00000000000E+00  0.00000000000E+00  0.45593999997E+02  0.45594000000E+02  0.51100000000E-03 0. -1.
         11   -1    0    0    0    0 -0.00000000000E+00 -0.00000000000E+00 -0.45593999997E+02  0.45594000000E+02  0.51100000000E-03 0.  1.
         23    2    1    2    0    0  0.35527136788E-14  0.17763568394E-14  0.00000000000E+00  0.91188000000E+02  0.91188000000E+02 0.  0.
    9900012    2    3    3    0    0  0.23530371344E+02  0.14177311154E+02  0.33599836330E+02  0.47787268111E+02  0.19999986625E+02 0.  0.
        -12    1    3    3    0    0 -0.23530371344E+02 -0.14177311154E+02 -0.33599836330E+02  0.43400731889E+02  0.00000000000E+00 0.  1.
         11    1    4    4    0    0  0.47730545205E+01  0.12005990219E+01  0.11379220334E+02  0.12397989480E+02  0.51100000000E-03 0.  1.
        -11    1    4    4    0    0  0.13442296127E+01  0.97105088440E+01  0.86230116950E+01  0.13055928393E+02  0.51100000000E-03 0. -1.
        -12    1    4    4    0    0  0.17413087211E+02  0.32662032881E+01  0.13597604300E+02  0.22333350238E+02  0.00000000000E+00 0.  1.
</event>
<event>
 8    1  0.3776180E-010  0.9118800E+02  0.7816164E-02  0.1184000E+00
        -11   -1    0    0    0    0  0.00000000000E+00  0.00000000000E+00  0.45593999997E+02  0.45594000000E+02  0.51100000000E-03 0.  1.
         11   -1    0    0    0    0 -0.00000000000E+00 -0.00000000000E+00 -0.45593999997E+02  0.45594000000E+02  0.51100000000E-03 0. -1.
         23    2    1    2    0    0  0.00000000000E+00  0.00000000000E+00 -0.17763568394E-14  0.91188000000E+02  0.91188000000E+02 0.  0.
    9900012    2    3    3    0    0 -0.16002438866E+02 -0.39953735468E+02 -0.55897223107E+01  0.47787262414E+02  0.19999960651E+02 0.  0.
         12    1    3    3    0    0  0.16002438866E+02  0.39953735468E+02  0.55897223107E+01  0.43400737586E+02  0.00000000000E+00 0. -1.
         11    1    4    4    0    0  0.24767777181E+00 -0.40191712048E+01 -0.26093806050E+01  0.47983277144E+01  0.51100000000E-03 0. -1.
        -11    1    4    4    0    0 -0.12444556863E+02 -0.21285224450E+02 -0.96129786294E+01  0.26463883574E+02  0.51100000000E-03 0.  1.
         12    1    4    4    0    0 -0.38055597745E+01 -0.14649339813E+02  0.66326369237E+01  0.16525051126E+02  0.00000000000E+00 0. -1.
</event>
<event>
 8    1  0.3776180E-010  0.9118800E+02  0.7816164E-02  0.1184000E+00
        -11   -1    0    0    0    0  0.00000000000E+00  0.00000000000E+00  0.45593999997E+02  0.45594000000E+02  0.51100000000E-03 0. -1.
         11   -1    0    0    0    0 -0.00000000000E+00 -0.00000000000E+00 -0.45593999997E+02  0.45594000000E+02  0.51100000000E-03 0.  1.
         23    2    1    2    0    0  0.00000000000E+00  0.00000000000E+00  0.00000000000E+00  0.91188000000E+02  0.91188000000E+02 0.  0.
    9900012    2    3    3    0    0  0.25502419855E+02  0.23857493160E+02 -0.25769563254E+02  0.47787265114E+02  0.19999972960E+02 0.  0.
         12    1    3    3    0    0 -0.25502419855E+02 -0.23857493160E+02  0.25769563254E+02  0.43400734886E+02  0.00000000000E+00 0. -1.
         11    1    4    4    0    0  0.18885522904E+01 -0.94934547052E+00  0.73671531668E+00  0.22384450619E+01  0.51100000000E-03 0. -1.
        -11    1    4    4    0    0  0.52569967738E+01  0.27024797697E+01  0.73326990884E+00  0.59562653573E+01  0.51100000000E-03 0.  1.
        -12    1    4    4    0    0  0.18356870791E+02  0.22104358861E+02 -0.27239548479E+02  0.39592554695E+02  0.00000000000E+00 0.  1.
</event>
<event>
 8    1  0.3776180E-010  0.9118800E+02  0.7816164E-02  0.1184000E+00
        -11   -1    0    0    0    0  0.00000000000E+00  0.00000000000E+00  0.45593999997E+02  0.45594000000E+02  0.51100000000E-03 0.  1.
         11   -1    0    0    0    0 -0.00000000000E+00 -0.00000000000E+00 -0.45593999997E+02  0.45594000000E+02  0.51100000000E-03 0. -1.
         23    2    1    2    0    0  0.00000000000E+00 -0.17763568394E-14  0.17763568394E-14  0.91188000000E+02  0.91188000000E+02 0.  0.
    9900012    2    3    3    0    0 -0.38050603092E+02 -0.15598663484E+02  0.13872876667E+02  0.47787269532E+02  0.19999993103E+02 0.  0.
         12    1    3    3    0    0  0.38050603092E+02  0.15598663484E+02 -0.13872876667E+02  0.43400730468E+02  0.00000000000E+00 0. -1.
         11    1    4    4    0    0 -0.23010942890E+01 -0.64643951823E+01  0.32386558908E+01  0.75876433917E+01  0.51100000000E-03 0. -1.
        -11    1    4    4    0    0 -0.18678556171E+02 -0.96359643037E+01  0.95539038814E+01  0.23087168478E+02  0.51100000000E-03 0.  1.
        -12    1    4    4    0    0 -0.17070952632E+02  0.50169600188E+00  0.10803168951E+01  0.17112457662E+02  0.00000000000E+00 0.  1.
</event>
<event>
 8    1  0.3776180E-010  0.9118800E+02  0.7816164E-02  0.1184000E+00
        -11   -1    0    0    0    0  0.00000000000E+00  0.00000000000E+00  0.45593999997E+02  0.45594000000E+02  0.51100000000E-03 0. -1.
         11   -1    0    0    0    0 -0.00000000000E+00 -0.00000000000E+00 -0.45593999997E+02  0.45594000000E+02  0.51100000000E-03 0.  1.
         23    2    1    2    0    0  0.00000000000E+00  0.00000000000E+00  0.35527136788E-14  0.91188000000E+02  0.91188000000E+02 0.  0.
    9900012    2    3    3    0    0 -0.64415343937E+01  0.34788523743E+02 -0.25137400902E+02  0.47787266439E+02  0.19999979001E+02 0.  0.
         12    1    3    3    0    0  0.64415343937E+01 -0.34788523743E+02  0.25137400902E+02  0.43400733561E+02  0.00000000000E+00 0. -1.
         11    1    4    4    0    0 -0.62212781184E+01  0.11590078146E+02 -0.31147083339E+01  0.13517974002E+02  0.51100000000E-03 0. -1.
        -11    1    4    4    0    0 -0.81042409725E+00  0.77206572622E+01 -0.53569658294E+00  0.77815362795E+01  0.51100000000E-03 0.  1.
         12    1    4    4    0    0  0.59016782197E+00  0.15477788335E+02 -0.21486995985E+02  0.26487756157E+02  0.00000000000E+00 0. -1.
</event>
<event>
 8    1  0.3776180E-010  0.9118800E+02  0.7816164E-02  0.1184000E+00
        -11   -1    0    0    0    0  0.00000000000E+00  0.00000000000E+00  0.45593999997E+02  0.45594000000E+02  0.51100000000E-03 0. -1.
         11   -1    0    0    0    0 -0.00000000000E+00 -0.00000000000E+00 -0.45593999997E+02  0.45594000000E+02  0.51100000000E-03 0.  1.
         23    2    1    2    0    0  0.00000000000E+00 -0.44408920985E-15  0.00000000000E+00  0.91188000000E+02  0.91188000000E+02 0.  0.
    9900012    2    3    3    0    0  0.25982672649E+02 -0.39022417828E+01  0.34544127439E+02  0.47787268331E+02  0.19999987627E+02 0.  0.
        -12    1    3    3    0    0 -0.25982672649E+02  0.39022417828E+01 -0.34544127439E+02  0.43400731669E+02  0.00000000000E+00 0.  1.
         11    1    4    4    0    0  0.10915338004E+02  0.26086055708E+01  0.17906384995E+02  0.21132629998E+02  0.51100000000E-03 0.  1.
        -11    1    4    4    0    0  0.12194539177E+02  0.95970043048E+00  0.13040134408E+02  0.17879399216E+02  0.51100000000E-03 0. -1.
        -12    1    4    4    0    0  0.28727954682E+01 -0.74705477841E+01  0.35976080351E+01  0.87752391176E+01  0.00000000000E+00 0.  1.
</event>
<event>
 8    1  0.3776180E-010  0.9118800E+02  0.7816164E-02  0.1184000E+00
        -11   -1    0    0    0    0  0.00000000000E+00  0.00000000000E+00  0.45593999997E+02  0.45594000000E+02  0.51100000000E-03 0. -1.
         11   -1    0    0    0    0 -0.00000000000E+00 -0.00000000000E+00 -0.45593999997E+02  0.45594000000E+02  0.51100000000E-03 0.  1.
         23    2    1    2    0    0 -0.16653345369E-15 -0.35527136788E-14  0.00000000000E+00  0.91188000000E+02  0.91188000000E+02 0.  0.
    9900012    2    3    3    0    0  0.14133480647E+00  0.24450160194E+02  0.35857912893E+02  0.47787306157E+02  0.20000160092E+02 0.  0.
        -12    1    3    3    0    0 -0.14133480647E+00 -0.24450160194E+02 -0.35857912893E+02  0.43400693843E+02  0.00000000000E+00 0.  1.
         11    1    4    4    0    0 -0.22159146868E+01  0.44375888392E+01  0.57112592660E+01  0.75644534019E+01  0.51100000000E-03 0. -1.
        -11    1    4    4    0    0  0.78241133699E+01  0.12478230368E+02  0.93701759877E+01  0.17456322105E+02  0.51100000000E-03 0.  1.
        -12    1    4    4    0    0 -0.54668638767E+01  0.75343409866E+01  0.20776477639E+02  0.22766530650E+02  0.00000000000E+00 0.  1.
</event>
<event>
 8    1  0.3776180E-010  0.9118800E+02  0.7816164E-02  0.1184000E+00
        -11   -1    0    0    0    0  0.00000000000E+00  0.00000000000E+00  0.45593999997E+02  0.45594000000E+02  0.51100000000E-03 0. -1.
         11   -1    0    0    0    0 -0.00000000000E+00 -0.00000000000E+00 -0.45593999997E+02  0.45594000000E+02  0.51100000000E-03 0.  1.
         23    2    1    2    0    0  0.00000000000E+00  0.00000000000E+00  0.00000000000E+00  0.91188000000E+02  0.91188000000E+02 0.  0.
    9900012    2    3    3    0    0 -0.19761359900E+02 -0.18241395366E+02 -0.34064108936E+02  0.47787269965E+02  0.19999995079E+02 0.  0.
         12    1    3    3    0    0  0.19761359900E+02  0.18241395366E+02  0.34064108936E+02  0.43400730035E+02  0.00000000000E+00 0. -1.
         11    1    4    4    0    0 -0.98270317632E+01  0.16120031572E+00 -0.70516715062E+01  0.12096388308E+02  0.51100000000E-03 0. -1.
        -11    1    4    4    0    0 -0.10568486493E+02 -0.92210154140E+01 -0.14685703000E+02  0.20307385476E+02  0.51100000000E-03 0.  1.
         12    1    4    4    0    0  0.63415835654E+00 -0.91815802673E+01 -0.12326734430E+02  0.15383496180E+02  0.00000000000E+00 0. -1.
</event>
<event>
 8    1  0.3776180E-010  0.9118800E+02  0.7816164E-02  0.1184000E+00
        -11   -1    0    0    0    0  0.00000000000E+00  0.00000000000E+00  0.45593999997E+02  0.45594000000E+02  0.51100000000E-03 0.  1.
         11   -1    0    0    0    0 -0.00000000000E+00 -0.00000000000E+00 -0.45593999997E+02  0.45594000000E+02  0.51100000000E-03 0. -1.
         23    2    1    2    0    0  0.00000000000E+00  0.00000000000E+00  0.00000000000E+00  0.91188000000E+02  0.91188000000E+02 0.  0.
    9900012    2    3    3    0    0  0.34325281802E+02  0.25734711356E+02  0.65668089029E+01  0.47787270530E+02  0.19999997653E+02 0.  0.
        -12    1    3    3    0    0 -0.34325281802E+02 -0.25734711356E+02 -0.65668089029E+01  0.43400729470E+02  0.00000000000E+00 0.  1.
         11    1    4    4    0    0  0.83825625969E+00  0.23027566050E+01  0.15680287913E+00  0.24555954355E+01  0.51100000000E-03 0. -1.
        -11    1    4    4    0    0  0.11802037190E+02  0.19306872833E+02  0.12507933896E+01  0.22662919159E+02  0.51100000000E-03 0.  1.
         12    1    4    4    0    0  0.21684988352E+02  0.41250819184E+01  0.51592126342E+01  0.22668755936E+02  0.00000000000E+00 0. -1.
</event>
<event>
 8    1  0.3776180E-010  0.9118800E+02  0.7816164E-02  0.1184000E+00
        -11   -1    0    0    0    0  0.00000000000E+00  0.00000000000E+00  0.45593999997E+02  0.45594000000E+02  0.51100000000E-03 0.  1.
         11   -1    0    0    0    0 -0.00000000000E+00 -0.00000000000E+00 -0.45593999997E+02  0.45594000000E+02  0.51100000000E-03 0. -1.
         23    2    1    2    0    0  0.00000000000E+00 -0.88817841970E-15 -0.77715611724E-15  0.91188000000E+02  0.91188000000E+02 0.  0.
    9900012    2    3    3    0    0 -0.43057263535E+02 -0.54116398973E+01 -0.64427837649E+00  0.47787206411E+02  0.19999705308E+02 0.  0.
         12    1    3    3    0    0  0.43057263535E+02  0.54116398973E+01  0.64427837649E+00  0.43400793589E+02  0.00000000000E+00 0. -1.
         11    1    4    4    0    0 -0.61417920775E+01 -0.16959958193E+01  0.56284390472E+01  0.85016079722E+01  0.51100000000E-03 0. -1.
        -11    1    4    4    0    0 -0.11353531174E+02  0.54379140874E+00  0.30107874816E+01  0.11758538206E+02  0.51100000000E-03 0.  1.
        -12    1    4    4    0    0 -0.25561940284E+02 -0.42594354868E+01 -0.92835049053E+01  0.27527060233E+02  0.00000000000E+00 0.  1.
</event>
<event>
 8    1  0.3776180E-010  0.9118800E+02  0.7816164E-02  0.1184000E+00
        -11   -1    0    0    0    0  0.00000000000E+00  0.00000000000E+00  0.45593999997E+02  0.45594000000E+02  0.51100000000E-03 0. -1.
         11   -1    0    0    0    0 -0.00000000000E+00 -0.00000000000E+00 -0.45593999997E+02  0.45594000000E+02  0.51100000000E-03 0.  1.
         23    2    1    2    0    0  0.00000000000E+00  0.00000000000E+00  0.00000000000E+00  0.91188000000E+02  0.91188000000E+02 0.  0.
    9900012    2    3    3    0    0  0.66499766917E+01 -0.16645288835E+02 -0.39526389224E+02  0.47787271026E+02  0.19999999917E+02 0.  0.
         12    1    3    3    0    0 -0.66499766917E+01  0.16645288835E+02  0.39526389224E+02  0.43400728974E+02  0.00000000000E+00 0. -1.
         11    1    4    4    0    0 -0.15583895566E+01  0.31436977760E+01 -0.53284229884E+01  0.63799298994E+01  0.51100000000E-03 0. -1.
        -11    1    4    4    0    0  0.58775244868E+01 -0.37636456380E+01 -0.12714700039E+02  0.14504272472E+02  0.51100000000E-03 0.  1.
        -12    1    4    4    0    0  0.23308417615E+01 -0.16025340973E+02 -0.21483266196E+02  0.26903068655E+02  0.00000000000E+00 0.  1.
</event>
<event>
 8    1  0.3776180E-010  0.9118800E+02  0.7816164E-02  0.1184000E+00
        -11   -1    0    0    0    0  0.00000000000E+00  0.00000000000E+00  0.45593999997E+02  0.45594000000E+02  0.51100000000E-03 0. -1.
         11   -1    0    0    0    0 -0.00000000000E+00 -0.00000000000E+00 -0.45593999997E+02  0.45594000000E+02  0.51100000000E-03 0.  1.
         23    2    1    2    0    0  0.00000000000E+00 -0.66613381478E-15  0.00000000000E+00  0.91188000000E+02  0.91188000000E+02 0.  0.
    9900012    2    3    3    0    0  0.25781718525E+02  0.14771702280E+01 -0.34881862269E+02  0.47787270083E+02  0.19999995617E+02 0.  0.
         12    1    3    3    0    0 -0.25781718525E+02 -0.14771702280E+01  0.34881862269E+02  0.43400729917E+02  0.00000000000E+00 0. -1.
         11    1    4    4    0    0  0.54639055536E+01 -0.14680067030E+01 -0.12040075654E+02  0.13303109772E+02  0.51100000000E-03 0. -1.
        -11    1    4    4    0    0  0.71327472285E+01 -0.61976877294E+01 -0.11240000628E+02  0.14684176197E+02  0.51100000000E-03 0.  1.
         12    1    4    4    0    0  0.13185065743E+02  0.91428646604E+01 -0.11601785987E+02  0.19799984114E+02  0.00000000000E+00 0. -1.
</event>
<event>
 8    1  0.3776180E-010  0.9118800E+02  0.7816164E-02  0.1184000E+00
        -11   -1    0    0    0    0  0.00000000000E+00  0.00000000000E+00  0.45593999997E+02  0.45594000000E+02  0.51100000000E-03 0. -1.
         11   -1    0    0    0    0 -0.00000000000E+00 -0.00000000000E+00 -0.45593999997E+02  0.45594000000E+02  0.51100000000E-03 0.  1.
         23    2    1    2    0    0  0.00000000000E+00 -0.35527136788E-14  0.00000000000E+00  0.91188000000E+02  0.91188000000E+02 0.  0.
    9900012    2    3    3    0    0 -0.38160661568E+02  0.17310409361E+02  0.11302079113E+02  0.47787270101E+02  0.19999995697E+02 0.  0.
        -12    1    3    3    0    0  0.38160661568E+02 -0.17310409361E+02 -0.11302079113E+02  0.43400729899E+02  0.00000000000E+00 0.  1.
         11    1    4    4    0    0 -0.14786382954E+02  0.85072717197E+01  0.47740768269E+00  0.17065717428E+02  0.51100000000E-03 0. -1.
        -11    1    4    4    0    0 -0.12826360128E+02  0.11892159285E+02  0.45813083331E+01  0.18081132511E+02  0.51100000000E-03 0.  1.
        -12    1    4    4    0    0 -0.10547918486E+02 -0.30890216438E+01  0.62433630970E+01  0.12640420162E+02  0.00000000000E+00 0.  1.
</event>
<event>
 8    1  0.3776180E-010  0.9118800E+02  0.7816164E-02  0.1184000E+00
        -11   -1    0    0    0    0  0.00000000000E+00  0.00000000000E+00  0.45593999997E+02  0.45594000000E+02  0.51100000000E-03 0. -1.
         11   -1    0    0    0    0 -0.00000000000E+00 -0.00000000000E+00 -0.45593999997E+02  0.45594000000E+02  0.51100000000E-03 0.  1.
         23    2    1    2    0    0  0.00000000000E+00  0.00000000000E+00  0.00000000000E+00  0.91188000000E+02  0.91188000000E+02 0.  0.
    9900012    2    3    3    0    0  0.24904482367E+02 -0.85864366990E+01 -0.34491500578E+02  0.47787265568E+02  0.19999975029E+02 0.  0.
         12    1    3    3    0    0 -0.24904482367E+02  0.85864366990E+01  0.34491500578E+02  0.43400734432E+02  0.00000000000E+00 0. -1.
         11    1    4    4    0    0 -0.95599147810E-01 -0.19333822685E+01  0.88093135620E+00  0.21267690304E+01  0.51100000000E-03 0. -1.
        -11    1    4    4    0    0  0.22899587479E+02 -0.14047520121E+01 -0.25645091501E+02  0.34409811875E+02  0.51100000000E-03 0.  1.
         12    1    4    4    0    0  0.21004940361E+01 -0.52483024183E+01 -0.97273404326E+01  0.11250684662E+02  0.00000000000E+00 0. -1.
</event>
<event>
 8    1  0.3776180E-010  0.9118800E+02  0.7816164E-02  0.1184000E+00
        -11   -1    0    0    0    0  0.00000000000E+00  0.00000000000E+00  0.45593999997E+02  0.45594000000E+02  0.51100000000E-03 0. -1.
         11   -1    0    0    0    0 -0.00000000000E+00 -0.00000000000E+00 -0.45593999997E+02  0.45594000000E+02  0.51100000000E-03 0.  1.
         23    2    1    2    0    0  0.35527136788E-14 -0.22204460493E-15  0.00000000000E+00  0.91188000000E+02  0.91188000000E+02 0.  0.
    9900012    2    3    3    0    0 -0.31112785050E+02  0.60364031864E+00  0.30253156548E+02  0.47787271246E+02  0.20000000920E+02 0.  0.
        -12    1    3    3    0    0  0.31112785050E+02 -0.60364031864E+00 -0.30253156548E+02  0.43400728754E+02  0.00000000000E+00 0.  1.
         11    1    4    4    0    0 -0.89259523504E+00 -0.21398672794E+01 -0.11511417945E+01  0.25886069457E+01  0.51100000000E-03 0. -1.
        -11    1    4    4    0    0 -0.17602824404E+02 -0.41217266253E+01  0.16088750682E+02  0.24201156091E+02  0.51100000000E-03 0.  1.
        -12    1    4    4    0    0 -0.12617365411E+02  0.68652342233E+01  0.15315547661E+02  0.20997508210E+02  0.00000000000E+00 0.  1.
</event>
<event>
 8    1  0.3776180E-010  0.9118800E+02  0.7816164E-02  0.1184000E+00
        -11   -1    0    0    0    0  0.00000000000E+00  0.00000000000E+00  0.45593999997E+02  0.45594000000E+02  0.51100000000E-03 0. -1.
         11   -1    0    0    0    0 -0.00000000000E+00 -0.00000000000E+00 -0.45593999997E+02  0.45594000000E+02  0.51100000000E-03 0.  1.
         23    2    1    2    0    0  0.35527136788E-14  0.35527136788E-14 -0.35527136788E-14  0.91188000000E+02  0.91188000000E+02 0.  0.
    9900012    2    3    3    0    0 -0.20443550590E+02 -0.28366551080E+02 -0.25710376217E+02  0.47787269290E+02  0.19999992002E+02 0.  0.
         12    1    3    3    0    0  0.20443550590E+02  0.28366551080E+02  0.25710376217E+02  0.43400730710E+02  0.00000000000E+00 0. -1.
         11    1    4    4    0    0 -0.11003817155E+02 -0.54198133125E+01 -0.37880237448E+01  0.12837737047E+02  0.51100000000E-03 0.  1.
        -11    1    4    4    0    0 -0.57213716268E+00 -0.79970278581E+00  0.13179366838E+01  0.16443305149E+01  0.51100000000E-03 0. -1.
        -12    1    4    4    0    0 -0.88675962723E+01 -0.22147034982E+02 -0.23240289156E+02  0.33305201729E+02  0.00000000000E+00 0.  1.
</event>
<event>
 8    1  0.3776180E-010  0.9118800E+02  0.7816164E-02  0.1184000E+00
        -11   -1    0    0    0    0  0.00000000000E+00  0.00000000000E+00  0.45593999997E+02  0.45594000000E+02  0.51100000000E-03 0. -1.
         11   -1    0    0    0    0 -0.00000000000E+00 -0.00000000000E+00 -0.45593999997E+02  0.45594000000E+02  0.51100000000E-03 0.  1.
         23    2    1    2    0    0  0.13322676296E-14  0.00000000000E+00  0.00000000000E+00  0.91188000000E+02  0.91188000000E+02 0.  0.
    9900012    2    3    3    0    0 -0.12028757770E+01 -0.36342091820E+02 -0.23694476860E+02  0.47787276716E+02  0.20000025857E+02 0.  0.
         12    1    3    3    0    0  0.12028757770E+01  0.36342091820E+02  0.23694476860E+02  0.43400723284E+02  0.00000000000E+00 0. -1.
         11    1    4    4    0    0 -0.14124075381E+01 -0.16023227716E+01  0.77051308932E+00  0.22706880015E+01  0.51100000000E-03 0. -1.
        -11    1    4    4    0    0 -0.44592037150E+01 -0.16909081691E+01 -0.14893933793E+01  0.49961946627E+01  0.51100000000E-03 0.  1.
        -12    1    4    4    0    0  0.46687354761E+01 -0.33048860879E+02 -0.22975596570E+02  0.40520394051E+02  0.00000000000E+00 0.  1.
</event>
<event>
 8    1  0.3776180E-010  0.9118800E+02  0.7816164E-02  0.1184000E+00
        -11   -1    0    0    0    0  0.00000000000E+00  0.00000000000E+00  0.45593999997E+02  0.45594000000E+02  0.51100000000E-03 0. -1.
         11   -1    0    0    0    0 -0.00000000000E+00 -0.00000000000E+00 -0.45593999997E+02  0.45594000000E+02  0.51100000000E-03 0.  1.
         23    2    1    2    0    0 -0.35527136788E-14  0.00000000000E+00  0.00000000000E+00  0.91188000000E+02  0.91188000000E+02 0.  0.
    9900012    2    3    3    0    0  0.27064228176E+02 -0.27054819005E+02  0.20474074065E+02  0.47787269741E+02  0.19999994057E+02 0.  0.
        -12    1    3    3    0    0 -0.27064228176E+02  0.27054819005E+02 -0.20474074065E+02  0.43400730259E+02  0.00000000000E+00 0.  1.
         11    1    4    4    0    0  0.19154080945E+02 -0.26099452614E+02  0.16283180055E+02  0.36238131803E+02  0.51100000000E-03 0. -1.
        -11    1    4    4    0    0 -0.97421309020E+00  0.74625778735E+00  0.18246218663E+01  0.21989172441E+01  0.51100000000E-03 0.  1.
         12    1    4    4    0    0  0.88843603217E+01 -0.17016241786E+01  0.23662721442E+01  0.93502206943E+01  0.00000000000E+00 0. -1.
</event>
<event>
 8    1  0.3776180E-010  0.9118800E+02  0.7816164E-02  0.1184000E+00
        -11   -1    0    0    0    0  0.00000000000E+00  0.00000000000E+00  0.45593999997E+02  0.45594000000E+02  0.51100000000E-03 0. -1.
         11   -1    0    0    0    0 -0.00000000000E+00 -0.00000000000E+00 -0.45593999997E+02  0.45594000000E+02  0.51100000000E-03 0.  1.
         23    2    1    2    0    0  0.88817841970E-15  0.00000000000E+00 -0.71054273576E-14  0.91188000000E+02  0.91188000000E+02 0.  0.
    9900012    2    3    3    0    0  0.53490543236E+01 -0.93030190266E+01 -0.42053115654E+02  0.47787273262E+02  0.20000010111E+02 0.  0.
         12    1    3    3    0    0 -0.53490543236E+01  0.93030190266E+01  0.42053115654E+02  0.43400726738E+02  0.00000000000E+00 0. -1.
         11    1    4    4    0    0 -0.12239761014E+01 -0.26591225135E+01 -0.18980866911E+00  0.29334412608E+01  0.51100000000E-03 0. -1.
        -11    1    4    4    0    0 -0.82357086352E+00 -0.67257312568E+01 -0.95813894548E+01  0.11735278184E+02  0.51100000000E-03 0.  1.
        -12    1    4    4    0    0  0.73966012886E+01  0.81834743598E-01 -0.32281917530E+02  0.33118553818E+02  0.00000000000E+00 0.  1.
</event>
<event>
 8    1  0.3909445E-010  0.9118800E+02  0.7816164E-02  0.1184000E+00
        -11   -1    0    0    0    0  0.00000000000E+00  0.00000000000E+00  0.45593999997E+02  0.45594000000E+02  0.51100000000E-03 0. -1.
         11   -1    0    0    0    0 -0.00000000000E+00 -0.00000000000E+00 -0.45593999997E+02  0.45594000000E+02  0.51100000000E-03 0.  1.
         23    2    1    2    0    0  0.17763568394E-14 -0.88817841970E-15  0.71054273576E-14  0.91188000000E+02  0.91188000000E+02 0.  0.
    9900012    2    3    3    0    0  0.14396034485E+02 -0.65030171967E+01  0.40423859255E+02  0.47787269147E+02  0.19999991348E+02 0.  0.
        -12    1    3    3    0    0 -0.14396034485E+02  0.65030171967E+01 -0.40423859255E+02  0.43400730853E+02  0.00000000000E+00 0.  1.
         11    1    4    4    0    0  0.61503970667E+01 -0.18378777778E+01  0.84631489242E+01  0.10622149913E+02  0.51100000000E-03 0. -1.
        -11    1    4    4    0    0  0.12746558525E+01  0.32075411379E+01  0.23266056054E+02  0.23520680948E+02  0.51100000000E-03 0.  1.
        -12    1    4    4    0    0  0.69709815656E+01 -0.78726805569E+01  0.86946542761E+01  0.13644438285E+02  0.00000000000E+00 0.  1.
</event>
<event>
 8    1  0.3776180E-010  0.9118800E+02  0.7816164E-02  0.1184000E+00
        -11   -1    0    0    0    0  0.00000000000E+00  0.00000000000E+00  0.45593999997E+02  0.45594000000E+02  0.51100000000E-03 0. -1.
         11   -1    0    0    0    0 -0.00000000000E+00 -0.00000000000E+00 -0.45593999997E+02  0.45594000000E+02  0.51100000000E-03 0.  1.
         23    2    1    2    0    0  0.00000000000E+00  0.00000000000E+00  0.00000000000E+00  0.91188000000E+02  0.91188000000E+02 0.  0.
    9900012    2    3    3    0    0  0.11941636292E+02  0.19483964069E+02 -0.36897097116E+02  0.47787270642E+02  0.19999998166E+02 0.  0.
         12    1    3    3    0    0 -0.11941636292E+02 -0.19483964069E+02  0.36897097116E+02  0.43400729358E+02  0.00000000000E+00 0. -1.
         11    1    4    4    0    0  0.18213439573E+01  0.34642632022E+01 -0.41465517820E+01  0.57019562684E+01  0.51100000000E-03 0. -1.
        -11    1    4    4    0    0  0.15565372566E+02  0.12235658639E+02 -0.24377898630E+02  0.31405001311E+02  0.51100000000E-03 0.  1.
         12    1    4    4    0    0 -0.54450802306E+01  0.37840422274E+01 -0.83726467041E+01  0.10680313063E+02  0.00000000000E+00 0. -1.
</event>
<event>
 8    1  0.3776180E-010  0.9118800E+02  0.7816164E-02  0.1184000E+00
        -11   -1    0    0    0    0  0.00000000000E+00  0.00000000000E+00  0.45593999997E+02  0.45594000000E+02  0.51100000000E-03 0. -1.
         11   -1    0    0    0    0 -0.00000000000E+00 -0.00000000000E+00 -0.45593999997E+02  0.45594000000E+02  0.51100000000E-03 0.  1.
         23    2    1    2    0    0  0.00000000000E+00  0.00000000000E+00  0.71054273576E-14  0.91188000000E+02  0.91188000000E+02 0.  0.
    9900012    2    3    3    0    0  0.10684581176E+02 -0.24769144901E+02 -0.33999301419E+02  0.47787270617E+02  0.19999998051E+02 0.  0.
         12    1    3    3    0    0 -0.10684581176E+02  0.24769144901E+02  0.33999301419E+02  0.43400729383E+02  0.00000000000E+00 0. -1.
         11    1    4    4    0    0 -0.12867010652E+01 -0.43298897611E+01 -0.18952628749E+01  0.48985269827E+01  0.51100000000E-03 0. -1.
        -11    1    4    4    0    0  0.25582503199E+01 -0.18184267393E+01 -0.16600238094E+02  0.16894354842E+02  0.51100000000E-03 0.  1.
         12    1    4    4    0    0  0.94130319213E+01 -0.18620828401E+02 -0.15503800450E+02  0.25994388792E+02  0.00000000000E+00 0. -1.
</event>
<event>
 8    1  0.3776180E-010  0.9118800E+02  0.7816164E-02  0.1184000E+00
        -11   -1    0    0    0    0  0.00000000000E+00  0.00000000000E+00  0.45593999997E+02  0.45594000000E+02  0.51100000000E-03 0. -1.
         11   -1    0    0    0    0 -0.00000000000E+00 -0.00000000000E+00 -0.45593999997E+02  0.45594000000E+02  0.51100000000E-03 0.  1.
         23    2    1    2    0    0  0.44408920985E-15  0.00000000000E+00 -0.71054273576E-14  0.91188000000E+02  0.91188000000E+02 0.  0.
    9900012    2    3    3    0    0 -0.31375415860E+01  0.28365293462E+02 -0.32698459796E+02  0.47787270589E+02  0.19999997924E+02 0.  0.
         12    1    3    3    0    0  0.31375415860E+01 -0.28365293462E+02  0.32698459796E+02  0.43400729411E+02  0.00000000000E+00 0. -1.
         11    1    4    4    0    0 -0.43380027898E+01  0.66966564485E+01 -0.15522394600E+02  0.17453028682E+02  0.51100000000E-03 0. -1.
        -11    1    4    4    0    0  0.13103360046E+01  0.11116784316E+02 -0.16262205547E+02  0.19742320114E+02  0.51100000000E-03 0.  1.
        -12    1    4    4    0    0 -0.10987480084E+00  0.10551852697E+02 -0.91385964885E+00  0.10591921793E+02  0.00000000000E+00 0.  1.
</event>
<event>
 8    1  0.3776180E-010  0.9118800E+02  0.7816164E-02  0.1184000E+00
        -11   -1    0    0    0    0  0.00000000000E+00  0.00000000000E+00  0.45593999997E+02  0.45594000000E+02  0.51100000000E-03 0. -1.
         11   -1    0    0    0    0 -0.00000000000E+00 -0.00000000000E+00 -0.45593999997E+02  0.45594000000E+02  0.51100000000E-03 0.  1.
         23    2    1    2    0    0  0.00000000000E+00  0.00000000000E+00  0.00000000000E+00  0.91188000000E+02  0.91188000000E+02 0.  0.
    9900012    2    3    3    0    0 -0.64201230597E+01  0.29754191975E+02 -0.30936924256E+02  0.47787271866E+02  0.20000003744E+02 0.  0.
         12    1    3    3    0    0  0.64201230597E+01 -0.29754191975E+02  0.30936924256E+02  0.43400728134E+02  0.00000000000E+00 0. -1.
         11    1    4    4    0    0 -0.24814080962E+01  0.39319920973E+01  0.57492883855E+00  0.46849217094E+01  0.51100000000E-03 0. -1.
        -11    1    4    4    0    0 -0.24964084082E+01  0.27230784850E+02 -0.28687792745E+02  0.39632526432E+02  0.51100000000E-03 0.  1.
         12    1    4    4    0    0 -0.14423065553E+01 -0.14085849725E+01 -0.28240603490E+01  0.34698237245E+01  0.00000000000E+00 0. -1.
</event>
<event>
 8    1  0.3776180E-010  0.9118800E+02  0.7816164E-02  0.1184000E+00
        -11   -1    0    0    0    0  0.00000000000E+00  0.00000000000E+00  0.45593999997E+02  0.45594000000E+02  0.51100000000E-03 0. -1.
         11   -1    0    0    0    0 -0.00000000000E+00 -0.00000000000E+00 -0.45593999997E+02  0.45594000000E+02  0.51100000000E-03 0.  1.
         23    2    1    2    0    0  0.00000000000E+00  0.88817841970E-15  0.00000000000E+00  0.91188000000E+02  0.91188000000E+02 0.  0.
    9900012    2    3    3    0    0 -0.19128037768E+02 -0.64131674843E+01 -0.38426722949E+02  0.47787267487E+02  0.19999983780E+02 0.  0.
         12    1    3    3    0    0  0.19128037768E+02  0.64131674843E+01  0.38426722949E+02  0.43400732513E+02  0.00000000000E+00 0. -1.
         11    1    4    4    0    0 -0.17907298694E+01  0.43500239290E+00 -0.14646458711E+02  0.14761933937E+02  0.51100000000E-03 0. -1.
        -11    1    4    4    0    0 -0.35527698916E+01 -0.83098090289E+01 -0.87602975687E+01  0.12586417828E+02  0.51100000000E-03 0.  1.
         12    1    4    4    0    0 -0.13784538008E+02  0.14616391517E+01 -0.15019966670E+02  0.20438915721E+02  0.00000000000E+00 0. -1.
</event>
<event>
 8    1  0.3776180E-010  0.9118800E+02  0.7816164E-02  0.1184000E+00
        -11   -1    0    0    0    0  0.00000000000E+00  0.00000000000E+00  0.45593999997E+02  0.45594000000E+02  0.51100000000E-03 0. -1.
         11   -1    0    0    0    0 -0.00000000000E+00 -0.00000000000E+00 -0.45593999997E+02  0.45594000000E+02  0.51100000000E-03 0.  1.
         23    2    1    2    0    0 -0.71054273576E-14  0.44408920985E-15 -0.35527136788E-14  0.91188000000E+02  0.91188000000E+02 0.  0.
    9900012    2    3    3    0    0 -0.37833268545E+02  0.48921945517E+00 -0.21260958621E+02  0.47787263763E+02  0.19999966801E+02 0.  0.
         12    1    3    3    0    0  0.37833268545E+02 -0.48921945517E+00  0.21260958621E+02  0.43400736237E+02  0.00000000000E+00 0. -1.
         11    1    4    4    0    0 -0.16036119976E+02  0.10268009587E+01 -0.41121055447E+01  0.16586768111E+02  0.51100000000E-03 0. -1.
        -11    1    4    4    0    0 -0.19632663213E+02 -0.54304636030E+01 -0.15517309756E+02  0.25606997132E+02  0.51100000000E-03 0.  1.
         12    1    4    4    0    0 -0.21644853557E+01  0.48928820995E+01 -0.16315433200E+01  0.55934985205E+01  0.00000000000E+00 0. -1.
</event>
<event>
 8    1  0.3776180E-010  0.9118800E+02  0.7816164E-02  0.1184000E+00
        -11   -1    0    0    0    0  0.00000000000E+00  0.00000000000E+00  0.45593999997E+02  0.45594000000E+02  0.51100000000E-03 0. -1.
         11   -1    0    0    0    0 -0.00000000000E+00 -0.00000000000E+00 -0.45593999997E+02  0.45594000000E+02  0.51100000000E-03 0.  1.
         23    2    1    2    0    0  0.00000000000E+00  0.00000000000E+00  0.00000000000E+00  0.91188000000E+02  0.91188000000E+02 0.  0.
    9900012    2    3    3    0    0  0.31176079411E+01 -0.30624043337E+02  0.30595281396E+02  0.47787277041E+02  0.20000027343E+02 0.  0.
        -12    1    3    3    0    0 -0.31176079411E+01  0.30624043337E+02 -0.30595281396E+02  0.43400722959E+02  0.00000000000E+00 0.  1.
         11    1    4    4    0    0 -0.29101248005E+01 -0.23517884185E+02  0.17954535221E+02  0.29730876848E+02  0.51100000000E-03 0. -1.
        -11    1    4    4    0    0  0.93417567405E+00 -0.49850779490E+01  0.11288542633E+02  0.12375576002E+02  0.51100000000E-03 0.  1.
        -12    1    4    4    0    0  0.50935570675E+01 -0.21210812035E+01  0.13522035422E+01  0.56808241912E+01  0.00000000000E+00 0.  1.
</event>
<event>
 8    1  0.3776180E-010  0.9118800E+02  0.7816164E-02  0.1184000E+00
        -11   -1    0    0    0    0  0.00000000000E+00  0.00000000000E+00  0.45593999997E+02  0.45594000000E+02  0.51100000000E-03 0. -1.
         11   -1    0    0    0    0 -0.00000000000E+00 -0.00000000000E+00 -0.45593999997E+02  0.45594000000E+02  0.51100000000E-03 0.  1.
         23    2    1    2    0    0  0.35527136788E-14  0.00000000000E+00  0.71054273576E-14  0.91188000000E+02  0.91188000000E+02 0.  0.
    9900012    2    3    3    0    0  0.17571695647E+02  0.15957217664E+02  0.36334914451E+02  0.47787270839E+02  0.19999999065E+02 0.  0.
        -12    1    3    3    0    0 -0.17571695647E+02 -0.15957217664E+02 -0.36334914451E+02  0.43400729161E+02  0.00000000000E+00 0.  1.
         11    1    4    4    0    0  0.15937528697E+02  0.19709695311E+02  0.24944378667E+02  0.35562605888E+02  0.51100000000E-03 0. -1.
        -11    1    4    4    0    0  0.83214433017E+00 -0.55206939746E+00  0.41398761371E+01  0.42586170874E+01  0.51100000000E-03 0.  1.
         12    1    4    4    0    0  0.80202261968E+00 -0.32004082493E+01  0.72506596474E+01  0.79660478638E+01  0.00000000000E+00 0. -1.
</event>
<event>
 8    1  0.3776180E-010  0.9118800E+02  0.7816164E-02  0.1184000E+00
        -11   -1    0    0    0    0  0.00000000000E+00  0.00000000000E+00  0.45593999997E+02  0.45594000000E+02  0.51100000000E-03 0. -1.
         11   -1    0    0    0    0 -0.00000000000E+00 -0.00000000000E+00 -0.45593999997E+02  0.45594000000E+02  0.51100000000E-03 0.  1.
         23    2    1    2    0    0  0.22204460493E-15 -0.35527136788E-14  0.35527136788E-14  0.91188000000E+02  0.91188000000E+02 0.  0.
    9900012    2    3    3    0    0 -0.11366180116E+01  0.29319623203E+02 -0.31979541501E+02  0.47787270975E+02  0.19999999685E+02 0.  0.
         12    1    3    3    0    0  0.11366180116E+01 -0.29319623203E+02  0.31979541501E+02  0.43400729025E+02  0.00000000000E+00 0. -1.
         11    1    4    4    0    0  0.10387631113E+01  0.13493897251E+02 -0.10261592419E+02  0.16984244789E+02  0.51100000000E-03 0. -1.
        -11    1    4    4    0    0  0.11484993715E+01  0.10843171978E+02 -0.32346380928E+01  0.11373491689E+02  0.51100000000E-03 0.  1.
         12    1    4    4    0    0 -0.33238804943E+01  0.49825539734E+01 -0.18483310989E+02  0.19429534497E+02  0.00000000000E+00 0. -1.
</event>
<event>
 8    1  0.3776180E-010  0.9118800E+02  0.7816164E-02  0.1184000E+00
        -11   -1    0    0    0    0  0.00000000000E+00  0.00000000000E+00  0.45593999997E+02  0.45594000000E+02  0.51100000000E-03 0. -1.
         11   -1    0    0    0    0 -0.00000000000E+00 -0.00000000000E+00 -0.45593999997E+02  0.45594000000E+02  0.51100000000E-03 0.  1.
         23    2    1    2    0    0 -0.88817841970E-15  0.00000000000E+00  0.71054273576E-14  0.91188000000E+02  0.91188000000E+02 0.  0.
    9900012    2    3    3    0    0  0.58430760932E+01 -0.23664656300E+02  0.35909128408E+02  0.47787274210E+02  0.20000014434E+02 0.  0.
        -12    1    3    3    0    0 -0.58430760932E+01  0.23664656300E+02 -0.35909128408E+02  0.43400725790E+02  0.00000000000E+00 0.  1.
         11    1    4    4    0    0 -0.90623924005E+00 -0.18049751157E+02  0.23233651451E+02  0.29434968089E+02  0.51100000000E-03 0. -1.
        -11    1    4    4    0    0  0.16303926831E+01 -0.49850718519E+01  0.12068804046E+02  0.13159223116E+02  0.51100000000E-03 0.  1.
        -12    1    4    4    0    0  0.51189226502E+01 -0.62983329119E+00  0.60667291132E+00  0.51930830048E+01  0.00000000000E+00 0.  1.
</event>
<event>
 8    1  0.3776180E-010  0.9118800E+02  0.7816164E-02  0.1184000E+00
        -11   -1    0    0    0    0  0.00000000000E+00  0.00000000000E+00  0.45593999997E+02  0.45594000000E+02  0.51100000000E-03 0. -1.
         11   -1    0    0    0    0 -0.00000000000E+00 -0.00000000000E+00 -0.45593999997E+02  0.45594000000E+02  0.51100000000E-03 0.  1.
         23    2    1    2    0    0 -0.35527136788E-14  0.00000000000E+00  0.00000000000E+00  0.91188000000E+02  0.91188000000E+02 0.  0.
    9900012    2    3    3    0    0 -0.15236575927E+02  0.24790106995E+02  0.32201248483E+02  0.47787273569E+02  0.20000011511E+02 0.  0.
        -12    1    3    3    0    0  0.15236575927E+02 -0.24790106995E+02 -0.32201248483E+02  0.43400726431E+02  0.00000000000E+00 0.  1.
         11    1    4    4    0    0 -0.10956392398E+02  0.12930657887E+02  0.24763537989E+02  0.30007953308E+02  0.51100000000E-03 0. -1.
        -11    1    4    4    0    0 -0.29172363492E+01 -0.10899445602E+01  0.17285887489E+01  0.35617785424E+01  0.51100000000E-03 0.  1.
         12    1    4    4    0    0 -0.13629471803E+01  0.12949393669E+02  0.57091217453E+01  0.14217541718E+02  0.00000000000E+00 0. -1.
</event>
<event>
 8    1  0.3776180E-010  0.9118800E+02  0.7816164E-02  0.1184000E+00
        -11   -1    0    0    0    0  0.00000000000E+00  0.00000000000E+00  0.45593999997E+02  0.45594000000E+02  0.51100000000E-03 0. -1.
         11   -1    0    0    0    0 -0.00000000000E+00 -0.00000000000E+00 -0.45593999997E+02  0.45594000000E+02  0.51100000000E-03 0.  1.
         23    2    1    2    0    0  0.00000000000E+00  0.00000000000E+00 -0.88817841970E-15  0.91188000000E+02  0.91188000000E+02 0.  0.
    9900012    2    3    3    0    0  0.40130733764E+02  0.14621018851E+02  0.77054021454E+01  0.47787271816E+02  0.20000003520E+02 0.  0.
        -12    1    3    3    0    0 -0.40130733764E+02 -0.14621018851E+02 -0.77054021454E+01  0.43400728184E+02  0.00000000000E+00 0.  1.
         11    1    4    4    0    0  0.37503338569E+00  0.10147410037E+01  0.16174501220E+01  0.19458916987E+01  0.51100000000E-03 0. -1.
        -11    1    4    4    0    0  0.39779824531E+02  0.14367172663E+02  0.86485747135E+01  0.43169988822E+02  0.51100000000E-03 0.  1.
        -12    1    4    4    0    0 -0.24124152862E-01 -0.76089481586E+00 -0.25606226901E+01  0.26713912960E+01  0.00000000000E+00 0.  1.
</event>
<event>
 8    1  0.3776180E-010  0.9118800E+02  0.7816164E-02  0.1184000E+00
        -11   -1    0    0    0    0  0.00000000000E+00  0.00000000000E+00  0.45593999997E+02  0.45594000000E+02  0.51100000000E-03 0. -1.
         11   -1    0    0    0    0 -0.00000000000E+00 -0.00000000000E+00 -0.45593999997E+02  0.45594000000E+02  0.51100000000E-03 0.  1.
         23    2    1    2    0    0  0.00000000000E+00  0.00000000000E+00  0.00000000000E+00  0.91188000000E+02  0.91188000000E+02 0.  0.
    9900012    2    3    3    0    0 -0.21563495416E+02 -0.20658050115E+02  0.31494186356E+02  0.47787272549E+02  0.20000006858E+02 0.  0.
        -12    1    3    3    0    0  0.21563495416E+02  0.20658050115E+02 -0.31494186356E+02  0.43400727451E+02  0.00000000000E+00 0.  1.
         11    1    4    4    0    0  0.15826092369E+01 -0.64536933727E+01  0.12378511187E+02  0.14049282887E+02  0.51100000000E-03 0. -1.
        -11    1    4    4    0    0 -0.32351940890E+01 -0.12045048089E+01  0.39616945501E+00  0.34748040415E+01  0.51100000000E-03 0.  1.
         12    1    4    4    0    0 -0.19910910564E+02 -0.12999851933E+02  0.18719505713E+02  0.30263185621E+02  0.00000000000E+00 0. -1.
</event>
<event>
 8    1  0.3776180E-010  0.9118800E+02  0.7816164E-02  0.1184000E+00
        -11   -1    0    0    0    0  0.00000000000E+00  0.00000000000E+00  0.45593999997E+02  0.45594000000E+02  0.51100000000E-03 0. -1.
         11   -1    0    0    0    0 -0.00000000000E+00 -0.00000000000E+00 -0.45593999997E+02  0.45594000000E+02  0.51100000000E-03 0.  1.
         23    2    1    2    0    0  0.00000000000E+00  0.17763568394E-14  0.00000000000E+00  0.91188000000E+02  0.91188000000E+02 0.  0.
    9900012    2    3    3    0    0 -0.22559152355E+02  0.13543786845E+02 -0.34514831940E+02  0.47787272576E+02  0.20000006984E+02 0.  0.
         12    1    3    3    0    0  0.22559152355E+02 -0.13543786845E+02  0.34514831940E+02  0.43400727424E+02  0.00000000000E+00 0. -1.
         11    1    4    4    0    0 -0.94771442990E+00  0.17188994405E+01 -0.27083003330E+00  0.19814457084E+01  0.51100000000E-03 0. -1.
        -11    1    4    4    0    0  0.30808120188E+01  0.13002787003E+01 -0.21888438695E+01  0.39966442348E+01  0.51100000000E-03 0.  1.
         12    1    4    4    0    0 -0.24692249943E+02  0.10524608704E+02 -0.32055158037E+02  0.41809182633E+02  0.00000000000E+00 0. -1.
</event>
<event>
 8    1  0.3776180E-010  0.9118800E+02  0.7816164E-02  0.1184000E+00
        -11   -1    0    0    0    0  0.00000000000E+00  0.00000000000E+00  0.45593999997E+02  0.45594000000E+02  0.51100000000E-03 0. -1.
         11   -1    0    0    0    0 -0.00000000000E+00 -0.00000000000E+00 -0.45593999997E+02  0.45594000000E+02  0.51100000000E-03 0.  1.
         23    2    1    2    0    0 -0.71054273576E-14  0.35527136788E-14  0.00000000000E+00  0.91188000000E+02  0.91188000000E+02 0.  0.
    9900012    2    3    3    0    0 -0.35583270872E+02  0.22575493197E+02  0.10382729118E+02  0.47787272783E+02  0.20000007926E+02 0.  0.
        -12    1    3    3    0    0  0.35583270872E+02 -0.22575493197E+02 -0.10382729118E+02  0.43400727217E+02  0.00000000000E+00 0.  1.
         11    1    4    4    0    0 -0.21648995929E+02  0.58473871713E+01  0.14195325550E+01  0.22469669210E+02  0.51100000000E-03 0. -1.
        -11    1    4    4    0    0 -0.14481487202E+01  0.14603741213E+01 -0.19005322802E+01  0.28003304267E+01  0.51100000000E-03 0.  1.
        -12    1    4    4    0    0 -0.12486126223E+02  0.15267731905E+02  0.10863728843E+02  0.22517273146E+02  0.00000000000E+00 0.  1.
</event>
<event>
 8    1  0.3776180E-010  0.9118800E+02  0.7816164E-02  0.1184000E+00
        -11   -1    0    0    0    0  0.00000000000E+00  0.00000000000E+00  0.45593999997E+02  0.45594000000E+02  0.51100000000E-03 0. -1.
         11   -1    0    0    0    0 -0.00000000000E+00 -0.00000000000E+00 -0.45593999997E+02  0.45594000000E+02  0.51100000000E-03 0.  1.
         23    2    1    2    0    0  0.00000000000E+00 -0.17763568394E-14  0.00000000000E+00  0.91188000000E+02  0.91188000000E+02 0.  0.
    9900012    2    3    3    0    0 -0.42660078751E+01 -0.13088726603E+02  0.41159564309E+02  0.47787270498E+02  0.19999997507E+02 0.  0.
        -12    1    3    3    0    0  0.42660078751E+01  0.13088726603E+02 -0.41159564309E+02  0.43400729502E+02  0.00000000000E+00 0.  1.
         11    1    4    4    0    0  0.48922798085E+01 -0.43380491495E+01  0.13558634801E+02  0.15052895073E+02  0.51100000000E-03 0. -1.
        -11    1    4    4    0    0 -0.34749558114E+01  0.20028696941E+00  0.18306605454E+02  0.18634570998E+02  0.51100000000E-03 0.  1.
         12    1    4    4    0    0 -0.56833318721E+01 -0.89509644225E+01  0.92943240535E+01  0.14099804427E+02  0.00000000000E+00 0. -1.
</event>
<event>
 8    1  0.3776180E-010  0.9118800E+02  0.7816164E-02  0.1184000E+00
        -11   -1    0    0    0    0  0.00000000000E+00  0.00000000000E+00  0.45593999997E+02  0.45594000000E+02  0.51100000000E-03 0. -1.
         11   -1    0    0    0    0 -0.00000000000E+00 -0.00000000000E+00 -0.45593999997E+02  0.45594000000E+02  0.51100000000E-03 0.  1.
         23    2    1    2    0    0  0.00000000000E+00  0.35527136788E-14  0.00000000000E+00  0.91188000000E+02  0.91188000000E+02 0.  0.
    9900012    2    3    3    0    0 -0.16931226812E+02 -0.19018652380E+02  0.35146095130E+02  0.47787267488E+02  0.19999983786E+02 0.  0.
        -12    1    3    3    0    0  0.16931226812E+02  0.19018652380E+02 -0.35146095130E+02  0.43400732512E+02  0.00000000000E+00 0.  1.
         11    1    4    4    0    0  0.61317913822E+00 -0.15288545598E+00  0.37756804392E+01  0.38282013608E+01  0.51100000000E-03 0. -1.
        -11    1    4    4    0    0 -0.85338608086E+01 -0.13558484966E+02  0.70839929441E+01  0.17516913289E+02  0.51100000000E-03 0.  1.
        -12    1    4    4    0    0 -0.90105451412E+01 -0.53072819580E+01  0.24286421746E+02  0.26442152839E+02  0.00000000000E+00 0.  1.
</event>
<event>
 8    1  0.3776180E-010  0.9118800E+02  0.7816164E-02  0.1184000E+00
        -11   -1    0    0    0    0  0.00000000000E+00  0.00000000000E+00  0.45593999997E+02  0.45594000000E+02  0.51100000000E-03 0. -1.
         11   -1    0    0    0    0 -0.00000000000E+00 -0.00000000000E+00 -0.45593999997E+02  0.45594000000E+02  0.51100000000E-03 0.  1.
         23    2    1    2    0    0  0.00000000000E+00  0.00000000000E+00 -0.35527136788E-14  0.91188000000E+02  0.91188000000E+02 0.  0.
    9900012    2    3    3    0    0  0.26614144907E+02  0.13207500900E+02 -0.31636575299E+02  0.47787266298E+02  0.19999978361E+02 0.  0.
         12    1    3    3    0    0 -0.26614144907E+02 -0.13207500900E+02  0.31636575299E+02  0.43400733702E+02  0.00000000000E+00 0. -1.
         11    1    4    4    0    0  0.30000086400E+01 -0.30813184902E+01 -0.33068965752E+00  0.43132274910E+01  0.51100000000E-03 0. -1.
        -11    1    4    4    0    0  0.17904602837E+02  0.93111869306E+01 -0.16185601090E+02  0.25869802622E+02  0.51100000000E-03 0.  1.
        -12    1    4    4    0    0  0.57095334301E+01  0.69776324593E+01 -0.15120284552E+02  0.17604236185E+02  0.00000000000E+00 0.  1.
</event>
<event>
 8    1  0.3776180E-010  0.9118800E+02  0.7816164E-02  0.1184000E+00
        -11   -1    0    0    0    0  0.00000000000E+00  0.00000000000E+00  0.45593999997E+02  0.45594000000E+02  0.51100000000E-03 0. -1.
         11   -1    0    0    0    0 -0.00000000000E+00 -0.00000000000E+00 -0.45593999997E+02  0.45594000000E+02  0.51100000000E-03 0.  1.
         23    2    1    2    0    0  0.17763568394E-14  0.00000000000E+00  0.71054273576E-14  0.91188000000E+02  0.91188000000E+02 0.  0.
    9900012    2    3    3    0    0 -0.14207080929E+02  0.14924743824E+02  0.38197306394E+02  0.47787270254E+02  0.19999996396E+02 0.  0.
        -12    1    3    3    0    0  0.14207080929E+02 -0.14924743824E+02 -0.38197306394E+02  0.43400729746E+02  0.00000000000E+00 0.  1.
         11    1    4    4    0    0 -0.13415138599E+02  0.72940515394E+01  0.22834840351E+02  0.27469966611E+02  0.51100000000E-03 0. -1.
        -11    1    4    4    0    0 -0.93641606071E+00 -0.23542985992E+01  0.64601893337E+01  0.69392826302E+01  0.51100000000E-03 0.  1.
        -12    1    4    4    0    0  0.14447373065E+00  0.99849908838E+01  0.89022767091E+01  0.13378021013E+02  0.00000000000E+00 0.  1.
</event>
<event>
 8    1  0.3776180E-010  0.9118800E+02  0.7816164E-02  0.1184000E+00
        -11   -1    0    0    0    0  0.00000000000E+00  0.00000000000E+00  0.45593999997E+02  0.45594000000E+02  0.51100000000E-03 0. -1.
         11   -1    0    0    0    0 -0.00000000000E+00 -0.00000000000E+00 -0.45593999997E+02  0.45594000000E+02  0.51100000000E-03 0.  1.
         23    2    1    2    0    0  0.00000000000E+00  0.35527136788E-14  0.00000000000E+00  0.91188000000E+02  0.91188000000E+02 0.  0.
    9900012    2    3    3    0    0  0.35092290213E+01  0.20143400123E+02  0.38282541206E+02  0.47787260167E+02  0.19999950406E+02 0.  0.
        -12    1    3    3    0    0 -0.35092290213E+01 -0.20143400123E+02 -0.38282541206E+02  0.43400739833E+02  0.00000000000E+00 0.  1.
         11    1    4    4    0    0  0.16665902380E+01  0.15834432594E+02  0.20711582579E+02  0.26124249880E+02  0.51100000000E-03 0. -1.
        -11    1    4    4    0    0  0.64410589864E+01  0.37527555272E+01  0.74829287136E+01  0.10562416263E+02  0.51100000000E-03 0.  1.
        -12    1    4    4    0    0 -0.45984202032E+01  0.55621200110E+00  0.10088029914E+02  0.11100594024E+02  0.00000000000E+00 0.  1.
</event>
<event>
 8    1  0.3776180E-010  0.9118800E+02  0.7816164E-02  0.1184000E+00
        -11   -1    0    0    0    0  0.00000000000E+00  0.00000000000E+00  0.45593999997E+02  0.45594000000E+02  0.51100000000E-03 0. -1.
         11   -1    0    0    0    0 -0.00000000000E+00 -0.00000000000E+00 -0.45593999997E+02  0.45594000000E+02  0.51100000000E-03 0.  1.
         23    2    1    2    0    0 -0.35527136788E-14 -0.44408920985E-15  0.00000000000E+00  0.91188000000E+02  0.91188000000E+02 0.  0.
    9900012    2    3    3    0    0 -0.29287232263E+02  0.32565353024E+01 -0.31863375037E+02  0.47787289584E+02  0.20000084531E+02 0.  0.
         12    1    3    3    0    0  0.29287232263E+02 -0.32565353024E+01  0.31863375037E+02  0.43400710416E+02  0.00000000000E+00 0. -1.
         11    1    4    4    0    0 -0.19868750922E+02  0.94797168213E+01 -0.16807410980E+02  0.27696955759E+02  0.51100000000E-03 0. -1.
        -11    1    4    4    0    0 -0.42660134624E+01  0.33650457689E+00 -0.23248983993E+01  0.48700368602E+01  0.51100000000E-03 0.  1.
         12    1    4    4    0    0 -0.51524678786E+01 -0.65596860958E+01 -0.12731065658E+02  0.15220296965E+02  0.00000000000E+00 0. -1.
</event>
<event>
 8    1  0.3776180E-010  0.9118800E+02  0.7816164E-02  0.1184000E+00
        -11   -1    0    0    0    0  0.00000000000E+00  0.00000000000E+00  0.45593999997E+02  0.45594000000E+02  0.51100000000E-03 0. -1.
         11   -1    0    0    0    0 -0.00000000000E+00 -0.00000000000E+00 -0.45593999997E+02  0.45594000000E+02  0.51100000000E-03 0.  1.
         23    2    1    2    0    0  0.71054273576E-14  0.00000000000E+00  0.17763568394E-14  0.91188000000E+02  0.91188000000E+02 0.  0.
    9900012    2    3    3    0    0  0.40627249099E+02 -0.97783574911E+01  0.11723206826E+02  0.47787271632E+02  0.20000002678E+02 0.  0.
        -12    1    3    3    0    0 -0.40627249099E+02  0.97783574911E+01 -0.11723206826E+02  0.43400728368E+02  0.00000000000E+00 0.  1.
         11    1    4    4    0    0  0.26186355442E+01 -0.29264864055E+01  0.11237772793E+01  0.40846603812E+01  0.51100000000E-03 0. -1.
        -11    1    4    4    0    0  0.27853188837E+02  0.21411498590E+01  0.11265477627E+02  0.30121348535E+02  0.51100000000E-03 0.  1.
        -12    1    4    4    0    0  0.10155424718E+02 -0.89930209446E+01 -0.66604808022E+00  0.13581262716E+02  0.00000000000E+00 0.  1.
</event>
<event>
 8    1  0.3776180E-010  0.9118800E+02  0.7816164E-02  0.1184000E+00
        -11   -1    0    0    0    0  0.00000000000E+00  0.00000000000E+00  0.45593999997E+02  0.45594000000E+02  0.51100000000E-03 0. -1.
         11   -1    0    0    0    0 -0.00000000000E+00 -0.00000000000E+00 -0.45593999997E+02  0.45594000000E+02  0.51100000000E-03 0.  1.
         23    2    1    2    0    0 -0.88817841970E-15 -0.35527136788E-14  0.00000000000E+00  0.91188000000E+02  0.91188000000E+02 0.  0.
    9900012    2    3    3    0    0 -0.29671905075E+01 -0.20720138726E+02  0.38019667304E+02  0.47787268782E+02  0.19999989686E+02 0.  0.
        -12    1    3    3    0    0  0.29671905075E+01  0.20720138726E+02 -0.38019667304E+02  0.43400731218E+02  0.00000000000E+00 0.  1.
         11    1    4    4    0    0  0.36727509203E+01 -0.35854457661E+01  0.14195930030E+02  0.15095328759E+02  0.51100000000E-03 0. -1.
        -11    1    4    4    0    0 -0.32132282377E+01 -0.16476511088E+02  0.23894539837E+02  0.29201871304E+02  0.51100000000E-03 0.  1.
        -12    1    4    4    0    0 -0.34267131901E+01 -0.65818187208E+00 -0.70802563384E-01  0.34900687196E+01  0.00000000000E+00 0.  1.
</event>
<event>
 8    1  0.3776180E-010  0.9118800E+02  0.7816164E-02  0.1184000E+00
        -11   -1    0    0    0    0  0.00000000000E+00  0.00000000000E+00  0.45593999997E+02  0.45594000000E+02  0.51100000000E-03 0.  1.
         11   -1    0    0    0    0 -0.00000000000E+00 -0.00000000000E+00 -0.45593999997E+02  0.45594000000E+02  0.51100000000E-03 0. -1.
         23    2    1    2    0    0  0.00000000000E+00 -0.35527136788E-14  0.00000000000E+00  0.91188000000E+02  0.91188000000E+02 0.  0.
    9900012    2    3    3    0    0 -0.37893395700E+02 -0.21065291517E+02  0.19919024423E+01  0.47787267060E+02  0.19999981834E+02 0.  0.
        -12    1    3    3    0    0  0.37893395700E+02  0.21065291517E+02 -0.19919024423E+01  0.43400732940E+02  0.00000000000E+00 0.  1.
         11    1    4    4    0    0 -0.33408293564E+01  0.12709426378E+01 -0.15945253795E+01  0.39139426955E+01  0.51100000000E-03 0. -1.
        -11    1    4    4    0    0 -0.10428740973E+02 -0.68978389068E+01  0.80727550705E+01  0.14883151365E+02  0.51100000000E-03 0.  1.
         12    1    4    4    0    0 -0.24123825371E+02 -0.15438395249E+02 -0.44863272487E+01  0.28990173000E+02  0.00000000000E+00 0. -1.
</event>
<event>
 8    1  0.3776180E-010  0.9118800E+02  0.7816164E-02  0.1184000E+00
        -11   -1    0    0    0    0  0.00000000000E+00  0.00000000000E+00  0.45593999997E+02  0.45594000000E+02  0.51100000000E-03 0. -1.
         11   -1    0    0    0    0 -0.00000000000E+00 -0.00000000000E+00 -0.45593999997E+02  0.45594000000E+02  0.51100000000E-03 0.  1.
         23    2    1    2    0    0 -0.17763568394E-14 -0.71054273576E-14  0.35527136788E-14  0.91188000000E+02  0.91188000000E+02 0.  0.
    9900012    2    3    3    0    0  0.12138661073E+02  0.35300266471E+02 -0.22139732583E+02  0.47787266545E+02  0.19999979486E+02 0.  0.
         12    1    3    3    0    0 -0.12138661073E+02 -0.35300266471E+02  0.22139732583E+02  0.43400733455E+02  0.00000000000E+00 0. -1.
         11    1    4    4    0    0  0.19138874971E+01  0.11880637450E+02 -0.35609222873E+01  0.12549608733E+02  0.51100000000E-03 0. -1.
        -11    1    4    4    0    0 -0.98561557111E+00  0.11091040927E+02 -0.14131287387E+02  0.17990995258E+02  0.51100000000E-03 0.  1.
        -12    1    4    4    0    0  0.11210389147E+02  0.12328588094E+02 -0.44475229086E+01  0.17246662554E+02  0.00000000000E+00 0.  1.
</event>
<event>
 8    1  0.3776180E-010  0.9118800E+02  0.7816164E-02  0.1184000E+00
        -11   -1    0    0    0    0  0.00000000000E+00  0.00000000000E+00  0.45593999997E+02  0.45594000000E+02  0.51100000000E-03 0. -1.
         11   -1    0    0    0    0 -0.00000000000E+00 -0.00000000000E+00 -0.45593999997E+02  0.45594000000E+02  0.51100000000E-03 0.  1.
         23    2    1    2    0    0  0.00000000000E+00  0.00000000000E+00  0.71054273576E-14  0.91188000000E+02  0.91188000000E+02 0.  0.
    9900012    2    3    3    0    0  0.71727362786E+01  0.81349033548E+01 -0.42023791351E+02  0.47787264547E+02  0.19999970377E+02 0.  0.
         12    1    3    3    0    0 -0.71727362786E+01 -0.81349033548E+01  0.42023791351E+02  0.43400735453E+02  0.00000000000E+00 0. -1.
         11    1    4    4    0    0 -0.36821427658E+01  0.63291790359E+01 -0.15606771056E+02  0.17239141094E+02  0.51100000000E-03 0. -1.
        -11    1    4    4    0    0  0.55978533863E+01  0.52747279651E+01 -0.20542989777E+02  0.21935659253E+02  0.51100000000E-03 0.  1.
         12    1    4    4    0    0  0.52570256581E+01 -0.34690036462E+01 -0.58740305188E+01  0.86124642004E+01  0.00000000000E+00 0. -1.
</event>
<event>
 8    1  0.3776180E-010  0.9118800E+02  0.7816164E-02  0.1184000E+00
        -11   -1    0    0    0    0  0.00000000000E+00  0.00000000000E+00  0.45593999997E+02  0.45594000000E+02  0.51100000000E-03 0. -1.
         11   -1    0    0    0    0 -0.00000000000E+00 -0.00000000000E+00 -0.45593999997E+02  0.45594000000E+02  0.51100000000E-03 0.  1.
         23    2    1    2    0    0 -0.35527136788E-14  0.00000000000E+00 -0.35527136788E-14  0.91188000000E+02  0.91188000000E+02 0.  0.
    9900012    2    3    3    0    0 -0.29619438679E+02  0.12603944574E+02 -0.29111033083E+02  0.47787276347E+02  0.20000024177E+02 0.  0.
         12    1    3    3    0    0  0.29619438679E+02 -0.12603944574E+02  0.29111033083E+02  0.43400723653E+02  0.00000000000E+00 0. -1.
         11    1    4    4    0    0 -0.24223059740E+02  0.76013456698E+01 -0.17879598140E+02  0.31051845502E+02  0.51100000000E-03 0.  1.
        -11    1    4    4    0    0 -0.40314443345E+01  0.30739288787E+01  0.18894118218E+00  0.50731924077E+01  0.51100000000E-03 0. -1.
         12    1    4    4    0    0 -0.13649346041E+01  0.19286700254E+01 -0.11420376125E+02  0.11662238437E+02  0.00000000000E+00 0. -1.
</event>
<event>
 8    1  0.3776180E-010  0.9118800E+02  0.7816164E-02  0.1184000E+00
        -11   -1    0    0    0    0  0.00000000000E+00  0.00000000000E+00  0.45593999997E+02  0.45594000000E+02  0.51100000000E-03 0. -1.
         11   -1    0    0    0    0 -0.00000000000E+00 -0.00000000000E+00 -0.45593999997E+02  0.45594000000E+02  0.51100000000E-03 0.  1.
         23    2    1    2    0    0  0.00000000000E+00  0.00000000000E+00  0.00000000000E+00  0.91188000000E+02  0.91188000000E+02 0.  0.
    9900012    2    3    3    0    0 -0.22195181466E+02  0.32180800894E+02  0.18851885685E+02  0.47787267052E+02  0.19999981798E+02 0.  0.
        -12    1    3    3    0    0  0.22195181466E+02 -0.32180800894E+02 -0.18851885685E+02  0.43400732948E+02  0.00000000000E+00 0.  1.
         11    1    4    4    0    0 -0.26529956282E+01  0.16015216483E+02  0.94254102689E+01  0.18771358603E+02  0.51100000000E-03 0. -1.
        -11    1    4    4    0    0 -0.58422272006E+01  0.93562949240E+01  0.80493662707E+01  0.13655188427E+02  0.51100000000E-03 0.  1.
        -12    1    4    4    0    0 -0.13699958638E+02  0.68092894877E+01  0.13771091455E+01  0.15360720022E+02  0.00000000000E+00 0.  1.
</event>
<event>
 8    1  0.3776180E-010  0.9118800E+02  0.7816164E-02  0.1184000E+00
        -11   -1    0    0    0    0  0.00000000000E+00  0.00000000000E+00  0.45593999997E+02  0.45594000000E+02  0.51100000000E-03 0.  1.
         11   -1    0    0    0    0 -0.00000000000E+00 -0.00000000000E+00 -0.45593999997E+02  0.45594000000E+02  0.51100000000E-03 0. -1.
         23    2    1    2    0    0  0.00000000000E+00  0.17763568394E-14  0.00000000000E+00  0.91188000000E+02  0.91188000000E+02 0.  0.
    9900012    2    3    3    0    0  0.33784579730E+02  0.12335542036E+02 -0.24291150257E+02  0.47787269526E+02  0.19999993078E+02 0.  0.
         12    1    3    3    0    0 -0.33784579730E+02 -0.12335542036E+02  0.24291150257E+02  0.43400730474E+02  0.00000000000E+00 0. -1.
         11    1    4    4    0    0  0.13678019593E+02 -0.14695907515E+01 -0.10630583204E+01  0.13797753810E+02  0.51100000000E-03 0. -1.
        -11    1    4    4    0    0  0.67348786090E+01  0.21665530917E+01 -0.61523361182E+01  0.93757016884E+01  0.51100000000E-03 0.  1.
         12    1    4    4    0    0  0.13371681528E+02  0.11638579696E+02 -0.17075755819E+02  0.24613814028E+02  0.00000000000E+00 0. -1.
</event>
<event>
 8    1  0.3776180E-010  0.9118800E+02  0.7816164E-02  0.1184000E+00
        -11   -1    0    0    0    0  0.00000000000E+00  0.00000000000E+00  0.45593999997E+02  0.45594000000E+02  0.51100000000E-03 0. -1.
         11   -1    0    0    0    0 -0.00000000000E+00 -0.00000000000E+00 -0.45593999997E+02  0.45594000000E+02  0.51100000000E-03 0.  1.
         23    2    1    2    0    0  0.00000000000E+00  0.00000000000E+00  0.00000000000E+00  0.91188000000E+02  0.91188000000E+02 0.  0.
    9900012    2    3    3    0    0  0.15926777222E+02  0.42075115544E+01 -0.40152900565E+02  0.47787299430E+02  0.20000129421E+02 0.  0.
         12    1    3    3    0    0 -0.15926777222E+02 -0.42075115544E+01  0.40152900565E+02  0.43400700570E+02  0.00000000000E+00 0. -1.
         11    1    4    4    0    0  0.38378050307E+01  0.37057323138E+01 -0.55198817106E+01  0.76766069194E+01  0.51100000000E-03 0. -1.
        -11    1    4    4    0    0  0.11270180171E+02  0.67933213065E+01 -0.17910460673E+02  0.22225003425E+02  0.51100000000E-03 0.  1.
         12    1    4    4    0    0  0.81879202044E+00 -0.62915420659E+01 -0.16722558182E+02  0.17885689086E+02  0.00000000000E+00 0. -1.
</event>
<event>
 8    1  0.3776180E-010  0.9118800E+02  0.7816164E-02  0.1184000E+00
        -11   -1    0    0    0    0  0.00000000000E+00  0.00000000000E+00  0.45593999997E+02  0.45594000000E+02  0.51100000000E-03 0. -1.
         11   -1    0    0    0    0 -0.00000000000E+00 -0.00000000000E+00 -0.45593999997E+02  0.45594000000E+02  0.51100000000E-03 0.  1.
         23    2    1    2    0    0  0.00000000000E+00  0.00000000000E+00  0.35527136788E-14  0.91188000000E+02  0.91188000000E+02 0.  0.
    9900012    2    3    3    0    0  0.34779187922E+02 -0.57131398514E+01 -0.25325705977E+02  0.47787271173E+02  0.20000000584E+02 0.  0.
         12    1    3    3    0    0 -0.34779187922E+02  0.57131398514E+01  0.25325705977E+02  0.43400728827E+02  0.00000000000E+00 0. -1.
         11    1    4    4    0    0 -0.23778927577E+01 -0.44143244721E+00 -0.11793700588E+01  0.26907527886E+01  0.51100000000E-03 0. -1.
        -11    1    4    4    0    0  0.71253004141E+01 -0.36581237885E+01 -0.53031392536E+01  0.96059909352E+01  0.51100000000E-03 0.  1.
        -12    1    4    4    0    0  0.30031780266E+02 -0.16135836157E+01 -0.18843196665E+02  0.35490527449E+02  0.00000000000E+00 0.  1.
</event>
<event>
 8    1  0.3776180E-010  0.9118800E+02  0.7816164E-02  0.1184000E+00
        -11   -1    0    0    0    0  0.00000000000E+00  0.00000000000E+00  0.45593999997E+02  0.45594000000E+02  0.51100000000E-03 0. -1.
         11   -1    0    0    0    0 -0.00000000000E+00 -0.00000000000E+00 -0.45593999997E+02  0.45594000000E+02  0.51100000000E-03 0.  1.
         23    2    1    2    0    0 -0.17763568394E-14  0.00000000000E+00  0.00000000000E+00  0.91188000000E+02  0.91188000000E+02 0.  0.
    9900012    2    3    3    0    0 -0.12767425915E+02 -0.34471376173E+02  0.23072503750E+02  0.47787269947E+02  0.19999994998E+02 0.  0.
        -12    1    3    3    0    0  0.12767425915E+02  0.34471376173E+02 -0.23072503750E+02  0.43400730053E+02  0.00000000000E+00 0.  1.
         11    1    4    4    0    0 -0.42635947780E+01 -0.16120532373E+01  0.31831688820E+01  0.55596331231E+01  0.51100000000E-03 0. -1.
        -11    1    4    4    0    0  0.31467112860E+01 -0.12011537047E+02  0.11472527417E+02  0.16905552334E+02  0.51100000000E-03 0.  1.
         12    1    4    4    0    0 -0.11650542423E+02 -0.20847785889E+02  0.84168074517E+01  0.25322084490E+02  0.00000000000E+00 0. -1.
</event>
<event>
 8    1  0.3776180E-010  0.9118800E+02  0.7816164E-02  0.1184000E+00
        -11   -1    0    0    0    0  0.00000000000E+00  0.00000000000E+00  0.45593999997E+02  0.45594000000E+02  0.51100000000E-03 0. -1.
         11   -1    0    0    0    0 -0.00000000000E+00 -0.00000000000E+00 -0.45593999997E+02  0.45594000000E+02  0.51100000000E-03 0.  1.
         23    2    1    2    0    0 -0.44408920985E-15  0.00000000000E+00  0.00000000000E+00  0.91188000000E+02  0.91188000000E+02 0.  0.
    9900012    2    3    3    0    0  0.17839417868E+01 -0.13453110611E+02 -0.41224437561E+02  0.47787275517E+02  0.20000020392E+02 0.  0.
         12    1    3    3    0    0 -0.17839417868E+01  0.13453110611E+02  0.41224437561E+02  0.43400724483E+02  0.00000000000E+00 0. -1.
         11    1    4    4    0    0  0.78696648145E+00 -0.19273832409E+01 -0.85335145010E+01  0.87837914593E+01  0.51100000000E-03 0. -1.
        -11    1    4    4    0    0  0.80024917237E+01 -0.71073280925E+00 -0.16129842143E+02  0.18019900741E+02  0.51100000000E-03 0.  1.
         12    1    4    4    0    0 -0.70055164183E+01 -0.10814994560E+02 -0.16561080918E+02  0.20983583316E+02  0.00000000000E+00 0. -1.
</event>
<event>
 8    1  0.3776180E-010  0.9118800E+02  0.7816164E-02  0.1184000E+00
        -11   -1    0    0    0    0  0.00000000000E+00  0.00000000000E+00  0.45593999997E+02  0.45594000000E+02  0.51100000000E-03 0. -1.
         11   -1    0    0    0    0 -0.00000000000E+00 -0.00000000000E+00 -0.45593999997E+02  0.45594000000E+02  0.51100000000E-03 0.  1.
         23    2    1    2    0    0 -0.11102230246E-15  0.00000000000E+00  0.00000000000E+00  0.91188000000E+02  0.91188000000E+02 0.  0.
    9900012    2    3    3    0    0 -0.56179645906E+00 -0.77691532704E+01  0.42695993180E+02  0.47787271994E+02  0.20000004330E+02 0.  0.
        -12    1    3    3    0    0  0.56179645906E+00  0.77691532704E+01 -0.42695993180E+02  0.43400728006E+02  0.00000000000E+00 0.  1.
         11    1    4    4    0    0 -0.10607411378E+01 -0.42067341149E+01  0.29545783922E+01  0.52489348835E+01  0.51100000000E-03 0. -1.
        -11    1    4    4    0    0  0.21229390104E+01 -0.45759592270E+01  0.32587321441E+01  0.60054648727E+01  0.51100000000E-03 0.  1.
        -12    1    4    4    0    0 -0.16239943317E+01  0.10135400715E+01  0.36482682644E+02  0.36532872238E+02  0.00000000000E+00 0.  1.
</event>
<event>
 8    1  0.3776180E-010  0.9118800E+02  0.7816164E-02  0.1184000E+00
        -11   -1    0    0    0    0  0.00000000000E+00  0.00000000000E+00  0.45593999997E+02  0.45594000000E+02  0.51100000000E-03 0.  1.
         11   -1    0    0    0    0 -0.00000000000E+00 -0.00000000000E+00 -0.45593999997E+02  0.45594000000E+02  0.51100000000E-03 0. -1.
         23    2    1    2    0    0  0.00000000000E+00  0.00000000000E+00  0.00000000000E+00  0.91188000000E+02  0.91188000000E+02 0.  0.
    9900012    2    3    3    0    0 -0.24367977986E+02 -0.34917704405E+02 -0.84011379941E+01  0.47787267844E+02  0.19999985410E+02 0.  0.
        -12    1    3    3    0    0  0.24367977986E+02  0.34917704405E+02  0.84011379941E+01  0.43400732156E+02  0.00000000000E+00 0.  1.
         11    1    4    4    0    0 -0.33294443686E+01 -0.57084425692E+00 -0.17912087614E+01  0.38235444364E+01  0.51100000000E-03 0. -1.
        -11    1    4    4    0    0 -0.72053786801E+01 -0.12132711892E+02  0.54788345668E+01  0.15137298579E+02  0.51100000000E-03 0.  1.
         12    1    4    4    0    0 -0.13833154937E+02 -0.22214148256E+02 -0.12088763799E+02  0.28826424829E+02  0.00000000000E+00 0. -1.
</event>
<event>
 8    1  0.3776180E-010  0.9118800E+02  0.7816164E-02  0.1184000E+00
        -11   -1    0    0    0    0  0.00000000000E+00  0.00000000000E+00  0.45593999997E+02  0.45594000000E+02  0.51100000000E-03 0. -1.
         11   -1    0    0    0    0 -0.00000000000E+00 -0.00000000000E+00 -0.45593999997E+02  0.45594000000E+02  0.51100000000E-03 0.  1.
         23    2    1    2    0    0 -0.71054273576E-14  0.00000000000E+00  0.35527136788E-14  0.91188000000E+02  0.91188000000E+02 0.  0.
    9900012    2    3    3    0    0  0.34400582023E+02  0.12032840174E+02  0.23567704937E+02  0.47787239614E+02  0.19999856694E+02 0.  0.
        -12    1    3    3    0    0 -0.34400582023E+02 -0.12032840174E+02 -0.23567704937E+02  0.43400760386E+02  0.00000000000E+00 0.  1.
         11    1    4    4    0    0  0.15754268907E+02  0.75077672884E+01  0.59074267165E+01  0.18424474189E+02  0.51100000000E-03 0. -1.
        -11    1    4    4    0    0  0.19507348752E+02  0.55762450384E+01  0.12065276348E+02  0.23605127784E+02  0.51100000000E-03 0.  1.
         12    1    4    4    0    0 -0.86103563668E+00 -0.10511721530E+01  0.55950018718E+01  0.57576376413E+01  0.00000000000E+00 0. -1.
</event>
<event>
 8    1  0.3776180E-010  0.9118800E+02  0.7816164E-02  0.1184000E+00
        -11   -1    0    0    0    0  0.00000000000E+00  0.00000000000E+00  0.45593999997E+02  0.45594000000E+02  0.51100000000E-03 0. -1.
         11   -1    0    0    0    0 -0.00000000000E+00 -0.00000000000E+00 -0.45593999997E+02  0.45594000000E+02  0.51100000000E-03 0.  1.
         23    2    1    2    0    0 -0.35527136788E-14  0.00000000000E+00  0.00000000000E+00  0.91188000000E+02  0.91188000000E+02 0.  0.
    9900012    2    3    3    0    0 -0.28517506538E+02 -0.17679497933E+02  0.27528357052E+02  0.47787271109E+02  0.20000000295E+02 0.  0.
        -12    1    3    3    0    0  0.28517506538E+02  0.17679497933E+02 -0.27528357052E+02  0.43400728891E+02  0.00000000000E+00 0.  1.
         11    1    4    4    0    0 -0.59922213520E+01 -0.50374433701E+01  0.55772378198E+01  0.96118746558E+01  0.51100000000E-03 0. -1.
        -11    1    4    4    0    0 -0.90065433569E+01 -0.10573116745E+00 -0.62349240997E+00  0.90287178140E+01  0.51100000000E-03 0.  1.
         12    1    4    4    0    0 -0.13518741829E+02 -0.12536323396E+02  0.22574611642E+02  0.29146678639E+02  0.00000000000E+00 0. -1.
</event>
<event>
 8    1  0.3776180E-010  0.9118800E+02  0.7816164E-02  0.1184000E+00
        -11   -1    0    0    0    0  0.00000000000E+00  0.00000000000E+00  0.45593999997E+02  0.45594000000E+02  0.51100000000E-03 0. -1.
         11   -1    0    0    0    0 -0.00000000000E+00 -0.00000000000E+00 -0.45593999997E+02  0.45594000000E+02  0.51100000000E-03 0.  1.
         23    2    1    2    0    0  0.11102230246E-15 -0.17763568394E-14  0.00000000000E+00  0.91188000000E+02  0.91188000000E+02 0.  0.
    9900012    2    3    3    0    0  0.71705396130E+00  0.96541064156E+01  0.42307296325E+02  0.47787271211E+02  0.20000000761E+02 0.  0.
        -12    1    3    3    0    0 -0.71705396130E+00 -0.96541064156E+01 -0.42307296325E+02  0.43400728789E+02  0.00000000000E+00 0.  1.
         11    1    4    4    0    0 -0.14131102519E+01 -0.29631297912E+01  0.17985267334E+02  0.18282419426E+02  0.51100000000E-03 0. -1.
        -11    1    4    4    0    0 -0.83252414400E+00 -0.78310958741E+00 -0.41490485820E+00  0.12159372429E+01  0.51100000000E-03 0.  1.
         12    1    4    4    0    0  0.29626883572E+01  0.13400345794E+02  0.24736933849E+02  0.28288914542E+02  0.00000000000E+00 0. -1.
</event>
<event>
 8    1  0.3776180E-010  0.9118800E+02  0.7816164E-02  0.1184000E+00
        -11   -1    0    0    0    0  0.00000000000E+00  0.00000000000E+00  0.45593999997E+02  0.45594000000E+02  0.51100000000E-03 0.  1.
         11   -1    0    0    0    0 -0.00000000000E+00 -0.00000000000E+00 -0.45593999997E+02  0.45594000000E+02  0.51100000000E-03 0. -1.
         23    2    1    2    0    0 -0.17763568394E-14  0.00000000000E+00  0.00000000000E+00  0.91188000000E+02  0.91188000000E+02 0.  0.
    9900012    2    3    3    0    0 -0.87340762023E+01  0.32537940862E+02  0.27360959533E+02  0.47787265107E+02  0.19999972930E+02 0.  0.
        -12    1    3    3    0    0  0.87340762023E+01 -0.32537940862E+02 -0.27360959533E+02  0.43400734893E+02  0.00000000000E+00 0.  1.
         11    1    4    4    0    0  0.17822576832E+01  0.23104253263E+02  0.11193928633E+02  0.25734937338E+02  0.51100000000E-03 0. -1.
        -11    1    4    4    0    0 -0.49175440756E+00 -0.26312319574E-01  0.28304090674E+01  0.28729306441E+01  0.51100000000E-03 0.  1.
         12    1    4    4    0    0 -0.10024579478E+02  0.94599999184E+01  0.13336621833E+02  0.19179397125E+02  0.00000000000E+00 0. -1.
</event>
<event>
 8    1  0.5399439E-010  0.9118800E+02  0.7816164E-02  0.1184000E+00
        -11   -1    0    0    0    0  0.00000000000E+00  0.00000000000E+00  0.45593999997E+02  0.45594000000E+02  0.51100000000E-03 0. -1.
         11   -1    0    0    0    0 -0.00000000000E+00 -0.00000000000E+00 -0.45593999997E+02  0.45594000000E+02  0.51100000000E-03 0.  1.
         23    2    1    2    0    0  0.00000000000E+00 -0.71054273576E-14 -0.35527136788E-14  0.91188000000E+02  0.91188000000E+02 0.  0.
    9900012    2    3    3    0    0  0.17245504256E+02  0.33524233332E+02  0.21502152291E+02  0.47787260483E+02  0.19999951844E+02 0.  0.
        -12    1    3    3    0    0 -0.17245504256E+02 -0.33524233332E+02 -0.21502152291E+02  0.43400739517E+02  0.00000000000E+00 0.  1.
         11    1    4    4    0    0  0.10858131734E+02  0.17240914599E+02  0.12109685962E+02  0.23702165626E+02  0.51100000000E-03 0. -1.
        -11    1    4    4    0    0 -0.46139131286E+00  0.11834092988E+02  0.10519763842E+02  0.15840583017E+02  0.51100000000E-03 0.  1.
        -12    1    4    4    0    0  0.68487638346E+01  0.44492257447E+01 -0.11272975130E+01  0.82445118395E+01  0.00000000000E+00 0.  1.
</event>
<event>
 8    1  0.3776180E-010  0.9118800E+02  0.7816164E-02  0.1184000E+00
        -11   -1    0    0    0    0  0.00000000000E+00  0.00000000000E+00  0.45593999997E+02  0.45594000000E+02  0.51100000000E-03 0. -1.
         11   -1    0    0    0    0 -0.00000000000E+00 -0.00000000000E+00 -0.45593999997E+02  0.45594000000E+02  0.51100000000E-03 0.  1.
         23    2    1    2    0    0  0.00000000000E+00  0.00000000000E+00  0.00000000000E+00  0.91188000000E+02  0.91188000000E+02 0.  0.
    9900012    2    3    3    0    0  0.93173085601E+01  0.12466987541E+02  0.40514009205E+02  0.47787274672E+02  0.20000016540E+02 0.  0.
        -12    1    3    3    0    0 -0.93173085601E+01 -0.12466987541E+02 -0.40514009205E+02  0.43400725328E+02  0.00000000000E+00 0.  1.
         11    1    4    4    0    0  0.54632829999E+01  0.12592544295E+01  0.25182400828E+02  0.25798963052E+02  0.51100000000E-03 0. -1.
        -11    1    4    4    0    0  0.36918668152E+01  0.41673022533E+00  0.83377268423E+01  0.91280465500E+01  0.51100000000E-03 0.  1.
         12    1    4    4    0    0  0.16215874504E+00  0.10791002886E+02  0.69938815347E+01  0.12860265070E+02  0.00000000000E+00 0. -1.
</event>
<event>
 8    1  0.3776180E-010  0.9118800E+02  0.7816164E-02  0.1184000E+00
        -11   -1    0    0    0    0  0.00000000000E+00  0.00000000000E+00  0.45593999997E+02  0.45594000000E+02  0.51100000000E-03 0. -1.
         11   -1    0    0    0    0 -0.00000000000E+00 -0.00000000000E+00 -0.45593999997E+02  0.45594000000E+02  0.51100000000E-03 0.  1.
         23    2    1    2    0    0 -0.66613381478E-15  0.00000000000E+00  0.35527136788E-14  0.91188000000E+02  0.91188000000E+02 0.  0.
    9900012    2    3    3    0    0  0.51562781076E+00  0.30326283699E+02  0.31043100486E+02  0.47787269098E+02  0.19999991125E+02 0.  0.
        -12    1    3    3    0    0 -0.51562781076E+00 -0.30326283699E+02 -0.31043100486E+02  0.43400730902E+02  0.00000000000E+00 0.  1.
         11    1    4    4    0    0 -0.14846437922E+01  0.46790035970E+01  0.20070271523E+01  0.53033385807E+01  0.51100000000E-03 0. -1.
        -11    1    4    4    0    0  0.87091835484E+01  0.77680673085E+01  0.84760808938E+01  0.14423477229E+02  0.51100000000E-03 0.  1.
        -12    1    4    4    0    0 -0.67089119454E+01  0.17879212794E+02  0.20559992440E+02  0.28060453288E+02  0.00000000000E+00 0.  1.
</event>
<event>
 8    1  0.3776180E-010  0.9118800E+02  0.7816164E-02  0.1184000E+00
        -11   -1    0    0    0    0  0.00000000000E+00  0.00000000000E+00  0.45593999997E+02  0.45594000000E+02  0.51100000000E-03 0. -1.
         11   -1    0    0    0    0 -0.00000000000E+00 -0.00000000000E+00 -0.45593999997E+02  0.45594000000E+02  0.51100000000E-03 0.  1.
         23    2    1    2    0    0  0.35527136788E-14  0.00000000000E+00  0.00000000000E+00  0.91188000000E+02  0.91188000000E+02 0.  0.
    9900012    2    3    3    0    0 -0.19160048505E+02  0.24735894126E+02 -0.30077414372E+02  0.47787276824E+02  0.20000026350E+02 0.  0.
         12    1    3    3    0    0  0.19160048505E+02 -0.24735894126E+02  0.30077414372E+02  0.43400723176E+02  0.00000000000E+00 0. -1.
         11    1    4    4    0    0 -0.14615600083E+02  0.15363138933E+02 -0.22200916830E+02  0.30700529507E+02  0.51100000000E-03 0. -1.
        -11    1    4    4    0    0 -0.77742137000E+01  0.89465453029E+01 -0.55753824742E+01  0.13098242688E+02  0.51100000000E-03 0.  1.
         12    1    4    4    0    0  0.32297652778E+01  0.42620988965E+00 -0.23011150677E+01  0.39885046289E+01  0.00000000000E+00 0. -1.
</event>
<event>
 8    1  0.3973412E-010  0.9118800E+02  0.7816164E-02  0.1184000E+00
        -11   -1    0    0    0    0  0.00000000000E+00  0.00000000000E+00  0.45593999997E+02  0.45594000000E+02  0.51100000000E-03 0. -1.
         11   -1    0    0    0    0 -0.00000000000E+00 -0.00000000000E+00 -0.45593999997E+02  0.45594000000E+02  0.51100000000E-03 0.  1.
         23    2    1    2    0    0  0.00000000000E+00  0.35527136788E-14 -0.71054273576E-14  0.91188000000E+02  0.91188000000E+02 0.  0.
    9900012    2    3    3    0    0  0.10864867474E+02 -0.25568648991E+02  0.33344014890E+02  0.47787257087E+02  0.19999936360E+02 0.  0.
        -12    1    3    3    0    0 -0.10864867474E+02  0.25568648991E+02 -0.33344014890E+02  0.43400742913E+02  0.00000000000E+00 0.  1.
         11    1    4    4    0    0  0.54243392780E+00 -0.51614514026E+01  0.13615175922E+02  0.14570786897E+02  0.51100000000E-03 0. -1.
        -11    1    4    4    0    0  0.40524900908E+01 -0.18336628462E+02  0.18757554720E+02  0.26542427896E+02  0.51100000000E-03 0.  1.
        -12    1    4    4    0    0  0.62699434552E+01 -0.20705691268E+01  0.97128424740E+00  0.66740422930E+01  0.00000000000E+00 0.  1.
</event>
<event>
 8    1  0.3776180E-010  0.9118800E+02  0.7816164E-02  0.1184000E+00
        -11   -1    0    0    0    0  0.00000000000E+00  0.00000000000E+00  0.45593999997E+02  0.45594000000E+02  0.51100000000E-03 0. -1.
         11   -1    0    0    0    0 -0.00000000000E+00 -0.00000000000E+00 -0.45593999997E+02  0.45594000000E+02  0.51100000000E-03 0.  1.
         23    2    1    2    0    0  0.00000000000E+00  0.00000000000E+00  0.00000000000E+00  0.91188000000E+02  0.91188000000E+02 0.  0.
    9900012    2    3    3    0    0 -0.27004149076E+02 -0.19785871279E+02  0.27620979189E+02  0.47787271193E+02  0.20000000680E+02 0.  0.
        -12    1    3    3    0    0  0.27004149076E+02  0.19785871279E+02 -0.27620979189E+02  0.43400728807E+02  0.00000000000E+00 0.  1.
         11    1    4    4    0    0 -0.17339975633E+02 -0.55012022544E+01  0.19532575331E+02  0.26691936620E+02  0.51100000000E-03 0. -1.
        -11    1    4    4    0    0 -0.13931419138E+01  0.81397366851E+00 -0.70866199356E+00  0.17622711503E+01  0.51100000000E-03 0.  1.
        -12    1    4    4    0    0 -0.82710315287E+01 -0.15098642693E+02  0.87970658517E+01  0.19333063423E+02  0.00000000000E+00 0.  1.
</event>
<event>
 8    1  0.3776180E-010  0.9118800E+02  0.7816164E-02  0.1184000E+00
        -11   -1    0    0    0    0  0.00000000000E+00  0.00000000000E+00  0.45593999997E+02  0.45594000000E+02  0.51100000000E-03 0. -1.
         11   -1    0    0    0    0 -0.00000000000E+00 -0.00000000000E+00 -0.45593999997E+02  0.45594000000E+02  0.51100000000E-03 0.  1.
         23    2    1    2    0    0  0.00000000000E+00 -0.35527136788E-14  0.00000000000E+00  0.91188000000E+02  0.91188000000E+02 0.  0.
    9900012    2    3    3    0    0 -0.47875755664E+01 -0.31589698719E+02 -0.29373345639E+02  0.47787269833E+02  0.19999994478E+02 0.  0.
         12    1    3    3    0    0  0.47875755664E+01  0.31589698719E+02  0.29373345639E+02  0.43400730167E+02  0.00000000000E+00 0. -1.
         11    1    4    4    0    0 -0.11111742521E+01 -0.70129632265E+01  0.86730470838E+00  0.71532215926E+01  0.51100000000E-03 0.  1.
        -11    1    4    4    0    0  0.37696111647E+01 -0.68480680538E+01 -0.72438245974E+01  0.10657344860E+02  0.51100000000E-03 0. -1.
        -12    1    4    4    0    0 -0.74460124790E+01 -0.17728667439E+02 -0.22996825750E+02  0.29976703381E+02  0.00000000000E+00 0.  1.
</event>
<event>
 8    1  0.4902339E-010  0.9118800E+02  0.7816164E-02  0.1184000E+00
        -11   -1    0    0    0    0  0.00000000000E+00  0.00000000000E+00  0.45593999997E+02  0.45594000000E+02  0.51100000000E-03 0. -1.
         11   -1    0    0    0    0 -0.00000000000E+00 -0.00000000000E+00 -0.45593999997E+02  0.45594000000E+02  0.51100000000E-03 0.  1.
         23    2    1    2    0    0  0.00000000000E+00 -0.35527136788E-14  0.00000000000E+00  0.91188000000E+02  0.91188000000E+02 0.  0.
    9900012    2    3    3    0    0 -0.38715808958E+01  0.16251483747E+02  0.40056503301E+02  0.47787270521E+02  0.19999997614E+02 0.  0.
        -12    1    3    3    0    0  0.38715808958E+01 -0.16251483747E+02 -0.40056503301E+02  0.43400729479E+02  0.00000000000E+00 0.  1.
         11    1    4    4    0    0  0.21691752722E+00  0.88731965944E+01  0.23469085717E+02  0.25091406012E+02  0.51100000000E-03 0. -1.
        -11    1    4    4    0    0  0.15302028892E+01 -0.12647435641E+01  0.10579409199E+02  0.10764060406E+02  0.51100000000E-03 0.  1.
        -12    1    4    4    0    0 -0.56187013122E+01  0.86430307164E+01  0.60080083851E+01  0.11931804103E+02  0.00000000000E+00 0.  1.
</event>
<event>
 8    1  0.3776180E-010  0.9118800E+02  0.7816164E-02  0.1184000E+00
        -11   -1    0    0    0    0  0.00000000000E+00  0.00000000000E+00  0.45593999997E+02  0.45594000000E+02  0.51100000000E-03 0. -1.
         11   -1    0    0    0    0 -0.00000000000E+00 -0.00000000000E+00 -0.45593999997E+02  0.45594000000E+02  0.51100000000E-03 0.  1.
         23    2    1    2    0    0  0.00000000000E+00  0.00000000000E+00 -0.71054273576E-14  0.91188000000E+02  0.91188000000E+02 0.  0.
    9900012    2    3    3    0    0  0.57963657779E+01 -0.57227656061E+01 -0.42629511556E+02  0.47787272381E+02  0.20000006092E+02 0.  0.
         12    1    3    3    0    0 -0.57963657779E+01  0.57227656061E+01  0.42629511556E+02  0.43400727619E+02  0.00000000000E+00 0. -1.
         11    1    4    4    0    0  0.34024980605E+01  0.25514999438E+01 -0.16214489692E+01  0.45515098633E+01  0.51100000000E-03 0. -1.
        -11    1    4    4    0    0  0.35555455359E+01 -0.29095425077E+01 -0.49157696312E+01  0.67284569546E+01  0.51100000000E-03 0.  1.
        -12    1    4    4    0    0 -0.11616778185E+01 -0.53647230422E+01 -0.36092292955E+02  0.36507305563E+02  0.00000000000E+00 0.  1.
</event>
<event>
 8    1  0.3776180E-010  0.9118800E+02  0.7816164E-02  0.1184000E+00
        -11   -1    0    0    0    0  0.00000000000E+00  0.00000000000E+00  0.45593999997E+02  0.45594000000E+02  0.51100000000E-03 0. -1.
         11   -1    0    0    0    0 -0.00000000000E+00 -0.00000000000E+00 -0.45593999997E+02  0.45594000000E+02  0.51100000000E-03 0.  1.
         23    2    1    2    0    0  0.44408920985E-15  0.00000000000E+00  0.00000000000E+00  0.91188000000E+02  0.91188000000E+02 0.  0.
    9900012    2    3    3    0    0 -0.31270190276E+01 -0.90715882410E+01 -0.42326714914E+02  0.47787277004E+02  0.20000027171E+02 0.  0.
         12    1    3    3    0    0  0.31270190276E+01  0.90715882410E+01  0.42326714914E+02  0.43400722996E+02  0.00000000000E+00 0. -1.
         11    1    4    4    0    0  0.31572990666E+01  0.35138166870E-01 -0.14664859030E+02  0.15000928729E+02  0.51100000000E-03 0. -1.
        -11    1    4    4    0    0  0.19049249594E+00  0.33712478032E+01 -0.72999311301E+01  0.80430463076E+01  0.51100000000E-03 0.  1.
         12    1    4    4    0    0 -0.64748105902E+01 -0.12477974211E+02 -0.20361924753E+02  0.24743301967E+02  0.00000000000E+00 0. -1.
</event>
<event>
 8    1  0.3776180E-010  0.9118800E+02  0.7816164E-02  0.1184000E+00
        -11   -1    0    0    0    0  0.00000000000E+00  0.00000000000E+00  0.45593999997E+02  0.45594000000E+02  0.51100000000E-03 0. -1.
         11   -1    0    0    0    0 -0.00000000000E+00 -0.00000000000E+00 -0.45593999997E+02  0.45594000000E+02  0.51100000000E-03 0.  1.
         23    2    1    2    0    0  0.00000000000E+00  0.00000000000E+00  0.71054273576E-14  0.91188000000E+02  0.91188000000E+02 0.  0.
    9900012    2    3    3    0    0  0.96344701279E+01  0.29665888146E+01  0.42213733171E+02  0.47787274982E+02  0.20000017953E+02 0.  0.
        -12    1    3    3    0    0 -0.96344701279E+01 -0.29665888146E+01 -0.42213733171E+02  0.43400725018E+02  0.00000000000E+00 0.  1.
         11    1    4    4    0    0  0.62709118551E+01 -0.53331039039E+00  0.34228986196E+02  0.34802762128E+02  0.51100000000E-03 0. -1.
        -11    1    4    4    0    0  0.45458638852E+01 -0.11386476047E-01  0.80881222158E+01  0.92780778911E+01  0.51100000000E-03 0.  1.
        -12    1    4    4    0    0 -0.11823056124E+01  0.35112856811E+01 -0.10337524066E+00  0.37064349631E+01  0.00000000000E+00 0.  1.
</event>
<event>
 8    1  0.3776180E-010  0.9118800E+02  0.7816164E-02  0.1184000E+00
        -11   -1    0    0    0    0  0.00000000000E+00  0.00000000000E+00  0.45593999997E+02  0.45594000000E+02  0.51100000000E-03 0. -1.
         11   -1    0    0    0    0 -0.00000000000E+00 -0.00000000000E+00 -0.45593999997E+02  0.45594000000E+02  0.51100000000E-03 0.  1.
         23    2    1    2    0    0  0.00000000000E+00  0.71054273576E-14  0.00000000000E+00  0.91188000000E+02  0.91188000000E+02 0.  0.
    9900012    2    3    3    0    0  0.30051485264E+01  0.34744127107E+02 -0.25834820655E+02  0.47787271384E+02  0.20000001549E+02 0.  0.
         12    1    3    3    0    0 -0.30051485264E+01 -0.34744127107E+02  0.25834820655E+02  0.43400728616E+02  0.00000000000E+00 0. -1.
         11    1    4    4    0    0  0.35659634853E+01  0.54023342302E+01 -0.27873474916E+01  0.70477384325E+01  0.51100000000E-03 0. -1.
        -11    1    4    4    0    0 -0.30253742132E+01  0.29156219765E+02 -0.16269785463E+02  0.33525273442E+02  0.51100000000E-03 0.  1.
        -12    1    4    4    0    0  0.24645592543E+01  0.18557311185E+00 -0.67776877009E+01  0.72142595093E+01  0.00000000000E+00 0.  1.
</event>
<event>
 8    1  0.3776180E-010  0.9118800E+02  0.7816164E-02  0.1184000E+00
        -11   -1    0    0    0    0  0.00000000000E+00  0.00000000000E+00  0.45593999997E+02  0.45594000000E+02  0.51100000000E-03 0. -1.
         11   -1    0    0    0    0 -0.00000000000E+00 -0.00000000000E+00 -0.45593999997E+02  0.45594000000E+02  0.51100000000E-03 0.  1.
         23    2    1    2    0    0  0.00000000000E+00  0.00000000000E+00 -0.35527136788E-14  0.91188000000E+02  0.91188000000E+02 0.  0.
    9900012    2    3    3    0    0 -0.31375512400E+02 -0.13516976957E+02 -0.26767365646E+02  0.47787270651E+02  0.19999998204E+02 0.  0.
         12    1    3    3    0    0  0.31375512400E+02  0.13516976957E+02  0.26767365646E+02  0.43400729349E+02  0.00000000000E+00 0. -1.
         11    1    4    4    0    0 -0.91196621879E+01 -0.10697864298E+02 -0.86454226970E+01  0.16503207956E+02  0.51100000000E-03 0. -1.
        -11    1    4    4    0    0 -0.14471470955E+02 -0.17936875411E+00 -0.17956292379E+02  0.23062612189E+02  0.51100000000E-03 0.  1.
         12    1    4    4    0    0 -0.77843792571E+01 -0.26397439049E+01 -0.16565057089E+00  0.82214505055E+01  0.00000000000E+00 0. -1.
</event>
<event>
 8    1  0.3776180E-010  0.9118800E+02  0.7816164E-02  0.1184000E+00
        -11   -1    0    0    0    0  0.00000000000E+00  0.00000000000E+00  0.45593999997E+02  0.45594000000E+02  0.51100000000E-03 0. -1.
         11   -1    0    0    0    0 -0.00000000000E+00 -0.00000000000E+00 -0.45593999997E+02  0.45594000000E+02  0.51100000000E-03 0.  1.
         23    2    1    2    0    0  0.00000000000E+00  0.00000000000E+00  0.00000000000E+00  0.91188000000E+02  0.91188000000E+02 0.  0.
    9900012    2    3    3    0    0 -0.16682906229E+02  0.12325034940E+02  0.38123441205E+02  0.47787278626E+02  0.20000034565E+02 0.  0.
        -12    1    3    3    0    0  0.16682906229E+02 -0.12325034940E+02 -0.38123441205E+02  0.43400721374E+02  0.00000000000E+00 0.  1.
         11    1    4    4    0    0 -0.85157255275E+01  0.48463363160E+01  0.24976548472E+02  0.26829694944E+02  0.51100000000E-03 0. -1.
        -11    1    4    4    0    0 -0.10877884427E+01  0.72966443479E+01  0.11538818811E+02  0.13695570169E+02  0.51100000000E-03 0.  1.
        -12    1    4    4    0    0 -0.70793922588E+01  0.18205427656E+00  0.16080739210E+01  0.72620135121E+01  0.00000000000E+00 0.  1.
</event>
<event>
 8    1  0.3776180E-010  0.9118800E+02  0.7816164E-02  0.1184000E+00
        -11   -1    0    0    0    0  0.00000000000E+00  0.00000000000E+00  0.45593999997E+02  0.45594000000E+02  0.51100000000E-03 0. -1.
         11   -1    0    0    0    0 -0.00000000000E+00 -0.00000000000E+00 -0.45593999997E+02  0.45594000000E+02  0.51100000000E-03 0.  1.
         23    2    1    2    0    0  0.00000000000E+00 -0.17763568394E-14  0.00000000000E+00  0.91188000000E+02  0.91188000000E+02 0.  0.
    9900012    2    3    3    0    0 -0.24320865130E+02  0.11455378350E+02 -0.34071878633E+02  0.47787273193E+02  0.20000009796E+02 0.  0.
         12    1    3    3    0    0  0.24320865130E+02 -0.11455378350E+02  0.34071878633E+02  0.43400726807E+02  0.00000000000E+00 0. -1.
         11    1    4    4    0    0 -0.12745726152E+02  0.11500125608E+02 -0.13919173109E+02  0.22100900534E+02  0.51100000000E-03 0. -1.
        -11    1    4    4    0    0 -0.54572017845E+01  0.54314215181E+01 -0.10335337088E+02  0.12888001552E+02  0.51100000000E-03 0.  1.
        -12    1    4    4    0    0 -0.61179371941E+01 -0.54761687765E+01 -0.98173684358E+01  0.12798371107E+02  0.00000000000E+00 0.  1.
</event>
<event>
 8    1  0.3776180E-010  0.9118800E+02  0.7816164E-02  0.1184000E+00
        -11   -1    0    0    0    0  0.00000000000E+00  0.00000000000E+00  0.45593999997E+02  0.45594000000E+02  0.51100000000E-03 0.  1.
         11   -1    0    0    0    0 -0.00000000000E+00 -0.00000000000E+00 -0.45593999997E+02  0.45594000000E+02  0.51100000000E-03 0. -1.
         23    2    1    2    0    0 -0.88817841970E-15 -0.35527136788E-14  0.00000000000E+00  0.91188000000E+02  0.91188000000E+02 0.  0.
    9900012    2    3    3    0    0 -0.72302056857E+01  0.31070161530E+02  0.29427752538E+02  0.47787269232E+02  0.19999991735E+02 0.  0.
        -12    1    3    3    0    0  0.72302056857E+01 -0.31070161530E+02 -0.29427752538E+02  0.43400730768E+02  0.00000000000E+00 0.  1.
         11    1    4    4    0    0 -0.16679581806E+01 -0.13292737427E+01  0.42270728713E+01  0.47346804006E+01  0.51100000000E-03 0. -1.
        -11    1    4    4    0    0  0.16607752522E+01  0.72323843146E-02  0.17701206554E+01  0.24272523852E+01  0.51100000000E-03 0.  1.
         12    1    4    4    0    0 -0.72230227574E+01  0.32392202889E+02  0.23430559011E+02  0.40625336446E+02  0.00000000000E+00 0. -1.
</event>
<event>
 8    1  0.3776180E-010  0.9118800E+02  0.7816164E-02  0.1184000E+00
        -11   -1    0    0    0    0  0.00000000000E+00  0.00000000000E+00  0.45593999997E+02  0.45594000000E+02  0.51100000000E-03 0. -1.
         11   -1    0    0    0    0 -0.00000000000E+00 -0.00000000000E+00 -0.45593999997E+02  0.45594000000E+02  0.51100000000E-03 0.  1.
         23    2    1    2    0    0  0.00000000000E+00  0.44408920985E-15  0.00000000000E+00  0.91188000000E+02  0.91188000000E+02 0.  0.
    9900012    2    3    3    0    0  0.21552710212E+02 -0.35633761468E+01  0.37502084070E+02  0.47787271013E+02  0.19999999855E+02 0.  0.
        -12    1    3    3    0    0 -0.21552710212E+02  0.35633761468E+01 -0.37502084070E+02  0.43400728987E+02  0.00000000000E+00 0.  1.
         11    1    4    4    0    0 -0.88520730407E+00  0.57037698968E+00  0.44889366182E+01  0.46107997251E+01  0.51100000000E-03 0. -1.
        -11    1    4    4    0    0 -0.24909114378E+01  0.26521644577E+00  0.26841010144E+01  0.36714272526E+01  0.51100000000E-03 0.  1.
        -12    1    4    4    0    0  0.24928828954E+02 -0.43989695823E+01  0.30329046437E+02  0.39505044035E+02  0.00000000000E+00 0.  1.
</event>
<event>
 8    1  0.3776180E-010  0.9118800E+02  0.7816164E-02  0.1184000E+00
        -11   -1    0    0    0    0  0.00000000000E+00  0.00000000000E+00  0.45593999997E+02  0.45594000000E+02  0.51100000000E-03 0.  1.
         11   -1    0    0    0    0 -0.00000000000E+00 -0.00000000000E+00 -0.45593999997E+02  0.45594000000E+02  0.51100000000E-03 0. -1.
         23    2    1    2    0    0  0.00000000000E+00  0.00000000000E+00  0.00000000000E+00  0.91188000000E+02  0.91188000000E+02 0.  0.
    9900012    2    3    3    0    0 -0.10090934579E+02 -0.40541353909E+02 -0.11755627552E+02  0.47787272857E+02  0.20000008263E+02 0.  0.
         12    1    3    3    0    0  0.10090934579E+02  0.40541353909E+02  0.11755627552E+02  0.43400727143E+02  0.00000000000E+00 0. -1.
         11    1    4    4    0    0 -0.35794369709E+01 -0.92622919585E+01 -0.67021264778E+01  0.11980021742E+02  0.51100000000E-03 0. -1.
        -11    1    4    4    0    0 -0.17511157364E+01 -0.44394831439E+01 -0.70081675884E+01  0.84787870663E+01  0.51100000000E-03 0.  1.
        -12    1    4    4    0    0 -0.47603818719E+01 -0.26839578806E+02  0.19546665138E+01  0.27328464048E+02  0.00000000000E+00 0.  1.
</event>
<event>
 8    1  0.3776180E-010  0.9118800E+02  0.7816164E-02  0.1184000E+00
        -11   -1    0    0    0    0  0.00000000000E+00  0.00000000000E+00  0.45593999997E+02  0.45594000000E+02  0.51100000000E-03 0. -1.
         11   -1    0    0    0    0 -0.00000000000E+00 -0.00000000000E+00 -0.45593999997E+02  0.45594000000E+02  0.51100000000E-03 0.  1.
         23    2    1    2    0    0  0.35527136788E-14 -0.66613381478E-15  0.00000000000E+00  0.91188000000E+02  0.91188000000E+02 0.  0.
    9900012    2    3    3    0    0  0.23847721415E+02 -0.18053163785E+01 -0.36216712359E+02  0.47787271457E+02  0.20000001883E+02 0.  0.
         12    1    3    3    0    0 -0.23847721415E+02  0.18053163785E+01  0.36216712359E+02  0.43400728543E+02  0.00000000000E+00 0. -1.
         11    1    4    4    0    0 -0.93223680014E+00 -0.34812404451E+01 -0.63637265368E+01  0.73133519118E+01  0.51100000000E-03 0. -1.
        -11    1    4    4    0    0  0.85404182391E+01 -0.34514447480E+00 -0.30602181759E+01  0.90787005652E+01  0.51100000000E-03 0.  1.
        -12    1    4    4    0    0  0.16239539976E+02  0.20210685414E+01 -0.26792767646E+02  0.31395218981E+02  0.00000000000E+00 0.  1.
</event>
<event>
 8    1  0.3776180E-010  0.9118800E+02  0.7816164E-02  0.1184000E+00
        -11   -1    0    0    0    0  0.00000000000E+00  0.00000000000E+00  0.45593999997E+02  0.45594000000E+02  0.51100000000E-03 0. -1.
         11   -1    0    0    0    0 -0.00000000000E+00 -0.00000000000E+00 -0.45593999997E+02  0.45594000000E+02  0.51100000000E-03 0.  1.
         23    2    1    2    0    0  0.35527136788E-14  0.00000000000E+00  0.00000000000E+00  0.91188000000E+02  0.91188000000E+02 0.  0.
    9900012    2    3    3    0    0 -0.30474543603E+02 -0.88399654865E+01 -0.29610566622E+02  0.47787211375E+02  0.19999727942E+02 0.  0.
         12    1    3    3    0    0  0.30474543603E+02  0.88399654865E+01  0.29610566622E+02  0.43400788625E+02  0.00000000000E+00 0. -1.
         11    1    4    4    0    0 -0.47898086044E+01 -0.28460177405E+01 -0.18171048747E+01  0.58603714757E+01  0.51100000000E-03 0. -1.
        -11    1    4    4    0    0 -0.20714732984E+02 -0.43807559326E+00 -0.10788809016E+02  0.23360018687E+02  0.51100000000E-03 0.  1.
         12    1    4    4    0    0 -0.49700020139E+01 -0.55558721527E+01 -0.17004652732E+02  0.18566821212E+02  0.00000000000E+00 0. -1.
</event>
<event>
 8    1  0.3776180E-010  0.9118800E+02  0.7816164E-02  0.1184000E+00
        -11   -1    0    0    0    0  0.00000000000E+00  0.00000000000E+00  0.45593999997E+02  0.45594000000E+02  0.51100000000E-03 0. -1.
         11   -1    0    0    0    0 -0.00000000000E+00 -0.00000000000E+00 -0.45593999997E+02  0.45594000000E+02  0.51100000000E-03 0.  1.
         23    2    1    2    0    0  0.00000000000E+00  0.00000000000E+00  0.00000000000E+00  0.91188000000E+02  0.91188000000E+02 0.  0.
    9900012    2    3    3    0    0 -0.16039796295E+02 -0.18759836924E+02 -0.35698972897E+02  0.47787271752E+02  0.20000003224E+02 0.  0.
         12    1    3    3    0    0  0.16039796295E+02  0.18759836924E+02  0.35698972897E+02  0.43400728248E+02  0.00000000000E+00 0. -1.
         11    1    4    4    0    0 -0.52180223259E+01 -0.33223351239E+01 -0.11731078315E+02  0.13262121488E+02  0.51100000000E-03 0.  1.
        -11    1    4    4    0    0 -0.11719608994E+02 -0.10886167685E+02 -0.79757424508E+01  0.17873733514E+02  0.51100000000E-03 0. -1.
         12    1    4    4    0    0  0.89783502512E+00 -0.45513341150E+01 -0.15992152132E+02  0.16651416749E+02  0.00000000000E+00 0. -1.
</event>
<event>
 8    1  0.3776180E-010  0.9118800E+02  0.7816164E-02  0.1184000E+00
        -11   -1    0    0    0    0  0.00000000000E+00  0.00000000000E+00  0.45593999997E+02  0.45594000000E+02  0.51100000000E-03 0. -1.
         11   -1    0    0    0    0 -0.00000000000E+00 -0.00000000000E+00 -0.45593999997E+02  0.45594000000E+02  0.51100000000E-03 0.  1.
         23    2    1    2    0    0 -0.35527136788E-14 -0.71054273576E-14 -0.17763568394E-14  0.91188000000E+02  0.91188000000E+02 0.  0.
    9900012    2    3    3    0    0 -0.23533436866E+02 -0.35441422877E+02 -0.85852294802E+01  0.47787271072E+02  0.20000000127E+02 0.  0.
         12    1    3    3    0    0  0.23533436866E+02  0.35441422877E+02  0.85852294802E+01  0.43400728928E+02  0.00000000000E+00 0. -1.
         11    1    4    4    0    0 -0.11972107366E+02 -0.10481916559E+02 -0.57998464229E+01  0.16936355816E+02  0.51100000000E-03 0.  1.
        -11    1    4    4    0    0 -0.48052521301E+01 -0.57637748385E+00 -0.27145566135E+01  0.55490068397E+01  0.51100000000E-03 0. -1.
         12    1    4    4    0    0 -0.67560773693E+01 -0.24383128833E+02 -0.70826443854E-01  0.25301908416E+02  0.00000000000E+00 0. -1.
</event>
<event>
 8    1  0.3776180E-010  0.9118800E+02  0.7816164E-02  0.1184000E+00
        -11   -1    0    0    0    0  0.00000000000E+00  0.00000000000E+00  0.45593999997E+02  0.45594000000E+02  0.51100000000E-03 0. -1.
         11   -1    0    0    0    0 -0.00000000000E+00 -0.00000000000E+00 -0.45593999997E+02  0.45594000000E+02  0.51100000000E-03 0.  1.
         23    2    1    2    0    0  0.00000000000E+00  0.00000000000E+00  0.22204460493E-15  0.91188000000E+02  0.91188000000E+02 0.  0.
    9900012    2    3    3    0    0 -0.19228663837E+02 -0.38878101602E+02  0.15408384702E+01  0.47787280186E+02  0.20000041681E+02 0.  0.
        -12    1    3    3    0    0  0.19228663837E+02  0.38878101602E+02 -0.15408384702E+01  0.43400719814E+02  0.00000000000E+00 0.  1.
         11    1    4    4    0    0 -0.15091220218E+02 -0.24356456602E+02  0.89101197029E+01  0.30006201680E+02  0.51100000000E-03 0.  1.
        -11    1    4    4    0    0 -0.14338982713E+01 -0.66745683648E+01 -0.22593418032E+00  0.68305910157E+01  0.51100000000E-03 0. -1.
        -12    1    4    4    0    0 -0.27035453476E+01 -0.78470766360E+01 -0.71433470524E+01  0.10950487491E+02  0.00000000000E+00 0.  1.
</event>
<event>
 8    1  0.3776180E-010  0.9118800E+02  0.7816164E-02  0.1184000E+00
        -11   -1    0    0    0    0  0.00000000000E+00  0.00000000000E+00  0.45593999997E+02  0.45594000000E+02  0.51100000000E-03 0. -1.
         11   -1    0    0    0    0 -0.00000000000E+00 -0.00000000000E+00 -0.45593999997E+02  0.45594000000E+02  0.51100000000E-03 0.  1.
         23    2    1    2    0    0 -0.88817841970E-15 -0.35527136788E-14  0.00000000000E+00  0.91188000000E+02  0.91188000000E+02 0.  0.
    9900012    2    3    3    0    0 -0.50642272481E+01 -0.21413138577E+02 -0.37409279444E+02  0.47787273164E+02  0.20000009665E+02 0.  0.
         12    1    3    3    0    0  0.50642272481E+01  0.21413138577E+02  0.37409279444E+02  0.43400726836E+02  0.00000000000E+00 0. -1.
         11    1    4    4    0    0  0.30810467150E+01 -0.11024757696E+02 -0.13435253441E+02  0.17650613768E+02  0.51100000000E-03 0. -1.
        -11    1    4    4    0    0 -0.74691851657E-01 -0.34331282511E+00 -0.13571796158E+02  0.13576343167E+02  0.51100000000E-03 0.  1.
        -12    1    4    4    0    0 -0.80705821115E+01 -0.10045068055E+02 -0.10402229846E+02  0.16560316229E+02  0.00000000000E+00 0.  1.
</event>
<event>
 8    1  0.3776180E-010  0.9118800E+02  0.7816164E-02  0.1184000E+00
        -11   -1    0    0    0    0  0.00000000000E+00  0.00000000000E+00  0.45593999997E+02  0.45594000000E+02  0.51100000000E-03 0. -1.
         11   -1    0    0    0    0 -0.00000000000E+00 -0.00000000000E+00 -0.45593999997E+02  0.45594000000E+02  0.51100000000E-03 0.  1.
         23    2    1    2    0    0 -0.71054273576E-14  0.00000000000E+00 -0.17763568394E-14  0.91188000000E+02  0.91188000000E+02 0.  0.
    9900012    2    3    3    0    0  0.37838215699E+02 -0.16610911183E+02 -0.13265414342E+02  0.47787260890E+02  0.19999953703E+02 0.  0.
         12    1    3    3    0    0 -0.37838215699E+02  0.16610911183E+02  0.13265414342E+02  0.43400739110E+02  0.00000000000E+00 0. -1.
         11    1    4    4    0    0  0.21904244124E+02 -0.73581620529E+01 -0.57887975164E+01  0.23821180416E+02  0.51100000000E-03 0. -1.
        -11    1    4    4    0    0  0.18353660231E+02 -0.77629360997E+01 -0.66000083895E+01  0.20992382708E+02  0.51100000000E-03 0.  1.
         12    1    4    4    0    0 -0.24196886561E+01 -0.14898130304E+01 -0.87660843652E+00  0.29736977669E+01  0.00000000000E+00 0. -1.
</event>
<event>
 8    1  0.3776180E-010  0.9118800E+02  0.7816164E-02  0.1184000E+00
        -11   -1    0    0    0    0  0.00000000000E+00  0.00000000000E+00  0.45593999997E+02  0.45594000000E+02  0.51100000000E-03 0. -1.
         11   -1    0    0    0    0 -0.00000000000E+00 -0.00000000000E+00 -0.45593999997E+02  0.45594000000E+02  0.51100000000E-03 0.  1.
         23    2    1    2    0    0  0.00000000000E+00 -0.71054273576E-14  0.35527136788E-14  0.91188000000E+02  0.91188000000E+02 0.  0.
    9900012    2    3    3    0    0 -0.29001341106E+02 -0.27634729751E+02  0.16699311284E+02  0.47787273373E+02  0.20000010618E+02 0.  0.
        -12    1    3    3    0    0  0.29001341106E+02  0.27634729751E+02 -0.16699311284E+02  0.43400726627E+02  0.00000000000E+00 0.  1.
         11    1    4    4    0    0 -0.21663041470E+02 -0.15201849575E+02  0.14566378699E+02  0.30208657450E+02  0.51100000000E-03 0. -1.
        -11    1    4    4    0    0 -0.78635539460E+00 -0.53023255032E+01  0.51524794710E+01  0.74351230998E+01  0.51100000000E-03 0.  1.
        -12    1    4    4    0    0 -0.65519442409E+01 -0.71305546724E+01 -0.30195468854E+01  0.10143492824E+02  0.00000000000E+00 0.  1.
</event>
<event>
 8    1  0.3776180E-010  0.9118800E+02  0.7816164E-02  0.1184000E+00
        -11   -1    0    0    0    0  0.00000000000E+00  0.00000000000E+00  0.45593999997E+02  0.45594000000E+02  0.51100000000E-03 0. -1.
         11   -1    0    0    0    0 -0.00000000000E+00 -0.00000000000E+00 -0.45593999997E+02  0.45594000000E+02  0.51100000000E-03 0.  1.
         23    2    1    2    0    0  0.00000000000E+00 -0.35527136788E-14  0.00000000000E+00  0.91188000000E+02  0.91188000000E+02 0.  0.
    9900012    2    3    3    0    0 -0.24769123452E+01  0.18636044471E+02  0.39117593608E+02  0.47787269845E+02  0.19999994530E+02 0.  0.
        -12    1    3    3    0    0  0.24769123452E+01 -0.18636044471E+02 -0.39117593608E+02  0.43400730155E+02  0.00000000000E+00 0.  1.
         11    1    4    4    0    0  0.68160854213E+00  0.21101385850E+00  0.44458119938E+01  0.45027060307E+01  0.51100000000E-03 0. -1.
        -11    1    4    4    0    0  0.97740740007E+00  0.20542381686E+02  0.31640483347E+02  0.37736785200E+02  0.51100000000E-03 0.  1.
        -12    1    4    4    0    0 -0.41359282874E+01 -0.21173510730E+01  0.30312982679E+01  0.55477786143E+01  0.00000000000E+00 0.  1.
</event>
<event>
 8    1  0.4271493E-010  0.9118800E+02  0.7816164E-02  0.1184000E+00
        -11   -1    0    0    0    0  0.00000000000E+00  0.00000000000E+00  0.45593999997E+02  0.45594000000E+02  0.51100000000E-03 0. -1.
         11   -1    0    0    0    0 -0.00000000000E+00 -0.00000000000E+00 -0.45593999997E+02  0.45594000000E+02  0.51100000000E-03 0.  1.
         23    2    1    2    0    0 -0.17763568394E-14  0.00000000000E+00  0.00000000000E+00  0.91188000000E+02  0.91188000000E+02 0.  0.
    9900012    2    3    3    0    0 -0.13650197209E+02 -0.36543958902E+02  0.19021953324E+02  0.47787268159E+02  0.19999986843E+02 0.  0.
        -12    1    3    3    0    0  0.13650197209E+02  0.36543958902E+02 -0.19021953324E+02  0.43400731841E+02  0.00000000000E+00 0.  1.
         11    1    4    4    0    0 -0.60843915337E+01 -0.10839947806E+02  0.66942883356E+01  0.14118703388E+02  0.51100000000E-03 0. -1.
        -11    1    4    4    0    0  0.11340771031E+01 -0.55848921622E+00  0.62483112660E+01  0.63749066674E+01  0.51100000000E-03 0.  1.
        -12    1    4    4    0    0 -0.86998827784E+01 -0.25145521880E+02  0.60793537224E+01  0.27293658104E+02  0.00000000000E+00 0.  1.
</event>
<event>
 8    1  0.3776180E-010  0.9118800E+02  0.7816164E-02  0.1184000E+00
        -11   -1    0    0    0    0  0.00000000000E+00  0.00000000000E+00  0.45593999997E+02  0.45594000000E+02  0.51100000000E-03 0. -1.
         11   -1    0    0    0    0 -0.00000000000E+00 -0.00000000000E+00 -0.45593999997E+02  0.45594000000E+02  0.51100000000E-03 0.  1.
         23    2    1    2    0    0  0.00000000000E+00  0.00000000000E+00  0.00000000000E+00  0.91188000000E+02  0.91188000000E+02 0.  0.
    9900012    2    3    3    0    0 -0.25964278467E+02  0.13248227491E+02  0.32155318832E+02  0.47787264785E+02  0.19999971463E+02 0.  0.
        -12    1    3    3    0    0  0.25964278467E+02 -0.13248227491E+02 -0.32155318832E+02  0.43400735215E+02  0.00000000000E+00 0.  1.
         11    1    4    4    0    0 -0.11446237834E+02  0.57705994265E+01  0.75290677239E+01  0.14866170971E+02  0.51100000000E-03 0. -1.
        -11    1    4    4    0    0 -0.11950969938E+02  0.48008075242E+01  0.65135774215E+01  0.14432606363E+02  0.51100000000E-03 0.  1.
        -12    1    4    4    0    0 -0.25670706954E+01  0.26768205402E+01  0.18112673687E+02  0.18488487452E+02  0.00000000000E+00 0.  1.
</event>
<event>
 8    1  0.3776180E-010  0.9118800E+02  0.7816164E-02  0.1184000E+00
        -11   -1    0    0    0    0  0.00000000000E+00  0.00000000000E+00  0.45593999997E+02  0.45594000000E+02  0.51100000000E-03 0. -1.
         11   -1    0    0    0    0 -0.00000000000E+00 -0.00000000000E+00 -0.45593999997E+02  0.45594000000E+02  0.51100000000E-03 0.  1.
         23    2    1    2    0    0  0.00000000000E+00  0.00000000000E+00  0.00000000000E+00  0.91188000000E+02  0.91188000000E+02 0.  0.
    9900012    2    3    3    0    0  0.36159673918E+02 -0.11334132960E+02  0.21157516556E+02  0.47787250068E+02  0.19999904361E+02 0.  0.
        -12    1    3    3    0    0 -0.36159673918E+02  0.11334132960E+02 -0.21157516556E+02  0.43400749932E+02  0.00000000000E+00 0.  1.
         11    1    4    4    0    0  0.98154592196E+01 -0.21822018468E+01  0.37059683355E+00  0.10061937530E+02  0.51100000000E-03 0. -1.
        -11    1    4    4    0    0  0.26761390409E+01  0.54624299853E+00 -0.20665145965E+01  0.34249940757E+01  0.51100000000E-03 0.  1.
         12    1    4    4    0    0  0.23668075658E+02 -0.96981741116E+01  0.22853434319E+02  0.34300318462E+02  0.00000000000E+00 0. -1.
</event>
<event>
 8    1  0.3776180E-010  0.9118800E+02  0.7816164E-02  0.1184000E+00
        -11   -1    0    0    0    0  0.00000000000E+00  0.00000000000E+00  0.45593999997E+02  0.45594000000E+02  0.51100000000E-03 0. -1.
         11   -1    0    0    0    0 -0.00000000000E+00 -0.00000000000E+00 -0.45593999997E+02  0.45594000000E+02  0.51100000000E-03 0.  1.
         23    2    1    2    0    0  0.00000000000E+00  0.00000000000E+00  0.00000000000E+00  0.91188000000E+02  0.91188000000E+02 0.  0.
    9900012    2    3    3    0    0  0.12388883010E+02 -0.37983810664E+02  0.16951965057E+02  0.47787269429E+02  0.19999992636E+02 0.  0.
        -12    1    3    3    0    0 -0.12388883010E+02  0.37983810664E+02 -0.16951965057E+02  0.43400730571E+02  0.00000000000E+00 0.  1.
         11    1    4    4    0    0  0.46114357881E+01 -0.33650414460E+02  0.16164422737E+02  0.37615213624E+02  0.51100000000E-03 0. -1.
        -11    1    4    4    0    0  0.97654071182E+00 -0.28328256320E+01  0.11218717129E+01  0.31995514099E+01  0.51100000000E-03 0.  1.
        -12    1    4    4    0    0  0.68009065096E+01 -0.15005705723E+01 -0.33432939283E+00  0.69725043950E+01  0.00000000000E+00 0.  1.
</event>
<event>
 8    1  0.3776180E-010  0.9118800E+02  0.7816164E-02  0.1184000E+00
        -11   -1    0    0    0    0  0.00000000000E+00  0.00000000000E+00  0.45593999997E+02  0.45594000000E+02  0.51100000000E-03 0. -1.
         11   -1    0    0    0    0 -0.00000000000E+00 -0.00000000000E+00 -0.45593999997E+02  0.45594000000E+02  0.51100000000E-03 0.  1.
         23    2    1    2    0    0 -0.88817841970E-15 -0.17763568394E-14 -0.71054273576E-14  0.91188000000E+02  0.91188000000E+02 0.  0.
    9900012    2    3    3    0    0 -0.44082280017E+01 -0.13415624834E+02 -0.41039147841E+02  0.47787272825E+02  0.20000008118E+02 0.  0.
         12    1    3    3    0    0  0.44082280017E+01  0.13415624834E+02  0.41039147841E+02  0.43400727175E+02  0.00000000000E+00 0. -1.
         11    1    4    4    0    0 -0.86646491172E+01 -0.13709343906E+02 -0.34288736073E+02  0.37930722066E+02  0.51100000000E-03 0. -1.
        -11    1    4    4    0    0  0.20370348799E+01 -0.95377991591E+00 -0.69479268261E+01  0.73029374002E+01  0.51100000000E-03 0.  1.
         12    1    4    4    0    0  0.22193862356E+01  0.12474989881E+01  0.19751505833E+00  0.25536133588E+01  0.00000000000E+00 0. -1.
</event>
<event>
 8    1  0.3776180E-010  0.9118800E+02  0.7816164E-02  0.1184000E+00
        -11   -1    0    0    0    0  0.00000000000E+00  0.00000000000E+00  0.45593999997E+02  0.45594000000E+02  0.51100000000E-03 0. -1.
         11   -1    0    0    0    0 -0.00000000000E+00 -0.00000000000E+00 -0.45593999997E+02  0.45594000000E+02  0.51100000000E-03 0.  1.
         23    2    1    2    0    0  0.00000000000E+00 -0.35527136788E-14  0.00000000000E+00  0.91188000000E+02  0.91188000000E+02 0.  0.
    9900012    2    3    3    0    0 -0.18992203558E+02 -0.19931259388E+02  0.33550911385E+02  0.47787279366E+02  0.20000037943E+02 0.  0.
        -12    1    3    3    0    0  0.18992203558E+02  0.19931259388E+02 -0.33550911385E+02  0.43400720634E+02  0.00000000000E+00 0.  1.
         11    1    4    4    0    0 -0.39975397779E+01  0.10640890745E+01  0.10290968383E+01  0.42628218820E+01  0.51100000000E-03 0. -1.
        -11    1    4    4    0    0 -0.38540477159E+01  0.12091800493E+01  0.54183024773E+01  0.67582395773E+01  0.51100000000E-03 0.  1.
         12    1    4    4    0    0 -0.11140616064E+02 -0.22204528512E+02  0.27103512069E+02  0.36766217907E+02  0.00000000000E+00 0. -1.
</event>
<event>
 8    1  0.3776180E-010  0.9118800E+02  0.7816164E-02  0.1184000E+00
        -11   -1    0    0    0    0  0.00000000000E+00  0.00000000000E+00  0.45593999997E+02  0.45594000000E+02  0.51100000000E-03 0. -1.
         11   -1    0    0    0    0 -0.00000000000E+00 -0.00000000000E+00 -0.45593999997E+02  0.45594000000E+02  0.51100000000E-03 0.  1.
         23    2    1    2    0    0  0.88817841970E-15  0.55511151231E-16  0.00000000000E+00  0.91188000000E+02  0.91188000000E+02 0.  0.
    9900012    2    3    3    0    0  0.28214958441E+01 -0.39529507117E+00  0.43307114744E+02  0.47787270923E+02  0.19999999447E+02 0.  0.
        -12    1    3    3    0    0 -0.28214958441E+01  0.39529507117E+00 -0.43307114744E+02  0.43400729077E+02  0.00000000000E+00 0.  1.
         11    1    4    4    0    0  0.61761288642E+01  0.21345691876E+01  0.13318292483E+02  0.14835021682E+02  0.51100000000E-03 0. -1.
        -11    1    4    4    0    0  0.19526915072E+01 -0.61956627394E+01  0.97955846354E+01  0.11753838501E+02  0.51100000000E-03 0.  1.
        -12    1    4    4    0    0 -0.53073245273E+01  0.36657984807E+01  0.20193237625E+02  0.21198410740E+02  0.00000000000E+00 0.  1.
</event>
<event>
 8    1  0.3776180E-010  0.9118800E+02  0.7816164E-02  0.1184000E+00
        -11   -1    0    0    0    0  0.00000000000E+00  0.00000000000E+00  0.45593999997E+02  0.45594000000E+02  0.51100000000E-03 0. -1.
         11   -1    0    0    0    0 -0.00000000000E+00 -0.00000000000E+00 -0.45593999997E+02  0.45594000000E+02  0.51100000000E-03 0.  1.
         23    2    1    2    0    0  0.00000000000E+00 -0.17763568394E-14  0.35527136788E-14  0.91188000000E+02  0.91188000000E+02 0.  0.
    9900012    2    3    3    0    0 -0.34072228964E+02  0.12353355096E+02  0.23876794099E+02  0.47787268841E+02  0.19999989954E+02 0.  0.
        -12    1    3    3    0    0  0.34072228964E+02 -0.12353355096E+02 -0.23876794099E+02  0.43400731159E+02  0.00000000000E+00 0.  1.
         11    1    4    4    0    0  0.24338786028E+00  0.22463797710E+01 -0.32111350185E+00  0.22822300209E+01  0.51100000000E-03 0.  1.
        -11    1    4    4    0    0 -0.16829272766E+01 -0.29448990849E+01  0.21394194011E+01  0.40102107767E+01  0.51100000000E-03 0. -1.
        -12    1    4    4    0    0 -0.32632689547E+02  0.13051874410E+02  0.22058488200E+02  0.41494828043E+02  0.00000000000E+00 0.  1.
</event>
<event>
 8    1  0.3776180E-010  0.9118800E+02  0.7816164E-02  0.1184000E+00
        -11   -1    0    0    0    0  0.00000000000E+00  0.00000000000E+00  0.45593999997E+02  0.45594000000E+02  0.51100000000E-03 0. -1.
         11   -1    0    0    0    0 -0.00000000000E+00 -0.00000000000E+00 -0.45593999997E+02  0.45594000000E+02  0.51100000000E-03 0.  1.
         23    2    1    2    0    0  0.00000000000E+00  0.00000000000E+00  0.00000000000E+00  0.91188000000E+02  0.91188000000E+02 0.  0.
    9900012    2    3    3    0    0 -0.36160432256E+02 -0.17878792168E+02  0.16012350630E+02  0.47787269096E+02  0.19999991117E+02 0.  0.
        -12    1    3    3    0    0  0.36160432256E+02  0.17878792168E+02 -0.16012350630E+02  0.43400730904E+02  0.00000000000E+00 0.  1.
         11    1    4    4    0    0 -0.16776458588E+01 -0.40539703102E+01  0.19755153416E+01  0.48116350682E+01  0.51100000000E-03 0. -1.
        -11    1    4    4    0    0  0.12781869734E+01  0.93545195269E+00 -0.47883353535E+00  0.16547247839E+01  0.51100000000E-03 0.  1.
         12    1    4    4    0    0 -0.35760973370E+02 -0.14760273810E+02  0.14515668824E+02  0.41320909244E+02  0.00000000000E+00 0. -1.
</event>
<event>
 8    1  0.3776180E-010  0.9118800E+02  0.7816164E-02  0.1184000E+00
        -11   -1    0    0    0    0  0.00000000000E+00  0.00000000000E+00  0.45593999997E+02  0.45594000000E+02  0.51100000000E-03 0.  1.
         11   -1    0    0    0    0 -0.00000000000E+00 -0.00000000000E+00 -0.45593999997E+02  0.45594000000E+02  0.51100000000E-03 0. -1.
         23    2    1    2    0    0  0.00000000000E+00  0.17763568394E-14  0.00000000000E+00  0.91188000000E+02  0.91188000000E+02 0.  0.
    9900012    2    3    3    0    0 -0.36180807856E+02  0.14857968365E+02  0.18809914906E+02  0.47787274432E+02  0.20000015446E+02 0.  0.
        -12    1    3    3    0    0  0.36180807856E+02 -0.14857968365E+02 -0.18809914906E+02  0.43400725568E+02  0.00000000000E+00 0.  1.
         11    1    4    4    0    0 -0.14922025883E+02  0.51959028037E+01  0.85565699215E+00  0.15823918969E+02  0.51100000000E-03 0. -1.
        -11    1    4    4    0    0 -0.97022184530E+01 -0.10550222115E+01  0.29327731950E+01  0.10190548251E+02  0.51100000000E-03 0.  1.
        -12    1    4    4    0    0 -0.11556563520E+02  0.10717087773E+02  0.15021484719E+02  0.21772807212E+02  0.00000000000E+00 0.  1.
</event>
<event>
 8    1  0.3776180E-010  0.9118800E+02  0.7816164E-02  0.1184000E+00
        -11   -1    0    0    0    0  0.00000000000E+00  0.00000000000E+00  0.45593999997E+02  0.45594000000E+02  0.51100000000E-03 0. -1.
         11   -1    0    0    0    0 -0.00000000000E+00 -0.00000000000E+00 -0.45593999997E+02  0.45594000000E+02  0.51100000000E-03 0.  1.
         23    2    1    2    0    0  0.00000000000E+00  0.00000000000E+00  0.35527136788E-14  0.91188000000E+02  0.91188000000E+02 0.  0.
    9900012    2    3    3    0    0 -0.14580051906E+02  0.34474851178E+02 -0.21966569587E+02  0.47787268938E+02  0.19999990394E+02 0.  0.
         12    1    3    3    0    0  0.14580051906E+02 -0.34474851178E+02  0.21966569587E+02  0.43400731062E+02  0.00000000000E+00 0. -1.
         11    1    4    4    0    0 -0.30828247308E+01  0.15948340934E+02 -0.13208198910E+02  0.20935852158E+02  0.51100000000E-03 0.  1.
        -11    1    4    4    0    0 -0.41370842903E+01  0.21938575269E+01 -0.75652662365E+01  0.88972878319E+01  0.51100000000E-03 0. -1.
         12    1    4    4    0    0 -0.73601428853E+01  0.16332652717E+02 -0.11931044401E+01  0.17954128948E+02  0.00000000000E+00 0. -1.
</event>
<event>
 8    1  0.3776180E-010  0.9118800E+02  0.7816164E-02  0.1184000E+00
        -11   -1    0    0    0    0  0.00000000000E+00  0.00000000000E+00  0.45593999997E+02  0.45594000000E+02  0.51100000000E-03 0. -1.
         11   -1    0    0    0    0 -0.00000000000E+00 -0.00000000000E+00 -0.45593999997E+02  0.45594000000E+02  0.51100000000E-03 0.  1.
         23    2    1    2    0    0  0.44408920985E-15  0.35527136788E-14  0.00000000000E+00  0.91188000000E+02  0.91188000000E+02 0.  0.
    9900012    2    3    3    0    0 -0.37291438700E+01 -0.25566529437E+02 -0.34872185968E+02  0.47787270794E+02  0.19999998856E+02 0.  0.
         12    1    3    3    0    0  0.37291438700E+01  0.25566529437E+02  0.34872185968E+02  0.43400729206E+02  0.00000000000E+00 0. -1.
         11    1    4    4    0    0 -0.74996081125E+01 -0.87701263445E+01 -0.12820094447E+02  0.17248595880E+02  0.51100000000E-03 0. -1.
        -11    1    4    4    0    0 -0.27768343134E+00 -0.15356516233E+02 -0.21166310808E+02  0.26151719109E+02  0.51100000000E-03 0.  1.
        -12    1    4    4    0    0  0.40481476738E+01 -0.14398868601E+01 -0.88578071301E+00  0.43869558044E+01  0.00000000000E+00 0.  1.
</event>
<event>
 8    1  0.3776180E-010  0.9118800E+02  0.7816164E-02  0.1184000E+00
        -11   -1    0    0    0    0  0.00000000000E+00  0.00000000000E+00  0.45593999997E+02  0.45594000000E+02  0.51100000000E-03 0. -1.
         11   -1    0    0    0    0 -0.00000000000E+00 -0.00000000000E+00 -0.45593999997E+02  0.45594000000E+02  0.51100000000E-03 0.  1.
         23    2    1    2    0    0 -0.35527136788E-14 -0.88817841970E-15 -0.35527136788E-14  0.91188000000E+02  0.91188000000E+02 0.  0.
    9900012    2    3    3    0    0 -0.30107795253E+02  0.21304388939E+01  0.31186610609E+02  0.47787276663E+02  0.20000025618E+02 0.  0.
        -12    1    3    3    0    0  0.30107795253E+02 -0.21304388939E+01 -0.31186610609E+02  0.43400723337E+02  0.00000000000E+00 0.  1.
         11    1    4    4    0    0 -0.56567807487E+01  0.44707557152E+01  0.11761408823E+02  0.13795563159E+02  0.51100000000E-03 0. -1.
        -11    1    4    4    0    0 -0.62185553385E+01  0.40377255300E+01  0.10135863336E+02  0.12558239677E+02  0.51100000000E-03 0.  1.
         12    1    4    4    0    0 -0.18232459166E+02 -0.63780423514E+01  0.92893384495E+01  0.21433473827E+02  0.00000000000E+00 0. -1.
</event>
<event>
 8    1 -0.3776180E-010  0.9118800E+02  0.7816164E-02  0.1184000E+00
        -11   -1    0    0    0    0  0.00000000000E+00  0.00000000000E+00  0.45593999997E+02  0.45594000000E+02  0.51100000000E-03 0.  1.
         11   -1    0    0    0    0 -0.00000000000E+00 -0.00000000000E+00 -0.45593999997E+02  0.45594000000E+02  0.51100000000E-03 0. -1.
         23    2    1    2    0    0  0.00000000000E+00  0.17763568394E-14 -0.88817841970E-15  0.91188000000E+02  0.91188000000E+02 0.  0.
    9900012    2    3    3    0    0 -0.42001956002E+02  0.84990065771E+01 -0.68721338248E+01  0.47787266780E+02  0.19999980555E+02 0.  0.
         12    1    3    3    0    0  0.42001956002E+02 -0.84990065771E+01  0.68721338248E+01  0.43400733220E+02  0.00000000000E+00 0. -1.
         11    1    4    4    0    0 -0.25059917561E+02 -0.11221796820E+01  0.57044546889E+00  0.25091515771E+02  0.51100000000E-03 0. -1.
        -11    1    4    4    0    0 -0.32420820173E+01 -0.10083107638E+01 -0.35736725495E+01  0.49293936904E+01  0.51100000000E-03 0.  1.
         12    1    4    4    0    0 -0.13699956424E+02  0.10629497023E+02 -0.38689067442E+01  0.17766357318E+02  0.00000000000E+00 0. -1.
</event>
<event>
 8    1  0.3776180E-010  0.9118800E+02  0.7816164E-02  0.1184000E+00
        -11   -1    0    0    0    0  0.00000000000E+00  0.00000000000E+00  0.45593999997E+02  0.45594000000E+02  0.51100000000E-03 0. -1.
         11   -1    0    0    0    0 -0.00000000000E+00 -0.00000000000E+00 -0.45593999997E+02  0.45594000000E+02  0.51100000000E-03 0.  1.
         23    2    1    2    0    0  0.00000000000E+00  0.00000000000E+00  0.00000000000E+00  0.91188000000E+02  0.91188000000E+02 0.  0.
    9900012    2    3    3    0    0 -0.17492248203E+02  0.97870851400E+01  0.38494904708E+02  0.47787268771E+02  0.19999989634E+02 0.  0.
        -12    1    3    3    0    0  0.17492248203E+02 -0.97870851400E+01 -0.38494904708E+02  0.43400731229E+02  0.00000000000E+00 0.  1.
         11    1    4    4    0    0 -0.10409805702E+02  0.61585094444E+01  0.15371465905E+02  0.19559479995E+02  0.51100000000E-03 0. -1.
        -11    1    4    4    0    0  0.38134075602E+01  0.90214939399E+00  0.22352494377E+01  0.45113513562E+01  0.51100000000E-03 0.  1.
         12    1    4    4    0    0 -0.10895850061E+02  0.27264263016E+01  0.20888189366E+02  0.23716437420E+02  0.00000000000E+00 0. -1.
</event>
<event>
 8    1  0.3776180E-010  0.9118800E+02  0.7816164E-02  0.1184000E+00
        -11   -1    0    0    0    0  0.00000000000E+00  0.00000000000E+00  0.45593999997E+02  0.45594000000E+02  0.51100000000E-03 0. -1.
         11   -1    0    0    0    0 -0.00000000000E+00 -0.00000000000E+00 -0.45593999997E+02  0.45594000000E+02  0.51100000000E-03 0.  1.
         23    2    1    2    0    0 -0.35527136788E-14  0.00000000000E+00  0.00000000000E+00  0.91188000000E+02  0.91188000000E+02 0.  0.
    9900012    2    3    3    0    0 -0.24167327396E+02 -0.12823349237E+02 -0.33691621835E+02  0.47787269810E+02  0.19999994373E+02 0.  0.
         12    1    3    3    0    0  0.24167327396E+02  0.12823349237E+02  0.33691621835E+02  0.43400730190E+02  0.00000000000E+00 0. -1.
         11    1    4    4    0    0 -0.22258700644E+01 -0.37367590521E+01 -0.78457196393E+00  0.44196627909E+01  0.51100000000E-03 0. -1.
        -11    1    4    4    0    0 -0.25578601170E+01 -0.32131269353E+01  0.66374363219E+00  0.41602150126E+01  0.51100000000E-03 0.  1.
        -12    1    4    4    0    0 -0.19383597215E+02 -0.58734632500E+01 -0.33570793503E+02  0.39207392007E+02  0.00000000000E+00 0.  1.
</event>
<event>
 8    1  0.3776180E-010  0.9118800E+02  0.7816164E-02  0.1184000E+00
        -11   -1    0    0    0    0  0.00000000000E+00  0.00000000000E+00  0.45593999997E+02  0.45594000000E+02  0.51100000000E-03 0.  1.
         11   -1    0    0    0    0 -0.00000000000E+00 -0.00000000000E+00 -0.45593999997E+02  0.45594000000E+02  0.51100000000E-03 0. -1.
         23    2    1    2    0    0  0.00000000000E+00  0.00000000000E+00  0.00000000000E+00  0.91188000000E+02  0.91188000000E+02 0.  0.
    9900012    2    3    3    0    0 -0.20058674129E+02  0.31109643537E+02 -0.22659712630E+02  0.47787275291E+02  0.20000019361E+02 0.  0.
         12    1    3    3    0    0  0.20058674129E+02 -0.31109643537E+02  0.22659712630E+02  0.43400724709E+02  0.00000000000E+00 0. -1.
         11    1    4    4    0    0 -0.22482709512E+01  0.11413801780E+02 -0.14363323208E+02  0.18483361360E+02  0.51100000000E-03 0. -1.
        -11    1    4    4    0    0 -0.36351245324E+01  0.10670068666E+02 -0.26933280322E+01  0.11589586354E+02  0.51100000000E-03 0.  1.
         12    1    4    4    0    0 -0.14175278645E+02  0.90257730914E+01 -0.56030613901E+01  0.17714327577E+02  0.00000000000E+00 0. -1.
</event>
<event>
 8    1  0.3776180E-010  0.9118800E+02  0.7816164E-02  0.1184000E+00
        -11   -1    0    0    0    0  0.00000000000E+00  0.00000000000E+00  0.45593999997E+02  0.45594000000E+02  0.51100000000E-03 0. -1.
         11   -1    0    0    0    0 -0.00000000000E+00 -0.00000000000E+00 -0.45593999997E+02  0.45594000000E+02  0.51100000000E-03 0.  1.
         23    2    1    2    0    0  0.00000000000E+00  0.88817841970E-15  0.71054273576E-14  0.91188000000E+02  0.91188000000E+02 0.  0.
    9900012    2    3    3    0    0 -0.34029258151E+02 -0.64654837363E+01 -0.26150150833E+02  0.47787270988E+02  0.19999999741E+02 0.  0.
         12    1    3    3    0    0  0.34029258151E+02  0.64654837363E+01  0.26150150833E+02  0.43400729012E+02  0.00000000000E+00 0. -1.
         11    1    4    4    0    0 -0.23561946188E+02 -0.79301179686E+01 -0.19148280307E+02  0.31380068803E+02  0.51100000000E-03 0. -1.
        -11    1    4    4    0    0 -0.54944747963E+01 -0.46825755091E+00 -0.91276061079E+01  0.10664038257E+02  0.51100000000E-03 0.  1.
         12    1    4    4    0    0 -0.49728371668E+01  0.19328917832E+01  0.21257355817E+01  0.57431639274E+01  0.00000000000E+00 0. -1.
</event>
<event>
 8    1  0.3776180E-010  0.9118800E+02  0.7816164E-02  0.1184000E+00
        -11   -1    0    0    0    0  0.00000000000E+00  0.00000000000E+00  0.45593999997E+02  0.45594000000E+02  0.51100000000E-03 0. -1.
         11   -1    0    0    0    0 -0.00000000000E+00 -0.00000000000E+00 -0.45593999997E+02  0.45594000000E+02  0.51100000000E-03 0.  1.
         23    2    1    2    0    0  0.17763568394E-14  0.00000000000E+00  0.00000000000E+00  0.91188000000E+02  0.91188000000E+02 0.  0.
    9900012    2    3    3    0    0  0.13887789490E+02  0.34422428417E+02 -0.22491086364E+02  0.47787271424E+02  0.20000001732E+02 0.  0.
         12    1    3    3    0    0 -0.13887789490E+02 -0.34422428417E+02  0.22491086364E+02  0.43400728576E+02  0.00000000000E+00 0. -1.
         11    1    4    4    0    0  0.59357686236E+01  0.65661031536E+01 -0.31589609325E+01  0.93981963275E+01  0.51100000000E-03 0. -1.
        -11    1    4    4    0    0  0.13963732257E+01  0.25832457873E+02 -0.12594460313E+02  0.28773011117E+02  0.51100000000E-03 0.  1.
        -12    1    4    4    0    0  0.65556476410E+01  0.20238673913E+01 -0.67376651184E+01  0.96160639795E+01  0.00000000000E+00 0.  1.
</event>
<event>
 8    1  0.3776180E-010  0.9118800E+02  0.7816164E-02  0.1184000E+00
        -11   -1    0    0    0    0  0.00000000000E+00  0.00000000000E+00  0.45593999997E+02  0.45594000000E+02  0.51100000000E-03 0. -1.
         11   -1    0    0    0    0 -0.00000000000E+00 -0.00000000000E+00 -0.45593999997E+02  0.45594000000E+02  0.51100000000E-03 0.  1.
         23    2    1    2    0    0  0.00000000000E+00  0.00000000000E+00  0.00000000000E+00  0.91188000000E+02  0.91188000000E+02 0.  0.
    9900012    2    3    3    0    0  0.17776120811E+02 -0.35549620391E+02 -0.17431502817E+02  0.47787271072E+02  0.20000000124E+02 0.  0.
         12    1    3    3    0    0 -0.17776120811E+02  0.35549620391E+02  0.17431502817E+02  0.43400728928E+02  0.00000000000E+00 0. -1.
         11    1    4    4    0    0  0.33275462245E+01 -0.95126873166E+00 -0.23163278117E+01  0.41644748611E+01  0.51100000000E-03 0. -1.
        -11    1    4    4    0    0 -0.27855679559E+00 -0.13775925337E+02 -0.11331005544E+02  0.17839433838E+02  0.51100000000E-03 0.  1.
        -12    1    4    4    0    0  0.14727131382E+02 -0.20822426323E+02 -0.37841694618E+01  0.25783362372E+02  0.00000000000E+00 0.  1.
</event>
<event>
 8    1  0.3776180E-010  0.9118800E+02  0.7816164E-02  0.1184000E+00
        -11   -1    0    0    0    0  0.00000000000E+00  0.00000000000E+00  0.45593999997E+02  0.45594000000E+02  0.51100000000E-03 0. -1.
         11   -1    0    0    0    0 -0.00000000000E+00 -0.00000000000E+00 -0.45593999997E+02  0.45594000000E+02  0.51100000000E-03 0.  1.
         23    2    1    2    0    0 -0.88817841970E-15  0.00000000000E+00  0.35527136788E-14  0.91188000000E+02  0.91188000000E+02 0.  0.
    9900012    2    3    3    0    0  0.32437113874E+01 -0.29512155948E+02 -0.31656509530E+02  0.47787267196E+02  0.19999982454E+02 0.  0.
         12    1    3    3    0    0 -0.32437113874E+01  0.29512155948E+02  0.31656509530E+02  0.43400732804E+02  0.00000000000E+00 0. -1.
         11    1    4    4    0    0  0.68455248262E+01 -0.13985446684E+01 -0.57295633521E+01  0.90357641515E+01  0.51100000000E-03 0. -1.
        -11    1    4    4    0    0  0.66411395463E+00 -0.45148051522E+01 -0.62042037782E+01  0.77017308243E+01  0.51100000000E-03 0.  1.
         12    1    4    4    0    0 -0.42659273934E+01 -0.23598806127E+02 -0.19722742400E+02  0.31049772220E+02  0.00000000000E+00 0. -1.
</event>
<event>
 8    1  0.3776180E-010  0.9118800E+02  0.7816164E-02  0.1184000E+00
        -11   -1    0    0    0    0  0.00000000000E+00  0.00000000000E+00  0.45593999997E+02  0.45594000000E+02  0.51100000000E-03 0.  1.
         11   -1    0    0    0    0 -0.00000000000E+00 -0.00000000000E+00 -0.45593999997E+02  0.45594000000E+02  0.51100000000E-03 0. -1.
         23    2    1    2    0    0  0.71054273576E-14  0.00000000000E+00  0.35527136788E-14  0.91188000000E+02  0.91188000000E+02 0.  0.
    9900012    2    3    3    0    0  0.35904832643E+02 -0.87936508832E+01  0.22740670035E+02  0.47787269861E+02  0.19999994603E+02 0.  0.
         12    1    3    3    0    0 -0.35904832643E+02  0.87936508832E+01 -0.22740670035E+02  0.43400730139E+02  0.00000000000E+00 0. -1.
         11    1    4    4    0    0  0.33266279375E+00  0.15475119045E+00 -0.21039161938E+01  0.21356675951E+01  0.51100000000E-03 0. -1.
        -11    1    4    4    0    0  0.12138096556E+02  0.21536551452E+01  0.89951623822E+01  0.15260555856E+02  0.51100000000E-03 0.  1.
        -12    1    4    4    0    0  0.23434073294E+02 -0.11102057219E+02  0.15849423846E+02  0.30391046410E+02  0.00000000000E+00 0.  1.
</event>
<event>
 8    1  0.3776180E-010  0.9118800E+02  0.7816164E-02  0.1184000E+00
        -11   -1    0    0    0    0  0.00000000000E+00  0.00000000000E+00  0.45593999997E+02  0.45594000000E+02  0.51100000000E-03 0. -1.
         11   -1    0    0    0    0 -0.00000000000E+00 -0.00000000000E+00 -0.45593999997E+02  0.45594000000E+02  0.51100000000E-03 0.  1.
         23    2    1    2    0    0  0.00000000000E+00  0.00000000000E+00  0.71054273576E-14  0.91188000000E+02  0.91188000000E+02 0.  0.
    9900012    2    3    3    0    0  0.24688912494E+01 -0.91855037292E+01 -0.42345656459E+02  0.47787268166E+02  0.19999986877E+02 0.  0.
         12    1    3    3    0    0 -0.24688912494E+01  0.91855037292E+01  0.42345656459E+02  0.43400731834E+02  0.00000000000E+00 0. -1.
         11    1    4    4    0    0 -0.22461595053E+01  0.25670709018E+01 -0.12240979506E+02  0.12707346894E+02  0.51100000000E-03 0. -1.
        -11    1    4    4    0    0  0.56287967950E+01 -0.10310287300E+01 -0.44147527954E+01  0.72274764688E+01  0.51100000000E-03 0.  1.
        -12    1    4    4    0    0 -0.91374604039E+00 -0.10721545901E+02 -0.25689924157E+02  0.27852444804E+02  0.00000000000E+00 0.  1.
</event>
<event>
 8    1  0.3776180E-010  0.9118800E+02  0.7816164E-02  0.1184000E+00
        -11   -1    0    0    0    0  0.00000000000E+00  0.00000000000E+00  0.45593999997E+02  0.45594000000E+02  0.51100000000E-03 0. -1.
         11   -1    0    0    0    0 -0.00000000000E+00 -0.00000000000E+00 -0.45593999997E+02  0.45594000000E+02  0.51100000000E-03 0.  1.
         23    2    1    2    0    0  0.00000000000E+00  0.00000000000E+00  0.00000000000E+00  0.91188000000E+02  0.91188000000E+02 0.  0.
    9900012    2    3    3    0    0 -0.74597762507E+01  0.39431398620E+02  0.16526841694E+02  0.47787309277E+02  0.20000174318E+02 0.  0.
        -12    1    3    3    0    0  0.74597762507E+01 -0.39431398620E+02 -0.16526841694E+02  0.43400690723E+02  0.00000000000E+00 0.  1.
         11    1    4    4    0    0 -0.42991895954E+00  0.60900465341E+01  0.48997802088E+01  0.78282401251E+01  0.51100000000E-03 0. -1.
        -11    1    4    4    0    0  0.91383529029E+00 -0.62809792347E+00 -0.21755927582E+01  0.24418857569E+01  0.51100000000E-03 0.  1.
        -12    1    4    4    0    0 -0.79436925815E+01  0.33969450009E+02  0.13802654244E+02  0.37517183395E+02  0.00000000000E+00 0.  1.
</event>
<event>
 8    1  0.3776180E-010  0.9118800E+02  0.7816164E-02  0.1184000E+00
        -11   -1    0    0    0    0  0.00000000000E+00  0.00000000000E+00  0.45593999997E+02  0.45594000000E+02  0.51100000000E-03 0.  1.
         11   -1    0    0    0    0 -0.00000000000E+00 -0.00000000000E+00 -0.45593999997E+02  0.45594000000E+02  0.51100000000E-03 0. -1.
         23    2    1    2    0    0  0.00000000000E+00 -0.17763568394E-14 -0.35527136788E-14  0.91188000000E+02  0.91188000000E+02 0.  0.
    9900012    2    3    3    0    0  0.34353376321E+02  0.13896240369E+02  0.22591220117E+02  0.47787272041E+02  0.20000004542E+02 0.  0.
        -12    1    3    3    0    0 -0.34353376321E+02 -0.13896240369E+02 -0.22591220117E+02  0.43400727959E+02  0.00000000000E+00 0.  1.
         11    1    4    4    0    0  0.10505084642E+02  0.31168541829E+01  0.64644524433E+00  0.10976769791E+02  0.51100000000E-03 0. -1.
        -11    1    4    4    0    0  0.23459661528E+02  0.12327355773E+02  0.16690550148E+02  0.31319225468E+02  0.51100000000E-03 0.  1.
         12    1    4    4    0    0  0.38863015039E+00 -0.15479695872E+01  0.52542247247E+01  0.54912767818E+01  0.00000000000E+00 0. -1.
</event>
<event>
 8    1  0.3776180E-010  0.9118800E+02  0.7816164E-02  0.1184000E+00
        -11   -1    0    0    0    0  0.00000000000E+00  0.00000000000E+00  0.45593999997E+02  0.45594000000E+02  0.51100000000E-03 0. -1.
         11   -1    0    0    0    0 -0.00000000000E+00 -0.00000000000E+00 -0.45593999997E+02  0.45594000000E+02  0.51100000000E-03 0.  1.
         23    2    1    2    0    0  0.00000000000E+00  0.00000000000E+00  0.00000000000E+00  0.91188000000E+02  0.91188000000E+02 0.  0.
    9900012    2    3    3    0    0 -0.27312532947E+02 -0.10147049497E+02  0.32166538822E+02  0.47787270868E+02  0.19999999194E+02 0.  0.
        -12    1    3    3    0    0  0.27312532947E+02  0.10147049497E+02 -0.32166538822E+02  0.43400729132E+02  0.00000000000E+00 0.  1.
         11    1    4    4    0    0 -0.66986250943E+01 -0.39112734506E+01  0.13124802600E+02  0.15245657799E+02  0.51100000000E-03 0. -1.
        -11    1    4    4    0    0 -0.18783987333E+02 -0.44148201421E+01  0.21561005212E+02  0.28934508169E+02  0.51100000000E-03 0.  1.
        -12    1    4    4    0    0 -0.18299205197E+01 -0.18209559038E+01 -0.25192689901E+01  0.36071048996E+01  0.00000000000E+00 0.  1.
</event>
<event>
 8    1  0.3776180E-010  0.9118800E+02  0.7816164E-02  0.1184000E+00
        -11   -1    0    0    0    0  0.00000000000E+00  0.00000000000E+00  0.45593999997E+02  0.45594000000E+02  0.51100000000E-03 0.  1.
         11   -1    0    0    0    0 -0.00000000000E+00 -0.00000000000E+00 -0.45593999997E+02  0.45594000000E+02  0.51100000000E-03 0. -1.
         23    2    1    2    0    0  0.35527136788E-14 -0.71054273576E-14 -0.35527136788E-14  0.91188000000E+02  0.91188000000E+02 0.  0.
    9900012    2    3    3    0    0 -0.20529606484E+02  0.31500459064E+02  0.21676689761E+02  0.47787279469E+02  0.20000038413E+02 0.  0.
        -12    1    3    3    0    0  0.20529606484E+02 -0.31500459064E+02 -0.21676689761E+02  0.43400720531E+02  0.00000000000E+00 0.  1.
         11    1    4    4    0    0 -0.22134150696E+02  0.29093237812E+02  0.18748507423E+02  0.41083374305E+02  0.51100000000E-03 0. -1.
        -11    1    4    4    0    0 -0.17073471478E+00  0.31906011912E+01  0.34421637990E+01  0.46965496042E+01  0.51100000000E-03 0.  1.
         12    1    4    4    0    0  0.17752789277E+01 -0.78337993975E+00 -0.51398146158E+00  0.20073555599E+01  0.00000000000E+00 0. -1.
</event>
<event>
 8    1  0.3776180E-010  0.9118800E+02  0.7816164E-02  0.1184000E+00
        -11   -1    0    0    0    0  0.00000000000E+00  0.00000000000E+00  0.45593999997E+02  0.45594000000E+02  0.51100000000E-03 0. -1.
         11   -1    0    0    0    0 -0.00000000000E+00 -0.00000000000E+00 -0.45593999997E+02  0.45594000000E+02  0.51100000000E-03 0.  1.
         23    2    1    2    0    0  0.17763568394E-14  0.00000000000E+00  0.00000000000E+00  0.91188000000E+02  0.91188000000E+02 0.  0.
    9900012    2    3    3    0    0 -0.12184095133E+02 -0.94863440823E+01 -0.40560820505E+02  0.47787273528E+02  0.20000011322E+02 0.  0.
         12    1    3    3    0    0  0.12184095133E+02  0.94863440823E+01  0.40560820505E+02  0.43400726472E+02  0.00000000000E+00 0. -1.
         11    1    4    4    0    0  0.19124557691E+01 -0.69534287603E+01 -0.14973864252E+02  0.16619996074E+02  0.51100000000E-03 0. -1.
        -11    1    4    4    0    0 -0.23868409053E+01 -0.75744457201E+00  0.46738218813E+00  0.25473865349E+01  0.51100000000E-03 0.  1.
        -12    1    4    4    0    0 -0.11709709997E+02 -0.17754707501E+01 -0.26054338441E+02  0.28619890919E+02  0.00000000000E+00 0.  1.
</event>
<event>
 8    1  0.3776180E-010  0.9118800E+02  0.7816164E-02  0.1184000E+00
        -11   -1    0    0    0    0  0.00000000000E+00  0.00000000000E+00  0.45593999997E+02  0.45594000000E+02  0.51100000000E-03 0. -1.
         11   -1    0    0    0    0 -0.00000000000E+00 -0.00000000000E+00 -0.45593999997E+02  0.45594000000E+02  0.51100000000E-03 0.  1.
         23    2    1    2    0    0  0.00000000000E+00  0.00000000000E+00  0.00000000000E+00  0.91188000000E+02  0.91188000000E+02 0.  0.
    9900012    2    3    3    0    0 -0.29656111186E+02 -0.57119658618E+01  0.31169084801E+02  0.47787270374E+02  0.19999996945E+02 0.  0.
        -12    1    3    3    0    0  0.29656111186E+02  0.57119658618E+01 -0.31169084801E+02  0.43400729626E+02  0.00000000000E+00 0.  1.
         11    1    4    4    0    0 -0.24225659132E+02  0.31852740554E+00  0.12297382446E+02  0.27170013533E+02  0.51100000000E-03 0. -1.
        -11    1    4    4    0    0 -0.23957221381E+00 -0.30596723559E+00  0.22972605805E+01  0.23298963992E+01  0.51100000000E-03 0.  1.
         12    1    4    4    0    0 -0.51908798400E+01 -0.57245260317E+01  0.16574441775E+02  0.18287360442E+02  0.00000000000E+00 0. -1.
</event>
<event>
 8    1  0.3776180E-010  0.9118800E+02  0.7816164E-02  0.1184000E+00
        -11   -1    0    0    0    0  0.00000000000E+00  0.00000000000E+00  0.45593999997E+02  0.45594000000E+02  0.51100000000E-03 0. -1.
         11   -1    0    0    0    0 -0.00000000000E+00 -0.00000000000E+00 -0.45593999997E+02  0.45594000000E+02  0.51100000000E-03 0.  1.
         23    2    1    2    0    0  0.88817841970E-15  0.00000000000E+00  0.00000000000E+00  0.91188000000E+02  0.91188000000E+02 0.  0.
    9900012    2    3    3    0    0 -0.29523007874E+01  0.14924852158E+02 -0.40646725985E+02  0.47787266998E+02  0.19999981548E+02 0.  0.
         12    1    3    3    0    0  0.29523007874E+01 -0.14924852158E+02  0.40646725985E+02  0.43400733002E+02  0.00000000000E+00 0. -1.
         11    1    4    4    0    0  0.62514598887E+01  0.52736945611E+01 -0.12505807824E+02  0.14942818833E+02  0.51100000000E-03 0. -1.
        -11    1    4    4    0    0 -0.24335070250E+00 -0.19945551101E+01 -0.18777303573E+01  0.27501529426E+01  0.51100000000E-03 0.  1.
         12    1    4    4    0    0 -0.89604099736E+01  0.11645712707E+02 -0.26263187803E+02  0.30094295222E+02  0.00000000000E+00 0. -1.
</event>
<event>
 8    1  0.3776180E-010  0.9118800E+02  0.7816164E-02  0.1184000E+00
        -11   -1    0    0    0    0  0.00000000000E+00  0.00000000000E+00  0.45593999997E+02  0.45594000000E+02  0.51100000000E-03 0. -1.
         11   -1    0    0    0    0 -0.00000000000E+00 -0.00000000000E+00 -0.45593999997E+02  0.45594000000E+02  0.51100000000E-03 0.  1.
         23    2    1    2    0    0  0.71054273576E-14  0.00000000000E+00  0.10658141036E-13  0.91188000000E+02  0.91188000000E+02 0.  0.
    9900012    2    3    3    0    0  0.28566190193E+02  0.19303109080E+02  0.26362595138E+02  0.47787266542E+02  0.19999979472E+02 0.  0.
        -12    1    3    3    0    0 -0.28566190193E+02 -0.19303109080E+02 -0.26362595138E+02  0.43400733458E+02  0.00000000000E+00 0.  1.
         11    1    4    4    0    0  0.15377080242E+02  0.14124854596E+02  0.21268005609E+02  0.29804264409E+02  0.51100000000E-03 0. -1.
        -11    1    4    4    0    0  0.14560627108E+02  0.34402601776E+01  0.49704426832E+01  0.15765549550E+02  0.51100000000E-03 0.  1.
        -12    1    4    4    0    0 -0.13715171571E+01  0.17379943066E+01  0.12414684541E+00  0.22174525837E+01  0.00000000000E+00 0.  1.
</event>
<event>
 8    1  0.3776180E-010  0.9118800E+02  0.7816164E-02  0.1184000E+00
        -11   -1    0    0    0    0  0.00000000000E+00  0.00000000000E+00  0.45593999997E+02  0.45594000000E+02  0.51100000000E-03 0.  1.
         11   -1    0    0    0    0 -0.00000000000E+00 -0.00000000000E+00 -0.45593999997E+02  0.45594000000E+02  0.51100000000E-03 0. -1.
         23    2    1    2    0    0 -0.33306690739E-15  0.00000000000E+00  0.35527136788E-14  0.91188000000E+02  0.91188000000E+02 0.  0.
    9900012    2    3    3    0    0  0.63006114839E+00 -0.38424798313E+02  0.20168322043E+02  0.47787270553E+02  0.19999997761E+02 0.  0.
        -12    1    3    3    0    0 -0.63006114839E+00  0.38424798313E+02 -0.20168322043E+02  0.43400729447E+02  0.00000000000E+00 0.  1.
         11    1    4    4    0    0 -0.36296955726E+00 -0.62981075533E+01  0.95791166213E+01  0.11469846606E+02  0.51100000000E-03 0. -1.
        -11    1    4    4    0    0  0.36090977000E+01 -0.90158792565E+01  0.86037239430E+01  0.12974426034E+02  0.51100000000E-03 0.  1.
         12    1    4    4    0    0 -0.26160669944E+01 -0.23110811503E+02  0.19854814791E+01  0.23342997913E+02  0.00000000000E+00 0. -1.
</event>
<event>
 8    1  0.3776180E-010  0.9118800E+02  0.7816164E-02  0.1184000E+00
        -11   -1    0    0    0    0  0.00000000000E+00  0.00000000000E+00  0.45593999997E+02  0.45594000000E+02  0.51100000000E-03 0. -1.
         11   -1    0    0    0    0 -0.00000000000E+00 -0.00000000000E+00 -0.45593999997E+02  0.45594000000E+02  0.51100000000E-03 0.  1.
         23    2    1    2    0    0  0.00000000000E+00  0.00000000000E+00  0.00000000000E+00  0.91188000000E+02  0.91188000000E+02 0.  0.
    9900012    2    3    3    0    0  0.96185908806E+01  0.29749043775E+02 -0.30101551137E+02  0.47787236448E+02  0.19999842260E+02 0.  0.
         12    1    3    3    0    0 -0.96185908806E+01 -0.29749043775E+02  0.30101551137E+02  0.43400763552E+02  0.00000000000E+00 0. -1.
         11    1    4    4    0    0  0.56544544040E+01  0.33568615421E+01 -0.34902335587E+01  0.74446695410E+01  0.51100000000E-03 0. -1.
        -11    1    4    4    0    0  0.10035945910E+01  0.25537188323E+00  0.15136359219E+01  0.18339876954E+01  0.51100000000E-03 0.  1.
        -12    1    4    4    0    0  0.29605418855E+01  0.26136810350E+02 -0.28124953500E+02  0.38508579212E+02  0.00000000000E+00 0.  1.
</event>
<event>
 8    1  0.3776180E-010  0.9118800E+02  0.7816164E-02  0.1184000E+00
        -11   -1    0    0    0    0  0.00000000000E+00  0.00000000000E+00  0.45593999997E+02  0.45594000000E+02  0.51100000000E-03 0. -1.
         11   -1    0    0    0    0 -0.00000000000E+00 -0.00000000000E+00 -0.45593999997E+02  0.45594000000E+02  0.51100000000E-03 0.  1.
         23    2    1    2    0    0 -0.35527136788E-14  0.00000000000E+00  0.00000000000E+00  0.91188000000E+02  0.91188000000E+02 0.  0.
    9900012    2    3    3    0    0 -0.16397182318E+02 -0.32650229213E+02  0.23424730223E+02  0.47787273720E+02  0.20000012199E+02 0.  0.
        -12    1    3    3    0    0  0.16397182318E+02  0.32650229213E+02 -0.23424730223E+02  0.43400726280E+02  0.00000000000E+00 0.  1.
         11    1    4    4    0    0 -0.18035196142E+02 -0.20240490098E+02  0.15544066896E+02  0.31250020083E+02  0.51100000000E-03 0. -1.
        -11    1    4    4    0    0 -0.21672502121E+01 -0.87438360899E+01  0.34670429915E+01  0.96525660016E+01  0.51100000000E-03 0.  1.
        -12    1    4    4    0    0  0.38052640359E+01 -0.36659030248E+01  0.44136203351E+01  0.68846876351E+01  0.00000000000E+00 0.  1.
</event>
<event>
 8    1  0.3776180E-010  0.9118800E+02  0.7816164E-02  0.1184000E+00
        -11   -1    0    0    0    0  0.00000000000E+00  0.00000000000E+00  0.45593999997E+02  0.45594000000E+02  0.51100000000E-03 0. -1.
         11   -1    0    0    0    0 -0.00000000000E+00 -0.00000000000E+00 -0.45593999997E+02  0.45594000000E+02  0.51100000000E-03 0.  1.
         23    2    1    2    0    0  0.00000000000E+00  0.17763568394E-14  0.00000000000E+00  0.91188000000E+02  0.91188000000E+02 0.  0.
    9900012    2    3    3    0    0  0.30566343142E+02 -0.10126808949E+02 -0.29099296498E+02  0.47787278240E+02  0.20000032809E+02 0.  0.
         12    1    3    3    0    0 -0.30566343142E+02  0.10126808949E+02  0.29099296498E+02  0.43400721760E+02  0.00000000000E+00 0. -1.
         11    1    4    4    0    0  0.88227695957E+01 -0.24416849191E+01 -0.73822925718E+01  0.11760158692E+02  0.51100000000E-03 0. -1.
        -11    1    4    4    0    0  0.17985918381E+02 -0.10708539683E+02 -0.96847979997E+01  0.23064288298E+02  0.51100000000E-03 0.  1.
         12    1    4    4    0    0  0.37576551654E+01  0.30234156531E+01 -0.12032205927E+02  0.12962831250E+02  0.00000000000E+00 0. -1.
</event>
<event>
 8    1  0.3776180E-010  0.9118800E+02  0.7816164E-02  0.1184000E+00
        -11   -1    0    0    0    0  0.00000000000E+00  0.00000000000E+00  0.45593999997E+02  0.45594000000E+02  0.51100000000E-03 0. -1.
         11   -1    0    0    0    0 -0.00000000000E+00 -0.00000000000E+00 -0.45593999997E+02  0.45594000000E+02  0.51100000000E-03 0.  1.
         23    2    1    2    0    0  0.00000000000E+00  0.00000000000E+00  0.35527136788E-14  0.91188000000E+02  0.91188000000E+02 0.  0.
    9900012    2    3    3    0    0  0.14488134673E+02 -0.26373322003E+02  0.31275662919E+02  0.47787248269E+02  0.19999896157E+02 0.  0.
        -12    1    3    3    0    0 -0.14488134673E+02  0.26373322003E+02 -0.31275662919E+02  0.43400751731E+02  0.00000000000E+00 0.  1.
         11    1    4    4    0    0  0.64328666350E+01 -0.15123730660E+02  0.22435358697E+02  0.27811046768E+02  0.51100000000E-03 0. -1.
        -11    1    4    4    0    0  0.94004399929E-01 -0.95765905415E+01  0.62606715903E+01  0.11441850036E+02  0.51100000000E-03 0.  1.
        -12    1    4    4    0    0  0.79612636384E+01 -0.16730008014E+01  0.25796326316E+01  0.85343514643E+01  0.00000000000E+00 0.  1.
</event>
<event>
 8    1  0.3776180E-010  0.9118800E+02  0.7816164E-02  0.1184000E+00
        -11   -1    0    0    0    0  0.00000000000E+00  0.00000000000E+00  0.45593999997E+02  0.45594000000E+02  0.51100000000E-03 0. -1.
         11   -1    0    0    0    0 -0.00000000000E+00 -0.00000000000E+00 -0.45593999997E+02  0.45594000000E+02  0.51100000000E-03 0.  1.
         23    2    1    2    0    0  0.00000000000E+00  0.00000000000E+00  0.00000000000E+00  0.91188000000E+02  0.91188000000E+02 0.  0.
    9900012    2    3    3    0    0  0.18666278906E+02 -0.27989012559E+02 -0.27419133448E+02  0.47787266466E+02  0.19999979127E+02 0.  0.
         12    1    3    3    0    0 -0.18666278906E+02  0.27989012559E+02  0.27419133448E+02  0.43400733534E+02  0.00000000000E+00 0. -1.
         11    1    4    4    0    0  0.29554205087E+01 -0.38779674609E+01  0.10148239163E+00  0.48768269344E+01  0.51100000000E-03 0. -1.
        -11    1    4    4    0    0  0.62085959619E+01 -0.13310520419E+02 -0.38038956464E+01  0.15171889796E+02  0.51100000000E-03 0.  1.
        -12    1    4    4    0    0  0.95022624356E+01 -0.10800524680E+02 -0.23716720193E+02  0.27738549736E+02  0.00000000000E+00 0.  1.
</event>
<event>
 8    1  0.3776180E-010  0.9118800E+02  0.7816164E-02  0.1184000E+00
        -11   -1    0    0    0    0  0.00000000000E+00  0.00000000000E+00  0.45593999997E+02  0.45594000000E+02  0.51100000000E-03 0. -1.
         11   -1    0    0    0    0 -0.00000000000E+00 -0.00000000000E+00 -0.45593999997E+02  0.45594000000E+02  0.51100000000E-03 0.  1.
         23    2    1    2    0    0 -0.35527136788E-14  0.00000000000E+00  0.00000000000E+00  0.91188000000E+02  0.91188000000E+02 0.  0.
    9900012    2    3    3    0    0  0.30158274356E+02 -0.93744835480E+01  0.29769458607E+02  0.47787272820E+02  0.20000008098E+02 0.  0.
        -12    1    3    3    0    0 -0.30158274356E+02  0.93744835480E+01 -0.29769458607E+02  0.43400727180E+02  0.00000000000E+00 0.  1.
         11    1    4    4    0    0  0.51833109042E+01 -0.53682861175E+01  0.49691813014E+01  0.89653762239E+01  0.51100000000E-03 0. -1.
        -11    1    4    4    0    0  0.96447862827E+01  0.19081589539E+01  0.97504900332E+00  0.98799642637E+01  0.51100000000E-03 0.  1.
         12    1    4    4    0    0  0.15330177169E+02 -0.59143563844E+01  0.23825228303E+02  0.28941932333E+02  0.00000000000E+00 0. -1.
</event>
<event>
 8    1  0.3776180E-010  0.9118800E+02  0.7816164E-02  0.1184000E+00
        -11   -1    0    0    0    0  0.00000000000E+00  0.00000000000E+00  0.45593999997E+02  0.45594000000E+02  0.51100000000E-03 0. -1.
         11   -1    0    0    0    0 -0.00000000000E+00 -0.00000000000E+00 -0.45593999997E+02  0.45594000000E+02  0.51100000000E-03 0.  1.
         23    2    1    2    0    0 -0.35527136788E-14  0.35527136788E-14  0.35527136788E-14  0.91188000000E+02  0.91188000000E+02 0.  0.
    9900012    2    3    3    0    0 -0.20774631869E+02 -0.31879141026E+02  0.20874831333E+02  0.47787267921E+02  0.19999985757E+02 0.  0.
        -12    1    3    3    0    0  0.20774631869E+02  0.31879141026E+02 -0.20874831333E+02  0.43400732079E+02  0.00000000000E+00 0.  1.
         11    1    4    4    0    0 -0.77648993345E+01 -0.15545575110E+02  0.12111978393E+02  0.21181562455E+02  0.51100000000E-03 0.  1.
        -11    1    4    4    0    0 -0.56880626842E+00 -0.10579844272E+02  0.71997119360E+01  0.12809859391E+02  0.51100000000E-03 0. -1.
        -12    1    4    4    0    0 -0.12440926266E+02 -0.57537216434E+01  0.15631410037E+01  0.13795846074E+02  0.00000000000E+00 0.  1.
</event>
<event>
 8    1  0.3776180E-010  0.9118800E+02  0.7816164E-02  0.1184000E+00
        -11   -1    0    0    0    0  0.00000000000E+00  0.00000000000E+00  0.45593999997E+02  0.45594000000E+02  0.51100000000E-03 0.  1.
         11   -1    0    0    0    0 -0.00000000000E+00 -0.00000000000E+00 -0.45593999997E+02  0.45594000000E+02  0.51100000000E-03 0. -1.
         23    2    1    2    0    0  0.00000000000E+00  0.00000000000E+00 -0.35527136788E-14  0.91188000000E+02  0.91188000000E+02 0.  0.
    9900012    2    3    3    0    0  0.48482656137E+01 -0.35934774665E+02 -0.23849728305E+02  0.47787271320E+02  0.20000001257E+02 0.  0.
         12    1    3    3    0    0 -0.48482656137E+01  0.35934774665E+02  0.23849728305E+02  0.43400728680E+02  0.00000000000E+00 0. -1.
         11    1    4    4    0    0  0.57466819869E+01 -0.11578105491E+02 -0.11196798925E+02  0.17101028830E+02  0.51100000000E-03 0.  1.
        -11    1    4    4    0    0 -0.22332834739E+01 -0.17238132442E+02 -0.15116783108E+02  0.23036013043E+02  0.51100000000E-03 0. -1.
         12    1    4    4    0    0  0.13348671007E+01 -0.71185367327E+01  0.24638537277E+01  0.76502294464E+01  0.00000000000E+00 0. -1.
</event>
<event>
 8    1  0.3776180E-010  0.9118800E+02  0.7816164E-02  0.1184000E+00
        -11   -1    0    0    0    0  0.00000000000E+00  0.00000000000E+00  0.45593999997E+02  0.45594000000E+02  0.51100000000E-03 0. -1.
         11   -1    0    0    0    0 -0.00000000000E+00 -0.00000000000E+00 -0.45593999997E+02  0.45594000000E+02  0.51100000000E-03 0.  1.
         23    2    1    2    0    0  0.00000000000E+00 -0.17763568394E-14  0.14210854715E-13  0.91188000000E+02  0.91188000000E+02 0.  0.
    9900012    2    3    3    0    0 -0.16348449236E+02  0.12037505362E+02 -0.38359481446E+02  0.47787272534E+02  0.20000006790E+02 0.  0.
         12    1    3    3    0    0  0.16348449236E+02 -0.12037505362E+02  0.38359481446E+02  0.43400727466E+02  0.00000000000E+00 0. -1.
         11    1    4    4    0    0 -0.14277370613E+01 -0.26449082831E+01 -0.12253595442E+01  0.32458402942E+01  0.51100000000E-03 0. -1.
        -11    1    4    4    0    0 -0.13636878501E+02  0.14183487974E+02 -0.38085305030E+02  0.42867543035E+02  0.51100000000E-03 0.  1.
        -12    1    4    4    0    0 -0.12838336731E+01  0.49892567170E+00  0.95118312783E+00  0.16738892044E+01  0.00000000000E+00 0.  1.
</event>
<event>
 8    1  0.3776180E-010  0.9118800E+02  0.7816164E-02  0.1184000E+00
        -11   -1    0    0    0    0  0.00000000000E+00  0.00000000000E+00  0.45593999997E+02  0.45594000000E+02  0.51100000000E-03 0. -1.
         11   -1    0    0    0    0 -0.00000000000E+00 -0.00000000000E+00 -0.45593999997E+02  0.45594000000E+02  0.51100000000E-03 0.  1.
         23    2    1    2    0    0  0.00000000000E+00  0.35527136788E-14  0.00000000000E+00  0.91188000000E+02  0.91188000000E+02 0.  0.
    9900012    2    3    3    0    0  0.86308441711E+01  0.24247320822E+02  0.34945663217E+02  0.47787269409E+02  0.19999992545E+02 0.  0.
        -12    1    3    3    0    0 -0.86308441711E+01 -0.24247320822E+02 -0.34945663217E+02  0.43400730591E+02  0.00000000000E+00 0.  1.
         11    1    4    4    0    0  0.13563116901E+01  0.88009537056E+01  0.61831379705E+01  0.10841013004E+02  0.51100000000E-03 0. -1.
        -11    1    4    4    0    0 -0.54946015489E+00  0.28882424507E+01 -0.14701621875E+01  0.32871306689E+01  0.51100000000E-03 0.  1.
         12    1    4    4    0    0  0.78239926359E+01  0.12558124666E+02  0.30232687434E+02  0.33659125737E+02  0.00000000000E+00 0. -1.
</event>
<event>
 8    1  0.3776180E-010  0.9118800E+02  0.7816164E-02  0.1184000E+00
        -11   -1    0    0    0    0  0.00000000000E+00  0.00000000000E+00  0.45593999997E+02  0.45594000000E+02  0.51100000000E-03 0. -1.
         11   -1    0    0    0    0 -0.00000000000E+00 -0.00000000000E+00 -0.45593999997E+02  0.45594000000E+02  0.51100000000E-03 0.  1.
         23    2    1    2    0    0 -0.35527136788E-14  0.00000000000E+00  0.00000000000E+00  0.91188000000E+02  0.91188000000E+02 0.  0.
    9900012    2    3    3    0    0  0.15378108858E+02  0.15158698092E+02 -0.37647714615E+02  0.47787276785E+02  0.20000026172E+02 0.  0.
         12    1    3    3    0    0 -0.15378108858E+02 -0.15158698092E+02  0.37647714615E+02  0.43400723215E+02  0.00000000000E+00 0. -1.
         11    1    4    4    0    0  0.36290809058E+01 -0.66744338918E+00  0.21320006345E+00  0.36961011115E+01  0.51100000000E-03 0. -1.
        -11    1    4    4    0    0  0.99614441846E+01  0.69546604492E+01 -0.13806292502E+02  0.18390524329E+02  0.51100000000E-03 0.  1.
         12    1    4    4    0    0  0.17875837675E+01  0.88714810320E+01 -0.24054622177E+02  0.25700651344E+02  0.00000000000E+00 0. -1.
</event>
<event>
 8    1  0.3776180E-010  0.9118800E+02  0.7816164E-02  0.1184000E+00
        -11   -1    0    0    0    0  0.00000000000E+00  0.00000000000E+00  0.45593999997E+02  0.45594000000E+02  0.51100000000E-03 0.  1.
         11   -1    0    0    0    0 -0.00000000000E+00 -0.00000000000E+00 -0.45593999997E+02  0.45594000000E+02  0.51100000000E-03 0. -1.
         23    2    1    2    0    0  0.00000000000E+00  0.00000000000E+00  0.00000000000E+00  0.91188000000E+02  0.91188000000E+02 0.  0.
    9900012    2    3    3    0    0 -0.39595742755E+02 -0.17614766662E+02 -0.23496437429E+01  0.47787266428E+02  0.19999978952E+02 0.  0.
         12    1    3    3    0    0  0.39595742755E+02  0.17614766662E+02  0.23496437429E+01  0.43400733572E+02  0.00000000000E+00 0. -1.
         11    1    4    4    0    0 -0.47780954901E+01  0.34549813378E+01 -0.15709777235E+00  0.58984550968E+01  0.51100000000E-03 0. -1.
        -11    1    4    4    0    0 -0.30907683869E+01 -0.58298477701E+01  0.28318296962E+00  0.66045565407E+01  0.51100000000E-03 0.  1.
        -12    1    4    4    0    0 -0.31726878878E+02 -0.15239900229E+02 -0.24757289402E+01  0.35284254791E+02  0.00000000000E+00 0.  1.
</event>
<event>
 8    1  0.3776180E-010  0.9118800E+02  0.7816164E-02  0.1184000E+00
        -11   -1    0    0    0    0  0.00000000000E+00  0.00000000000E+00  0.45593999997E+02  0.45594000000E+02  0.51100000000E-03 0. -1.
         11   -1    0    0    0    0 -0.00000000000E+00 -0.00000000000E+00 -0.45593999997E+02  0.45594000000E+02  0.51100000000E-03 0.  1.
         23    2    1    2    0    0  0.00000000000E+00  0.00000000000E+00  0.00000000000E+00  0.91188000000E+02  0.91188000000E+02 0.  0.
    9900012    2    3    3    0    0  0.10207575615E+02  0.30774075997E+02  0.28851163115E+02  0.47787216983E+02  0.19999753510E+02 0.  0.
        -12    1    3    3    0    0 -0.10207575615E+02 -0.30774075997E+02 -0.28851163115E+02  0.43400783017E+02  0.00000000000E+00 0.  1.
         11    1    4    4    0    0  0.72237284065E+01  0.14061910096E+02  0.11639594079E+02  0.19631599991E+02  0.51100000000E-03 0. -1.
        -11    1    4    4    0    0  0.28379029877E+01  0.14488214967E+02  0.47685092670E+01  0.15514533419E+02  0.51100000000E-03 0.  1.
        -12    1    4    4    0    0  0.14594422047E+00  0.22239509341E+01  0.12443059770E+02  0.12641083573E+02  0.00000000000E+00 0.  1.
</event>
<event>
 8    1  0.3776180E-010  0.9118800E+02  0.7816164E-02  0.1184000E+00
        -11   -1    0    0    0    0  0.00000000000E+00  0.00000000000E+00  0.45593999997E+02  0.45594000000E+02  0.51100000000E-03 0. -1.
         11   -1    0    0    0    0 -0.00000000000E+00 -0.00000000000E+00 -0.45593999997E+02  0.45594000000E+02  0.51100000000E-03 0.  1.
         23    2    1    2    0    0  0.66613381478E-15  0.00000000000E+00  0.00000000000E+00  0.91188000000E+02  0.91188000000E+02 0.  0.
    9900012    2    3    3    0    0 -0.10963923278E+01  0.15851750696E+02  0.40387432145E+02  0.47787254021E+02  0.19999922384E+02 0.  0.
        -12    1    3    3    0    0  0.10963923278E+01 -0.15851750696E+02 -0.40387432145E+02  0.43400745979E+02  0.00000000000E+00 0.  1.
         11    1    4    4    0    0 -0.14217843178E+01  0.40606722665E+01  0.26909087134E+02  0.27250862381E+02  0.51100000000E-03 0. -1.
        -11    1    4    4    0    0  0.46160052381E+01  0.32095889587E+01  0.69138735659E+01  0.89112632992E+01  0.51100000000E-03 0.  1.
        -12    1    4    4    0    0 -0.42906132481E+01  0.85814894704E+01  0.65644714457E+01  0.11625128341E+02  0.00000000000E+00 0.  1.
</event>
<event>
 8    1  0.3776180E-010  0.9118800E+02  0.7816164E-02  0.1184000E+00
        -11   -1    0    0    0    0  0.00000000000E+00  0.00000000000E+00  0.45593999997E+02  0.45594000000E+02  0.51100000000E-03 0. -1.
         11   -1    0    0    0    0 -0.00000000000E+00 -0.00000000000E+00 -0.45593999997E+02  0.45594000000E+02  0.51100000000E-03 0.  1.
         23    2    1    2    0    0 -0.88817841970E-15  0.71054273576E-14 -0.35527136788E-14  0.91188000000E+02  0.91188000000E+02 0.  0.
    9900012    2    3    3    0    0 -0.54338613166E+01 -0.39085936902E+02  0.18066159597E+02  0.47787269190E+02  0.19999991544E+02 0.  0.
        -12    1    3    3    0    0  0.54338613166E+01  0.39085936902E+02 -0.18066159597E+02  0.43400730810E+02  0.00000000000E+00 0.  1.
         11    1    4    4    0    0 -0.35589613119E+00 -0.11178660589E+02  0.45157164093E+01  0.12061542586E+02  0.51100000000E-03 0. -1.
        -11    1    4    4    0    0  0.27162322381E+01 -0.18235587314E+02  0.14224157304E+02  0.23286073382E+02  0.51100000000E-03 0.  1.
         12    1    4    4    0    0 -0.77941974235E+01 -0.96716889992E+01 -0.67371411705E+00  0.12439653222E+02  0.00000000000E+00 0. -1.
</event>
<event>
 8    1  0.3776180E-010  0.9118800E+02  0.7816164E-02  0.1184000E+00
        -11   -1    0    0    0    0  0.00000000000E+00  0.00000000000E+00  0.45593999997E+02  0.45594000000E+02  0.51100000000E-03 0. -1.
         11   -1    0    0    0    0 -0.00000000000E+00 -0.00000000000E+00 -0.45593999997E+02  0.45594000000E+02  0.51100000000E-03 0.  1.
         23    2    1    2    0    0  0.00000000000E+00  0.00000000000E+00 -0.35527136788E-14  0.91188000000E+02  0.91188000000E+02 0.  0.
    9900012    2    3    3    0    0 -0.20829136046E+02  0.24648722168E+02 -0.29020870872E+02  0.47787270063E+02  0.19999995523E+02 0.  0.
         12    1    3    3    0    0  0.20829136046E+02 -0.24648722168E+02  0.29020870872E+02  0.43400729937E+02  0.00000000000E+00 0. -1.
         11    1    4    4    0    0  0.11426861442E+01  0.11055726826E+01  0.58318385135E+00  0.16935543234E+01  0.51100000000E-03 0. -1.
        -11    1    4    4    0    0 -0.63695259167E+01 -0.20665103568E+00 -0.88484146964E+01  0.10904494851E+02  0.51100000000E-03 0.  1.
        -12    1    4    4    0    0 -0.15602296274E+02  0.23749800521E+02 -0.20755640027E+02  0.35189220888E+02  0.00000000000E+00 0.  1.
</event>
<event>
 8    1  0.3776180E-010  0.9118800E+02  0.7816164E-02  0.1184000E+00
        -11   -1    0    0    0    0  0.00000000000E+00  0.00000000000E+00  0.45593999997E+02  0.45594000000E+02  0.51100000000E-03 0. -1.
         11   -1    0    0    0    0 -0.00000000000E+00 -0.00000000000E+00 -0.45593999997E+02  0.45594000000E+02  0.51100000000E-03 0.  1.
         23    2    1    2    0    0  0.00000000000E+00  0.00000000000E+00  0.00000000000E+00  0.91188000000E+02  0.91188000000E+02 0.  0.
    9900012    2    3    3    0    0  0.10594536956E+02 -0.32286443851E+02 -0.26999344859E+02  0.47787270828E+02  0.19999999013E+02 0.  0.
         12    1    3    3    0    0 -0.10594536956E+02  0.32286443851E+02  0.26999344859E+02  0.43400729172E+02  0.00000000000E+00 0. -1.
         11    1    4    4    0    0  0.26948183779E+01 -0.17214858138E+02 -0.14951154226E+02  0.22959756091E+02  0.51100000000E-03 0. -1.
        -11    1    4    4    0    0  0.76156329336E+01 -0.17593121561E+02 -0.10651956285E+02  0.21931255418E+02  0.51100000000E-03 0.  1.
        -12    1    4    4    0    0  0.28408564403E+00  0.25215358486E+01 -0.13962343487E+01  0.28962593194E+01  0.00000000000E+00 0.  1.
</event>
<event>
 8    1  0.3776180E-010  0.9118800E+02  0.7816164E-02  0.1184000E+00
        -11   -1    0    0    0    0  0.00000000000E+00  0.00000000000E+00  0.45593999997E+02  0.45594000000E+02  0.51100000000E-03 0. -1.
         11   -1    0    0    0    0 -0.00000000000E+00 -0.00000000000E+00 -0.45593999997E+02  0.45594000000E+02  0.51100000000E-03 0.  1.
         23    2    1    2    0    0  0.00000000000E+00  0.00000000000E+00  0.00000000000E+00  0.91188000000E+02  0.91188000000E+02 0.  0.
    9900012    2    3    3    0    0  0.28225808799E+02  0.14019820859E+02 -0.29839086532E+02  0.47787277145E+02  0.20000027813E+02 0.  0.
         12    1    3    3    0    0 -0.28225808799E+02 -0.14019820859E+02  0.29839086532E+02  0.43400722855E+02  0.00000000000E+00 0. -1.
         11    1    4    4    0    0  0.97156673554E+01  0.48963600583E+00 -0.18395266647E+01  0.99003936382E+01  0.51100000000E-03 0. -1.
        -11    1    4    4    0    0  0.63091652784E+01 -0.41600261613E+00 -0.11268145889E+02  0.12920903092E+02  0.51100000000E-03 0.  1.
         12    1    4    4    0    0  0.12200976165E+02  0.13946187469E+02 -0.16731413979E+02  0.24965980414E+02  0.00000000000E+00 0. -1.
</event>
<event>
 8    1  0.3776180E-010  0.9118800E+02  0.7816164E-02  0.1184000E+00
        -11   -1    0    0    0    0  0.00000000000E+00  0.00000000000E+00  0.45593999997E+02  0.45594000000E+02  0.51100000000E-03 0. -1.
         11   -1    0    0    0    0 -0.00000000000E+00 -0.00000000000E+00 -0.45593999997E+02  0.45594000000E+02  0.51100000000E-03 0.  1.
         23    2    1    2    0    0  0.13322676296E-14  0.00000000000E+00  0.00000000000E+00  0.91188000000E+02  0.91188000000E+02 0.  0.
    9900012    2    3    3    0    0  0.39966024001E+01 -0.26255128685E+02  0.34326644744E+02  0.47787272444E+02  0.20000006382E+02 0.  0.
        -12    1    3    3    0    0 -0.39966024001E+01  0.26255128685E+02 -0.34326644744E+02  0.43400727556E+02  0.00000000000E+00 0.  1.
         11    1    4    4    0    0  0.85358007623E+01 -0.22911782644E+02  0.21377302580E+02  0.32477665317E+02  0.51100000000E-03 0. -1.
        -11    1    4    4    0    0  0.97698417181E+00  0.33169759819E+00  0.37971995022E+00  0.10994129662E+01  0.51100000000E-03 0.  1.
        -12    1    4    4    0    0 -0.55161825339E+01 -0.36750436389E+01  0.12569622214E+02  0.14210194161E+02  0.00000000000E+00 0.  1.
</event>
<event>
 8    1  0.3776180E-010  0.9118800E+02  0.7816164E-02  0.1184000E+00
        -11   -1    0    0    0    0  0.00000000000E+00  0.00000000000E+00  0.45593999997E+02  0.45594000000E+02  0.51100000000E-03 0. -1.
         11   -1    0    0    0    0 -0.00000000000E+00 -0.00000000000E+00 -0.45593999997E+02  0.45594000000E+02  0.51100000000E-03 0.  1.
         23    2    1    2    0    0  0.00000000000E+00  0.00000000000E+00  0.14210854715E-13  0.91188000000E+02  0.91188000000E+02 0.  0.
    9900012    2    3    3    0    0 -0.21436852548E+02 -0.12083911571E+02  0.35750019329E+02  0.47787269038E+02  0.19999990853E+02 0.  0.
        -12    1    3    3    0    0  0.21436852548E+02  0.12083911571E+02 -0.35750019329E+02  0.43400730962E+02  0.00000000000E+00 0.  1.
         11    1    4    4    0    0 -0.16447936642E+02 -0.80241721724E+01  0.20699798866E+02  0.27629759901E+02  0.51100000000E-03 0. -1.
        -11    1    4    4    0    0 -0.54388778487E+01 -0.26867946922E+01  0.16815546389E+02  0.17876321170E+02  0.51100000000E-03 0.  1.
         12    1    4    4    0    0  0.44996194295E+00 -0.13729447066E+01 -0.17653259257E+01  0.22811879671E+01  0.00000000000E+00 0. -1.
</event>
<event>
 8    1  0.3776180E-010  0.9118800E+02  0.7816164E-02  0.1184000E+00
        -11   -1    0    0    0    0  0.00000000000E+00  0.00000000000E+00  0.45593999997E+02  0.45594000000E+02  0.51100000000E-03 0. -1.
         11   -1    0    0    0    0 -0.00000000000E+00 -0.00000000000E+00 -0.45593999997E+02  0.45594000000E+02  0.51100000000E-03 0.  1.
         23    2    1    2    0    0  0.00000000000E+00  0.00000000000E+00  0.35527136788E-14  0.91188000000E+02  0.91188000000E+02 0.  0.
    9900012    2    3    3    0    0 -0.22710280809E+02  0.27489393284E+02  0.24742671093E+02  0.47787269933E+02  0.19999994930E+02 0.  0.
        -12    1    3    3    0    0  0.22710280809E+02 -0.27489393284E+02 -0.24742671093E+02  0.43400730067E+02  0.00000000000E+00 0.  1.
         11    1    4    4    0    0 -0.75191805480E+00  0.66823858470E+01  0.43011330197E+01  0.79824436662E+01  0.51100000000E-03 0. -1.
        -11    1    4    4    0    0 -0.34295617020E+01  0.13989362305E+02  0.81934211350E+01  0.16570947509E+02  0.51100000000E-03 0.  1.
        -12    1    4    4    0    0 -0.18528801052E+02  0.68176451315E+01  0.12248116939E+02  0.23233878758E+02  0.00000000000E+00 0.  1.
</event>
<event>
 8    1  0.3776180E-010  0.9118800E+02  0.7816164E-02  0.1184000E+00
        -11   -1    0    0    0    0  0.00000000000E+00  0.00000000000E+00  0.45593999997E+02  0.45594000000E+02  0.51100000000E-03 0.  1.
         11   -1    0    0    0    0 -0.00000000000E+00 -0.00000000000E+00 -0.45593999997E+02  0.45594000000E+02  0.51100000000E-03 0. -1.
         23    2    1    2    0    0  0.00000000000E+00 -0.71054273576E-14 -0.11657341759E-14  0.91188000000E+02  0.91188000000E+02 0.  0.
    9900012    2    3    3    0    0 -0.24496023016E+02 -0.35825868977E+02 -0.27439171246E+00  0.47787270486E+02  0.19999997452E+02 0.  0.
        -12    1    3    3    0    0  0.24496023016E+02  0.35825868977E+02  0.27439171246E+00  0.43400729514E+02  0.00000000000E+00 0.  1.
         11    1    4    4    0    0 -0.10817669608E+02 -0.96427886382E+01 -0.14657861135E+01  0.14565503001E+02  0.51100000000E-03 0. -1.
        -11    1    4    4    0    0 -0.67593468187E+01 -0.17385670581E+01 -0.27718442027E+01  0.75096275125E+01  0.51100000000E-03 0.  1.
        -12    1    4    4    0    0 -0.69190065887E+01 -0.24444513281E+02  0.39632386038E+01  0.25712139972E+02  0.00000000000E+00 0.  1.
</event>
<event>
 8    1  0.3776180E-010  0.9118800E+02  0.7816164E-02  0.1184000E+00
        -11   -1    0    0    0    0  0.00000000000E+00  0.00000000000E+00  0.45593999997E+02  0.45594000000E+02  0.51100000000E-03 0. -1.
         11   -1    0    0    0    0 -0.00000000000E+00 -0.00000000000E+00 -0.45593999997E+02  0.45594000000E+02  0.51100000000E-03 0.  1.
         23    2    1    2    0    0  0.44408920985E-15  0.00000000000E+00  0.00000000000E+00  0.91188000000E+02  0.91188000000E+02 0.  0.
    9900012    2    3    3    0    0 -0.36980449416E+01 -0.36775368937E+02 -0.22749072202E+02  0.47787267485E+02  0.19999983770E+02 0.  0.
         12    1    3    3    0    0  0.36980449416E+01  0.36775368937E+02  0.22749072202E+02  0.43400732515E+02  0.00000000000E+00 0. -1.
         11    1    4    4    0    0 -0.52837339840E+00  0.14068785219E+01  0.16799534672E+00  0.15121866026E+01  0.51100000000E-03 0. -1.
        -11    1    4    4    0    0  0.25031147847E+01 -0.32610491922E+01  0.20626071873E-01  0.41110158301E+01  0.51100000000E-03 0.  1.
        -12    1    4    4    0    0 -0.56727863279E+01 -0.34921198266E+02 -0.22937693620E+02  0.42164065052E+02  0.00000000000E+00 0.  1.
</event>
<event>
 8    1  0.3776180E-010  0.9118800E+02  0.7816164E-02  0.1184000E+00
        -11   -1    0    0    0    0  0.00000000000E+00  0.00000000000E+00  0.45593999997E+02  0.45594000000E+02  0.51100000000E-03 0. -1.
         11   -1    0    0    0    0 -0.00000000000E+00 -0.00000000000E+00 -0.45593999997E+02  0.45594000000E+02  0.51100000000E-03 0.  1.
         23    2    1    2    0    0  0.35527136788E-14  0.00000000000E+00  0.00000000000E+00  0.91188000000E+02  0.91188000000E+02 0.  0.
    9900012    2    3    3    0    0 -0.28776489328E+02  0.15760306221E+01  0.32450777061E+02  0.47787272559E+02  0.20000006905E+02 0.  0.
        -12    1    3    3    0    0  0.28776489328E+02 -0.15760306221E+01 -0.32450777061E+02  0.43400727441E+02  0.00000000000E+00 0.  1.
         11    1    4    4    0    0 -0.12534418288E+01 -0.24309898251E+01  0.19519713337E+01  0.33602113470E+01  0.51100000000E-03 0. -1.
        -11    1    4    4    0    0 -0.28852065860E+02  0.87111202206E+00  0.27877294289E+02  0.40129092660E+02  0.51100000000E-03 0.  1.
        -12    1    4    4    0    0  0.13290183611E+01  0.31359084251E+01  0.26215114380E+01  0.42979685521E+01  0.00000000000E+00 0.  1.
</event>
<event>
 8    1  0.3776180E-010  0.9118800E+02  0.7816164E-02  0.1184000E+00
        -11   -1    0    0    0    0  0.00000000000E+00  0.00000000000E+00  0.45593999997E+02  0.45594000000E+02  0.51100000000E-03 0. -1.
         11   -1    0    0    0    0 -0.00000000000E+00 -0.00000000000E+00 -0.45593999997E+02  0.45594000000E+02  0.51100000000E-03 0.  1.
         23    2    1    2    0    0 -0.17763568394E-14  0.00000000000E+00  0.16653345369E-15  0.91188000000E+02  0.91188000000E+02 0.  0.
    9900012    2    3    3    0    0  0.14564592657E+02  0.40881490031E+02  0.44694872698E+00  0.47787270172E+02  0.19999996024E+02 0.  0.
         12    1    3    3    0    0 -0.14564592657E+02 -0.40881490031E+02 -0.44694872698E+00  0.43400729828E+02  0.00000000000E+00 0. -1.
         11    1    4    4    0    0  0.44630403301E+01  0.61826324634E+01  0.10418660096E+01  0.76960482203E+01  0.51100000000E-03 0. -1.
        -11    1    4    4    0    0  0.25034646667E+01  0.16573651904E+02 -0.86370828273E+01  0.18856099087E+02  0.51100000000E-03 0.  1.
         12    1    4    4    0    0  0.75980876606E+01  0.18125205663E+02  0.80421655446E+01  0.21235122865E+02  0.00000000000E+00 0. -1.
</event>
<event>
 8    1  0.3776180E-010  0.9118800E+02  0.7816164E-02  0.1184000E+00
        -11   -1    0    0    0    0  0.00000000000E+00  0.00000000000E+00  0.45593999997E+02  0.45594000000E+02  0.51100000000E-03 0. -1.
         11   -1    0    0    0    0 -0.00000000000E+00 -0.00000000000E+00 -0.45593999997E+02  0.45594000000E+02  0.51100000000E-03 0.  1.
         23    2    1    2    0    0  0.44408920985E-15  0.00000000000E+00  0.71054273576E-14  0.91188000000E+02  0.91188000000E+02 0.  0.
    9900012    2    3    3    0    0  0.21483702062E+01  0.23410228294E+02  0.36482447028E+02  0.47787271613E+02  0.20000002592E+02 0.  0.
        -12    1    3    3    0    0 -0.21483702062E+01 -0.23410228294E+02 -0.36482447028E+02  0.43400728387E+02  0.00000000000E+00 0.  1.
         11    1    4    4    0    0 -0.26516567820E+01  0.38542098835E+01  0.10377650756E+02  0.11383402523E+02  0.51100000000E-03 0. -1.
        -11    1    4    4    0    0 -0.31025068094E+01  0.52183382278E+01  0.60493259081E+00  0.61010282791E+01  0.51100000000E-03 0.  1.
         12    1    4    4    0    0  0.79025337977E+01  0.14337680183E+02  0.25499863681E+02  0.30302840811E+02  0.00000000000E+00 0. -1.
</event>
<event>
 8    1  0.3776180E-010  0.9118800E+02  0.7816164E-02  0.1184000E+00
        -11   -1    0    0    0    0  0.00000000000E+00  0.00000000000E+00  0.45593999997E+02  0.45594000000E+02  0.51100000000E-03 0.  1.
         11   -1    0    0    0    0 -0.00000000000E+00 -0.00000000000E+00 -0.45593999997E+02  0.45594000000E+02  0.51100000000E-03 0. -1.
         23    2    1    2    0    0  0.00000000000E+00  0.00000000000E+00  0.00000000000E+00  0.91188000000E+02  0.91188000000E+02 0.  0.
    9900012    2    3    3    0    0  0.28417162660E+02  0.23049516358E+02 -0.23341125776E+02  0.47787268549E+02  0.19999988622E+02 0.  0.
         12    1    3    3    0    0 -0.28417162660E+02 -0.23049516358E+02  0.23341125776E+02  0.43400731451E+02  0.00000000000E+00 0. -1.
         11    1    4    4    0    0  0.82710465963E+01  0.51011519749E+01 -0.14209833129E+02  0.17214857568E+02  0.51100000000E-03 0. -1.
        -11    1    4    4    0    0  0.17753307079E+01  0.65086999259E+01 -0.53339517743E+01  0.86003497394E+01  0.51100000000E-03 0.  1.
         12    1    4    4    0    0  0.18370785356E+02  0.11439664458E+02 -0.37973408727E+01  0.21972061241E+02  0.00000000000E+00 0. -1.
</event>
<event>
 8    1  0.3776180E-010  0.9118800E+02  0.7816164E-02  0.1184000E+00
        -11   -1    0    0    0    0  0.00000000000E+00  0.00000000000E+00  0.45593999997E+02  0.45594000000E+02  0.51100000000E-03 0. -1.
         11   -1    0    0    0    0 -0.00000000000E+00 -0.00000000000E+00 -0.45593999997E+02  0.45594000000E+02  0.51100000000E-03 0.  1.
         23    2    1    2    0    0  0.00000000000E+00 -0.35527136788E-14  0.17763568394E-14  0.91188000000E+02  0.91188000000E+02 0.  0.
    9900012    2    3    3    0    0  0.29030491975E+02  0.29567835753E+02 -0.12907268437E+02  0.47787263210E+02  0.19999964280E+02 0.  0.
         12    1    3    3    0    0 -0.29030491975E+02 -0.29567835753E+02  0.12907268437E+02  0.43400736790E+02  0.00000000000E+00 0. -1.
         11    1    4    4    0    0 -0.44461489067E+00  0.79085527623E+01 -0.28083460138E+01  0.84041475944E+01  0.51100000000E-03 0. -1.
        -11    1    4    4    0    0  0.91804321158E+01  0.12912501295E+02 -0.57860951920E+01  0.16866888313E+02  0.51100000000E-03 0.  1.
         12    1    4    4    0    0  0.20294674749E+02  0.87467816955E+01 -0.43128272311E+01  0.22516227303E+02  0.00000000000E+00 0. -1.
</event>
<event>
 8    1  0.3776180E-010  0.9118800E+02  0.7816164E-02  0.1184000E+00
        -11   -1    0    0    0    0  0.00000000000E+00  0.00000000000E+00  0.45593999997E+02  0.45594000000E+02  0.51100000000E-03 0. -1.
         11   -1    0    0    0    0 -0.00000000000E+00 -0.00000000000E+00 -0.45593999997E+02  0.45594000000E+02  0.51100000000E-03 0.  1.
         23    2    1    2    0    0  0.00000000000E+00  0.00000000000E+00  0.00000000000E+00  0.91188000000E+02  0.91188000000E+02 0.  0.
    9900012    2    3    3    0    0 -0.71492479310E+01 -0.13128844554E+02  0.40744877943E+02  0.47787269777E+02  0.19999994221E+02 0.  0.
        -12    1    3    3    0    0  0.71492479310E+01  0.13128844554E+02 -0.40744877943E+02  0.43400730223E+02  0.00000000000E+00 0.  1.
         11    1    4    4    0    0 -0.39458374338E+01  0.14813976674E+00  0.73721402208E+01  0.83630156128E+01  0.51100000000E-03 0. -1.
        -11    1    4    4    0    0 -0.28606956509E+01  0.83538175492E+00 -0.21767717234E+00  0.29881141036E+01  0.51100000000E-03 0.  1.
         12    1    4    4    0    0 -0.34271484626E+00 -0.14112366076E+02  0.33590414895E+02  0.36436140061E+02  0.00000000000E+00 0. -1.
</event>
<event>
 8    1  0.3776180E-010  0.9118800E+02  0.7816164E-02  0.1184000E+00
        -11   -1    0    0    0    0  0.00000000000E+00  0.00000000000E+00  0.45593999997E+02  0.45594000000E+02  0.51100000000E-03 0. -1.
         11   -1    0    0    0    0 -0.00000000000E+00 -0.00000000000E+00 -0.45593999997E+02  0.45594000000E+02  0.51100000000E-03 0.  1.
         23    2    1    2    0    0  0.35527136788E-14  0.11102230246E-15 -0.71054273576E-14  0.91188000000E+02  0.91188000000E+02 0.  0.
    9900012    2    3    3    0    0 -0.22086600671E+02 -0.12506744575E+00  0.37360266293E+02  0.47787273410E+02  0.20000010785E+02 0.  0.
        -12    1    3    3    0    0  0.22086600671E+02  0.12506744575E+00 -0.37360266293E+02  0.43400726590E+02  0.00000000000E+00 0.  1.
         11    1    4    4    0    0  0.99262606886E-01  0.10517719442E+01  0.42456932285E+01  0.43751558303E+01  0.51100000000E-03 0.  1.
        -11    1    4    4    0    0 -0.18828714451E+02 -0.20183104314E+01  0.34757257518E+02  0.39581068901E+02  0.51100000000E-03 0. -1.
        -12    1    4    4    0    0 -0.33571488277E+01  0.84147104142E+00 -0.16426844540E+01  0.38310486789E+01  0.00000000000E+00 0.  1.
</event>
<event>
 8    1  0.3776180E-010  0.9118800E+02  0.7816164E-02  0.1184000E+00
        -11   -1    0    0    0    0  0.00000000000E+00  0.00000000000E+00  0.45593999997E+02  0.45594000000E+02  0.51100000000E-03 0.  1.
         11   -1    0    0    0    0 -0.00000000000E+00 -0.00000000000E+00 -0.45593999997E+02  0.45594000000E+02  0.51100000000E-03 0. -1.
         23    2    1    2    0    0  0.00000000000E+00  0.00000000000E+00  0.17763568394E-14  0.91188000000E+02  0.91188000000E+02 0.  0.
    9900012    2    3    3    0    0 -0.82148232329E+01 -0.40848953749E+02 -0.12145039125E+02  0.47787282051E+02  0.20000050182E+02 0.  0.
         12    1    3    3    0    0  0.82148232329E+01  0.40848953749E+02  0.12145039125E+02  0.43400717949E+02  0.00000000000E+00 0. -1.
         11    1    4    4    0    0 -0.52105388106E+01 -0.35970988764E+02 -0.69097728935E+01  0.36997387868E+02  0.51100000000E-03 0. -1.
        -11    1    4    4    0    0 -0.30975899548E+01 -0.67196463275E+01 -0.32536740571E+01  0.80830133877E+01  0.51100000000E-03 0.  1.
         12    1    4    4    0    0  0.93305532601E-01  0.18416813425E+01 -0.19815921746E+01  0.27068807946E+01  0.00000000000E+00 0. -1.
</event>
<event>
 8    1  0.3852983E-010  0.9118800E+02  0.7816164E-02  0.1184000E+00
        -11   -1    0    0    0    0  0.00000000000E+00  0.00000000000E+00  0.45593999997E+02  0.45594000000E+02  0.51100000000E-03 0. -1.
         11   -1    0    0    0    0 -0.00000000000E+00 -0.00000000000E+00 -0.45593999997E+02  0.45594000000E+02  0.51100000000E-03 0.  1.
         23    2    1    2    0    0  0.49960036108E-15  0.00000000000E+00  0.00000000000E+00  0.91188000000E+02  0.91188000000E+02 0.  0.
    9900012    2    3    3    0    0  0.23552315713E+00  0.75254954333E+01  0.42742657089E+02  0.47787270885E+02  0.19999999275E+02 0.  0.
        -12    1    3    3    0    0 -0.23552315713E+00 -0.75254954333E+01 -0.42742657089E+02  0.43400729115E+02  0.00000000000E+00 0.  1.
         11    1    4    4    0    0  0.62675168210E+00  0.32774129227E+01  0.15921675377E+02  0.16267575118E+02  0.51100000000E-03 0. -1.
        -11    1    4    4    0    0 -0.62231148552E+01 -0.29328365741E+01  0.15056442263E+02  0.16553704805E+02  0.51100000000E-03 0.  1.
        -12    1    4    4    0    0  0.58318863302E+01  0.71809190846E+01  0.11764539448E+02  0.14965990963E+02  0.00000000000E+00 0.  1.
</event>
<event>
 8    1  0.3776180E-010  0.9118800E+02  0.7816164E-02  0.1184000E+00
        -11   -1    0    0    0    0  0.00000000000E+00  0.00000000000E+00  0.45593999997E+02  0.45594000000E+02  0.51100000000E-03 0. -1.
         11   -1    0    0    0    0 -0.00000000000E+00 -0.00000000000E+00 -0.45593999997E+02  0.45594000000E+02  0.51100000000E-03 0.  1.
         23    2    1    2    0    0  0.00000000000E+00  0.17763568394E-14  0.00000000000E+00  0.91188000000E+02  0.91188000000E+02 0.  0.
    9900012    2    3    3    0    0  0.26470396995E+02  0.11632944217E+02  0.32366901561E+02  0.47787267000E+02  0.19999981562E+02 0.  0.
        -12    1    3    3    0    0 -0.26470396995E+02 -0.11632944217E+02 -0.32366901561E+02  0.43400733000E+02  0.00000000000E+00 0.  1.
         11    1    4    4    0    0  0.69960043697E+01  0.28483182696E+01  0.10061965795E+02  0.12581738752E+02  0.51100000000E-03 0. -1.
        -11    1    4    4    0    0  0.17481211558E+02  0.37676431291E+00  0.99172713181E+01  0.20101914823E+02  0.51100000000E-03 0.  1.
        -12    1    4    4    0    0  0.19931810674E+01  0.84078616346E+01  0.12387664447E+02  0.15103613425E+02  0.00000000000E+00 0.  1.
</event>
<event>
 8    1  0.3776180E-010  0.9118800E+02  0.7816164E-02  0.1184000E+00
        -11   -1    0    0    0    0  0.00000000000E+00  0.00000000000E+00  0.45593999997E+02  0.45594000000E+02  0.51100000000E-03 0. -1.
         11   -1    0    0    0    0 -0.00000000000E+00 -0.00000000000E+00 -0.45593999997E+02  0.45594000000E+02  0.51100000000E-03 0.  1.
         23    2    1    2    0    0 -0.44408920985E-15  0.00000000000E+00  0.00000000000E+00  0.91188000000E+02  0.91188000000E+02 0.  0.
    9900012    2    3    3    0    0  0.22870901806E+01 -0.33024279249E+02  0.28067591703E+02  0.47787268377E+02  0.19999987839E+02 0.  0.
        -12    1    3    3    0    0 -0.22870901806E+01  0.33024279249E+02 -0.28067591703E+02  0.43400731623E+02  0.00000000000E+00 0.  1.
         11    1    4    4    0    0  0.54719801972E+01 -0.48310594348E+01  0.74190508957E+01  0.10407882541E+02  0.51100000000E-03 0. -1.
        -11    1    4    4    0    0  0.40180609625E+01 -0.18222348502E+02  0.10358552727E+02  0.21342408807E+02  0.51100000000E-03 0.  1.
        -12    1    4    4    0    0 -0.72029509791E+01 -0.99708713117E+01  0.10289988080E+02  0.16036977029E+02  0.00000000000E+00 0.  1.
</event>
<event>
 8    1  0.3776180E-010  0.9118800E+02  0.7816164E-02  0.1184000E+00
        -11   -1    0    0    0    0  0.00000000000E+00  0.00000000000E+00  0.45593999997E+02  0.45594000000E+02  0.51100000000E-03 0. -1.
         11   -1    0    0    0    0 -0.00000000000E+00 -0.00000000000E+00 -0.45593999997E+02  0.45594000000E+02  0.51100000000E-03 0.  1.
         23    2    1    2    0    0  0.00000000000E+00  0.00000000000E+00  0.00000000000E+00  0.91188000000E+02  0.91188000000E+02 0.  0.
    9900012    2    3    3    0    0  0.11880157450E+02 -0.24897546075E+02  0.33505176605E+02  0.47787276493E+02  0.20000024843E+02 0.  0.
        -12    1    3    3    0    0 -0.11880157450E+02  0.24897546075E+02 -0.33505176605E+02  0.43400723507E+02  0.00000000000E+00 0.  1.
         11    1    4    4    0    0  0.24348461335E+01 -0.12485565695E+02  0.93122694273E+01  0.15765030560E+02  0.51100000000E-03 0. -1.
        -11    1    4    4    0    0  0.28051587360E+01 -0.30820995804E+01 -0.10547509462E+01  0.42989246536E+01  0.51100000000E-03 0.  1.
        -12    1    4    4    0    0  0.66401525804E+01 -0.93298807995E+01  0.25247658124E+02  0.27723321279E+02  0.00000000000E+00 0.  1.
</event>
<event>
 8    1  0.3776180E-010  0.9118800E+02  0.7816164E-02  0.1184000E+00
        -11   -1    0    0    0    0  0.00000000000E+00  0.00000000000E+00  0.45593999997E+02  0.45594000000E+02  0.51100000000E-03 0. -1.
         11   -1    0    0    0    0 -0.00000000000E+00 -0.00000000000E+00 -0.45593999997E+02  0.45594000000E+02  0.51100000000E-03 0.  1.
         23    2    1    2    0    0  0.00000000000E+00  0.00000000000E+00  0.00000000000E+00  0.91188000000E+02  0.91188000000E+02 0.  0.
    9900012    2    3    3    0    0 -0.11241582322E+02  0.35034410793E+02  0.23018244196E+02  0.47787277902E+02  0.20000031268E+02 0.  0.
        -12    1    3    3    0    0  0.11241582322E+02 -0.35034410793E+02 -0.23018244196E+02  0.43400722098E+02  0.00000000000E+00 0.  1.
         11    1    4    4    0    0 -0.30386633712E+01 -0.88900271278E+00  0.10941786486E+01  0.33497803037E+01  0.51100000000E-03 0. -1.
        -11    1    4    4    0    0 -0.93586225152E+01  0.15590668444E+02  0.11965024558E+02  0.21767282119E+02  0.51100000000E-03 0.  1.
        -12    1    4    4    0    0  0.11557035639E+01  0.20332745062E+02  0.99590409894E+01  0.22670215480E+02  0.00000000000E+00 0.  1.
</event>
<event>
 8    1  0.3776180E-010  0.9118800E+02  0.7816164E-02  0.1184000E+00
        -11   -1    0    0    0    0  0.00000000000E+00  0.00000000000E+00  0.45593999997E+02  0.45594000000E+02  0.51100000000E-03 0. -1.
         11   -1    0    0    0    0 -0.00000000000E+00 -0.00000000000E+00 -0.45593999997E+02  0.45594000000E+02  0.51100000000E-03 0.  1.
         23    2    1    2    0    0  0.88817841970E-15  0.00000000000E+00  0.00000000000E+00  0.91188000000E+02  0.91188000000E+02 0.  0.
    9900012    2    3    3    0    0 -0.48190131731E+01 -0.18078085988E+02 -0.39160991499E+02  0.47787270327E+02  0.19999996730E+02 0.  0.
         12    1    3    3    0    0  0.48190131731E+01  0.18078085988E+02  0.39160991499E+02  0.43400729673E+02  0.00000000000E+00 0. -1.
         11    1    4    4    0    0  0.44587104493E+01 -0.71504407991E+01 -0.72479984644E+01  0.11114962190E+02  0.51100000000E-03 0. -1.
        -11    1    4    4    0    0 -0.41168983168E+01 -0.12020407563E+02 -0.20859456911E+02  0.24424495749E+02  0.51100000000E-03 0.  1.
        -12    1    4    4    0    0 -0.51608253055E+01  0.10927623743E+01 -0.11053536124E+02  0.12247812388E+02  0.00000000000E+00 0.  1.
</event>
<event>
 8    1  0.3776180E-010  0.9118800E+02  0.7816164E-02  0.1184000E+00
        -11   -1    0    0    0    0  0.00000000000E+00  0.00000000000E+00  0.45593999997E+02  0.45594000000E+02  0.51100000000E-03 0. -1.
         11   -1    0    0    0    0 -0.00000000000E+00 -0.00000000000E+00 -0.45593999997E+02  0.45594000000E+02  0.51100000000E-03 0.  1.
         23    2    1    2    0    0 -0.17763568394E-14  0.00000000000E+00 -0.35527136788E-14  0.91188000000E+02  0.91188000000E+02 0.  0.
    9900012    2    3    3    0    0 -0.12427940302E+02 -0.28837203520E+02 -0.29959726828E+02  0.47787271451E+02  0.20000001852E+02 0.  0.
         12    1    3    3    0    0  0.12427940302E+02  0.28837203520E+02  0.29959726828E+02  0.43400728549E+02  0.00000000000E+00 0. -1.
         11    1    4    4    0    0  0.27325020973E+01 -0.81257725253E+01 -0.65145221376E+01  0.10767253400E+02  0.51100000000E-03 0. -1.
        -11    1    4    4    0    0 -0.71784730713E+00 -0.10578948506E+02 -0.11885435546E+02  0.15927744179E+02  0.51100000000E-03 0.  1.
         12    1    4    4    0    0 -0.14442595093E+02 -0.10132482489E+02 -0.11559769144E+02  0.21092273871E+02  0.00000000000E+00 0. -1.
</event>
<event>
 8    1  0.3776180E-010  0.9118800E+02  0.7816164E-02  0.1184000E+00
        -11   -1    0    0    0    0  0.00000000000E+00  0.00000000000E+00  0.45593999997E+02  0.45594000000E+02  0.51100000000E-03 0. -1.
         11   -1    0    0    0    0 -0.00000000000E+00 -0.00000000000E+00 -0.45593999997E+02  0.45594000000E+02  0.51100000000E-03 0.  1.
         23    2    1    2    0    0  0.00000000000E+00  0.00000000000E+00  0.35527136788E-14  0.91188000000E+02  0.91188000000E+02 0.  0.
    9900012    2    3    3    0    0 -0.33137730807E+02 -0.30559394964E+01 -0.27859970851E+02  0.47787240271E+02  0.19999859689E+02 0.  0.
         12    1    3    3    0    0  0.33137730807E+02  0.30559394964E+01  0.27859970851E+02  0.43400759729E+02  0.00000000000E+00 0. -1.
         11    1    4    4    0    0 -0.18898066434E+01 -0.26246326008E+01  0.14013563510E+01  0.35247503914E+01  0.51100000000E-03 0. -1.
        -11    1    4    4    0    0 -0.20171018947E+02  0.20606760801E+01 -0.11875503812E+02  0.23497744196E+02  0.51100000000E-03 0.  1.
         12    1    4    4    0    0 -0.11076905217E+02 -0.24919829757E+01 -0.17385823389E+02  0.20764745683E+02  0.00000000000E+00 0. -1.
</event>
<event>
 8    1  0.3776180E-010  0.9118800E+02  0.7816164E-02  0.1184000E+00
        -11   -1    0    0    0    0  0.00000000000E+00  0.00000000000E+00  0.45593999997E+02  0.45594000000E+02  0.51100000000E-03 0. -1.
         11   -1    0    0    0    0 -0.00000000000E+00 -0.00000000000E+00 -0.45593999997E+02  0.45594000000E+02  0.51100000000E-03 0.  1.
         23    2    1    2    0    0  0.35527136788E-14 -0.35527136788E-14  0.00000000000E+00  0.91188000000E+02  0.91188000000E+02 0.  0.
    9900012    2    3    3    0    0  0.16397241213E+02 -0.18045423199E+02 -0.35904265613E+02  0.47787272966E+02  0.20000008763E+02 0.  0.
         12    1    3    3    0    0 -0.16397241213E+02  0.18045423199E+02  0.35904265613E+02  0.43400727034E+02  0.00000000000E+00 0. -1.
         11    1    4    4    0    0  0.45735402143E+01  0.22299085656E+01 -0.46671485749E+01  0.69044940716E+01  0.51100000000E-03 0. -1.
        -11    1    4    4    0    0  0.61815633720E+01 -0.32422218688E+01 -0.34010996358E+01  0.77647412940E+01  0.51100000000E-03 0.  1.
        -12    1    4    4    0    0  0.56421376270E+01 -0.17033109895E+02 -0.27836017402E+02  0.33118037601E+02  0.00000000000E+00 0.  1.
</event>
<event>
 8    1  0.3776180E-010  0.9118800E+02  0.7816164E-02  0.1184000E+00
        -11   -1    0    0    0    0  0.00000000000E+00  0.00000000000E+00  0.45593999997E+02  0.45594000000E+02  0.51100000000E-03 0. -1.
         11   -1    0    0    0    0 -0.00000000000E+00 -0.00000000000E+00 -0.45593999997E+02  0.45594000000E+02  0.51100000000E-03 0.  1.
         23    2    1    2    0    0  0.88817841970E-15  0.35527136788E-14  0.00000000000E+00  0.91188000000E+02  0.91188000000E+02 0.  0.
    9900012    2    3    3    0    0 -0.45266494645E+01 -0.27550546521E+02  0.33227997951E+02  0.47787274006E+02  0.20000013504E+02 0.  0.
        -12    1    3    3    0    0  0.45266494645E+01  0.27550546521E+02 -0.33227997951E+02  0.43400725994E+02  0.00000000000E+00 0.  1.
         11    1    4    4    0    0 -0.26906600090E+01 -0.45963114095E+00  0.13453203643E+01  0.30431561271E+01  0.51100000000E-03 0. -1.
        -11    1    4    4    0    0  0.29308622500E+01  0.78686231142E+00  0.22263293784E+01  0.37637280172E+01  0.51100000000E-03 0.  1.
         12    1    4    4    0    0 -0.47668517054E+01 -0.27877777691E+02  0.29656348208E+02  0.40980389862E+02  0.00000000000E+00 0. -1.
</event>
<event>
 8    1  0.3776180E-010  0.9118800E+02  0.7816164E-02  0.1184000E+00
        -11   -1    0    0    0    0  0.00000000000E+00  0.00000000000E+00  0.45593999997E+02  0.45594000000E+02  0.51100000000E-03 0. -1.
         11   -1    0    0    0    0 -0.00000000000E+00 -0.00000000000E+00 -0.45593999997E+02  0.45594000000E+02  0.51100000000E-03 0.  1.
         23    2    1    2    0    0  0.00000000000E+00  0.00000000000E+00  0.00000000000E+00  0.91188000000E+02  0.91188000000E+02 0.  0.
    9900012    2    3    3    0    0 -0.37974488858E+02  0.16276196903E+02  0.13291062623E+02  0.47787208126E+02  0.19999713126E+02 0.  0.
        -12    1    3    3    0    0  0.37974488858E+02 -0.16276196903E+02 -0.13291062623E+02  0.43400791874E+02  0.00000000000E+00 0.  1.
         11    1    4    4    0    0 -0.10877458219E+02  0.13361548033E+02  0.10800906348E+02  0.20334936473E+02  0.51100000000E-03 0.  1.
        -11    1    4    4    0    0 -0.24072989318E+01  0.45035985645E+00  0.82407175903E+00  0.25839904552E+01  0.51100000000E-03 0. -1.
        -12    1    4    4    0    0 -0.24689731707E+02  0.24642890135E+01  0.16660845159E+01  0.24868281198E+02  0.00000000000E+00 0.  1.
</event>
<event>
 8    1  0.3776180E-010  0.9118800E+02  0.7816164E-02  0.1184000E+00
        -11   -1    0    0    0    0  0.00000000000E+00  0.00000000000E+00  0.45593999997E+02  0.45594000000E+02  0.51100000000E-03 0. -1.
         11   -1    0    0    0    0 -0.00000000000E+00 -0.00000000000E+00 -0.45593999997E+02  0.45594000000E+02  0.51100000000E-03 0.  1.
         23    2    1    2    0    0  0.00000000000E+00  0.00000000000E+00  0.00000000000E+00  0.91188000000E+02  0.91188000000E+02 0.  0.
    9900012    2    3    3    0    0 -0.17583688160E+02 -0.36891173095E+02  0.14610900467E+02  0.47787272425E+02  0.20000006293E+02 0.  0.
        -12    1    3    3    0    0  0.17583688160E+02  0.36891173095E+02 -0.14610900467E+02  0.43400727575E+02  0.00000000000E+00 0.  1.
         11    1    4    4    0    0  0.27516501876E+01 -0.13410561386E+01  0.21395772599E+00  0.30685156821E+01  0.51100000000E-03 0. -1.
        -11    1    4    4    0    0  0.85808400779E+00 -0.38167161701E+01 -0.59401738030E-01  0.39124364935E+01  0.51100000000E-03 0.  1.
         12    1    4    4    0    0 -0.21193422356E+02 -0.31733400786E+02  0.14456344479E+02  0.40806320249E+02  0.00000000000E+00 0. -1.
</event>
<event>
 8    1  0.3776180E-010  0.9118800E+02  0.7816164E-02  0.1184000E+00
        -11   -1    0    0    0    0  0.00000000000E+00  0.00000000000E+00  0.45593999997E+02  0.45594000000E+02  0.51100000000E-03 0. -1.
         11   -1    0    0    0    0 -0.00000000000E+00 -0.00000000000E+00 -0.45593999997E+02  0.45594000000E+02  0.51100000000E-03 0.  1.
         23    2    1    2    0    0  0.00000000000E+00  0.44408920985E-15  0.35527136788E-14  0.91188000000E+02  0.91188000000E+02 0.  0.
    9900012    2    3    3    0    0  0.33341937037E+02 -0.28791642168E+01  0.27634197116E+02  0.47787271869E+02  0.20000003762E+02 0.  0.
        -12    1    3    3    0    0 -0.33341937037E+02  0.28791642168E+01 -0.27634197116E+02  0.43400728131E+02  0.00000000000E+00 0.  1.
         11    1    4    4    0    0  0.21459609651E+02 -0.25280369635E+01  0.58305068192E+01  0.22380809353E+02  0.51100000000E-03 0. -1.
        -11    1    4    4    0    0  0.49921685730E+01  0.21290365014E+01  0.67096787208E+01  0.86298512318E+01  0.51100000000E-03 0.  1.
         12    1    4    4    0    0  0.68901588130E+01 -0.24801637547E+01  0.15094011576E+02  0.16776611284E+02  0.00000000000E+00 0. -1.
</event>
<event>
 8    1  0.3776180E-010  0.9118800E+02  0.7816164E-02  0.1184000E+00
        -11   -1    0    0    0    0  0.00000000000E+00  0.00000000000E+00  0.45593999997E+02  0.45594000000E+02  0.51100000000E-03 0. -1.
         11   -1    0    0    0    0 -0.00000000000E+00 -0.00000000000E+00 -0.45593999997E+02  0.45594000000E+02  0.51100000000E-03 0.  1.
         23    2    1    2    0    0 -0.35527136788E-14 -0.35527136788E-14 -0.35527136788E-14  0.91188000000E+02  0.91188000000E+02 0.  0.
    9900012    2    3    3    0    0  0.28312144922E+02 -0.19036806865E+02  0.26826211840E+02  0.47787271810E+02  0.20000003492E+02 0.  0.
        -12    1    3    3    0    0 -0.28312144922E+02  0.19036806865E+02 -0.26826211840E+02  0.43400728190E+02  0.00000000000E+00 0.  1.
         11    1    4    4    0    0  0.80188847723E+01 -0.50394234698E+01 -0.14706434226E+01  0.95844193479E+01  0.51100000000E-03 0. -1.
        -11    1    4    4    0    0  0.39441007999E+01 -0.17065247999E+01  0.16325212803E+01  0.45970951702E+01  0.51100000000E-03 0.  1.
        -12    1    4    4    0    0  0.16349159350E+02 -0.12290858595E+02  0.26664333982E+02  0.33605757292E+02  0.00000000000E+00 0.  1.
</event>
<event>
 8    1  0.3776180E-010  0.9118800E+02  0.7816164E-02  0.1184000E+00
        -11   -1    0    0    0    0  0.00000000000E+00  0.00000000000E+00  0.45593999997E+02  0.45594000000E+02  0.51100000000E-03 0.  1.
         11   -1    0    0    0    0 -0.00000000000E+00 -0.00000000000E+00 -0.45593999997E+02  0.45594000000E+02  0.51100000000E-03 0. -1.
         23    2    1    2    0    0  0.00000000000E+00  0.00000000000E+00  0.00000000000E+00  0.91188000000E+02  0.91188000000E+02 0.  0.
    9900012    2    3    3    0    0  0.38066656008E+02  0.18848134764E+02 -0.89050983119E+01  0.47787271208E+02  0.20000000745E+02 0.  0.
        -12    1    3    3    0    0 -0.38066656008E+02 -0.18848134764E+02  0.89050983119E+01  0.43400728792E+02  0.00000000000E+00 0.  1.
         11    1    4    4    0    0  0.28664851558E+02  0.97640825421E+01 -0.10816562851E+02  0.32156011178E+02  0.51100000000E-03 0. -1.
        -11    1    4    4    0    0  0.44316762565E+01  0.59256491910E+01 -0.29788826622E+01  0.79766418344E+01  0.51100000000E-03 0.  1.
        -12    1    4    4    0    0  0.49701281935E+01  0.31584030312E+01  0.48903472010E+01  0.76546181952E+01  0.00000000000E+00 0.  1.
</event>
<event>
 8    1  0.3776180E-010  0.9118800E+02  0.7816164E-02  0.1184000E+00
        -11   -1    0    0    0    0  0.00000000000E+00  0.00000000000E+00  0.45593999997E+02  0.45594000000E+02  0.51100000000E-03 0. -1.
         11   -1    0    0    0    0 -0.00000000000E+00 -0.00000000000E+00 -0.45593999997E+02  0.45594000000E+02  0.51100000000E-03 0.  1.
         23    2    1    2    0    0  0.00000000000E+00 -0.44408920985E-15 -0.71054273576E-14  0.91188000000E+02  0.91188000000E+02 0.  0.
    9900012    2    3    3    0    0  0.21254747866E+02  0.34069257898E+01  0.37686227506E+02  0.47787271967E+02  0.20000004206E+02 0.  0.
        -12    1    3    3    0    0 -0.21254747866E+02 -0.34069257898E+01 -0.37686227506E+02  0.43400728033E+02  0.00000000000E+00 0.  1.
         11    1    4    4    0    0  0.14135577171E+02  0.63531948705E+01  0.11237417826E+02  0.19143071505E+02  0.51100000000E-03 0. -1.
        -11    1    4    4    0    0  0.25337958861E+01  0.25494894686E+01  0.61867390915E+01  0.71551211723E+01  0.51100000000E-03 0.  1.
        -12    1    4    4    0    0  0.45853748096E+01 -0.54957585492E+01  0.20262070588E+02  0.21489079289E+02  0.00000000000E+00 0.  1.
</event>
<event>
 8    1  0.3776180E-010  0.9118800E+02  0.7816164E-02  0.1184000E+00
        -11   -1    0    0    0    0  0.00000000000E+00  0.00000000000E+00  0.45593999997E+02  0.45594000000E+02  0.51100000000E-03 0. -1.
         11   -1    0    0    0    0 -0.00000000000E+00 -0.00000000000E+00 -0.45593999997E+02  0.45594000000E+02  0.51100000000E-03 0.  1.
         23    2    1    2    0    0  0.00000000000E+00  0.00000000000E+00  0.00000000000E+00  0.91188000000E+02  0.91188000000E+02 0.  0.
    9900012    2    3    3    0    0  0.12379049971E+02 -0.32827657567E+02  0.25548539522E+02  0.47787264393E+02  0.19999969675E+02 0.  0.
        -12    1    3    3    0    0 -0.12379049971E+02  0.32827657567E+02 -0.25548539522E+02  0.43400735607E+02  0.00000000000E+00 0.  1.
         11    1    4    4    0    0  0.16758034070E+01 -0.19991232240E+01 -0.18727772556E+01  0.32112467413E+01  0.51100000000E-03 0. -1.
        -11    1    4    4    0    0  0.22224578906E+01 -0.11197004824E+01  0.72834439091E+01  0.76968567405E+01  0.51100000000E-03 0.  1.
         12    1    4    4    0    0  0.84807886729E+01 -0.29708833860E+02  0.20137872869E+02  0.36879160911E+02  0.00000000000E+00 0. -1.
</event>
<event>
 8    1  0.3776180E-010  0.9118800E+02  0.7816164E-02  0.1184000E+00
        -11   -1    0    0    0    0  0.00000000000E+00  0.00000000000E+00  0.45593999997E+02  0.45594000000E+02  0.51100000000E-03 0. -1.
         11   -1    0    0    0    0 -0.00000000000E+00 -0.00000000000E+00 -0.45593999997E+02  0.45594000000E+02  0.51100000000E-03 0.  1.
         23    2    1    2    0    0 -0.35527136788E-14  0.35527136788E-14 -0.35527136788E-14  0.91188000000E+02  0.91188000000E+02 0.  0.
    9900012    2    3    3    0    0  0.18450232941E+02  0.27515203412E+02 -0.28037934509E+02  0.47787270906E+02  0.19999999367E+02 0.  0.
         12    1    3    3    0    0 -0.18450232941E+02 -0.27515203412E+02  0.28037934509E+02  0.43400729094E+02  0.00000000000E+00 0. -1.
         11    1    4    4    0    0  0.78242643647E-02 -0.11333731035E+01 -0.26534694217E+01  0.28853935683E+01  0.51100000000E-03 0. -1.
        -11    1    4    4    0    0  0.46232069769E+01  0.60029933771E+01  0.80979146382E+00  0.76200875791E+01  0.51100000000E-03 0.  1.
         12    1    4    4    0    0  0.13819201700E+02  0.22645583138E+02 -0.26194256552E+02  0.37281789758E+02  0.00000000000E+00 0. -1.
</event>
<event>
 8    1  0.3776180E-010  0.9118800E+02  0.7816164E-02  0.1184000E+00
        -11   -1    0    0    0    0  0.00000000000E+00  0.00000000000E+00  0.45593999997E+02  0.45594000000E+02  0.51100000000E-03 0. -1.
         11   -1    0    0    0    0 -0.00000000000E+00 -0.00000000000E+00 -0.45593999997E+02  0.45594000000E+02  0.51100000000E-03 0.  1.
         23    2    1    2    0    0 -0.66613381478E-15 -0.17763568394E-14  0.00000000000E+00  0.91188000000E+02  0.91188000000E+02 0.  0.
    9900012    2    3    3    0    0 -0.11228323124E+01  0.11391123003E+02  0.41864124213E+02  0.47787270378E+02  0.19999996960E+02 0.  0.
        -12    1    3    3    0    0  0.11228323124E+01 -0.11391123003E+02 -0.41864124213E+02  0.43400729622E+02  0.00000000000E+00 0.  1.
         11    1    4    4    0    0  0.22089305535E+00 -0.14393738285E+01  0.57558153281E+01  0.59371711372E+01  0.51100000000E-03 0. -1.
        -11    1    4    4    0    0  0.68697274195E+01  0.10424551261E+02  0.23517002582E+02  0.26625435856E+02  0.51100000000E-03 0.  1.
        -12    1    4    4    0    0 -0.82134527872E+01  0.24059455697E+01  0.12591306302E+02  0.15224663384E+02  0.00000000000E+00 0.  1.
</event>
<event>
 8    1  0.3776180E-010  0.9118800E+02  0.7816164E-02  0.1184000E+00
        -11   -1    0    0    0    0  0.00000000000E+00  0.00000000000E+00  0.45593999997E+02  0.45594000000E+02  0.51100000000E-03 0. -1.
         11   -1    0    0    0    0 -0.00000000000E+00 -0.00000000000E+00 -0.45593999997E+02  0.45594000000E+02  0.51100000000E-03 0.  1.
         23    2    1    2    0    0  0.35527136788E-14  0.35527136788E-14  0.00000000000E+00  0.91188000000E+02  0.91188000000E+02 0.  0.
    9900012    2    3    3    0    0  0.21943517533E+02 -0.21789940354E+02 -0.30451661928E+02  0.47787272166E+02  0.20000005112E+02 0.  0.
         12    1    3    3    0    0 -0.21943517533E+02  0.21789940354E+02  0.30451661928E+02  0.43400727834E+02  0.00000000000E+00 0. -1.
         11    1    4    4    0    0  0.15130173012E+02 -0.18193495417E+02 -0.21890372078E+02  0.32235288130E+02  0.51100000000E-03 0. -1.
        -11    1    4    4    0    0  0.49168935521E+00 -0.30453593087E+01 -0.86731104677E+01  0.92053689327E+01  0.51100000000E-03 0.  1.
         12    1    4    4    0    0  0.63216551666E+01 -0.55108562898E+00  0.11182061814E+00  0.63466151031E+01  0.00000000000E+00 0. -1.
</event>
<event>
 8    1  0.3776180E-010  0.9118800E+02  0.7816164E-02  0.1184000E+00
        -11   -1    0    0    0    0  0.00000000000E+00  0.00000000000E+00  0.45593999997E+02  0.45594000000E+02  0.51100000000E-03 0. -1.
         11   -1    0    0    0    0 -0.00000000000E+00 -0.00000000000E+00 -0.45593999997E+02  0.45594000000E+02  0.51100000000E-03 0.  1.
         23    2    1    2    0    0 -0.88817841970E-15  0.00000000000E+00  0.00000000000E+00  0.91188000000E+02  0.91188000000E+02 0.  0.
    9900012    2    3    3    0    0  0.72061185071E+01 -0.94726427190E+01  0.41736843886E+02  0.47787271417E+02  0.20000001698E+02 0.  0.
        -12    1    3    3    0    0 -0.72061185071E+01  0.94726427190E+01 -0.41736843886E+02  0.43400728583E+02  0.00000000000E+00 0.  1.
         11    1    4    4    0    0  0.75264683776E+01 -0.13327387365E+02  0.26263097856E+02  0.30397652696E+02  0.51100000000E-03 0. -1.
        -11    1    4    4    0    0  0.23543784518E+01 -0.83452920411E+00  0.41262718004E+01  0.48234485712E+01  0.51100000000E-03 0.  1.
        -12    1    4    4    0    0 -0.26747283222E+01  0.46892738497E+01  0.11347474229E+02  0.12566170149E+02  0.00000000000E+00 0.  1.
</event>
<event>
 8    1  0.3776180E-010  0.9118800E+02  0.7816164E-02  0.1184000E+00
        -11   -1    0    0    0    0  0.00000000000E+00  0.00000000000E+00  0.45593999997E+02  0.45594000000E+02  0.51100000000E-03 0. -1.
         11   -1    0    0    0    0 -0.00000000000E+00 -0.00000000000E+00 -0.45593999997E+02  0.45594000000E+02  0.51100000000E-03 0.  1.
         23    2    1    2    0    0  0.00000000000E+00  0.00000000000E+00  0.35527136788E-14  0.91188000000E+02  0.91188000000E+02 0.  0.
    9900012    2    3    3    0    0 -0.38730355682E+02 -0.37252485144E+01 -0.19227711920E+02  0.47787276119E+02  0.20000023135E+02 0.  0.
         12    1    3    3    0    0  0.38730355682E+02  0.37252485144E+01  0.19227711920E+02  0.43400723881E+02  0.00000000000E+00 0. -1.
         11    1    4    4    0    0  0.16610156406E+00 -0.15713509580E+00 -0.33126570207E+01  0.33205388066E+01  0.51100000000E-03 0. -1.
        -11    1    4    4    0    0 -0.18637344077E+02  0.27455871959E+01 -0.13356374907E+02  0.23092890555E+02  0.51100000000E-03 0.  1.
         12    1    4    4    0    0 -0.20259113170E+02 -0.63137006146E+01 -0.25586799919E+01  0.21373846756E+02  0.00000000000E+00 0. -1.
</event>
<event>
 8    1  0.3776180E-010  0.9118800E+02  0.7816164E-02  0.1184000E+00
        -11   -1    0    0    0    0  0.00000000000E+00  0.00000000000E+00  0.45593999997E+02  0.45594000000E+02  0.51100000000E-03 0. -1.
         11   -1    0    0    0    0 -0.00000000000E+00 -0.00000000000E+00 -0.45593999997E+02  0.45594000000E+02  0.51100000000E-03 0.  1.
         23    2    1    2    0    0 -0.35527136788E-14 -0.35527136788E-14 -0.35527136788E-14  0.91188000000E+02  0.91188000000E+02 0.  0.
    9900012    2    3    3    0    0  0.29082305465E+02  0.17365448493E+02  0.27134561209E+02  0.47787266083E+02  0.19999977379E+02 0.  0.
        -12    1    3    3    0    0 -0.29082305465E+02 -0.17365448493E+02 -0.27134561209E+02  0.43400733917E+02  0.00000000000E+00 0.  1.
         11    1    4    4    0    0  0.11075268422E+02  0.53927813351E+01  0.12870460189E+02  0.17815510290E+02  0.51100000000E-03 0. -1.
        -11    1    4    4    0    0  0.19445490426E+02  0.13637538567E+02  0.14386142462E+02  0.27768158947E+02  0.51100000000E-03 0.  1.
        -12    1    4    4    0    0 -0.14384533844E+01 -0.16648714092E+01 -0.12204144148E+00  0.22035968464E+01  0.00000000000E+00 0.  1.
</event>
<event>
 8    1  0.3776180E-010  0.9118800E+02  0.7816164E-02  0.1184000E+00
        -11   -1    0    0    0    0  0.00000000000E+00  0.00000000000E+00  0.45593999997E+02  0.45594000000E+02  0.51100000000E-03 0. -1.
         11   -1    0    0    0    0 -0.00000000000E+00 -0.00000000000E+00 -0.45593999997E+02  0.45594000000E+02  0.51100000000E-03 0.  1.
         23    2    1    2    0    0  0.17763568394E-14 -0.88817841970E-15  0.00000000000E+00  0.91188000000E+02  0.91188000000E+02 0.  0.
    9900012    2    3    3    0    0  0.95938957788E+01 -0.78617471600E+01  0.41590539239E+02  0.47787275826E+02  0.20000021803E+02 0.  0.
        -12    1    3    3    0    0 -0.95938957788E+01  0.78617471600E+01 -0.41590539239E+02  0.43400724174E+02  0.00000000000E+00 0.  1.
         11    1    4    4    0    0  0.13467715434E+02  0.30269152617E-01  0.31236470816E+02  0.34016134180E+02  0.51100000000E-03 0. -1.
        -11    1    4    4    0    0 -0.74806789422E+00 -0.82972711681E+00  0.43239657990E+00  0.11979230886E+01  0.51100000000E-03 0.  1.
         12    1    4    4    0    0 -0.31257517608E+01 -0.70622891958E+01  0.99216718429E+01  0.12573218558E+02  0.00000000000E+00 0. -1.
</event>
<event>
 8    1  0.3776180E-010  0.9118800E+02  0.7816164E-02  0.1184000E+00
        -11   -1    0    0    0    0  0.00000000000E+00  0.00000000000E+00  0.45593999997E+02  0.45594000000E+02  0.51100000000E-03 0. -1.
         11   -1    0    0    0    0 -0.00000000000E+00 -0.00000000000E+00 -0.45593999997E+02  0.45594000000E+02  0.51100000000E-03 0.  1.
         23    2    1    2    0    0  0.00000000000E+00  0.00000000000E+00  0.35527136788E-14  0.91188000000E+02  0.91188000000E+02 0.  0.
    9900012    2    3    3    0    0  0.29615795091E+02 -0.13036131713E+02 -0.28923833104E+02  0.47787260717E+02  0.19999952913E+02 0.  0.
         12    1    3    3    0    0 -0.29615795091E+02  0.13036131713E+02  0.28923833104E+02  0.43400739283E+02  0.00000000000E+00 0. -1.
         11    1    4    4    0    0  0.15734513781E+02 -0.51902445564E+01 -0.17360156180E+02  0.23997678749E+02  0.51100000000E-03 0. -1.
        -11    1    4    4    0    0  0.15073100364E+02 -0.25724242225E+01 -0.75323335018E+01  0.17045579169E+02  0.51100000000E-03 0.  1.
         12    1    4    4    0    0 -0.11918190538E+01 -0.52734629337E+01 -0.40313434213E+01  0.67440027988E+01  0.00000000000E+00 0. -1.
</event>
<event>
 8    1  0.3776180E-010  0.9118800E+02  0.7816164E-02  0.1184000E+00
        -11   -1    0    0    0    0  0.00000000000E+00  0.00000000000E+00  0.45593999997E+02  0.45594000000E+02  0.51100000000E-03 0. -1.
         11   -1    0    0    0    0 -0.00000000000E+00 -0.00000000000E+00 -0.45593999997E+02  0.45594000000E+02  0.51100000000E-03 0.  1.
         23    2    1    2    0    0  0.00000000000E+00  0.35527136788E-14  0.00000000000E+00  0.91188000000E+02  0.91188000000E+02 0.  0.
    9900012    2    3    3    0    0  0.17917047518E+02  0.21079652228E+02  0.33440266645E+02  0.47787265408E+02  0.19999974302E+02 0.  0.
        -12    1    3    3    0    0 -0.17917047518E+02 -0.21079652228E+02 -0.33440266645E+02  0.43400734592E+02  0.00000000000E+00 0.  1.
         11    1    4    4    0    0  0.28326451436E+00  0.25143384225E+01  0.34648971616E+01  0.42904136269E+01  0.51100000000E-03 0. -1.
        -11    1    4    4    0    0  0.20634029554E+02  0.17225590083E+02  0.21542735175E+02  0.34446677175E+02  0.51100000000E-03 0.  1.
        -12    1    4    4    0    0 -0.30002465502E+01  0.13397237228E+01  0.84326343088E+01  0.90501746062E+01  0.00000000000E+00 0.  1.
</event>
<event>
 8    1  0.3776180E-010  0.9118800E+02  0.7816164E-02  0.1184000E+00
        -11   -1    0    0    0    0  0.00000000000E+00  0.00000000000E+00  0.45593999997E+02  0.45594000000E+02  0.51100000000E-03 0. -1.
         11   -1    0    0    0    0 -0.00000000000E+00 -0.00000000000E+00 -0.45593999997E+02  0.45594000000E+02  0.51100000000E-03 0.  1.
         23    2    1    2    0    0  0.88817841970E-15  0.00000000000E+00  0.35527136788E-14  0.91188000000E+02  0.91188000000E+02 0.  0.
    9900012    2    3    3    0    0  0.10375925360E+01 -0.31713985046E+02  0.29610304716E+02  0.47787267389E+02  0.19999983334E+02 0.  0.
        -12    1    3    3    0    0 -0.10375925360E+01  0.31713985046E+02 -0.29610304716E+02  0.43400732611E+02  0.00000000000E+00 0.  1.
         11    1    4    4    0    0 -0.84579006836E+00 -0.53093945439E+01 -0.36081041525E+00  0.53884335089E+01  0.51100000000E-03 0. -1.
        -11    1    4    4    0    0  0.71261415525E+01 -0.87283301867E+01  0.86078468940E+01  0.14179586372E+02  0.51100000000E-03 0.  1.
         12    1    4    4    0    0 -0.52427589481E+01 -0.17676260315E+02  0.21363268238E+02  0.28219247508E+02  0.00000000000E+00 0. -1.
</event>
<event>
 8    1  0.3776180E-010  0.9118800E+02  0.7816164E-02  0.1184000E+00
        -11   -1    0    0    0    0  0.00000000000E+00  0.00000000000E+00  0.45593999997E+02  0.45594000000E+02  0.51100000000E-03 0. -1.
         11   -1    0    0    0    0 -0.00000000000E+00 -0.00000000000E+00 -0.45593999997E+02  0.45594000000E+02  0.51100000000E-03 0.  1.
         23    2    1    2    0    0  0.00000000000E+00  0.17763568394E-14  0.00000000000E+00  0.91188000000E+02  0.91188000000E+02 0.  0.
    9900012    2    3    3    0    0  0.21953311737E+02  0.15513697860E+02 -0.34073457135E+02  0.47787271911E+02  0.20000003951E+02 0.  0.
         12    1    3    3    0    0 -0.21953311737E+02 -0.15513697860E+02  0.34073457135E+02  0.43400728089E+02  0.00000000000E+00 0. -1.
         11    1    4    4    0    0  0.18035155541E+02  0.56300401926E+00 -0.18523202359E+02  0.25859095785E+02  0.51100000000E-03 0. -1.
        -11    1    4    4    0    0  0.45420205789E+00  0.19217350485E+01 -0.21664883152E+01  0.29313882354E+01  0.51100000000E-03 0.  1.
         12    1    4    4    0    0  0.34639541382E+01  0.13028958792E+02 -0.13383766461E+02  0.18996787891E+02  0.00000000000E+00 0. -1.
</event>
<event>
 8    1  0.3776180E-010  0.9118800E+02  0.7816164E-02  0.1184000E+00
        -11   -1    0    0    0    0  0.00000000000E+00  0.00000000000E+00  0.45593999997E+02  0.45594000000E+02  0.51100000000E-03 0.  1.
         11   -1    0    0    0    0 -0.00000000000E+00 -0.00000000000E+00 -0.45593999997E+02  0.45594000000E+02  0.51100000000E-03 0. -1.
         23    2    1    2    0    0  0.00000000000E+00  0.71054273576E-14  0.88817841970E-15  0.91188000000E+02  0.91188000000E+02 0.  0.
    9900012    2    3    3    0    0 -0.25924189434E+02  0.33877906541E+02  0.79904479304E+01  0.47787269505E+02  0.19999992980E+02 0.  0.
        -12    1    3    3    0    0  0.25924189434E+02 -0.33877906541E+02 -0.79904479304E+01  0.43400730495E+02  0.00000000000E+00 0.  1.
         11    1    4    4    0    0 -0.52057705848E+01 -0.11076504664E+00 -0.18173520483E+01  0.55149873078E+01  0.51100000000E-03 0.  1.
        -11    1    4    4    0    0 -0.15737784062E+02  0.24513930041E+02  0.23483745317E+01  0.29225425171E+02  0.51100000000E-03 0. -1.
        -12    1    4    4    0    0 -0.49806347879E+01  0.94747415460E+01  0.74594254469E+01  0.13046857026E+02  0.00000000000E+00 0.  1.
</event>
<event>
 8    1  0.3776180E-010  0.9118800E+02  0.7816164E-02  0.1184000E+00
        -11   -1    0    0    0    0  0.00000000000E+00  0.00000000000E+00  0.45593999997E+02  0.45594000000E+02  0.51100000000E-03 0. -1.
         11   -1    0    0    0    0 -0.00000000000E+00 -0.00000000000E+00 -0.45593999997E+02  0.45594000000E+02  0.51100000000E-03 0.  1.
         23    2    1    2    0    0 -0.88817841970E-15  0.00000000000E+00  0.00000000000E+00  0.91188000000E+02  0.91188000000E+02 0.  0.
    9900012    2    3    3    0    0  0.67946924289E+01 -0.74489070825E+01 -0.42213377537E+02  0.47787270686E+02  0.19999998364E+02 0.  0.
         12    1    3    3    0    0 -0.67946924289E+01  0.74489070825E+01  0.42213377537E+02  0.43400729314E+02  0.00000000000E+00 0. -1.
         11    1    4    4    0    0 -0.34531121917E+01 -0.10896527794E+01 -0.49571138789E+01  0.61387543735E+01  0.51100000000E-03 0.  1.
        -11    1    4    4    0    0 -0.34710866381E+01 -0.22872188207E+01 -0.63454597553E+01  0.75858204665E+01  0.51100000000E-03 0. -1.
        -12    1    4    4    0    0  0.13718891259E+02 -0.40720354825E+01 -0.30910803903E+02  0.34062695846E+02  0.00000000000E+00 0.  1.
</event>
<event>
 8    1  0.3776180E-010  0.9118800E+02  0.7816164E-02  0.1184000E+00
        -11   -1    0    0    0    0  0.00000000000E+00  0.00000000000E+00  0.45593999997E+02  0.45594000000E+02  0.51100000000E-03 0.  1.
         11   -1    0    0    0    0 -0.00000000000E+00 -0.00000000000E+00 -0.45593999997E+02  0.45594000000E+02  0.51100000000E-03 0. -1.
         23    2    1    2    0    0  0.00000000000E+00  0.00000000000E+00  0.00000000000E+00  0.91188000000E+02  0.91188000000E+02 0.  0.
    9900012    2    3    3    0    0  0.23352563060E+02 -0.35925953383E+02 -0.68997688877E+01  0.47787272602E+02  0.20000007101E+02 0.  0.
         12    1    3    3    0    0 -0.23352563060E+02  0.35925953383E+02  0.68997688877E+01  0.43400727398E+02  0.00000000000E+00 0. -1.
         11    1    4    4    0    0  0.10214572505E+02 -0.11302532413E+02  0.47603462110E+01  0.15960752699E+02  0.51100000000E-03 0. -1.
        -11    1    4    4    0    0  0.12719661818E+02 -0.17003893620E+02 -0.52843866915E+01  0.21882571558E+02  0.51100000000E-03 0.  1.
        -12    1    4    4    0    0  0.41832873715E+00 -0.76195273501E+01 -0.63757284072E+01  0.99439483453E+01  0.00000000000E+00 0.  1.
</event>
<event>
 8    1  0.3776180E-010  0.9118800E+02  0.7816164E-02  0.1184000E+00
        -11   -1    0    0    0    0  0.00000000000E+00  0.00000000000E+00  0.45593999997E+02  0.45594000000E+02  0.51100000000E-03 0. -1.
         11   -1    0    0    0    0 -0.00000000000E+00 -0.00000000000E+00 -0.45593999997E+02  0.45594000000E+02  0.51100000000E-03 0.  1.
         23    2    1    2    0    0 -0.35527136788E-14  0.00000000000E+00  0.00000000000E+00  0.91188000000E+02  0.91188000000E+02 0.  0.
    9900012    2    3    3    0    0  0.25473403220E+02 -0.26877208995E+02  0.22635037421E+02  0.47787267817E+02  0.19999985284E+02 0.  0.
        -12    1    3    3    0    0 -0.25473403220E+02  0.26877208995E+02 -0.22635037421E+02  0.43400732183E+02  0.00000000000E+00 0.  1.
         11    1    4    4    0    0  0.49333212211E+01 -0.88950459783E+01 -0.18602381218E+01  0.10340212152E+02  0.51100000000E-03 0. -1.
        -11    1    4    4    0    0 -0.58581949837E+00 -0.97715850139E-02  0.44643148928E+00  0.73660118401E+00  0.51100000000E-03 0.  1.
        -12    1    4    4    0    0  0.21125901497E+02 -0.17972391432E+02  0.24048844054E+02  0.36710454480E+02  0.00000000000E+00 0.  1.
</event>
<event>
 8    1  0.3776180E-010  0.9118800E+02  0.7816164E-02  0.1184000E+00
        -11   -1    0    0    0    0  0.00000000000E+00  0.00000000000E+00  0.45593999997E+02  0.45594000000E+02  0.51100000000E-03 0. -1.
         11   -1    0    0    0    0 -0.00000000000E+00 -0.00000000000E+00 -0.45593999997E+02  0.45594000000E+02  0.51100000000E-03 0.  1.
         23    2    1    2    0    0  0.17763568394E-14  0.35527136788E-14  0.00000000000E+00  0.91188000000E+02  0.91188000000E+02 0.  0.
    9900012    2    3    3    0    0 -0.14086236730E+02 -0.24814273711E+02  0.32702500680E+02  0.47787265032E+02  0.19999972588E+02 0.  0.
        -12    1    3    3    0    0  0.14086236730E+02  0.24814273711E+02 -0.32702500680E+02  0.43400734968E+02  0.00000000000E+00 0.  1.
         11    1    4    4    0    0 -0.86904861193E-01  0.17356119437E+01  0.15743067124E+01  0.23448546138E+01  0.51100000000E-03 0. -1.
        -11    1    4    4    0    0 -0.56354443766E+01 -0.31465197347E+01  0.12421831904E+01  0.65728105939E+01  0.51100000000E-03 0.  1.
         12    1    4    4    0    0 -0.83638874920E+01 -0.23403365920E+02  0.29886010777E+02  0.38869599825E+02  0.00000000000E+00 0. -1.
</event>
<event>
 8    1  0.3776180E-010  0.9118800E+02  0.7816164E-02  0.1184000E+00
        -11   -1    0    0    0    0  0.00000000000E+00  0.00000000000E+00  0.45593999997E+02  0.45594000000E+02  0.51100000000E-03 0. -1.
         11   -1    0    0    0    0 -0.00000000000E+00 -0.00000000000E+00 -0.45593999997E+02  0.45594000000E+02  0.51100000000E-03 0.  1.
         23    2    1    2    0    0  0.00000000000E+00  0.00000000000E+00  0.00000000000E+00  0.91188000000E+02  0.91188000000E+02 0.  0.
    9900012    2    3    3    0    0  0.33870770299E+02 -0.18126681516E+02  0.20194387941E+02  0.47787320653E+02  0.20000226183E+02 0.  0.
        -12    1    3    3    0    0 -0.33870770299E+02  0.18126681516E+02 -0.20194387941E+02  0.43400679347E+02  0.00000000000E+00 0.  1.
         11    1    4    4    0    0  0.99796312963E+01 -0.66816816988E+01  0.15720932831E+02  0.19783468868E+02  0.51100000000E-03 0. -1.
        -11    1    4    4    0    0  0.75153580056E+01 -0.47761916656E+01  0.51918393991E+01  0.10307657803E+02  0.51100000000E-03 0.  1.
        -12    1    4    4    0    0  0.16375780998E+02 -0.66688081517E+01 -0.71838428842E+00  0.17696193981E+02  0.00000000000E+00 0.  1.
</event>
<event>
 8    1  0.3776180E-010  0.9118800E+02  0.7816164E-02  0.1184000E+00
        -11   -1    0    0    0    0  0.00000000000E+00  0.00000000000E+00  0.45593999997E+02  0.45594000000E+02  0.51100000000E-03 0. -1.
         11   -1    0    0    0    0 -0.00000000000E+00 -0.00000000000E+00 -0.45593999997E+02  0.45594000000E+02  0.51100000000E-03 0.  1.
         23    2    1    2    0    0  0.00000000000E+00 -0.17763568394E-14  0.00000000000E+00  0.91188000000E+02  0.91188000000E+02 0.  0.
    9900012    2    3    3    0    0 -0.26845222635E+01  0.90568142845E+01  0.42360247260E+02  0.47787273132E+02  0.20000009516E+02 0.  0.
        -12    1    3    3    0    0  0.26845222635E+01 -0.90568142845E+01 -0.42360247260E+02  0.43400726868E+02  0.00000000000E+00 0.  1.
         11    1    4    4    0    0 -0.13843765932E+01  0.21287675046E+01  0.10991662221E+02  0.11281169633E+02  0.51100000000E-03 0. -1.
        -11    1    4    4    0    0 -0.11393670002E+01 -0.47840007996E+01  0.28693059181E+01  0.56936576578E+01  0.51100000000E-03 0.  1.
         12    1    4    4    0    0 -0.16077867016E+00  0.11712047579E+02  0.28499279121E+02  0.30812445841E+02  0.00000000000E+00 0. -1.
</event>
<event>
 8    1  0.3776180E-010  0.9118800E+02  0.7816164E-02  0.1184000E+00
        -11   -1    0    0    0    0  0.00000000000E+00  0.00000000000E+00  0.45593999997E+02  0.45594000000E+02  0.51100000000E-03 0.  1.
         11   -1    0    0    0    0 -0.00000000000E+00 -0.00000000000E+00 -0.45593999997E+02  0.45594000000E+02  0.51100000000E-03 0. -1.
         23    2    1    2    0    0  0.00000000000E+00  0.00000000000E+00  0.00000000000E+00  0.91188000000E+02  0.91188000000E+02 0.  0.
    9900012    2    3    3    0    0  0.40284928343E+02  0.93682342658E+01 -0.13152126049E+02  0.47787335438E+02  0.20000293593E+02 0.  0.
        -12    1    3    3    0    0 -0.40284928343E+02 -0.93682342658E+01  0.13152126049E+02  0.43400664562E+02  0.00000000000E+00 0.  1.
         11    1    4    4    0    0  0.11499836787E+02 -0.32213464257E+01 -0.77219607121E+01  0.14221532844E+02  0.51100000000E-03 0. -1.
        -11    1    4    4    0    0  0.19482079927E+02  0.29099127006E+01 -0.32066737415E+01  0.19957499516E+02  0.51100000000E-03 0.  1.
        -12    1    4    4    0    0  0.93030116288E+01  0.96796679909E+01 -0.22234915954E+01  0.13608303078E+02  0.00000000000E+00 0.  1.
</event>
<event>
 8    1  0.3776180E-010  0.9118800E+02  0.7816164E-02  0.1184000E+00
        -11   -1    0    0    0    0  0.00000000000E+00  0.00000000000E+00  0.45593999997E+02  0.45594000000E+02  0.51100000000E-03 0. -1.
         11   -1    0    0    0    0 -0.00000000000E+00 -0.00000000000E+00 -0.45593999997E+02  0.45594000000E+02  0.51100000000E-03 0.  1.
         23    2    1    2    0    0  0.00000000000E+00  0.00000000000E+00  0.00000000000E+00  0.91188000000E+02  0.91188000000E+02 0.  0.
    9900012    2    3    3    0    0  0.30650120396E+01  0.43199225217E+02  0.28386165365E+01  0.47787249984E+02  0.19999903975E+02 0.  0.
        -12    1    3    3    0    0 -0.30650120396E+01 -0.43199225217E+02 -0.28386165365E+01  0.43400750016E+02  0.00000000000E+00 0.  1.
         11    1    4    4    0    0  0.52337469166E+00  0.12902100376E+02  0.72120791689E+01  0.14790273878E+02  0.51100000000E-03 0. -1.
        -11    1    4    4    0    0 -0.28369995371E+01  0.34159755400E+01  0.19713236182E+01  0.48583507832E+01  0.51100000000E-03 0.  1.
         12    1    4    4    0    0  0.53786368851E+01  0.26881149301E+02 -0.63447862506E+01  0.28138625323E+02  0.00000000000E+00 0. -1.
</event>
<event>
 8    1  0.3776180E-010  0.9118800E+02  0.7816164E-02  0.1184000E+00
        -11   -1    0    0    0    0  0.00000000000E+00  0.00000000000E+00  0.45593999997E+02  0.45594000000E+02  0.51100000000E-03 0. -1.
         11   -1    0    0    0    0 -0.00000000000E+00 -0.00000000000E+00 -0.45593999997E+02  0.45594000000E+02  0.51100000000E-03 0.  1.
         23    2    1    2    0    0  0.00000000000E+00 -0.17763568394E-14  0.00000000000E+00  0.91188000000E+02  0.91188000000E+02 0.  0.
    9900012    2    3    3    0    0 -0.26023682284E+02  0.12007811313E+02 -0.32591470508E+02  0.47787268185E+02  0.19999986964E+02 0.  0.
         12    1    3    3    0    0  0.26023682284E+02 -0.12007811313E+02  0.32591470508E+02  0.43400731815E+02  0.00000000000E+00 0. -1.
         11    1    4    4    0    0 -0.54264670169E+01 -0.16432840962E+01 -0.53350029922E+01  0.77851900487E+01  0.51100000000E-03 0. -1.
        -11    1    4    4    0    0 -0.15910163201E+02  0.21283402669E+01 -0.19836596361E+02  0.25517713080E+02  0.51100000000E-03 0.  1.
         12    1    4    4    0    0 -0.46870520660E+01  0.11522755142E+02 -0.74198711554E+01  0.14484365057E+02  0.00000000000E+00 0. -1.
</event>
<event>
 8    1  0.3776180E-010  0.9118800E+02  0.7816164E-02  0.1184000E+00
        -11   -1    0    0    0    0  0.00000000000E+00  0.00000000000E+00  0.45593999997E+02  0.45594000000E+02  0.51100000000E-03 0. -1.
         11   -1    0    0    0    0 -0.00000000000E+00 -0.00000000000E+00 -0.45593999997E+02  0.45594000000E+02  0.51100000000E-03 0.  1.
         23    2    1    2    0    0 -0.17763568394E-14  0.00000000000E+00 -0.17763568394E-14  0.91188000000E+02  0.91188000000E+02 0.  0.
    9900012    2    3    3    0    0  0.10781652689E+02 -0.39001945718E+02  0.15691661494E+02  0.47787262161E+02  0.19999959497E+02 0.  0.
        -12    1    3    3    0    0 -0.10781652689E+02  0.39001945718E+02 -0.15691661494E+02  0.43400737839E+02  0.00000000000E+00 0.  1.
         11    1    4    4    0    0  0.37976919996E+01 -0.44434359346E+01 -0.11944305472E+01  0.59660080474E+01  0.51100000000E-03 0. -1.
        -11    1    4    4    0    0 -0.42513758224E+01 -0.47721975273E+01  0.21698444278E+01  0.67495400380E+01  0.51100000000E-03 0.  1.
         12    1    4    4    0    0  0.11235336512E+02 -0.29786312256E+02  0.14716247614E+02  0.35071714076E+02  0.00000000000E+00 0. -1.
</event>
<event>
 8    1  0.3776180E-010  0.9118800E+02  0.7816164E-02  0.1184000E+00
        -11   -1    0    0    0    0  0.00000000000E+00  0.00000000000E+00  0.45593999997E+02  0.45594000000E+02  0.51100000000E-03 0. -1.
         11   -1    0    0    0    0 -0.00000000000E+00 -0.00000000000E+00 -0.45593999997E+02  0.45594000000E+02  0.51100000000E-03 0.  1.
         23    2    1    2    0    0  0.00000000000E+00 -0.35527136788E-14  0.00000000000E+00  0.91188000000E+02  0.91188000000E+02 0.  0.
    9900012    2    3    3    0    0  0.29218801271E+02  0.31671621335E+02 -0.51761922399E+01  0.47787275216E+02  0.20000019019E+02 0.  0.
         12    1    3    3    0    0 -0.29218801271E+02 -0.31671621335E+02  0.51761922399E+01  0.43400724784E+02  0.00000000000E+00 0. -1.
         11    1    4    4    0    0 -0.25762903691E+01  0.26353365972E+01 -0.28453807562E+00  0.36963810983E+01  0.51100000000E-03 0. -1.
        -11    1    4    4    0    0  0.89126223409E+01  0.40268379705E+01  0.36893505560E+00  0.97870513623E+01  0.51100000000E-03 0.  1.
        -12    1    4    4    0    0  0.22882469299E+02  0.25009446768E+02 -0.52605892199E+01  0.34303842755E+02  0.00000000000E+00 0.  1.
</event>
<event>
 8    1  0.3776180E-010  0.9118800E+02  0.7816164E-02  0.1184000E+00
        -11   -1    0    0    0    0  0.00000000000E+00  0.00000000000E+00  0.45593999997E+02  0.45594000000E+02  0.51100000000E-03 0. -1.
         11   -1    0    0    0    0 -0.00000000000E+00 -0.00000000000E+00 -0.45593999997E+02  0.45594000000E+02  0.51100000000E-03 0.  1.
         23    2    1    2    0    0  0.35527136788E-14 -0.88817841970E-15  0.71054273576E-14  0.91188000000E+02  0.91188000000E+02 0.  0.
    9900012    2    3    3    0    0  0.25822300275E+02  0.43820792071E+01 -0.34606783894E+02  0.47787270730E+02  0.19999998567E+02 0.  0.
         12    1    3    3    0    0 -0.25822300275E+02 -0.43820792071E+01  0.34606783894E+02  0.43400729270E+02  0.00000000000E+00 0. -1.
         11    1    4    4    0    0  0.60173978769E+01  0.60156686901E+01 -0.33104007057E+01  0.91299561933E+01  0.51100000000E-03 0. -1.
        -11    1    4    4    0    0  0.67356606578E+01  0.44979111148E+01 -0.13484337328E+02  0.15729834148E+02  0.51100000000E-03 0.  1.
        -12    1    4    4    0    0  0.13069241740E+02 -0.61315005977E+01 -0.17812045861E+02  0.22927480389E+02  0.00000000000E+00 0.  1.
</event>
<event>
 8    1  0.3776180E-010  0.9118800E+02  0.7816164E-02  0.1184000E+00
        -11   -1    0    0    0    0  0.00000000000E+00  0.00000000000E+00  0.45593999997E+02  0.45594000000E+02  0.51100000000E-03 0. -1.
         11   -1    0    0    0    0 -0.00000000000E+00 -0.00000000000E+00 -0.45593999997E+02  0.45594000000E+02  0.51100000000E-03 0.  1.
         23    2    1    2    0    0  0.00000000000E+00  0.00000000000E+00  0.00000000000E+00  0.91188000000E+02  0.91188000000E+02 0.  0.
    9900012    2    3    3    0    0  0.16214952228E+02 -0.38268114209E+02 -0.12499977943E+02  0.47787277778E+02  0.20000030700E+02 0.  0.
         12    1    3    3    0    0 -0.16214952228E+02  0.38268114209E+02  0.12499977943E+02  0.43400722222E+02  0.00000000000E+00 0. -1.
         11    1    4    4    0    0  0.47489046308E+01 -0.29667259919E+01 -0.51692059564E+01  0.76206462183E+01  0.51100000000E-03 0.  1.
        -11    1    4    4    0    0  0.62393796795E+01 -0.11618056574E+02 -0.88242733966E+01  0.15867479276E+02  0.51100000000E-03 0. -1.
         12    1    4    4    0    0  0.52266679180E+01 -0.23683331643E+02  0.14935014102E+01  0.24299152283E+02  0.00000000000E+00 0. -1.
</event>
<event>
 8    1  0.3776180E-010  0.9118800E+02  0.7816164E-02  0.1184000E+00
        -11   -1    0    0    0    0  0.00000000000E+00  0.00000000000E+00  0.45593999997E+02  0.45594000000E+02  0.51100000000E-03 0. -1.
         11   -1    0    0    0    0 -0.00000000000E+00 -0.00000000000E+00 -0.45593999997E+02  0.45594000000E+02  0.51100000000E-03 0.  1.
         23    2    1    2    0    0  0.17763568394E-14  0.35527136788E-14  0.00000000000E+00  0.91188000000E+02  0.91188000000E+02 0.  0.
    9900012    2    3    3    0    0  0.10314182324E+02  0.19730051622E+02  0.37255412910E+02  0.47787273219E+02  0.20000009915E+02 0.  0.
        -12    1    3    3    0    0 -0.10314182324E+02 -0.19730051622E+02 -0.37255412910E+02  0.43400726781E+02  0.00000000000E+00 0.  1.
         11    1    4    4    0    0  0.79579642657E+01  0.46771254797E+01  0.16077583343E+02  0.18538969346E+02  0.51100000000E-03 0. -1.
        -11    1    4    4    0    0  0.65073390414E+01  0.10535511158E+02  0.80835382265E+01  0.14788037303E+02  0.51100000000E-03 0.  1.
        -12    1    4    4    0    0 -0.41511209832E+01  0.45174149846E+01  0.13094291341E+02  0.14460266570E+02  0.00000000000E+00 0.  1.
</event>
<event>
 8    1  0.3776180E-010  0.9118800E+02  0.7816164E-02  0.1184000E+00
        -11   -1    0    0    0    0  0.00000000000E+00  0.00000000000E+00  0.45593999997E+02  0.45594000000E+02  0.51100000000E-03 0.  1.
         11   -1    0    0    0    0 -0.00000000000E+00 -0.00000000000E+00 -0.45593999997E+02  0.45594000000E+02  0.51100000000E-03 0. -1.
         23    2    1    2    0    0 -0.17763568394E-14  0.00000000000E+00  0.00000000000E+00  0.91188000000E+02  0.91188000000E+02 0.  0.
    9900012    2    3    3    0    0 -0.15044911658E+02 -0.33619500664E+02 -0.22956562887E+02  0.47787263010E+02  0.19999963367E+02 0.  0.
         12    1    3    3    0    0  0.15044911658E+02  0.33619500664E+02  0.22956562887E+02  0.43400736990E+02  0.00000000000E+00 0. -1.
         11    1    4    4    0    0 -0.24252998468E+01 -0.72452557134E+00 -0.66779732358E+00  0.26178178273E+01  0.51100000000E-03 0. -1.
        -11    1    4    4    0    0  0.30002602328E+01 -0.14170611309E+02 -0.11547727597E+02  0.18524518867E+02  0.51100000000E-03 0.  1.
        -12    1    4    4    0    0 -0.15619872044E+02 -0.18724363783E+02 -0.10741037967E+02  0.26644926316E+02  0.00000000000E+00 0.  1.
</event>
<event>
 8    1  0.3776180E-010  0.9118800E+02  0.7816164E-02  0.1184000E+00
        -11   -1    0    0    0    0  0.00000000000E+00  0.00000000000E+00  0.45593999997E+02  0.45594000000E+02  0.51100000000E-03 0. -1.
         11   -1    0    0    0    0 -0.00000000000E+00 -0.00000000000E+00 -0.45593999997E+02  0.45594000000E+02  0.51100000000E-03 0.  1.
         23    2    1    2    0    0 -0.71054273576E-14  0.35527136788E-14  0.00000000000E+00  0.91188000000E+02  0.91188000000E+02 0.  0.
    9900012    2    3    3    0    0  0.28929271472E+02 -0.22407075384E+02 -0.23337594373E+02  0.47787273206E+02  0.20000009853E+02 0.  0.
         12    1    3    3    0    0 -0.28929271472E+02  0.22407075384E+02  0.23337594373E+02  0.43400726794E+02  0.00000000000E+00 0. -1.
         11    1    4    4    0    0  0.17244019056E+02 -0.16950133191E+02 -0.53074291344E+01  0.24755444102E+02  0.51100000000E-03 0. -1.
        -11    1    4    4    0    0  0.34255635120E+01  0.26732602266E+00 -0.16427635859E+01  0.38084932765E+01  0.51100000000E-03 0.  1.
         12    1    4    4    0    0  0.82596889035E+01 -0.57242682160E+01 -0.16387401653E+02  0.19223335827E+02  0.00000000000E+00 0. -1.
</event>
<event>
 8    1  0.3776180E-010  0.9118800E+02  0.7816164E-02  0.1184000E+00
        -11   -1    0    0    0    0  0.00000000000E+00  0.00000000000E+00  0.45593999997E+02  0.45594000000E+02  0.51100000000E-03 0. -1.
         11   -1    0    0    0    0 -0.00000000000E+00 -0.00000000000E+00 -0.45593999997E+02  0.45594000000E+02  0.51100000000E-03 0.  1.
         23    2    1    2    0    0  0.17763568394E-14  0.35527136788E-14  0.35527136788E-14  0.91188000000E+02  0.91188000000E+02 0.  0.
    9900012    2    3    3    0    0 -0.12563795454E+02 -0.26541647667E+02 -0.31958021132E+02  0.47787272682E+02  0.20000007466E+02 0.  0.
         12    1    3    3    0    0  0.12563795454E+02  0.26541647667E+02  0.31958021132E+02  0.43400727318E+02  0.00000000000E+00 0. -1.
         11    1    4    4    0    0 -0.49654137145E+01 -0.14222590644E+02 -0.13012201746E+02  0.19906150118E+02  0.51100000000E-03 0. -1.
        -11    1    4    4    0    0  0.17685888930E+00 -0.76830606649E+01 -0.95890305320E+00  0.77446882167E+01  0.51100000000E-03 0.  1.
        -12    1    4    4    0    0 -0.77752406284E+01 -0.46359963586E+01 -0.17986916333E+02  0.20136434348E+02  0.00000000000E+00 0.  1.
</event>
<event>
 8    1  0.3776180E-010  0.9118800E+02  0.7816164E-02  0.1184000E+00
        -11   -1    0    0    0    0  0.00000000000E+00  0.00000000000E+00  0.45593999997E+02  0.45594000000E+02  0.51100000000E-03 0. -1.
         11   -1    0    0    0    0 -0.00000000000E+00 -0.00000000000E+00 -0.45593999997E+02  0.45594000000E+02  0.51100000000E-03 0.  1.
         23    2    1    2    0    0  0.17763568394E-14  0.00000000000E+00  0.00000000000E+00  0.91188000000E+02  0.91188000000E+02 0.  0.
    9900012    2    3    3    0    0  0.85282840452E+01 -0.17837952419E+02  0.38635468811E+02  0.47787266994E+02  0.19999981531E+02 0.  0.
        -12    1    3    3    0    0 -0.85282840452E+01  0.17837952419E+02 -0.38635468811E+02  0.43400733006E+02  0.00000000000E+00 0.  1.
         11    1    4    4    0    0  0.14008314322E+02 -0.12823521942E+02  0.23152473276E+02  0.29945159946E+02  0.51100000000E-03 0. -1.
        -11    1    4    4    0    0 -0.75526275443E+00 -0.24285180684E+01  0.17404770755E+01  0.30817823655E+01  0.51100000000E-03 0.  1.
        -12    1    4    4    0    0 -0.47247675221E+01 -0.25859124087E+01  0.13742518459E+02  0.14760324682E+02  0.00000000000E+00 0.  1.
</event>
<event>
 8    1  0.3776180E-010  0.9118800E+02  0.7816164E-02  0.1184000E+00
        -11   -1    0    0    0    0  0.00000000000E+00  0.00000000000E+00  0.45593999997E+02  0.45594000000E+02  0.51100000000E-03 0. -1.
         11   -1    0    0    0    0 -0.00000000000E+00 -0.00000000000E+00 -0.45593999997E+02  0.45594000000E+02  0.51100000000E-03 0.  1.
         23    2    1    2    0    0 -0.55511151231E-16 -0.35527136788E-14  0.00000000000E+00  0.91188000000E+02  0.91188000000E+02 0.  0.
    9900012    2    3    3    0    0 -0.38348207238E+00  0.21910111666E+02 -0.37462291375E+02  0.47787270435E+02  0.19999997220E+02 0.  0.
         12    1    3    3    0    0  0.38348207238E+00 -0.21910111666E+02  0.37462291375E+02  0.43400729565E+02  0.00000000000E+00 0. -1.
         11    1    4    4    0    0  0.34111102220E+01  0.58710161441E+01 -0.81932736269E+00  0.68392836686E+01  0.51100000000E-03 0. -1.
        -11    1    4    4    0    0 -0.94013616234E-01  0.95016529275E+01 -0.12746309265E+02  0.15898385045E+02  0.51100000000E-03 0.  1.
         12    1    4    4    0    0 -0.37005786781E+01  0.65374425941E+01 -0.23896654748E+02  0.25049601721E+02  0.00000000000E+00 0. -1.
</event>
<event>
 8    1  0.3776180E-010  0.9118800E+02  0.7816164E-02  0.1184000E+00
        -11   -1    0    0    0    0  0.00000000000E+00  0.00000000000E+00  0.45593999997E+02  0.45594000000E+02  0.51100000000E-03 0. -1.
         11   -1    0    0    0    0 -0.00000000000E+00 -0.00000000000E+00 -0.45593999997E+02  0.45594000000E+02  0.51100000000E-03 0.  1.
         23    2    1    2    0    0  0.17763568394E-14  0.00000000000E+00 -0.71054273576E-14  0.91188000000E+02  0.91188000000E+02 0.  0.
    9900012    2    3    3    0    0 -0.15781885040E+02 -0.97114552031E+01  0.39245929447E+02  0.47787271484E+02  0.20000002003E+02 0.  0.
        -12    1    3    3    0    0  0.15781885040E+02  0.97114552031E+01 -0.39245929447E+02  0.43400728516E+02  0.00000000000E+00 0.  1.
         11    1    4    4    0    0 -0.91412055024E+01 -0.10967189688E+02  0.21714139475E+02  0.25987395812E+02  0.51100000000E-03 0. -1.
        -11    1    4    4    0    0 -0.95910449614E+01 -0.14346115232E+00  0.14187566245E+02  0.17125879854E+02  0.51100000000E-03 0.  1.
        -12    1    4    4    0    0  0.29503654240E+01  0.13991956375E+01  0.33442237271E+01  0.46739958178E+01  0.00000000000E+00 0.  1.
</event>
<event>
 8    1  0.3776180E-010  0.9118800E+02  0.7816164E-02  0.1184000E+00
        -11   -1    0    0    0    0  0.00000000000E+00  0.00000000000E+00  0.45593999997E+02  0.45594000000E+02  0.51100000000E-03 0. -1.
         11   -1    0    0    0    0 -0.00000000000E+00 -0.00000000000E+00 -0.45593999997E+02  0.45594000000E+02  0.51100000000E-03 0.  1.
         23    2    1    2    0    0 -0.53290705182E-14 -0.88817841970E-15  0.71054273576E-14  0.91188000000E+02  0.91188000000E+02 0.  0.
    9900012    2    3    3    0    0 -0.12166352754E+02 -0.44818848342E+01  0.41418784110E+02  0.47787272954E+02  0.20000008705E+02 0.  0.
        -12    1    3    3    0    0  0.12166352754E+02  0.44818848342E+01 -0.41418784110E+02  0.43400727046E+02  0.00000000000E+00 0.  1.
         11    1    4    4    0    0 -0.12048620365E+02  0.20488004205E+00  0.37404707140E+02  0.39297879650E+02  0.51100000000E-03 0. -1.
        -11    1    4    4    0    0  0.17217273878E+01 -0.14752352315E+01  0.42115869853E+01  0.47831087571E+01  0.51100000000E-03 0.  1.
         12    1    4    4    0    0 -0.18394597774E+01 -0.32115296448E+01 -0.19751001559E+00  0.37062845463E+01  0.00000000000E+00 0. -1.
</event>
<event>
 8    1  0.3776180E-010  0.9118800E+02  0.7816164E-02  0.1184000E+00
        -11   -1    0    0    0    0  0.00000000000E+00  0.00000000000E+00  0.45593999997E+02  0.45594000000E+02  0.51100000000E-03 0. -1.
         11   -1    0    0    0    0 -0.00000000000E+00 -0.00000000000E+00 -0.45593999997E+02  0.45594000000E+02  0.51100000000E-03 0.  1.
         23    2    1    2    0    0  0.00000000000E+00  0.17763568394E-14  0.00000000000E+00  0.91188000000E+02  0.91188000000E+02 0.  0.
    9900012    2    3    3    0    0 -0.74909658083E+01  0.15443224752E+02 -0.39862452118E+02  0.47787275947E+02  0.20000022352E+02 0.  0.
         12    1    3    3    0    0  0.74909658083E+01 -0.15443224752E+02  0.39862452118E+02  0.43400724053E+02  0.00000000000E+00 0. -1.
         11    1    4    4    0    0  0.53349556462E+01  0.41742077698E+01 -0.12592845477E+02  0.14299144021E+02  0.51100000000E-03 0. -1.
        -11    1    4    4    0    0 -0.77642375792E+00  0.62024334024E+01 -0.10585432425E+02  0.12293266199E+02  0.51100000000E-03 0.  1.
        -12    1    4    4    0    0 -0.12049497697E+02  0.50665835801E+01 -0.16684174215E+02  0.21194865727E+02  0.00000000000E+00 0.  1.
</event>
<event>
 8    1  0.3776180E-010  0.9118800E+02  0.7816164E-02  0.1184000E+00
        -11   -1    0    0    0    0  0.00000000000E+00  0.00000000000E+00  0.45593999997E+02  0.45594000000E+02  0.51100000000E-03 0. -1.
         11   -1    0    0    0    0 -0.00000000000E+00 -0.00000000000E+00 -0.45593999997E+02  0.45594000000E+02  0.51100000000E-03 0.  1.
         23    2    1    2    0    0 -0.71054273576E-14  0.00000000000E+00  0.00000000000E+00  0.91188000000E+02  0.91188000000E+02 0.  0.
    9900012    2    3    3    0    0  0.34562244314E+02 -0.15209139930E+02  0.21395248882E+02  0.47787270235E+02  0.19999996309E+02 0.  0.
        -12    1    3    3    0    0 -0.34562244314E+02  0.15209139930E+02 -0.21395248882E+02  0.43400729765E+02  0.00000000000E+00 0.  1.
         11    1    4    4    0    0  0.41402057644E+00  0.11797275254E+01  0.20888826799E+01  0.24344611690E+01  0.51100000000E-03 0. -1.
        -11    1    4    4    0    0  0.32924312353E+01 -0.45426308249E+00 -0.26636997346E+01  0.42593139030E+01  0.51100000000E-03 0.  1.
         12    1    4    4    0    0  0.30855792502E+02 -0.15934604373E+02  0.21970065936E+02  0.41093495163E+02  0.00000000000E+00 0. -1.
</event>
<event>
 8    1  0.3776180E-010  0.9118800E+02  0.7816164E-02  0.1184000E+00
        -11   -1    0    0    0    0  0.00000000000E+00  0.00000000000E+00  0.45593999997E+02  0.45594000000E+02  0.51100000000E-03 0. -1.
         11   -1    0    0    0    0 -0.00000000000E+00 -0.00000000000E+00 -0.45593999997E+02  0.45594000000E+02  0.51100000000E-03 0.  1.
         23    2    1    2    0    0  0.71054273576E-14  0.00000000000E+00 -0.14210854715E-13  0.91188000000E+02  0.91188000000E+02 0.  0.
    9900012    2    3    3    0    0 -0.18131152051E+02 -0.14273168410E+02  0.36758135512E+02  0.47787279528E+02  0.20000038681E+02 0.  0.
        -12    1    3    3    0    0  0.18131152051E+02  0.14273168410E+02 -0.36758135512E+02  0.43400720472E+02  0.00000000000E+00 0.  1.
         11    1    4    4    0    0 -0.10134739402E+02 -0.93563235968E+01  0.20600819677E+02  0.24792085544E+02  0.51100000000E-03 0. -1.
        -11    1    4    4    0    0 -0.80336903957E+01 -0.91226724334E+01  0.12071030904E+02  0.17131057207E+02  0.51100000000E-03 0.  1.
        -12    1    4    4    0    0  0.37277747397E-01  0.42058276199E+01  0.40862849310E+01  0.58641367767E+01  0.00000000000E+00 0.  1.
</event>
<event>
 8    1  0.3776180E-010  0.9118800E+02  0.7816164E-02  0.1184000E+00
        -11   -1    0    0    0    0  0.00000000000E+00  0.00000000000E+00  0.45593999997E+02  0.45594000000E+02  0.51100000000E-03 0. -1.
         11   -1    0    0    0    0 -0.00000000000E+00 -0.00000000000E+00 -0.45593999997E+02  0.45594000000E+02  0.51100000000E-03 0.  1.
         23    2    1    2    0    0  0.00000000000E+00  0.77021722333E-15  0.71054273576E-14  0.91188000000E+02  0.91188000000E+02 0.  0.
    9900012    2    3    3    0    0 -0.16696550383E+02 -0.44906440070E-01  0.40060531110E+02  0.47787274613E+02  0.20000016271E+02 0.  0.
        -12    1    3    3    0    0  0.16696550383E+02  0.44906440070E-01 -0.40060531110E+02  0.43400725387E+02  0.00000000000E+00 0.  1.
         11    1    4    4    0    0 -0.87170346275E+01 -0.42772316556E+01  0.33342874954E+02  0.34727924122E+02  0.51100000000E-03 0. -1.
        -11    1    4    4    0    0 -0.32059822423E+01 -0.16310999569E+01  0.16510583484E+01  0.39578786159E+01  0.51100000000E-03 0.  1.
         12    1    4    4    0    0 -0.47735335135E+01  0.58634251724E+01  0.50665978075E+01  0.91014718755E+01  0.00000000000E+00 0. -1.
</event>
<event>
 8    1  0.3776180E-010  0.9118800E+02  0.7816164E-02  0.1184000E+00
        -11   -1    0    0    0    0  0.00000000000E+00  0.00000000000E+00  0.45593999997E+02  0.45594000000E+02  0.51100000000E-03 0. -1.
         11   -1    0    0    0    0 -0.00000000000E+00 -0.00000000000E+00 -0.45593999997E+02  0.45594000000E+02  0.51100000000E-03 0.  1.
         23    2    1    2    0    0 -0.35527136788E-14  0.17763568394E-14  0.71054273576E-14  0.91188000000E+02  0.91188000000E+02 0.  0.
    9900012    2    3    3    0    0  0.26132050807E+02 -0.10744539674E+02 -0.32943801517E+02  0.47787271082E+02  0.20000000173E+02 0.  0.
         12    1    3    3    0    0 -0.26132050807E+02  0.10744539674E+02  0.32943801517E+02  0.43400728918E+02  0.00000000000E+00 0. -1.
         11    1    4    4    0    0  0.32004319832E+01 -0.67324114860E+01 -0.20839461557E+01  0.77402171247E+01  0.51100000000E-03 0. -1.
        -11    1    4    4    0    0  0.22956327662E+02 -0.58429900023E+01 -0.28459499869E+02  0.37028052136E+02  0.51100000000E-03 0.  1.
         12    1    4    4    0    0 -0.24708838188E-01  0.18308618148E+01 -0.24003554923E+01  0.30190018220E+01  0.00000000000E+00 0. -1.
</event>
<event>
 8    1  0.3776180E-010  0.9118800E+02  0.7816164E-02  0.1184000E+00
        -11   -1    0    0    0    0  0.00000000000E+00  0.00000000000E+00  0.45593999997E+02  0.45594000000E+02  0.51100000000E-03 0. -1.
         11   -1    0    0    0    0 -0.00000000000E+00 -0.00000000000E+00 -0.45593999997E+02  0.45594000000E+02  0.51100000000E-03 0.  1.
         23    2    1    2    0    0  0.00000000000E+00  0.00000000000E+00  0.00000000000E+00  0.91188000000E+02  0.91188000000E+02 0.  0.
    9900012    2    3    3    0    0 -0.21703910489E+02 -0.17988838966E+02  0.32999429261E+02  0.47787304275E+02  0.20000151512E+02 0.  0.
        -12    1    3    3    0    0  0.21703910489E+02  0.17988838966E+02 -0.32999429261E+02  0.43400695725E+02  0.00000000000E+00 0.  1.
         11    1    4    4    0    0 -0.65283079644E+01 -0.66631911633E+01  0.14985019182E+01  0.94478796360E+01  0.51100000000E-03 0.  1.
        -11    1    4    4    0    0 -0.11020631939E+02 -0.43873136565E+01  0.10523564338E+02  0.15857120044E+02  0.51100000000E-03 0. -1.
        -12    1    4    4    0    0 -0.41549705859E+01 -0.69383341460E+01  0.20977363005E+02  0.22482304595E+02  0.00000000000E+00 0.  1.
</event>
<event>
 8    1  0.3776180E-010  0.9118800E+02  0.7816164E-02  0.1184000E+00
        -11   -1    0    0    0    0  0.00000000000E+00  0.00000000000E+00  0.45593999997E+02  0.45594000000E+02  0.51100000000E-03 0. -1.
         11   -1    0    0    0    0 -0.00000000000E+00 -0.00000000000E+00 -0.45593999997E+02  0.45594000000E+02  0.51100000000E-03 0.  1.
         23    2    1    2    0    0  0.00000000000E+00  0.00000000000E+00  0.00000000000E+00  0.91188000000E+02  0.91188000000E+02 0.  0.
    9900012    2    3    3    0    0  0.31260177667E+02 -0.11892519953E+02 -0.27658485062E+02  0.47787279562E+02  0.20000038836E+02 0.  0.
         12    1    3    3    0    0 -0.31260177667E+02  0.11892519953E+02  0.27658485062E+02  0.43400720438E+02  0.00000000000E+00 0. -1.
         11    1    4    4    0    0 -0.18552872577E+01 -0.17580386387E+01 -0.54130878705E+01  0.59861766778E+01  0.51100000000E-03 0. -1.
        -11    1    4    4    0    0  0.61676843651E+01 -0.25987825023E+01 -0.12260397428E+01  0.68042027184E+01  0.51100000000E-03 0.  1.
         12    1    4    4    0    0  0.26947780560E+02 -0.75356988115E+01 -0.21019357448E+02  0.34996900166E+02  0.00000000000E+00 0. -1.
</event>
<event>
 8    1  0.3776180E-010  0.9118800E+02  0.7816164E-02  0.1184000E+00
        -11   -1    0    0    0    0  0.00000000000E+00  0.00000000000E+00  0.45593999997E+02  0.45594000000E+02  0.51100000000E-03 0. -1.
         11   -1    0    0    0    0 -0.00000000000E+00 -0.00000000000E+00 -0.45593999997E+02  0.45594000000E+02  0.51100000000E-03 0.  1.
         23    2    1    2    0    0  0.00000000000E+00  0.17763568394E-14  0.71054273576E-14  0.91188000000E+02  0.91188000000E+02 0.  0.
    9900012    2    3    3    0    0  0.12955969122E+02 -0.11049716998E+02 -0.39920796677E+02  0.47787269718E+02  0.19999993954E+02 0.  0.
         12    1    3    3    0    0 -0.12955969122E+02  0.11049716998E+02  0.39920796677E+02  0.43400730282E+02  0.00000000000E+00 0. -1.
         11    1    4    4    0    0 -0.36680022664E+00  0.60645571646E+00 -0.64818393742E+01  0.65204733629E+01  0.51100000000E-03 0. -1.
        -11    1    4    4    0    0  0.16078522419E+02 -0.55993837562E+01 -0.19961301215E+02  0.26235958685E+02  0.51100000000E-03 0.  1.
        -12    1    4    4    0    0 -0.27557530703E+01 -0.60567889580E+01 -0.13477656088E+02  0.15030837671E+02  0.00000000000E+00 0.  1.
</event>
<event>
 8    1  0.3776180E-010  0.9118800E+02  0.7816164E-02  0.1184000E+00
        -11   -1    0    0    0    0  0.00000000000E+00  0.00000000000E+00  0.45593999997E+02  0.45594000000E+02  0.51100000000E-03 0. -1.
         11   -1    0    0    0    0 -0.00000000000E+00 -0.00000000000E+00 -0.45593999997E+02  0.45594000000E+02  0.51100000000E-03 0.  1.
         23    2    1    2    0    0  0.00000000000E+00  0.00000000000E+00  0.00000000000E+00  0.91188000000E+02  0.91188000000E+02 0.  0.
    9900012    2    3    3    0    0  0.37490323140E+02  0.20556664798E+02 -0.74513618689E+01  0.47787267397E+02  0.19999983371E+02 0.  0.
         12    1    3    3    0    0 -0.37490323140E+02 -0.20556664798E+02  0.74513618689E+01  0.43400732603E+02  0.00000000000E+00 0. -1.
         11    1    4    4    0    0  0.15927868172E+01  0.10915424536E-01 -0.36681571873E+01  0.39990581895E+01  0.51100000000E-03 0. -1.
        -11    1    4    4    0    0  0.26201623043E+02  0.14462424284E+02 -0.89387951064E+01  0.31234417307E+02  0.51100000000E-03 0.  1.
        -12    1    4    4    0    0  0.96959132793E+01  0.60833250890E+01  0.51555904248E+01  0.12553791901E+02  0.00000000000E+00 0.  1.
</event>
<event>
 8    1  0.3776180E-010  0.9118800E+02  0.7816164E-02  0.1184000E+00
        -11   -1    0    0    0    0  0.00000000000E+00  0.00000000000E+00  0.45593999997E+02  0.45594000000E+02  0.51100000000E-03 0. -1.
         11   -1    0    0    0    0 -0.00000000000E+00 -0.00000000000E+00 -0.45593999997E+02  0.45594000000E+02  0.51100000000E-03 0.  1.
         23    2    1    2    0    0  0.00000000000E+00  0.00000000000E+00 -0.71054273576E-14  0.91188000000E+02  0.91188000000E+02 0.  0.
    9900012    2    3    3    0    0  0.23268409815E+02 -0.16167760104E+02 -0.32875644708E+02  0.47787269855E+02  0.19999994579E+02 0.  0.
         12    1    3    3    0    0 -0.23268409815E+02  0.16167760104E+02  0.32875644708E+02  0.43400730145E+02  0.00000000000E+00 0. -1.
         11    1    4    4    0    0  0.23272380503E+01 -0.82859526939E+01 -0.39326674777E+01  0.94625008714E+01  0.51100000000E-03 0. -1.
        -11    1    4    4    0    0  0.14609646164E+02 -0.97229068454E+01 -0.15770767581E+02  0.23594359261E+02  0.51100000000E-03 0.  1.
        -12    1    4    4    0    0  0.63315256006E+01  0.18410994357E+01 -0.13172209649E+02  0.14730409723E+02  0.00000000000E+00 0.  1.
</event>
<event>
 8    1  0.3776180E-010  0.9118800E+02  0.7816164E-02  0.1184000E+00
        -11   -1    0    0    0    0  0.00000000000E+00  0.00000000000E+00  0.45593999997E+02  0.45594000000E+02  0.51100000000E-03 0. -1.
         11   -1    0    0    0    0 -0.00000000000E+00 -0.00000000000E+00 -0.45593999997E+02  0.45594000000E+02  0.51100000000E-03 0.  1.
         23    2    1    2    0    0  0.88817841970E-15 -0.35527136788E-14  0.00000000000E+00  0.91188000000E+02  0.91188000000E+02 0.  0.
    9900012    2    3    3    0    0 -0.56781108906E+01  0.25460121750E+02 -0.34686661884E+02  0.47787271256E+02  0.20000000967E+02 0.  0.
         12    1    3    3    0    0  0.56781108906E+01 -0.25460121750E+02  0.34686661884E+02  0.43400728744E+02  0.00000000000E+00 0. -1.
         11    1    4    4    0    0 -0.32073140711E+01  0.43454276290E+01 -0.84651704176E+00  0.54668268852E+01  0.51100000000E-03 0. -1.
        -11    1    4    4    0    0 -0.49802070440E+01  0.20141456979E+02 -0.33762116819E+02  0.39627784240E+02  0.51100000000E-03 0.  1.
         12    1    4    4    0    0  0.25094102244E+01  0.97323714267E+00 -0.78028023280E-01  0.26926601313E+01  0.00000000000E+00 0. -1.
</event>
<event>
 8    1  0.3776180E-010  0.9118800E+02  0.7816164E-02  0.1184000E+00
        -11   -1    0    0    0    0  0.00000000000E+00  0.00000000000E+00  0.45593999997E+02  0.45594000000E+02  0.51100000000E-03 0.  1.
         11   -1    0    0    0    0 -0.00000000000E+00 -0.00000000000E+00 -0.45593999997E+02  0.45594000000E+02  0.51100000000E-03 0. -1.
         23    2    1    2    0    0  0.00000000000E+00 -0.17763568394E-14  0.17763568394E-14  0.91188000000E+02  0.91188000000E+02 0.  0.
    9900012    2    3    3    0    0  0.37666343917E+02 -0.14934528905E+02 -0.15550866452E+02  0.47787273449E+02  0.20000010966E+02 0.  0.
         12    1    3    3    0    0 -0.37666343917E+02  0.14934528905E+02  0.15550866452E+02  0.43400726551E+02  0.00000000000E+00 0. -1.
         11    1    4    4    0    0  0.10584926562E+02 -0.29773572384E+01 -0.18909684303E+01  0.11157109317E+02  0.51100000000E-03 0. -1.
        -11    1    4    4    0    0  0.19727192865E+02 -0.65435344142E+01 -0.72529378496E+00  0.20796779374E+02  0.51100000000E-03 0.  1.
         12    1    4    4    0    0  0.73542244895E+01 -0.54136372524E+01 -0.12934604237E+02  0.15833384759E+02  0.00000000000E+00 0. -1.
</event>
<event>
 8    1  0.3776180E-010  0.9118800E+02  0.7816164E-02  0.1184000E+00
        -11   -1    0    0    0    0  0.00000000000E+00  0.00000000000E+00  0.45593999997E+02  0.45594000000E+02  0.51100000000E-03 0. -1.
         11   -1    0    0    0    0 -0.00000000000E+00 -0.00000000000E+00 -0.45593999997E+02  0.45594000000E+02  0.51100000000E-03 0.  1.
         23    2    1    2    0    0  0.00000000000E+00  0.35527136788E-14 -0.35527136788E-14  0.91188000000E+02  0.91188000000E+02 0.  0.
    9900012    2    3    3    0    0 -0.19133527342E+02 -0.24468929669E+02 -0.30311765184E+02  0.47787268483E+02  0.19999988320E+02 0.  0.
         12    1    3    3    0    0  0.19133527342E+02  0.24468929669E+02  0.30311765184E+02  0.43400731517E+02  0.00000000000E+00 0. -1.
         11    1    4    4    0    0 -0.11381556023E+02 -0.11768773439E+02 -0.71867466538E+01  0.17879965701E+02  0.51100000000E-03 0. -1.
        -11    1    4    4    0    0 -0.61889089964E+01 -0.14966703296E+02 -0.20186396940E+02  0.25880406175E+02  0.51100000000E-03 0.  1.
         12    1    4    4    0    0 -0.15630623232E+01  0.22665470661E+01 -0.29386215901E+01  0.40268966064E+01  0.00000000000E+00 0. -1.
</event>
<event>
 8    1  0.3776180E-010  0.9118800E+02  0.7816164E-02  0.1184000E+00
        -11   -1    0    0    0    0  0.00000000000E+00  0.00000000000E+00  0.45593999997E+02  0.45594000000E+02  0.51100000000E-03 0. -1.
         11   -1    0    0    0    0 -0.00000000000E+00 -0.00000000000E+00 -0.45593999997E+02  0.45594000000E+02  0.51100000000E-03 0.  1.
         23    2    1    2    0    0  0.00000000000E+00 -0.71054273576E-14  0.00000000000E+00  0.91188000000E+02  0.91188000000E+02 0.  0.
    9900012    2    3    3    0    0 -0.16242117415E+02 -0.39172783958E+02 -0.92363338572E+01  0.47787271386E+02  0.20000001558E+02 0.  0.
         12    1    3    3    0    0  0.16242117415E+02  0.39172783958E+02  0.92363338572E+01  0.43400728614E+02  0.00000000000E+00 0. -1.
         11    1    4    4    0    0 -0.51474359018E+01 -0.11870748180E+01 -0.11181216191E+01  0.53995776875E+01  0.51100000000E-03 0. -1.
        -11    1    4    4    0    0 -0.56577192082E+01 -0.41467390584E+01 -0.33875388893E+01  0.77897786519E+01  0.51100000000E-03 0.  1.
        -12    1    4    4    0    0 -0.54369623045E+01 -0.33838970081E+02 -0.47306733488E+01  0.34597915047E+02  0.00000000000E+00 0.  1.
</event>
<event>
 8    1  0.3776180E-010  0.9118800E+02  0.7816164E-02  0.1184000E+00
        -11   -1    0    0    0    0  0.00000000000E+00  0.00000000000E+00  0.45593999997E+02  0.45594000000E+02  0.51100000000E-03 0.  1.
         11   -1    0    0    0    0 -0.00000000000E+00 -0.00000000000E+00 -0.45593999997E+02  0.45594000000E+02  0.51100000000E-03 0. -1.
         23    2    1    2    0    0  0.00000000000E+00  0.71054273576E-14  0.00000000000E+00  0.91188000000E+02  0.91188000000E+02 0.  0.
    9900012    2    3    3    0    0  0.17731502796E+02 -0.35849157210E+02 -0.16853935003E+02  0.47787269716E+02  0.19999993944E+02 0.  0.
         12    1    3    3    0    0 -0.17731502796E+02  0.35849157210E+02  0.16853935003E+02  0.43400730284E+02  0.00000000000E+00 0. -1.
         11    1    4    4    0    0  0.92454357522E+00 -0.10825442940E+02 -0.10787796193E+02  0.15310830893E+02  0.51100000000E-03 0. -1.
        -11    1    4    4    0    0  0.28317384018E+00 -0.18859056807E+01 -0.34270897038E+01  0.39219601935E+01  0.51100000000E-03 0.  1.
        -12    1    4    4    0    0  0.16523785381E+02 -0.23137808590E+02 -0.26390491057E+01  0.28554478630E+02  0.00000000000E+00 0.  1.
</event>
<event>
 8    1  0.3776180E-010  0.9118800E+02  0.7816164E-02  0.1184000E+00
        -11   -1    0    0    0    0  0.00000000000E+00  0.00000000000E+00  0.45593999997E+02  0.45594000000E+02  0.51100000000E-03 0. -1.
         11   -1    0    0    0    0 -0.00000000000E+00 -0.00000000000E+00 -0.45593999997E+02  0.45594000000E+02  0.51100000000E-03 0.  1.
         23    2    1    2    0    0  0.00000000000E+00  0.00000000000E+00  0.71054273576E-14  0.91188000000E+02  0.91188000000E+02 0.  0.
    9900012    2    3    3    0    0  0.88681063792E+01 -0.16044358086E+02  0.39339020472E+02  0.47787271103E+02  0.20000000265E+02 0.  0.
        -12    1    3    3    0    0 -0.88681063792E+01  0.16044358086E+02 -0.39339020472E+02  0.43400728897E+02  0.00000000000E+00 0.  1.
         11    1    4    4    0    0 -0.37700330243E+01 -0.88544761120E+01  0.17957980258E+02  0.20374100015E+02  0.51100000000E-03 0. -1.
        -11    1    4    4    0    0  0.33683850662E+01 -0.87896204896E+00  0.12877035507E+02  0.13339289184E+02  0.51100000000E-03 0.  1.
         12    1    4    4    0    0  0.92697543372E+01 -0.63109199247E+01  0.85040047076E+01  0.14073881904E+02  0.00000000000E+00 0. -1.
</event>
<event>
 8    1  0.3776180E-010  0.9118800E+02  0.7816164E-02  0.1184000E+00
        -11   -1    0    0    0    0  0.00000000000E+00  0.00000000000E+00  0.45593999997E+02  0.45594000000E+02  0.51100000000E-03 0. -1.
         11   -1    0    0    0    0 -0.00000000000E+00 -0.00000000000E+00 -0.45593999997E+02  0.45594000000E+02  0.51100000000E-03 0.  1.
         23    2    1    2    0    0  0.00000000000E+00  0.27755575616E-15  0.00000000000E+00  0.91188000000E+02  0.91188000000E+02 0.  0.
    9900012    2    3    3    0    0  0.38065857637E+02 -0.47608931796E+00 -0.20841943962E+02  0.47787276426E+02  0.20000024535E+02 0.  0.
         12    1    3    3    0    0 -0.38065857637E+02  0.47608931796E+00  0.20841943962E+02  0.43400723574E+02  0.00000000000E+00 0. -1.
         11    1    4    4    0    0  0.42718716599E+01 -0.41783841132E+00 -0.10361871336E+01  0.44155589061E+01  0.51100000000E-03 0. -1.
        -11    1    4    4    0    0  0.22422213991E+02 -0.55405388970E+01 -0.20282919620E+02  0.30738413753E+02  0.51100000000E-03 0.  1.
         12    1    4    4    0    0  0.11371771986E+02  0.54822879904E+01  0.47716279154E+00  0.12633303766E+02  0.00000000000E+00 0. -1.
</event>
<event>
 8    1  0.3776180E-010  0.9118800E+02  0.7816164E-02  0.1184000E+00
        -11   -1    0    0    0    0  0.00000000000E+00  0.00000000000E+00  0.45593999997E+02  0.45594000000E+02  0.51100000000E-03 0. -1.
         11   -1    0    0    0    0 -0.00000000000E+00 -0.00000000000E+00 -0.45593999997E+02  0.45594000000E+02  0.51100000000E-03 0.  1.
         23    2    1    2    0    0  0.00000000000E+00  0.00000000000E+00  0.00000000000E+00  0.91188000000E+02  0.91188000000E+02 0.  0.
    9900012    2    3    3    0    0  0.61607158780E+01  0.10564956678E+02 -0.41641929151E+02  0.47787274279E+02  0.20000014746E+02 0.  0.
         12    1    3    3    0    0 -0.61607158780E+01 -0.10564956678E+02  0.41641929151E+02  0.43400725721E+02  0.00000000000E+00 0. -1.
         11    1    4    4    0    0  0.33820632915E+01  0.61439438256E+01 -0.29960219159E+01  0.76264372692E+01  0.51100000000E-03 0. -1.
        -11    1    4    4    0    0 -0.18908292799E+01 -0.21062129339E+01 -0.12198175476E+02  0.12522254330E+02  0.51100000000E-03 0.  1.
        -12    1    4    4    0    0  0.46694818665E+01  0.65272257860E+01 -0.26447731759E+02  0.27638582680E+02  0.00000000000E+00 0.  1.
</event>
<event>
 8    1  0.3776180E-010  0.9118800E+02  0.7816164E-02  0.1184000E+00
        -11   -1    0    0    0    0  0.00000000000E+00  0.00000000000E+00  0.45593999997E+02  0.45594000000E+02  0.51100000000E-03 0. -1.
         11   -1    0    0    0    0 -0.00000000000E+00 -0.00000000000E+00 -0.45593999997E+02  0.45594000000E+02  0.51100000000E-03 0.  1.
         23    2    1    2    0    0 -0.17763568394E-14  0.00000000000E+00  0.71054273576E-14  0.91188000000E+02  0.91188000000E+02 0.  0.
    9900012    2    3    3    0    0  0.10715926157E+02  0.15586108423E+01 -0.42028125357E+02  0.47787266571E+02  0.19999979603E+02 0.  0.
         12    1    3    3    0    0 -0.10715926157E+02 -0.15586108423E+01  0.42028125357E+02  0.43400733429E+02  0.00000000000E+00 0. -1.
         11    1    4    4    0    0  0.14598369985E+01 -0.13658270510E+01  0.10469694641E+01  0.22567128562E+01  0.51100000000E-03 0. -1.
        -11    1    4    4    0    0 -0.20084919980E+01  0.25501929706E+01 -0.66222790379E+01  0.73751002848E+01  0.51100000000E-03 0.  1.
        -12    1    4    4    0    0  0.11264581157E+02  0.37424492277E+00 -0.36452815783E+02  0.38155453430E+02  0.00000000000E+00 0.  1.
</event>
<event>
 8    1  0.3776180E-010  0.9118800E+02  0.7816164E-02  0.1184000E+00
        -11   -1    0    0    0    0  0.00000000000E+00  0.00000000000E+00  0.45593999997E+02  0.45594000000E+02  0.51100000000E-03 0. -1.
         11   -1    0    0    0    0 -0.00000000000E+00 -0.00000000000E+00 -0.45593999997E+02  0.45594000000E+02  0.51100000000E-03 0.  1.
         23    2    1    2    0    0 -0.17763568394E-14  0.00000000000E+00  0.00000000000E+00  0.91188000000E+02  0.91188000000E+02 0.  0.
    9900012    2    3    3    0    0 -0.15380018205E+02 -0.32351956108E+02  0.24503659553E+02  0.47787270104E+02  0.19999995714E+02 0.  0.
        -12    1    3    3    0    0  0.15380018205E+02  0.32351956108E+02 -0.24503659553E+02  0.43400729896E+02  0.00000000000E+00 0.  1.
         11    1    4    4    0    0  0.59249867933E+00 -0.50880054504E+01 -0.11598910273E+01  0.52520664128E+01  0.51100000000E-03 0. -1.
        -11    1    4    4    0    0 -0.79874080505E+01 -0.14052657046E+02  0.53598315756E+01  0.17029493598E+02  0.51100000000E-03 0.  1.
        -12    1    4    4    0    0 -0.79851088334E+01 -0.13211293611E+02  0.20303719005E+02  0.25505710094E+02  0.00000000000E+00 0.  1.
</event>
<event>
 8    1  0.3776180E-010  0.9118800E+02  0.7816164E-02  0.1184000E+00
        -11   -1    0    0    0    0  0.00000000000E+00  0.00000000000E+00  0.45593999997E+02  0.45594000000E+02  0.51100000000E-03 0. -1.
         11   -1    0    0    0    0 -0.00000000000E+00 -0.00000000000E+00 -0.45593999997E+02  0.45594000000E+02  0.51100000000E-03 0.  1.
         23    2    1    2    0    0  0.00000000000E+00  0.00000000000E+00  0.00000000000E+00  0.91188000000E+02  0.91188000000E+02 0.  0.
    9900012    2    3    3    0    0 -0.37258432860E+02 -0.19352365042E+02 -0.10996287993E+02  0.47787271878E+02  0.20000003801E+02 0.  0.
         12    1    3    3    0    0  0.37258432860E+02  0.19352365042E+02  0.10996287993E+02  0.43400728122E+02  0.00000000000E+00 0. -1.
         11    1    4    4    0    0 -0.87743849422E-01  0.70526262714E+00 -0.17006382263E+01  0.18431671097E+01  0.51100000000E-03 0. -1.
        -11    1    4    4    0    0 -0.18274681854E+02 -0.18271174509E+02 -0.33717105092E+01  0.26060856601E+02  0.51100000000E-03 0.  1.
         12    1    4    4    0    0 -0.18896007156E+02 -0.17864531610E+01 -0.59239392573E+01  0.19883248167E+02  0.00000000000E+00 0. -1.
</event>
<event>
 8    1  0.3776180E-010  0.9118800E+02  0.7816164E-02  0.1184000E+00
        -11   -1    0    0    0    0  0.00000000000E+00  0.00000000000E+00  0.45593999997E+02  0.45594000000E+02  0.51100000000E-03 0. -1.
         11   -1    0    0    0    0 -0.00000000000E+00 -0.00000000000E+00 -0.45593999997E+02  0.45594000000E+02  0.51100000000E-03 0.  1.
         23    2    1    2    0    0 -0.88817841970E-15  0.00000000000E+00  0.00000000000E+00  0.91188000000E+02  0.91188000000E+02 0.  0.
    9900012    2    3    3    0    0 -0.28224927672E+01  0.21865528809E+02 -0.37383892485E+02  0.47787271517E+02  0.20000002157E+02 0.  0.
         12    1    3    3    0    0  0.28224927672E+01 -0.21865528809E+02  0.37383892485E+02  0.43400728483E+02  0.00000000000E+00 0. -1.
         11    1    4    4    0    0 -0.22778631603E+01  0.68652494146E+01 -0.42660649586E+01  0.83975961199E+01  0.51100000000E-03 0. -1.
        -11    1    4    4    0    0 -0.41760102947E+01 -0.93139404991E+00 -0.11647998592E+02  0.12408965642E+02  0.51100000000E-03 0.  1.
        -12    1    4    4    0    0  0.36313806878E+01  0.15931673444E+02 -0.21469828934E+02  0.26980709755E+02  0.00000000000E+00 0.  1.
</event>
<event>
 8    1  0.3776180E-010  0.9118800E+02  0.7816164E-02  0.1184000E+00
        -11   -1    0    0    0    0  0.00000000000E+00  0.00000000000E+00  0.45593999997E+02  0.45594000000E+02  0.51100000000E-03 0. -1.
         11   -1    0    0    0    0 -0.00000000000E+00 -0.00000000000E+00 -0.45593999997E+02  0.45594000000E+02  0.51100000000E-03 0.  1.
         23    2    1    2    0    0  0.00000000000E+00 -0.35527136788E-14  0.00000000000E+00  0.91188000000E+02  0.91188000000E+02 0.  0.
    9900012    2    3    3    0    0  0.12091647355E+02  0.28537584020E+02  0.30381269852E+02  0.47787271950E+02  0.20000004128E+02 0.  0.
        -12    1    3    3    0    0 -0.12091647355E+02 -0.28537584020E+02 -0.30381269852E+02  0.43400728050E+02  0.00000000000E+00 0.  1.
         11    1    4    4    0    0  0.79393673244E+01  0.20997797971E+02  0.92885180686E+01  0.24294395266E+02  0.51100000000E-03 0. -1.
        -11    1    4    4    0    0  0.41622219699E+01  0.38203150320E+01  0.74366824996E+01  0.93393332488E+01  0.51100000000E-03 0.  1.
         12    1    4    4    0    0 -0.99419393122E-02  0.37194710169E+01  0.13656069284E+02  0.14153543435E+02  0.00000000000E+00 0. -1.
</event>
<event>
 8    1  0.3776180E-010  0.9118800E+02  0.7816164E-02  0.1184000E+00
        -11   -1    0    0    0    0  0.00000000000E+00  0.00000000000E+00  0.45593999997E+02  0.45594000000E+02  0.51100000000E-03 0. -1.
         11   -1    0    0    0    0 -0.00000000000E+00 -0.00000000000E+00 -0.45593999997E+02  0.45594000000E+02  0.51100000000E-03 0.  1.
         23    2    1    2    0    0 -0.35527136788E-14  0.35527136788E-14  0.00000000000E+00  0.91188000000E+02  0.91188000000E+02 0.  0.
    9900012    2    3    3    0    0 -0.25259293664E+02 -0.27757286699E+02 -0.21797328558E+02  0.47787280956E+02  0.20000045190E+02 0.  0.
         12    1    3    3    0    0  0.25259293664E+02  0.27757286699E+02  0.21797328558E+02  0.43400719044E+02  0.00000000000E+00 0. -1.
         11    1    4    4    0    0 -0.27221010084E+01 -0.24238854148E+01  0.21724285035E+01  0.42431710157E+01  0.51100000000E-03 0. -1.
        -11    1    4    4    0    0 -0.24822325928E+01  0.14485641141E+01 -0.15127460075E+01  0.32478019308E+01  0.51100000000E-03 0.  1.
        -12    1    4    4    0    0 -0.20054960063E+02 -0.26781965398E+02 -0.22457011054E+02  0.40296308009E+02  0.00000000000E+00 0.  1.
</event>
<event>
 8    1  0.3776180E-010  0.9118800E+02  0.7816164E-02  0.1184000E+00
        -11   -1    0    0    0    0  0.00000000000E+00  0.00000000000E+00  0.45593999997E+02  0.45594000000E+02  0.51100000000E-03 0. -1.
         11   -1    0    0    0    0 -0.00000000000E+00 -0.00000000000E+00 -0.45593999997E+02  0.45594000000E+02  0.51100000000E-03 0.  1.
         23    2    1    2    0    0  0.17763568394E-14  0.00000000000E+00  0.35527136788E-14  0.91188000000E+02  0.91188000000E+02 0.  0.
    9900012    2    3    3    0    0  0.54362785001E+01 -0.28924381379E+02 -0.31897498324E+02  0.47787270036E+02  0.19999995402E+02 0.  0.
         12    1    3    3    0    0 -0.54362785001E+01  0.28924381379E+02  0.31897498324E+02  0.43400729964E+02  0.00000000000E+00 0. -1.
         11    1    4    4    0    0 -0.10875209679E+01 -0.70022747686E+01 -0.23594794103E+01  0.74687145574E+01  0.51100000000E-03 0. -1.
        -11    1    4    4    0    0  0.95107034312E+01 -0.11663272378E+02 -0.10059387060E+02  0.18101841636E+02  0.51100000000E-03 0.  1.
        -12    1    4    4    0    0 -0.29869039632E+01 -0.10258834232E+02 -0.19478631853E+02  0.22216713842E+02  0.00000000000E+00 0.  1.
</event>
<event>
 8    1  0.3776180E-010  0.9118800E+02  0.7816164E-02  0.1184000E+00
        -11   -1    0    0    0    0  0.00000000000E+00  0.00000000000E+00  0.45593999997E+02  0.45594000000E+02  0.51100000000E-03 0. -1.
         11   -1    0    0    0    0 -0.00000000000E+00 -0.00000000000E+00 -0.45593999997E+02  0.45594000000E+02  0.51100000000E-03 0.  1.
         23    2    1    2    0    0  0.00000000000E+00 -0.88817841970E-15  0.35527136788E-14  0.91188000000E+02  0.91188000000E+02 0.  0.
    9900012    2    3    3    0    0  0.35346297243E+02  0.29906149776E+01  0.25006385233E+02  0.47787264878E+02  0.19999971884E+02 0.  0.
        -12    1    3    3    0    0 -0.35346297243E+02 -0.29906149776E+01 -0.25006385233E+02  0.43400735122E+02  0.00000000000E+00 0.  1.
         11    1    4    4    0    0  0.58563594712E+00  0.30742135122E+00 -0.15680559474E+01  0.17018451942E+01  0.51100000000E-03 0. -1.
        -11    1    4    4    0    0  0.19043376660E+02  0.50075440060E+01  0.70535585085E+01  0.20915983828E+02  0.51100000000E-03 0.  1.
         12    1    4    4    0    0  0.15717284635E+02 -0.23243503797E+01  0.19520882672E+02  0.25169435856E+02  0.00000000000E+00 0. -1.
</event>
<event>
 8    1  0.3776180E-010  0.9118800E+02  0.7816164E-02  0.1184000E+00
        -11   -1    0    0    0    0  0.00000000000E+00  0.00000000000E+00  0.45593999997E+02  0.45594000000E+02  0.51100000000E-03 0. -1.
         11   -1    0    0    0    0 -0.00000000000E+00 -0.00000000000E+00 -0.45593999997E+02  0.45594000000E+02  0.51100000000E-03 0.  1.
         23    2    1    2    0    0 -0.35527136788E-14 -0.17763568394E-14  0.00000000000E+00  0.91188000000E+02  0.91188000000E+02 0.  0.
    9900012    2    3    3    0    0  0.24710904178E+02  0.51034939151E+01  0.35312164270E+02  0.47787269812E+02  0.19999994379E+02 0.  0.
        -12    1    3    3    0    0 -0.24710904178E+02 -0.51034939151E+01 -0.35312164270E+02  0.43400730188E+02  0.00000000000E+00 0.  1.
         11    1    4    4    0    0  0.27533581811E+01  0.42173713912E+01  0.73110149451E+01  0.88779582402E+01  0.51100000000E-03 0.  1.
        -11    1    4    4    0    0  0.21981899804E+02  0.15711514332E+01  0.29754316031E+02  0.37026905873E+02  0.51100000000E-03 0. -1.
         12    1    4    4    0    0 -0.24353807493E-01 -0.68502890935E+00 -0.17531667055E+01  0.18824056980E+01  0.00000000000E+00 0. -1.
</event>
<event>
 8    1  0.3776180E-010  0.9118800E+02  0.7816164E-02  0.1184000E+00
        -11   -1    0    0    0    0  0.00000000000E+00  0.00000000000E+00  0.45593999997E+02  0.45594000000E+02  0.51100000000E-03 0. -1.
         11   -1    0    0    0    0 -0.00000000000E+00 -0.00000000000E+00 -0.45593999997E+02  0.45594000000E+02  0.51100000000E-03 0.  1.
         23    2    1    2    0    0  0.00000000000E+00  0.22204460493E-15  0.00000000000E+00  0.91188000000E+02  0.91188000000E+02 0.  0.
    9900012    2    3    3    0    0  0.31134778890E+02 -0.13992328413E+01  0.30204158684E+02  0.47787268314E+02  0.19999987550E+02 0.  0.
        -12    1    3    3    0    0 -0.31134778890E+02  0.13992328413E+01 -0.30204158684E+02  0.43400731686E+02  0.00000000000E+00 0.  1.
         11    1    4    4    0    0  0.10450390067E+02 -0.65197509066E+01  0.14211718474E+02  0.18806667612E+02  0.51100000000E-03 0. -1.
        -11    1    4    4    0    0 -0.64888135367E+00  0.10139963527E+01 -0.86510213351E+00  0.14824431109E+01  0.51100000000E-03 0.  1.
         12    1    4    4    0    0  0.21333270177E+02  0.41065217126E+01  0.16857542343E+02  0.27498157591E+02  0.00000000000E+00 0. -1.
</event>
<event>
 8    1  0.3776180E-010  0.9118800E+02  0.7816164E-02  0.1184000E+00
        -11   -1    0    0    0    0  0.00000000000E+00  0.00000000000E+00  0.45593999997E+02  0.45594000000E+02  0.51100000000E-03 0. -1.
         11   -1    0    0    0    0 -0.00000000000E+00 -0.00000000000E+00 -0.45593999997E+02  0.45594000000E+02  0.51100000000E-03 0.  1.
         23    2    1    2    0    0  0.44408920985E-15  0.00000000000E+00 -0.35527136788E-14  0.91188000000E+02  0.91188000000E+02 0.  0.
    9900012    2    3    3    0    0  0.25092386298E+01  0.30914580997E+02 -0.30358120356E+02  0.47787273413E+02  0.20000010797E+02 0.  0.
         12    1    3    3    0    0 -0.25092386298E+01 -0.30914580997E+02  0.30358120356E+02  0.43400726587E+02  0.00000000000E+00 0. -1.
         11    1    4    4    0    0  0.11169467925E+00  0.18094748658E+02 -0.18587910023E+02  0.25941141147E+02  0.51100000000E-03 0.  1.
        -11    1    4    4    0    0  0.52061899720E+01  0.13493762221E+02 -0.12205531633E+02  0.18925142948E+02  0.51100000000E-03 0. -1.
         12    1    4    4    0    0 -0.28086460215E+01 -0.67392988116E+00  0.43532130054E+00  0.29209893176E+01  0.00000000000E+00 0. -1.
</event>
<event>
 8    1  0.3776180E-010  0.9118800E+02  0.7816164E-02  0.1184000E+00
        -11   -1    0    0    0    0  0.00000000000E+00  0.00000000000E+00  0.45593999997E+02  0.45594000000E+02  0.51100000000E-03 0. -1.
         11   -1    0    0    0    0 -0.00000000000E+00 -0.00000000000E+00 -0.45593999997E+02  0.45594000000E+02  0.51100000000E-03 0.  1.
         23    2    1    2    0    0  0.00000000000E+00 -0.35527136788E-14  0.00000000000E+00  0.91188000000E+02  0.91188000000E+02 0.  0.
    9900012    2    3    3    0    0  0.17852896417E+02 -0.16224381647E+02 -0.36078622256E+02  0.47787268967E+02  0.19999990530E+02 0.  0.
         12    1    3    3    0    0 -0.17852896417E+02  0.16224381647E+02  0.36078622256E+02  0.43400731033E+02  0.00000000000E+00 0. -1.
         11    1    4    4    0    0  0.10601812911E+02 -0.79736289070E+01 -0.30774586955E+02  0.33511973942E+02  0.51100000000E-03 0. -1.
        -11    1    4    4    0    0 -0.73536176815E+00 -0.35665160915E+01 -0.30400859016E+01  0.47437239075E+01  0.51100000000E-03 0.  1.
         12    1    4    4    0    0  0.79864452744E+01 -0.46842366482E+01 -0.22639493988E+01  0.95315711181E+01  0.00000000000E+00 0. -1.
</event>
<event>
 8    1  0.3776180E-010  0.9118800E+02  0.7816164E-02  0.1184000E+00
        -11   -1    0    0    0    0  0.00000000000E+00  0.00000000000E+00  0.45593999997E+02  0.45594000000E+02  0.51100000000E-03 0. -1.
         11   -1    0    0    0    0 -0.00000000000E+00 -0.00000000000E+00 -0.45593999997E+02  0.45594000000E+02  0.51100000000E-03 0.  1.
         23    2    1    2    0    0  0.00000000000E+00  0.00000000000E+00 -0.17763568394E-14  0.91188000000E+02  0.91188000000E+02 0.  0.
    9900012    2    3    3    0    0 -0.35681723160E+02  0.21182127643E+02  0.12718423110E+02  0.47787237500E+02  0.19999847058E+02 0.  0.
        -12    1    3    3    0    0  0.35681723160E+02 -0.21182127643E+02 -0.12718423110E+02  0.43400762500E+02  0.00000000000E+00 0.  1.
         11    1    4    4    0    0 -0.58426324506E+01  0.30580144891E+01  0.26919308236E+01  0.71228013021E+01  0.51100000000E-03 0. -1.
        -11    1    4    4    0    0 -0.47518056700E+01 -0.36165759208E+01 -0.50841807856E-01  0.59717554929E+01  0.51100000000E-03 0.  1.
         12    1    4    4    0    0 -0.25087285040E+02  0.21740689074E+02  0.10077334094E+02  0.34692680705E+02  0.00000000000E+00 0. -1.
</event>
<event>
 8    1  0.3776180E-010  0.9118800E+02  0.7816164E-02  0.1184000E+00
        -11   -1    0    0    0    0  0.00000000000E+00  0.00000000000E+00  0.45593999997E+02  0.45594000000E+02  0.51100000000E-03 0. -1.
         11   -1    0    0    0    0 -0.00000000000E+00 -0.00000000000E+00 -0.45593999997E+02  0.45594000000E+02  0.51100000000E-03 0.  1.
         23    2    1    2    0    0  0.00000000000E+00 -0.88817841970E-15  0.00000000000E+00  0.91188000000E+02  0.91188000000E+02 0.  0.
    9900012    2    3    3    0    0  0.36447459654E+02  0.65958134222E+01  0.22620866533E+02  0.47787243409E+02  0.19999873999E+02 0.  0.
        -12    1    3    3    0    0 -0.36447459654E+02 -0.65958134222E+01 -0.22620866533E+02  0.43400756591E+02  0.00000000000E+00 0.  1.
         11    1    4    4    0    0  0.24077212992E+02  0.84029054293E+00  0.14960033374E+02  0.28358788276E+02  0.51100000000E-03 0. -1.
        -11    1    4    4    0    0  0.29342084387E+01 -0.34809985961E+01  0.28707657903E+01  0.53822139378E+01  0.51100000000E-03 0.  1.
        -12    1    4    4    0    0  0.94360382233E+01  0.92365214754E+01  0.47900673686E+01  0.14046241195E+02  0.00000000000E+00 0.  1.
</event>
<event>
 8    1  0.3776180E-010  0.9118800E+02  0.7816164E-02  0.1184000E+00
        -11   -1    0    0    0    0  0.00000000000E+00  0.00000000000E+00  0.45593999997E+02  0.45594000000E+02  0.51100000000E-03 0. -1.
         11   -1    0    0    0    0 -0.00000000000E+00 -0.00000000000E+00 -0.45593999997E+02  0.45594000000E+02  0.51100000000E-03 0.  1.
         23    2    1    2    0    0  0.35527136788E-14  0.00000000000E+00  0.00000000000E+00  0.91188000000E+02  0.91188000000E+02 0.  0.
    9900012    2    3    3    0    0  0.25221844640E+02  0.17190175405E+02 -0.30854176271E+02  0.47787265318E+02  0.19999973893E+02 0.  0.
         12    1    3    3    0    0 -0.25221844640E+02 -0.17190175405E+02  0.30854176271E+02  0.43400734682E+02  0.00000000000E+00 0. -1.
         11    1    4    4    0    0  0.12655395815E+02  0.34549102319E+01 -0.14448532441E+02  0.19515520436E+02  0.51100000000E-03 0. -1.
        -11    1    4    4    0    0  0.14763003678E+02  0.13979050946E+02 -0.12745113102E+02  0.23995792364E+02  0.51100000000E-03 0.  1.
         12    1    4    4    0    0 -0.21965548525E+01 -0.24378577258E+00 -0.36605307290E+01  0.42759525185E+01  0.00000000000E+00 0. -1.
</event>
<event>
 8    1  0.3776180E-010  0.9118800E+02  0.7816164E-02  0.1184000E+00
        -11   -1    0    0    0    0  0.00000000000E+00  0.00000000000E+00  0.45593999997E+02  0.45594000000E+02  0.51100000000E-03 0. -1.
         11   -1    0    0    0    0 -0.00000000000E+00 -0.00000000000E+00 -0.45593999997E+02  0.45594000000E+02  0.51100000000E-03 0.  1.
         23    2    1    2    0    0  0.00000000000E+00  0.35527136788E-14 -0.71054273576E-14  0.91188000000E+02  0.91188000000E+02 0.  0.
    9900012    2    3    3    0    0 -0.77203994083E+01 -0.25433423924E+02 -0.34309759179E+02  0.47787271959E+02  0.20000004170E+02 0.  0.
         12    1    3    3    0    0  0.77203994083E+01  0.25433423924E+02  0.34309759179E+02  0.43400728041E+02  0.00000000000E+00 0. -1.
         11    1    4    4    0    0  0.30372405117E+00  0.19047602549E+01 -0.11912184238E+01  0.22670159952E+01  0.51100000000E-03 0. -1.
        -11    1    4    4    0    0 -0.42872731232E+01 -0.19413221874E+01 -0.18318808522E+01  0.50502703280E+01  0.51100000000E-03 0.  1.
        -12    1    4    4    0    0 -0.37368503363E+01 -0.25396861992E+02 -0.31286659903E+02  0.40469985636E+02  0.00000000000E+00 0.  1.
</event>
<event>
 8    1  0.3776180E-010  0.9118800E+02  0.7816164E-02  0.1184000E+00
        -11   -1    0    0    0    0  0.00000000000E+00  0.00000000000E+00  0.45593999997E+02  0.45594000000E+02  0.51100000000E-03 0. -1.
         11   -1    0    0    0    0 -0.00000000000E+00 -0.00000000000E+00 -0.45593999997E+02  0.45594000000E+02  0.51100000000E-03 0.  1.
         23    2    1    2    0    0 -0.17763568394E-14 -0.88817841970E-15  0.00000000000E+00  0.91188000000E+02  0.91188000000E+02 0.  0.
    9900012    2    3    3    0    0 -0.11860600008E+02  0.41091439640E+01  0.41545937801E+02  0.47787264471E+02  0.19999970029E+02 0.  0.
        -12    1    3    3    0    0  0.11860600008E+02 -0.41091439640E+01 -0.41545937801E+02  0.43400735529E+02  0.00000000000E+00 0.  1.
         11    1    4    4    0    0  0.98114885520E+00 -0.99335532564E+00 -0.10229187606E+00  0.13999542021E+01  0.51100000000E-03 0. -1.
        -11    1    4    4    0    0 -0.42270098818E+01 -0.38719204708E+00  0.84911622072E+00  0.43288022408E+01  0.51100000000E-03 0.  1.
         12    1    4    4    0    0 -0.86147389815E+01  0.54896913368E+01  0.40799113457E+02  0.42058508028E+02  0.00000000000E+00 0. -1.
</event>
<event>
 8    1  0.3776180E-010  0.9118800E+02  0.7816164E-02  0.1184000E+00
        -11   -1    0    0    0    0  0.00000000000E+00  0.00000000000E+00  0.45593999997E+02  0.45594000000E+02  0.51100000000E-03 0. -1.
         11   -1    0    0    0    0 -0.00000000000E+00 -0.00000000000E+00 -0.45593999997E+02  0.45594000000E+02  0.51100000000E-03 0.  1.
         23    2    1    2    0    0  0.00000000000E+00  0.00000000000E+00  0.71054273576E-14  0.91188000000E+02  0.91188000000E+02 0.  0.
    9900012    2    3    3    0    0  0.13858056084E+02 -0.64808514823E+01 -0.40614973674E+02  0.47787271424E+02  0.20000001732E+02 0.  0.
         12    1    3    3    0    0 -0.13858056084E+02  0.64808514823E+01  0.40614973674E+02  0.43400728576E+02  0.00000000000E+00 0. -1.
         11    1    4    4    0    0  0.68927101515E+01  0.39936351746E+01 -0.11169643763E+02  0.13719311834E+02  0.51100000000E-03 0. -1.
        -11    1    4    4    0    0  0.81891426370E+01 -0.21866261251E+01 -0.17877637118E+02  0.19785178799E+02  0.51100000000E-03 0.  1.
         12    1    4    4    0    0 -0.12237967048E+01 -0.82878605318E+01 -0.11567692793E+02  0.14282780791E+02  0.00000000000E+00 0. -1.
</event>
<event>
 8    1  0.3776180E-010  0.9118800E+02  0.7816164E-02  0.1184000E+00
        -11   -1    0    0    0    0  0.00000000000E+00  0.00000000000E+00  0.45593999997E+02  0.45594000000E+02  0.51100000000E-03 0. -1.
         11   -1    0    0    0    0 -0.00000000000E+00 -0.00000000000E+00 -0.45593999997E+02  0.45594000000E+02  0.51100000000E-03 0.  1.
         23    2    1    2    0    0  0.00000000000E+00  0.22204460493E-15  0.00000000000E+00  0.91188000000E+02  0.91188000000E+02 0.  0.
    9900012    2    3    3    0    0 -0.40426023561E+02 -0.11110514579E+01 -0.15752001244E+02  0.47787270058E+02  0.19999995504E+02 0.  0.
         12    1    3    3    0    0  0.40426023561E+02  0.11110514579E+01  0.15752001244E+02  0.43400729942E+02  0.00000000000E+00 0. -1.
         11    1    4    4    0    0 -0.17008250390E+01 -0.24029126144E+01  0.94347560523E+00  0.30914303040E+01  0.51100000000E-03 0. -1.
        -11    1    4    4    0    0  0.57634394509E+00 -0.61051470604E+00  0.12043703195E+01  0.14681310149E+01  0.51100000000E-03 0.  1.
        -12    1    4    4    0    0 -0.39301542467E+02  0.19023758626E+01 -0.17899847169E+02  0.43227708739E+02  0.00000000000E+00 0.  1.
</event>
<event>
 8    1  0.3776180E-010  0.9118800E+02  0.7816164E-02  0.1184000E+00
        -11   -1    0    0    0    0  0.00000000000E+00  0.00000000000E+00  0.45593999997E+02  0.45594000000E+02  0.51100000000E-03 0.  1.
         11   -1    0    0    0    0 -0.00000000000E+00 -0.00000000000E+00 -0.45593999997E+02  0.45594000000E+02  0.51100000000E-03 0. -1.
         23    2    1    2    0    0  0.00000000000E+00 -0.35527136788E-14  0.00000000000E+00  0.91188000000E+02  0.91188000000E+02 0.  0.
    9900012    2    3    3    0    0 -0.32332459481E+02  0.28357719810E+02  0.58373890195E+01  0.47787270519E+02  0.19999997606E+02 0.  0.
        -12    1    3    3    0    0  0.32332459481E+02 -0.28357719810E+02 -0.58373890195E+01  0.43400729481E+02  0.00000000000E+00 0.  1.
         11    1    4    4    0    0  0.77398105952E+00  0.16502425874E+01  0.15225977447E+01  0.23750055645E+01  0.51100000000E-03 0. -1.
        -11    1    4    4    0    0 -0.14295386672E+02  0.25606630403E+01  0.26102104286E+01  0.14755618389E+02  0.51100000000E-03 0.  1.
        -12    1    4    4    0    0 -0.18811053868E+02  0.24146814182E+02  0.17045808461E+01  0.30656646566E+02  0.00000000000E+00 0.  1.
</event>
<event>
 8    1  0.3776180E-010  0.9118800E+02  0.7816164E-02  0.1184000E+00
        -11   -1    0    0    0    0  0.00000000000E+00  0.00000000000E+00  0.45593999997E+02  0.45594000000E+02  0.51100000000E-03 0. -1.
         11   -1    0    0    0    0 -0.00000000000E+00 -0.00000000000E+00 -0.45593999997E+02  0.45594000000E+02  0.51100000000E-03 0.  1.
         23    2    1    2    0    0  0.00000000000E+00  0.00000000000E+00 -0.71054273576E-14  0.91188000000E+02  0.91188000000E+02 0.  0.
    9900012    2    3    3    0    0 -0.28973031253E+02  0.29724481379E+01  0.32176879512E+02  0.47787267713E+02  0.19999984811E+02 0.  0.
        -12    1    3    3    0    0  0.28973031253E+02 -0.29724481379E+01 -0.32176879512E+02  0.43400732287E+02  0.00000000000E+00 0.  1.
         11    1    4    4    0    0 -0.69245123925E+01  0.86483589652E+00  0.11681692790E+02  0.13607305380E+02  0.51100000000E-03 0. -1.
        -11    1    4    4    0    0  0.10275315130E+01 -0.56353827714E+00 -0.16909305446E+01  0.20573387587E+01  0.51100000000E-03 0.  1.
        -12    1    4    4    0    0 -0.23076050374E+02  0.26711505185E+01  0.22186117266E+02  0.32122623574E+02  0.00000000000E+00 0.  1.
</event>
<event>
 8    1  0.3776180E-010  0.9118800E+02  0.7816164E-02  0.1184000E+00
        -11   -1    0    0    0    0  0.00000000000E+00  0.00000000000E+00  0.45593999997E+02  0.45594000000E+02  0.51100000000E-03 0. -1.
         11   -1    0    0    0    0 -0.00000000000E+00 -0.00000000000E+00 -0.45593999997E+02  0.45594000000E+02  0.51100000000E-03 0.  1.
         23    2    1    2    0    0  0.35527136788E-14 -0.71054273576E-14  0.35527136788E-14  0.91188000000E+02  0.91188000000E+02 0.  0.
    9900012    2    3    3    0    0 -0.20182666786E+02 -0.32142995165E+02  0.21050203209E+02  0.47787271528E+02  0.20000002203E+02 0.  0.
        -12    1    3    3    0    0  0.20182666786E+02  0.32142995165E+02 -0.21050203209E+02  0.43400728472E+02  0.00000000000E+00 0.  1.
         11    1    4    4    0    0  0.58042562053E-01 -0.47017281762E+01  0.56223720341E+01  0.73294395648E+01  0.51100000000E-03 0.  1.
        -11    1    4    4    0    0 -0.23470526867E+01 -0.83138158390E+01 -0.21644673428E+01  0.89057907711E+01  0.51100000000E-03 0. -1.
         12    1    4    4    0    0 -0.17893656662E+02 -0.19127451150E+02  0.17592298518E+02  0.31552041192E+02  0.00000000000E+00 0. -1.
</event>
<event>
 8    1  0.3776180E-010  0.9118800E+02  0.7816164E-02  0.1184000E+00
        -11   -1    0    0    0    0  0.00000000000E+00  0.00000000000E+00  0.45593999997E+02  0.45594000000E+02  0.51100000000E-03 0. -1.
         11   -1    0    0    0    0 -0.00000000000E+00 -0.00000000000E+00 -0.45593999997E+02  0.45594000000E+02  0.51100000000E-03 0.  1.
         23    2    1    2    0    0  0.00000000000E+00  0.22204460493E-15  0.00000000000E+00  0.91188000000E+02  0.91188000000E+02 0.  0.
    9900012    2    3    3    0    0  0.60834951107E+01 -0.13216279352E+01 -0.42951928908E+02  0.47787264867E+02  0.19999971836E+02 0.  0.
         12    1    3    3    0    0 -0.60834951107E+01  0.13216279352E+01  0.42951928908E+02  0.43400735133E+02  0.00000000000E+00 0. -1.
         11    1    4    4    0    0  0.30860277250E+01 -0.50147106841E+01 -0.10004325475E+02  0.11608506314E+02  0.51100000000E-03 0. -1.
        -11    1    4    4    0    0 -0.38904442170E+01  0.37046775930E+01 -0.25394780111E+02  0.25956791970E+02  0.51100000000E-03 0.  1.
         12    1    4    4    0    0  0.68879116027E+01 -0.11594844141E-01 -0.75528233220E+01  0.10221966583E+02  0.00000000000E+00 0. -1.
</event>
<event>
 8    1  0.3776180E-010  0.9118800E+02  0.7816164E-02  0.1184000E+00
        -11   -1    0    0    0    0  0.00000000000E+00  0.00000000000E+00  0.45593999997E+02  0.45594000000E+02  0.51100000000E-03 0. -1.
         11   -1    0    0    0    0 -0.00000000000E+00 -0.00000000000E+00 -0.45593999997E+02  0.45594000000E+02  0.51100000000E-03 0.  1.
         23    2    1    2    0    0  0.00000000000E+00  0.35527136788E-14  0.00000000000E+00  0.91188000000E+02  0.91188000000E+02 0.  0.
    9900012    2    3    3    0    0 -0.30098760952E+02 -0.27273252758E+02  0.15292401258E+02  0.47787271169E+02  0.20000000568E+02 0.  0.
        -12    1    3    3    0    0  0.30098760952E+02  0.27273252758E+02 -0.15292401258E+02  0.43400728831E+02  0.00000000000E+00 0.  1.
         11    1    4    4    0    0 -0.10921516301E+02 -0.14455347898E+02  0.23952077652E+01  0.18274945189E+02  0.51100000000E-03 0. -1.
        -11    1    4    4    0    0  0.14266853758E+00  0.30689137484E+00 -0.18560536681E+01  0.18866563301E+01  0.51100000000E-03 0.  1.
        -12    1    4    4    0    0 -0.19319913189E+02 -0.13124796234E+02  0.14753247161E+02  0.27625669650E+02  0.00000000000E+00 0.  1.
</event>
<event>
 8    1  0.3776180E-010  0.9118800E+02  0.7816164E-02  0.1184000E+00
        -11   -1    0    0    0    0  0.00000000000E+00  0.00000000000E+00  0.45593999997E+02  0.45594000000E+02  0.51100000000E-03 0. -1.
         11   -1    0    0    0    0 -0.00000000000E+00 -0.00000000000E+00 -0.45593999997E+02  0.45594000000E+02  0.51100000000E-03 0.  1.
         23    2    1    2    0    0  0.88817841970E-15  0.35527136788E-14  0.71054273576E-14  0.91188000000E+02  0.91188000000E+02 0.  0.
    9900012    2    3    3    0    0  0.62677410298E+01  0.23278457074E+02  0.36089503566E+02  0.47787269487E+02  0.19999992901E+02 0.  0.
        -12    1    3    3    0    0 -0.62677410298E+01 -0.23278457074E+02 -0.36089503566E+02  0.43400730513E+02  0.00000000000E+00 0.  1.
         11    1    4    4    0    0 -0.18500219422E+01  0.59108330928E+01  0.10910375466E+01  0.62889500098E+01  0.51100000000E-03 0. -1.
        -11    1    4    4    0    0  0.14359783176E+01  0.13130240892E+02  0.14972505633E+02  0.19966000721E+02  0.51100000000E-03 0.  1.
         12    1    4    4    0    0  0.66817846543E+01  0.42373830893E+01  0.20025960387E+02  0.21532318757E+02  0.00000000000E+00 0. -1.
</event>
<event>
 8    1  0.3776180E-010  0.9118800E+02  0.7816164E-02  0.1184000E+00
        -11   -1    0    0    0    0  0.00000000000E+00  0.00000000000E+00  0.45593999997E+02  0.45594000000E+02  0.51100000000E-03 0. -1.
         11   -1    0    0    0    0 -0.00000000000E+00 -0.00000000000E+00 -0.45593999997E+02  0.45594000000E+02  0.51100000000E-03 0.  1.
         23    2    1    2    0    0  0.00000000000E+00 -0.88817841970E-15  0.00000000000E+00  0.91188000000E+02  0.91188000000E+02 0.  0.
    9900012    2    3    3    0    0  0.15614714532E+02 -0.60823331347E+01  0.40035097977E+02  0.47787272399E+02  0.20000006175E+02 0.  0.
        -12    1    3    3    0    0 -0.15614714532E+02  0.60823331347E+01 -0.40035097977E+02  0.43400727601E+02  0.00000000000E+00 0.  1.
         11    1    4    4    0    0  0.23853042634E+01  0.40067583949E+01  0.30155084914E+01  0.55531145303E+01  0.51100000000E-03 0. -1.
        -11    1    4    4    0    0 -0.16127426858E+01 -0.11458826604E+01  0.90094214229E+00  0.21738636219E+01  0.51100000000E-03 0.  1.
         12    1    4    4    0    0  0.14842152954E+02 -0.89432088693E+01  0.36118647343E+02  0.40060294247E+02  0.00000000000E+00 0. -1.
</event>
<event>
 8    1  0.5586846E-010  0.9118800E+02  0.7816164E-02  0.1184000E+00
        -11   -1    0    0    0    0  0.00000000000E+00  0.00000000000E+00  0.45593999997E+02  0.45594000000E+02  0.51100000000E-03 0. -1.
         11   -1    0    0    0    0 -0.00000000000E+00 -0.00000000000E+00 -0.45593999997E+02  0.45594000000E+02  0.51100000000E-03 0.  1.
         23    2    1    2    0    0  0.00000000000E+00  0.00000000000E+00  0.00000000000E+00  0.91188000000E+02  0.91188000000E+02 0.  0.
    9900012    2    3    3    0    0 -0.98475208366E+01  0.10312828879E+01  0.42256194685E+02  0.47787271892E+02  0.20000003866E+02 0.  0.
        -12    1    3    3    0    0  0.98475208366E+01 -0.10312828879E+01 -0.42256194685E+02  0.43400728108E+02  0.00000000000E+00 0.  1.
         11    1    4    4    0    0  0.10406895615E+01 -0.15752973859E+01  0.18461397568E+02  0.18557688354E+02  0.51100000000E-03 0.  1.
        -11    1    4    4    0    0 -0.45287953712E+01  0.96937778845E+00  0.21915012789E+02  0.22399050574E+02  0.51100000000E-03 0. -1.
        -12    1    4    4    0    0 -0.63594150269E+01  0.16372024853E+01  0.18797843281E+01  0.68305329647E+01  0.00000000000E+00 0.  1.
</event>
<event>
 8    1  0.3776180E-010  0.9118800E+02  0.7816164E-02  0.1184000E+00
        -11   -1    0    0    0    0  0.00000000000E+00  0.00000000000E+00  0.45593999997E+02  0.45594000000E+02  0.51100000000E-03 0. -1.
         11   -1    0    0    0    0 -0.00000000000E+00 -0.00000000000E+00 -0.45593999997E+02  0.45594000000E+02  0.51100000000E-03 0.  1.
         23    2    1    2    0    0  0.71054273576E-14  0.22204460493E-14  0.35527136788E-14  0.91188000000E+02  0.91188000000E+02 0.  0.
    9900012    2    3    3    0    0 -0.38018619231E+02 -0.28772700611E+01 -0.20734730208E+02  0.47787272725E+02  0.20000007661E+02 0.  0.
         12    1    3    3    0    0  0.38018619231E+02  0.28772700611E+01  0.20734730208E+02  0.43400727275E+02  0.00000000000E+00 0. -1.
         11    1    4    4    0    0 -0.57700038405E+01 -0.26794672692E+01 -0.44743766411E+01  0.77776947583E+01  0.51100000000E-03 0.  1.
        -11    1    4    4    0    0 -0.23961055351E+02 -0.71308120693E+01 -0.75030150516E+01  0.26101262219E+02  0.51100000000E-03 0. -1.
         12    1    4    4    0    0 -0.82875600390E+01  0.69330092774E+01 -0.87573385156E+01  0.13908315747E+02  0.00000000000E+00 0. -1.
</event>
<event>
 8    1  0.3937189E-010  0.9118800E+02  0.7816164E-02  0.1184000E+00
        -11   -1    0    0    0    0  0.00000000000E+00  0.00000000000E+00  0.45593999997E+02  0.45594000000E+02  0.51100000000E-03 0. -1.
         11   -1    0    0    0    0 -0.00000000000E+00 -0.00000000000E+00 -0.45593999997E+02  0.45594000000E+02  0.51100000000E-03 0.  1.
         23    2    1    2    0    0  0.00000000000E+00  0.17763568394E-14  0.00000000000E+00  0.91188000000E+02  0.91188000000E+02 0.  0.
    9900012    2    3    3    0    0 -0.24013092683E+02  0.14856759494E+02  0.32958631214E+02  0.47787270808E+02  0.19999998923E+02 0.  0.
        -12    1    3    3    0    0  0.24013092683E+02 -0.14856759494E+02 -0.32958631214E+02  0.43400729192E+02  0.00000000000E+00 0.  1.
         11    1    4    4    0    0 -0.11377065389E+02  0.11863436437E+02  0.21802308729E+02  0.27304201273E+02  0.51100000000E-03 0.  1.
        -11    1    4    4    0    0 -0.81345093798E+01 -0.49702717896E-01  0.12473955615E+02  0.14892020755E+02  0.51100000000E-03 0. -1.
        -12    1    4    4    0    0 -0.45015179145E+01  0.30430257750E+01 -0.13176331304E+01  0.55910487807E+01  0.00000000000E+00 0.  1.
</event>
<event>
 8    1  0.3776180E-010  0.9118800E+02  0.7816164E-02  0.1184000E+00
        -11   -1    0    0    0    0  0.00000000000E+00  0.00000000000E+00  0.45593999997E+02  0.45594000000E+02  0.51100000000E-03 0. -1.
         11   -1    0    0    0    0 -0.00000000000E+00 -0.00000000000E+00 -0.45593999997E+02  0.45594000000E+02  0.51100000000E-03 0.  1.
         23    2    1    2    0    0  0.00000000000E+00  0.00000000000E+00  0.35527136788E-14  0.91188000000E+02  0.91188000000E+02 0.  0.
    9900012    2    3    3    0    0  0.19523475876E+02 -0.25396053789E+02  0.29283062117E+02  0.47787269761E+02  0.19999994148E+02 0.  0.
        -12    1    3    3    0    0 -0.19523475876E+02  0.25396053789E+02 -0.29283062117E+02  0.43400730239E+02  0.00000000000E+00 0.  1.
         11    1    4    4    0    0  0.21577950998E+01 -0.92660376189E+01  0.58125730780E+01  0.11149060001E+02  0.51100000000E-03 0. -1.
        -11    1    4    4    0    0  0.15539887007E+02 -0.74227541158E+01  0.21462655755E+02  0.27517829842E+02  0.51100000000E-03 0.  1.
        -12    1    4    4    0    0  0.18257937692E+01 -0.87072620543E+01  0.20078332834E+01  0.91203799189E+01  0.00000000000E+00 0.  1.
</event>
<event>
 8    1  0.3776180E-010  0.9118800E+02  0.7816164E-02  0.1184000E+00
        -11   -1    0    0    0    0  0.00000000000E+00  0.00000000000E+00  0.45593999997E+02  0.45594000000E+02  0.51100000000E-03 0. -1.
         11   -1    0    0    0    0 -0.00000000000E+00 -0.00000000000E+00 -0.45593999997E+02  0.45594000000E+02  0.51100000000E-03 0.  1.
         23    2    1    2    0    0 -0.71054273576E-14  0.44408920985E-15  0.00000000000E+00  0.91188000000E+02  0.91188000000E+02 0.  0.
    9900012    2    3    3    0    0 -0.39000885199E+02  0.36524820861E+01 -0.18687262562E+02  0.47787268973E+02  0.19999990553E+02 0.  0.
         12    1    3    3    0    0  0.39000885199E+02 -0.36524820861E+01  0.18687262562E+02  0.43400731027E+02  0.00000000000E+00 0. -1.
         11    1    4    4    0    0 -0.52317836471E+00 -0.12190770705E+01 -0.15561597263E+01  0.20448711108E+01  0.51100000000E-03 0. -1.
        -11    1    4    4    0    0 -0.13078712400E+01  0.38090606668E+01 -0.54286462337E+01  0.67594134756E+01  0.51100000000E-03 0.  1.
         12    1    4    4    0    0 -0.37169835594E+02  0.10624984898E+01 -0.11702456602E+02  0.38982984386E+02  0.00000000000E+00 0. -1.
</event>
<event>
 8    1  0.3776180E-010  0.9118800E+02  0.7816164E-02  0.1184000E+00
        -11   -1    0    0    0    0  0.00000000000E+00  0.00000000000E+00  0.45593999997E+02  0.45594000000E+02  0.51100000000E-03 0. -1.
         11   -1    0    0    0    0 -0.00000000000E+00 -0.00000000000E+00 -0.45593999997E+02  0.45594000000E+02  0.51100000000E-03 0.  1.
         23    2    1    2    0    0  0.35527136788E-14  0.00000000000E+00 -0.71054273576E-14  0.91188000000E+02  0.91188000000E+02 0.  0.
    9900012    2    3    3    0    0 -0.22564202458E+02  0.24639111508E+02  0.27701882688E+02  0.47787270134E+02  0.19999995848E+02 0.  0.
        -12    1    3    3    0    0  0.22564202458E+02 -0.24639111508E+02 -0.27701882688E+02  0.43400729866E+02  0.00000000000E+00 0.  1.
         11    1    4    4    0    0 -0.76974437736E+01  0.10282970848E+02  0.44896654542E+01  0.13606881577E+02  0.51100000000E-03 0. -1.
        -11    1    4    4    0    0 -0.29130906358E+01 -0.40392382964E+00 -0.12623969405E+01  0.32004527506E+01  0.51100000000E-03 0.  1.
         12    1    4    4    0    0 -0.11953668049E+02  0.14760064490E+02  0.24474614174E+02  0.30979935806E+02  0.00000000000E+00 0. -1.
</event>
<event>
 8    1  0.3776180E-010  0.9118800E+02  0.7816164E-02  0.1184000E+00
        -11   -1    0    0    0    0  0.00000000000E+00  0.00000000000E+00  0.45593999997E+02  0.45594000000E+02  0.51100000000E-03 0. -1.
         11   -1    0    0    0    0 -0.00000000000E+00 -0.00000000000E+00 -0.45593999997E+02  0.45594000000E+02  0.51100000000E-03 0.  1.
         23    2    1    2    0    0  0.00000000000E+00 -0.17763568394E-14  0.00000000000E+00  0.91188000000E+02  0.91188000000E+02 0.  0.
    9900012    2    3    3    0    0 -0.12748659165E+02  0.15847148770E+02 -0.38340097924E+02  0.47787267939E+02  0.19999985840E+02 0.  0.
         12    1    3    3    0    0  0.12748659165E+02 -0.15847148770E+02  0.38340097924E+02  0.43400732061E+02  0.00000000000E+00 0. -1.
         11    1    4    4    0    0 -0.25752031100E+01  0.16146974696E+02 -0.20225285375E+02  0.26008049363E+02  0.51100000000E-03 0. -1.
        -11    1    4    4    0    0 -0.92270610154E-01 -0.13404129729E+01 -0.45611181114E+00  0.14188936003E+01  0.51100000000E-03 0.  1.
        -12    1    4    4    0    0 -0.10081185445E+02  0.10405870469E+01 -0.17658700737E+02  0.20360324976E+02  0.00000000000E+00 0.  1.
</event>
<event>
 8    1  0.3776180E-010  0.9118800E+02  0.7816164E-02  0.1184000E+00
        -11   -1    0    0    0    0  0.00000000000E+00  0.00000000000E+00  0.45593999997E+02  0.45594000000E+02  0.51100000000E-03 0. -1.
         11   -1    0    0    0    0 -0.00000000000E+00 -0.00000000000E+00 -0.45593999997E+02  0.45594000000E+02  0.51100000000E-03 0.  1.
         23    2    1    2    0    0  0.35527136788E-14  0.00000000000E+00  0.00000000000E+00  0.91188000000E+02  0.91188000000E+02 0.  0.
    9900012    2    3    3    0    0 -0.22677612771E+02  0.32571584340E+02  0.17562494203E+02  0.47787269245E+02  0.19999991798E+02 0.  0.
        -12    1    3    3    0    0  0.22677612771E+02 -0.32571584340E+02 -0.17562494203E+02  0.43400730755E+02  0.00000000000E+00 0.  1.
         11    1    4    4    0    0 -0.23208028679E+00  0.10180236635E+02  0.84369548157E+01  0.13223966350E+02  0.51100000000E-03 0. -1.
        -11    1    4    4    0    0 -0.85668318037E+01  0.68018688326E+01  0.81992175962E+01  0.13670522895E+02  0.51100000000E-03 0.  1.
        -12    1    4    4    0    0 -0.13878700681E+02  0.15589478872E+02  0.92632179091E+00  0.20892780001E+02  0.00000000000E+00 0.  1.
</event>
<event>
 8    1  0.3776180E-010  0.9118800E+02  0.7816164E-02  0.1184000E+00
        -11   -1    0    0    0    0  0.00000000000E+00  0.00000000000E+00  0.45593999997E+02  0.45594000000E+02  0.51100000000E-03 0. -1.
         11   -1    0    0    0    0 -0.00000000000E+00 -0.00000000000E+00 -0.45593999997E+02  0.45594000000E+02  0.51100000000E-03 0.  1.
         23    2    1    2    0    0  0.35527136788E-14  0.00000000000E+00  0.00000000000E+00  0.91188000000E+02  0.91188000000E+02 0.  0.
    9900012    2    3    3    0    0  0.27718122954E+02 -0.85754653297E+01 -0.32276809877E+02  0.47787246533E+02  0.19999888241E+02 0.  0.
         12    1    3    3    0    0 -0.27718122954E+02  0.85754653297E+01  0.32276809877E+02  0.43400753467E+02  0.00000000000E+00 0. -1.
         11    1    4    4    0    0 -0.70805701400E+00  0.21203554631E+01 -0.94711130877E+01  0.97313532156E+01  0.51100000000E-03 0. -1.
        -11    1    4    4    0    0  0.54420792491E+01 -0.28421171350E+01 -0.38634249342E+01  0.72539581503E+01  0.51100000000E-03 0.  1.
        -12    1    4    4    0    0  0.22984100719E+02 -0.78537036577E+01 -0.18942271855E+02  0.30801935167E+02  0.00000000000E+00 0.  1.
</event>
<event>
 8    1  0.3776180E-010  0.9118800E+02  0.7816164E-02  0.1184000E+00
        -11   -1    0    0    0    0  0.00000000000E+00  0.00000000000E+00  0.45593999997E+02  0.45594000000E+02  0.51100000000E-03 0. -1.
         11   -1    0    0    0    0 -0.00000000000E+00 -0.00000000000E+00 -0.45593999997E+02  0.45594000000E+02  0.51100000000E-03 0.  1.
         23    2    1    2    0    0 -0.88817841970E-15  0.35527136788E-14  0.00000000000E+00  0.91188000000E+02  0.91188000000E+02 0.  0.
    9900012    2    3    3    0    0  0.82937634677E+00 -0.20448017929E+02 -0.38272895483E+02  0.47787264626E+02  0.19999970735E+02 0.  0.
         12    1    3    3    0    0 -0.82937634677E+00  0.20448017929E+02  0.38272895483E+02  0.43400735374E+02  0.00000000000E+00 0. -1.
         11    1    4    4    0    0  0.10874334208E+01 -0.13811602646E+01 -0.84728787888E-01  0.17599131654E+01  0.51100000000E-03 0. -1.
        -11    1    4    4    0    0  0.50446598348E+01 -0.60301881513E+01 -0.26780901032E+02  0.27911080638E+02  0.51100000000E-03 0.  1.
        -12    1    4    4    0    0 -0.53027169089E+01 -0.13036669514E+02 -0.11407265663E+02  0.18116270823E+02  0.00000000000E+00 0.  1.
</event>
<event>
 8    1  0.3776180E-010  0.9118800E+02  0.7816164E-02  0.1184000E+00
        -11   -1    0    0    0    0  0.00000000000E+00  0.00000000000E+00  0.45593999997E+02  0.45594000000E+02  0.51100000000E-03 0. -1.
         11   -1    0    0    0    0 -0.00000000000E+00 -0.00000000000E+00 -0.45593999997E+02  0.45594000000E+02  0.51100000000E-03 0.  1.
         23    2    1    2    0    0  0.00000000000E+00  0.00000000000E+00  0.00000000000E+00  0.91188000000E+02  0.91188000000E+02 0.  0.
    9900012    2    3    3    0    0 -0.11662276616E+02  0.79327084505E+01 -0.41044924569E+02  0.47787281203E+02  0.20000046317E+02 0.  0.
         12    1    3    3    0    0  0.11662276616E+02 -0.79327084505E+01  0.41044924569E+02  0.43400718797E+02  0.00000000000E+00 0. -1.
         11    1    4    4    0    0 -0.33536922008E-03  0.27481750773E+01 -0.31873495053E+02  0.31991751336E+02  0.51100000000E-03 0. -1.
        -11    1    4    4    0    0 -0.27665352824E+01  0.11815055085E+01 -0.30237216569E+01  0.42652743939E+01  0.51100000000E-03 0.  1.
         12    1    4    4    0    0 -0.88954059646E+01  0.40030278646E+01 -0.61477078589E+01  0.11530255473E+02  0.00000000000E+00 0. -1.
</event>
<event>
 8    1  0.3776180E-010  0.9118800E+02  0.7816164E-02  0.1184000E+00
        -11   -1    0    0    0    0  0.00000000000E+00  0.00000000000E+00  0.45593999997E+02  0.45594000000E+02  0.51100000000E-03 0. -1.
         11   -1    0    0    0    0 -0.00000000000E+00 -0.00000000000E+00 -0.45593999997E+02  0.45594000000E+02  0.51100000000E-03 0.  1.
         23    2    1    2    0    0  0.35527136788E-14  0.00000000000E+00 -0.88817841970E-15  0.91188000000E+02  0.91188000000E+02 0.  0.
    9900012    2    3    3    0    0 -0.23687064573E+02  0.36364470181E+02 -0.41431919002E+00  0.47787269821E+02  0.19999994424E+02 0.  0.
        -12    1    3    3    0    0  0.23687064573E+02 -0.36364470181E+02  0.41431919002E+00  0.43400730179E+02  0.00000000000E+00 0.  1.
         11    1    4    4    0    0 -0.88231687277E+01  0.20476290012E+02 -0.16855595607E+01  0.22359961323E+02  0.51100000000E-03 0. -1.
        -11    1    4    4    0    0 -0.35040539136E+00  0.28470815479E+01 -0.42698293183E+01  0.51439381749E+01  0.51100000000E-03 0.  1.
        -12    1    4    4    0    0 -0.14513490453E+02  0.13041098621E+02  0.55410696890E+01  0.20283370324E+02  0.00000000000E+00 0.  1.
</event>
<event>
 8    1  0.3776180E-010  0.9118800E+02  0.7816164E-02  0.1184000E+00
        -11   -1    0    0    0    0  0.00000000000E+00  0.00000000000E+00  0.45593999997E+02  0.45594000000E+02  0.51100000000E-03 0. -1.
         11   -1    0    0    0    0 -0.00000000000E+00 -0.00000000000E+00 -0.45593999997E+02  0.45594000000E+02  0.51100000000E-03 0.  1.
         23    2    1    2    0    0  0.00000000000E+00  0.00000000000E+00  0.00000000000E+00  0.91188000000E+02  0.91188000000E+02 0.  0.
    9900012    2    3    3    0    0  0.48320038204E+01 -0.17249784808E+02 -0.39531249631E+02  0.47787273806E+02  0.20000012590E+02 0.  0.
         12    1    3    3    0    0 -0.48320038204E+01  0.17249784808E+02  0.39531249631E+02  0.43400726194E+02  0.00000000000E+00 0. -1.
         11    1    4    4    0    0  0.29016392373E+01 -0.49623588790E+01 -0.13943349288E+02  0.15081826996E+02  0.51100000000E-03 0. -1.
        -11    1    4    4    0    0  0.65141636546E+01 -0.12515241622E+02 -0.24016870683E+02  0.27854545027E+02  0.51100000000E-03 0.  1.
         12    1    4    4    0    0 -0.45837990715E+01  0.22781569302E+00 -0.15710296593E+01  0.48509017830E+01  0.00000000000E+00 0. -1.
</event>
<event>
 8    1  0.3776180E-010  0.9118800E+02  0.7816164E-02  0.1184000E+00
        -11   -1    0    0    0    0  0.00000000000E+00  0.00000000000E+00  0.45593999997E+02  0.45594000000E+02  0.51100000000E-03 0. -1.
         11   -1    0    0    0    0 -0.00000000000E+00 -0.00000000000E+00 -0.45593999997E+02  0.45594000000E+02  0.51100000000E-03 0.  1.
         23    2    1    2    0    0  0.00000000000E+00  0.00000000000E+00  0.00000000000E+00  0.91188000000E+02  0.91188000000E+02 0.  0.
    9900012    2    3    3    0    0  0.10055644315E+02 -0.23775453739E+02  0.34888866324E+02  0.47787295208E+02  0.20000110171E+02 0.  0.
        -12    1    3    3    0    0 -0.10055644315E+02  0.23775453739E+02 -0.34888866324E+02  0.43400704792E+02  0.00000000000E+00 0.  1.
         11    1    4    4    0    0  0.68092684923E+00 -0.31539104341E-01  0.20495953605E+01  0.21599762712E+01  0.51100000000E-03 0. -1.
        -11    1    4    4    0    0 -0.46512261207E+01 -0.13807305107E+01  0.26639644353E+01  0.55350725328E+01  0.51100000000E-03 0.  1.
         12    1    4    4    0    0  0.14025943586E+02 -0.22363184124E+02  0.30175306528E+02  0.40092246404E+02  0.00000000000E+00 0. -1.
</event>
<event>
 8    1  0.3776180E-010  0.9118800E+02  0.7816164E-02  0.1184000E+00
        -11   -1    0    0    0    0  0.00000000000E+00  0.00000000000E+00  0.45593999997E+02  0.45594000000E+02  0.51100000000E-03 0. -1.
         11   -1    0    0    0    0 -0.00000000000E+00 -0.00000000000E+00 -0.45593999997E+02  0.45594000000E+02  0.51100000000E-03 0.  1.
         23    2    1    2    0    0  0.00000000000E+00  0.00000000000E+00  0.00000000000E+00  0.91188000000E+02  0.91188000000E+02 0.  0.
    9900012    2    3    3    0    0  0.32129928565E+02  0.16154295108E+02 -0.24296728430E+02  0.47787256085E+02  0.19999931792E+02 0.  0.
         12    1    3    3    0    0 -0.32129928565E+02 -0.16154295108E+02  0.24296728430E+02  0.43400743915E+02  0.00000000000E+00 0. -1.
         11    1    4    4    0    0 -0.45420532689E+00  0.29106510738E+01  0.16737653948E+01  0.33881680907E+01  0.51100000000E-03 0. -1.
        -11    1    4    4    0    0  0.52022108107E+01  0.33981166208E+01 -0.15318988603E+01  0.63997584538E+01  0.51100000000E-03 0.  1.
        -12    1    4    4    0    0  0.27381923081E+02  0.98455274129E+01 -0.24438594965E+02  0.37999329540E+02  0.00000000000E+00 0.  1.
</event>
<event>
 8    1  0.3776180E-010  0.9118800E+02  0.7816164E-02  0.1184000E+00
        -11   -1    0    0    0    0  0.00000000000E+00  0.00000000000E+00  0.45593999997E+02  0.45594000000E+02  0.51100000000E-03 0. -1.
         11   -1    0    0    0    0 -0.00000000000E+00 -0.00000000000E+00 -0.45593999997E+02  0.45594000000E+02  0.51100000000E-03 0.  1.
         23    2    1    2    0    0  0.00000000000E+00  0.00000000000E+00  0.00000000000E+00  0.91188000000E+02  0.91188000000E+02 0.  0.
    9900012    2    3    3    0    0 -0.24015532228E+02  0.77463257914E+01 -0.35311070428E+02  0.47787273667E+02  0.20000011957E+02 0.  0.
         12    1    3    3    0    0  0.24015532228E+02 -0.77463257914E+01  0.35311070428E+02  0.43400726333E+02  0.00000000000E+00 0. -1.
         11    1    4    4    0    0  0.15738218757E+01 -0.19590644922E+01 -0.20711662723E+01  0.32564672529E+01  0.51100000000E-03 0. -1.
        -11    1    4    4    0    0 -0.12139826513E+01  0.21714876293E+01  0.16982193670E+00  0.24935821930E+01  0.51100000000E-03 0.  1.
        -12    1    4    4    0    0 -0.24375371453E+02  0.75339026542E+01 -0.33409726092E+02  0.42037224221E+02  0.00000000000E+00 0.  1.
</event>
<event>
 8    1  0.3776180E-010  0.9118800E+02  0.7816164E-02  0.1184000E+00
        -11   -1    0    0    0    0  0.00000000000E+00  0.00000000000E+00  0.45593999997E+02  0.45594000000E+02  0.51100000000E-03 0. -1.
         11   -1    0    0    0    0 -0.00000000000E+00 -0.00000000000E+00 -0.45593999997E+02  0.45594000000E+02  0.51100000000E-03 0.  1.
         23    2    1    2    0    0  0.00000000000E+00  0.00000000000E+00 -0.71054273576E-14  0.91188000000E+02  0.91188000000E+02 0.  0.
    9900012    2    3    3    0    0  0.26923577735E+02  0.49034530926E+01 -0.33685315143E+02  0.47787270207E+02  0.19999996181E+02 0.  0.
         12    1    3    3    0    0 -0.26923577735E+02 -0.49034530926E+01  0.33685315143E+02  0.43400729793E+02  0.00000000000E+00 0. -1.
         11    1    4    4    0    0  0.67129921639E+01 -0.28824118750E+01 -0.77148988654E+01  0.10625075377E+02  0.51100000000E-03 0. -1.
        -11    1    4    4    0    0  0.57823029631E+01 -0.36495530320E+01 -0.12846428354E+02  0.14552834316E+02  0.51100000000E-03 0.  1.
         12    1    4    4    0    0  0.14428282608E+02  0.11435418000E+02 -0.13123987923E+02  0.22609360514E+02  0.00000000000E+00 0. -1.
</event>
<event>
 8    1  0.3776180E-010  0.9118800E+02  0.7816164E-02  0.1184000E+00
        -11   -1    0    0    0    0  0.00000000000E+00  0.00000000000E+00  0.45593999997E+02  0.45594000000E+02  0.51100000000E-03 0. -1.
         11   -1    0    0    0    0 -0.00000000000E+00 -0.00000000000E+00 -0.45593999997E+02  0.45594000000E+02  0.51100000000E-03 0.  1.
         23    2    1    2    0    0 -0.17763568394E-14  0.35527136788E-14  0.00000000000E+00  0.91188000000E+02  0.91188000000E+02 0.  0.
    9900012    2    3    3    0    0 -0.63752352075E+01  0.16503897333E+02 -0.39630810026E+02  0.47787270116E+02  0.19999995768E+02 0.  0.
         12    1    3    3    0    0  0.63752352075E+01 -0.16503897333E+02  0.39630810026E+02  0.43400729884E+02  0.00000000000E+00 0. -1.
         11    1    4    4    0    0  0.59567856323E+00  0.18756322353E+01 -0.89958814184E+00  0.21638133743E+01  0.51100000000E-03 0. -1.
        -11    1    4    4    0    0  0.12816729509E+01 -0.37160939277E+01 -0.76528940942E+01  0.86034195476E+01  0.51100000000E-03 0.  1.
        -12    1    4    4    0    0 -0.82525867216E+01  0.18344359026E+02 -0.31078327790E+02  0.37020037194E+02  0.00000000000E+00 0.  1.
</event>
<event>
 8    1  0.3776180E-010  0.9118800E+02  0.7816164E-02  0.1184000E+00
        -11   -1    0    0    0    0  0.00000000000E+00  0.00000000000E+00  0.45593999997E+02  0.45594000000E+02  0.51100000000E-03 0. -1.
         11   -1    0    0    0    0 -0.00000000000E+00 -0.00000000000E+00 -0.45593999997E+02  0.45594000000E+02  0.51100000000E-03 0.  1.
         23    2    1    2    0    0  0.00000000000E+00  0.17763568394E-14  0.00000000000E+00  0.91188000000E+02  0.91188000000E+02 0.  0.
    9900012    2    3    3    0    0  0.19763114251E+02 -0.84554660912E+01  0.37703421091E+02  0.47787267820E+02  0.19999985300E+02 0.  0.
        -12    1    3    3    0    0 -0.19763114251E+02  0.84554660912E+01 -0.37703421091E+02  0.43400732180E+02  0.00000000000E+00 0.  1.
         11    1    4    4    0    0  0.32463129407E+01 -0.81331205462E+01  0.16837690400E+02  0.18978778038E+02  0.51100000000E-03 0. -1.
        -11    1    4    4    0    0 -0.72783829472E+00  0.50486996344E+00 -0.73858499216E+00  0.11533214274E+01  0.51100000000E-03 0.  1.
         12    1    4    4    0    0  0.17244639605E+02 -0.82721550842E+00  0.21604315683E+02  0.27655168355E+02  0.00000000000E+00 0. -1.
</event>
<event>
 8    1  0.3776180E-010  0.9118800E+02  0.7816164E-02  0.1184000E+00
        -11   -1    0    0    0    0  0.00000000000E+00  0.00000000000E+00  0.45593999997E+02  0.45594000000E+02  0.51100000000E-03 0. -1.
         11   -1    0    0    0    0 -0.00000000000E+00 -0.00000000000E+00 -0.45593999997E+02  0.45594000000E+02  0.51100000000E-03 0.  1.
         23    2    1    2    0    0 -0.71054273576E-14 -0.17763568394E-14 -0.17763568394E-14  0.91188000000E+02  0.91188000000E+02 0.  0.
    9900012    2    3    3    0    0  0.40423645668E+02  0.11146681156E+02  0.11193904080E+02  0.47787272835E+02  0.20000008166E+02 0.  0.
        -12    1    3    3    0    0 -0.40423645668E+02 -0.11146681156E+02 -0.11193904080E+02  0.43400727165E+02  0.00000000000E+00 0.  1.
         11    1    4    4    0    0  0.15021643843E+02  0.21757249319E+01 -0.46613856828E+00  0.15185547345E+02  0.51100000000E-03 0. -1.
        -11    1    4    4    0    0  0.15788912442E+02  0.29077754595E+01 -0.36097527710E+00  0.16058493629E+02  0.51100000000E-03 0.  1.
         12    1    4    4    0    0  0.96130893826E+01  0.60631807648E+01  0.12021017926E+02  0.16543231862E+02  0.00000000000E+00 0. -1.
</event>
<event>
 8    1  0.3776180E-010  0.9118800E+02  0.7816164E-02  0.1184000E+00
        -11   -1    0    0    0    0  0.00000000000E+00  0.00000000000E+00  0.45593999997E+02  0.45594000000E+02  0.51100000000E-03 0. -1.
         11   -1    0    0    0    0 -0.00000000000E+00 -0.00000000000E+00 -0.45593999997E+02  0.45594000000E+02  0.51100000000E-03 0.  1.
         23    2    1    2    0    0  0.00000000000E+00  0.11102230246E-14  0.00000000000E+00  0.91188000000E+02  0.91188000000E+02 0.  0.
    9900012    2    3    3    0    0  0.34222133656E+02  0.17556983107E+01  0.26634315983E+02  0.47787266177E+02  0.19999977807E+02 0.  0.
        -12    1    3    3    0    0 -0.34222133656E+02 -0.17556983107E+01 -0.26634315983E+02  0.43400733823E+02  0.00000000000E+00 0.  1.
         11    1    4    4    0    0  0.13844970668E+02  0.18463411488E+01  0.70943045727E+01  0.15665929467E+02  0.51100000000E-03 0. -1.
        -11    1    4    4    0    0  0.84177531221E+01  0.26388890309E+01 -0.26430689003E+00  0.88256535925E+01  0.51100000000E-03 0.  1.
        -12    1    4    4    0    0  0.11959409865E+02 -0.27295318690E+01  0.19804318300E+02  0.23295683117E+02  0.00000000000E+00 0.  1.
</event>
<event>
 8    1  0.3776180E-010  0.9118800E+02  0.7816164E-02  0.1184000E+00
        -11   -1    0    0    0    0  0.00000000000E+00  0.00000000000E+00  0.45593999997E+02  0.45594000000E+02  0.51100000000E-03 0. -1.
         11   -1    0    0    0    0 -0.00000000000E+00 -0.00000000000E+00 -0.45593999997E+02  0.45594000000E+02  0.51100000000E-03 0.  1.
         23    2    1    2    0    0  0.00000000000E+00 -0.17763568394E-14  0.00000000000E+00  0.91188000000E+02  0.91188000000E+02 0.  0.
    9900012    2    3    3    0    0  0.18784301192E+02  0.69834506507E+01 -0.38496817139E+02  0.47787268623E+02  0.19999988958E+02 0.  0.
         12    1    3    3    0    0 -0.18784301192E+02 -0.69834506507E+01  0.38496817139E+02  0.43400731377E+02  0.00000000000E+00 0. -1.
         11    1    4    4    0    0  0.37452880174E+01  0.77236102061E+01 -0.15158434889E+02  0.17420088562E+02  0.51100000000E-03 0. -1.
        -11    1    4    4    0    0  0.81331896002E+01  0.57398679825E+01 -0.11639623789E+02  0.15315864316E+02  0.51100000000E-03 0.  1.
        -12    1    4    4    0    0  0.69058235739E+01 -0.64800275379E+01 -0.11698758461E+02  0.15051315745E+02  0.00000000000E+00 0.  1.
</event>
<event>
 8    1  0.3776180E-010  0.9118800E+02  0.7816164E-02  0.1184000E+00
        -11   -1    0    0    0    0  0.00000000000E+00  0.00000000000E+00  0.45593999997E+02  0.45594000000E+02  0.51100000000E-03 0.  1.
         11   -1    0    0    0    0 -0.00000000000E+00 -0.00000000000E+00 -0.45593999997E+02  0.45594000000E+02  0.51100000000E-03 0. -1.
         23    2    1    2    0    0 -0.35527136788E-14  0.71054273576E-14 -0.83266726847E-15  0.91188000000E+02  0.91188000000E+02 0.  0.
    9900012    2    3    3    0    0 -0.26375455019E+02  0.34465156074E+02  0.33392747517E+00  0.47787272837E+02  0.20000008175E+02 0.  0.
        -12    1    3    3    0    0  0.26375455019E+02 -0.34465156074E+02 -0.33392747517E+00  0.43400727163E+02  0.00000000000E+00 0.  1.
         11    1    4    4    0    0 -0.13726276858E+02  0.19645590599E+02 -0.75579241186E+01  0.25129308061E+02  0.51100000000E-03 0. -1.
        -11    1    4    4    0    0 -0.80385926815E+01  0.46356476051E+01  0.57478851529E+00  0.92972352404E+01  0.51100000000E-03 0.  1.
        -12    1    4    4    0    0 -0.46105854791E+01  0.10183917871E+02  0.73170630784E+01  0.13360729536E+02  0.00000000000E+00 0.  1.
</event>
<event>
 8    1  0.3776180E-010  0.9118800E+02  0.7816164E-02  0.1184000E+00
        -11   -1    0    0    0    0  0.00000000000E+00  0.00000000000E+00  0.45593999997E+02  0.45594000000E+02  0.51100000000E-03 0. -1.
         11   -1    0    0    0    0 -0.00000000000E+00 -0.00000000000E+00 -0.45593999997E+02  0.45594000000E+02  0.51100000000E-03 0.  1.
         23    2    1    2    0    0  0.00000000000E+00  0.00000000000E+00 -0.35527136788E-14  0.91188000000E+02  0.91188000000E+02 0.  0.
    9900012    2    3    3    0    0  0.11113102792E+02  0.38788287977E+02 -0.15987233780E+02  0.47787262889E+02  0.19999962814E+02 0.  0.
         12    1    3    3    0    0 -0.11113102792E+02 -0.38788287977E+02  0.15987233780E+02  0.43400737111E+02  0.00000000000E+00 0. -1.
         11    1    4    4    0    0  0.10870391828E+01  0.13888402966E+02 -0.91980820524E+01  0.16693534821E+02  0.51100000000E-03 0. -1.
        -11    1    4    4    0    0  0.65387981066E+01  0.16159118151E+02 -0.11179982439E+02  0.20709055693E+02  0.51100000000E-03 0.  1.
         12    1    4    4    0    0  0.34872655025E+01  0.87407668600E+01  0.43908307108E+01  0.10384672374E+02  0.00000000000E+00 0. -1.
</event>
<event>
 8    1  0.3776180E-010  0.9118800E+02  0.7816164E-02  0.1184000E+00
        -11   -1    0    0    0    0  0.00000000000E+00  0.00000000000E+00  0.45593999997E+02  0.45594000000E+02  0.51100000000E-03 0. -1.
         11   -1    0    0    0    0 -0.00000000000E+00 -0.00000000000E+00 -0.45593999997E+02  0.45594000000E+02  0.51100000000E-03 0.  1.
         23    2    1    2    0    0 -0.17763568394E-14  0.88817841970E-15  0.71054273576E-14  0.91188000000E+02  0.91188000000E+02 0.  0.
    9900012    2    3    3    0    0  0.14500526685E+02  0.41137326546E+01 -0.40699325524E+02  0.47787272257E+02  0.20000005531E+02 0.  0.
         12    1    3    3    0    0 -0.14500526685E+02 -0.41137326546E+01  0.40699325524E+02  0.43400727743E+02  0.00000000000E+00 0. -1.
         11    1    4    4    0    0  0.11600659632E+02 -0.27051391368E+01 -0.17542051969E+02  0.21204166316E+02  0.51100000000E-03 0. -1.
        -11    1    4    4    0    0  0.30381316739E+01 -0.17233596720E+01 -0.12192330580E+02  0.12682789041E+02  0.51100000000E-03 0.  1.
        -12    1    4    4    0    0 -0.13826462050E+00  0.85422314634E+01 -0.10964942976E+02  0.13900316901E+02  0.00000000000E+00 0.  1.
</event>
<event>
 8    1  0.3776180E-010  0.9118800E+02  0.7816164E-02  0.1184000E+00
        -11   -1    0    0    0    0  0.00000000000E+00  0.00000000000E+00  0.45593999997E+02  0.45594000000E+02  0.51100000000E-03 0. -1.
         11   -1    0    0    0    0 -0.00000000000E+00 -0.00000000000E+00 -0.45593999997E+02  0.45594000000E+02  0.51100000000E-03 0.  1.
         23    2    1    2    0    0  0.17763568394E-14  0.35527136788E-14 -0.35527136788E-14  0.91188000000E+02  0.91188000000E+02 0.  0.
    9900012    2    3    3    0    0 -0.11638656258E+02 -0.31202739251E+02  0.27830813325E+02  0.47787269285E+02  0.19999991978E+02 0.  0.
        -12    1    3    3    0    0  0.11638656258E+02  0.31202739251E+02 -0.27830813325E+02  0.43400730715E+02  0.00000000000E+00 0.  1.
         11    1    4    4    0    0 -0.66277077216E+01 -0.18651006086E+02  0.79607413140E+01  0.21334477734E+02  0.51100000000E-03 0. -1.
        -11    1    4    4    0    0 -0.72825748817E+01 -0.13202009102E+02  0.16705301940E+02  0.22503245419E+02  0.51100000000E-03 0.  1.
         12    1    4    4    0    0  0.22716263448E+01  0.65027593677E+00  0.31647700711E+01  0.39495461318E+01  0.00000000000E+00 0. -1.
</event>
<event>
 8    1  0.3776180E-010  0.9118800E+02  0.7816164E-02  0.1184000E+00
        -11   -1    0    0    0    0  0.00000000000E+00  0.00000000000E+00  0.45593999997E+02  0.45594000000E+02  0.51100000000E-03 0. -1.
         11   -1    0    0    0    0 -0.00000000000E+00 -0.00000000000E+00 -0.45593999997E+02  0.45594000000E+02  0.51100000000E-03 0.  1.
         23    2    1    2    0    0 -0.35527136788E-14  0.00000000000E+00  0.00000000000E+00  0.91188000000E+02  0.91188000000E+02 0.  0.
    9900012    2    3    3    0    0  0.30822355132E+02 -0.24436077553E+02  0.18343493382E+02  0.47787271763E+02  0.20000003277E+02 0.  0.
        -12    1    3    3    0    0 -0.30822355132E+02  0.24436077553E+02 -0.18343493382E+02  0.43400728237E+02  0.00000000000E+00 0.  1.
         11    1    4    4    0    0  0.10004058777E+02 -0.14226630756E+02  0.13283019125E+02  0.21884168068E+02  0.51100000000E-03 0. -1.
        -11    1    4    4    0    0  0.46159853885E+00 -0.28513385847E+01  0.29920396240E+01  0.41587866390E+01  0.51100000000E-03 0.  1.
         12    1    4    4    0    0  0.20356697816E+02 -0.73581082119E+01  0.20684346332E+01  0.21744317056E+02  0.00000000000E+00 0. -1.
</event>
<event>
 8    1  0.3776180E-010  0.9118800E+02  0.7816164E-02  0.1184000E+00
        -11   -1    0    0    0    0  0.00000000000E+00  0.00000000000E+00  0.45593999997E+02  0.45594000000E+02  0.51100000000E-03 0.  1.
         11   -1    0    0    0    0 -0.00000000000E+00 -0.00000000000E+00 -0.45593999997E+02  0.45594000000E+02  0.51100000000E-03 0. -1.
         23    2    1    2    0    0 -0.35527136788E-14  0.00000000000E+00  0.00000000000E+00  0.91188000000E+02  0.91188000000E+02 0.  0.
    9900012    2    3    3    0    0 -0.21975878953E+02  0.28641628564E+02 -0.24090269483E+02  0.47787271592E+02  0.20000002499E+02 0.  0.
         12    1    3    3    0    0  0.21975878953E+02 -0.28641628564E+02  0.24090269483E+02  0.43400728408E+02  0.00000000000E+00 0. -1.
         11    1    4    4    0    0 -0.12083788484E+02  0.62016893895E+01 -0.86750447778E+01  0.16116305332E+02  0.51100000000E-03 0. -1.
        -11    1    4    4    0    0 -0.36096679935E+01  0.73285906558E+00  0.90875737755E+00  0.37937614139E+01  0.51100000000E-03 0.  1.
        -12    1    4    4    0    0 -0.62824224759E+01  0.21707080109E+02 -0.16323982083E+02  0.27877204846E+02  0.00000000000E+00 0.  1.
</event>
<event>
 8    1  0.3776180E-010  0.9118800E+02  0.7816164E-02  0.1184000E+00
        -11   -1    0    0    0    0  0.00000000000E+00  0.00000000000E+00  0.45593999997E+02  0.45594000000E+02  0.51100000000E-03 0. -1.
         11   -1    0    0    0    0 -0.00000000000E+00 -0.00000000000E+00 -0.45593999997E+02  0.45594000000E+02  0.51100000000E-03 0.  1.
         23    2    1    2    0    0  0.00000000000E+00  0.00000000000E+00  0.00000000000E+00  0.91188000000E+02  0.91188000000E+02 0.  0.
    9900012    2    3    3    0    0  0.23597448667E+02  0.17241125829E+02  0.32086227520E+02  0.47787285722E+02  0.20000066920E+02 0.  0.
        -12    1    3    3    0    0 -0.23597448667E+02 -0.17241125829E+02 -0.32086227520E+02  0.43400714278E+02  0.00000000000E+00 0.  1.
         11    1    4    4    0    0  0.35087362775E+01  0.10547141320E+02  0.96063344697E+01  0.14691326778E+02  0.51100000000E-03 0. -1.
        -11    1    4    4    0    0  0.10191879424E+02  0.87201939748E+01  0.16829895731E+02  0.21521189087E+02  0.51100000000E-03 0.  1.
        -12    1    4    4    0    0  0.98968329654E+01 -0.20262094659E+01  0.56499973191E+01  0.11574769857E+02  0.00000000000E+00 0.  1.
</event>
<event>
 8    1  0.5525476E-010  0.9118800E+02  0.7816164E-02  0.1184000E+00
        -11   -1    0    0    0    0  0.00000000000E+00  0.00000000000E+00  0.45593999997E+02  0.45594000000E+02  0.51100000000E-03 0. -1.
         11   -1    0    0    0    0 -0.00000000000E+00 -0.00000000000E+00 -0.45593999997E+02  0.45594000000E+02  0.51100000000E-03 0.  1.
         23    2    1    2    0    0 -0.88817841970E-15  0.00000000000E+00  0.00000000000E+00  0.91188000000E+02  0.91188000000E+02 0.  0.
    9900012    2    3    3    0    0 -0.79072367600E+01 -0.73499058710E+01  0.42036634698E+02  0.47787260764E+02  0.19999953128E+02 0.  0.
        -12    1    3    3    0    0  0.79072367600E+01  0.73499058710E+01 -0.42036634698E+02  0.43400739236E+02  0.00000000000E+00 0.  1.
         11    1    4    4    0    0 -0.61665576299E+01 -0.47358785614E+01  0.26487887921E+02  0.27605491945E+02  0.51100000000E-03 0. -1.
        -11    1    4    4    0    0 -0.46378344737E+01  0.26980834521E+01  0.12054037362E+02  0.13194278302E+02  0.51100000000E-03 0.  1.
        -12    1    4    4    0    0  0.28971553436E+01 -0.53121107617E+01  0.34947094145E+01  0.69874905168E+01  0.00000000000E+00 0.  1.
</event>
<event>
 8    1  0.3776180E-010  0.9118800E+02  0.7816164E-02  0.1184000E+00
        -11   -1    0    0    0    0  0.00000000000E+00  0.00000000000E+00  0.45593999997E+02  0.45594000000E+02  0.51100000000E-03 0. -1.
         11   -1    0    0    0    0 -0.00000000000E+00 -0.00000000000E+00 -0.45593999997E+02  0.45594000000E+02  0.51100000000E-03 0.  1.
         23    2    1    2    0    0  0.00000000000E+00  0.33306690739E-15  0.71054273576E-14  0.91188000000E+02  0.91188000000E+02 0.  0.
    9900012    2    3    3    0    0  0.33190687362E+02 -0.22287714850E+00  0.27963409307E+02  0.47787266575E+02  0.19999979621E+02 0.  0.
        -12    1    3    3    0    0 -0.33190687362E+02  0.22287714850E+00 -0.27963409307E+02  0.43400733425E+02  0.00000000000E+00 0.  1.
         11    1    4    4    0    0  0.14193495033E+02 -0.31952769550E+01  0.78444455230E+01  0.16528775572E+02  0.51100000000E-03 0. -1.
        -11    1    4    4    0    0  0.92632720914E+01 -0.49114594214E+01  0.13493181477E+02  0.17087907716E+02  0.51100000000E-03 0.  1.
        -12    1    4    4    0    0  0.97339202371E+01  0.78838592279E+01  0.66257823077E+01  0.14170583287E+02  0.00000000000E+00 0.  1.
</event>
<event>
 8    1  0.3776180E-010  0.9118800E+02  0.7816164E-02  0.1184000E+00
        -11   -1    0    0    0    0  0.00000000000E+00  0.00000000000E+00  0.45593999997E+02  0.45594000000E+02  0.51100000000E-03 0. -1.
         11   -1    0    0    0    0 -0.00000000000E+00 -0.00000000000E+00 -0.45593999997E+02  0.45594000000E+02  0.51100000000E-03 0.  1.
         23    2    1    2    0    0  0.00000000000E+00  0.00000000000E+00 -0.35527136788E-14  0.91188000000E+02  0.91188000000E+02 0.  0.
    9900012    2    3    3    0    0 -0.22006201238E+02  0.21789317432E+02 -0.30406840170E+02  0.47787272170E+02  0.20000005132E+02 0.  0.
         12    1    3    3    0    0  0.22006201238E+02 -0.21789317432E+02  0.30406840170E+02  0.43400727830E+02  0.00000000000E+00 0. -1.
         11    1    4    4    0    0 -0.20328081358E+01  0.14080197942E+02 -0.15344093019E+02  0.20924279529E+02  0.51100000000E-03 0. -1.
        -11    1    4    4    0    0 -0.62606364525E+01  0.38712444775E+01 -0.83162699373E+01  0.11105964547E+02  0.51100000000E-03 0.  1.
         12    1    4    4    0    0 -0.13712756650E+02  0.38378750125E+01 -0.67464772138E+01  0.15757028093E+02  0.00000000000E+00 0. -1.
</event>
<event>
 8    1  0.3776180E-010  0.9118800E+02  0.7816164E-02  0.1184000E+00
        -11   -1    0    0    0    0  0.00000000000E+00  0.00000000000E+00  0.45593999997E+02  0.45594000000E+02  0.51100000000E-03 0. -1.
         11   -1    0    0    0    0 -0.00000000000E+00 -0.00000000000E+00 -0.45593999997E+02  0.45594000000E+02  0.51100000000E-03 0.  1.
         23    2    1    2    0    0  0.00000000000E+00  0.00000000000E+00  0.00000000000E+00  0.91188000000E+02  0.91188000000E+02 0.  0.
    9900012    2    3    3    0    0  0.21482033401E+02  0.82257194580E+01  0.36803299282E+02  0.47787273535E+02  0.20000011355E+02 0.  0.
        -12    1    3    3    0    0 -0.21482033401E+02 -0.82257194580E+01 -0.36803299282E+02  0.43400726465E+02  0.00000000000E+00 0.  1.
         11    1    4    4    0    0  0.15565864355E+01  0.29882622207E+01  0.13386049843E+01  0.36255394076E+01  0.51100000000E-03 0. -1.
        -11    1    4    4    0    0  0.99828344717E+01  0.70020152638E+01  0.72308141385E+01  0.14176384420E+02  0.51100000000E-03 0.  1.
         12    1    4    4    0    0  0.99426124934E+01 -0.17645580265E+01  0.28233880160E+02  0.29985349708E+02  0.00000000000E+00 0. -1.
</event>
<event>
 8    1  0.3776180E-010  0.9118800E+02  0.7816164E-02  0.1184000E+00
        -11   -1    0    0    0    0  0.00000000000E+00  0.00000000000E+00  0.45593999997E+02  0.45594000000E+02  0.51100000000E-03 0. -1.
         11   -1    0    0    0    0 -0.00000000000E+00 -0.00000000000E+00 -0.45593999997E+02  0.45594000000E+02  0.51100000000E-03 0.  1.
         23    2    1    2    0    0  0.00000000000E+00  0.00000000000E+00  0.35527136788E-14  0.91188000000E+02  0.91188000000E+02 0.  0.
    9900012    2    3    3    0    0  0.16275680594E+01  0.31234813923E+02 -0.30089203626E+02  0.47787277040E+02  0.20000027336E+02 0.  0.
         12    1    3    3    0    0 -0.16275680594E+01 -0.31234813923E+02  0.30089203626E+02  0.43400722960E+02  0.00000000000E+00 0. -1.
         11    1    4    4    0    0 -0.21625441096E+01 -0.50724579169E+00 -0.71305116833E+01  0.74684732339E+01  0.51100000000E-03 0. -1.
        -11    1    4    4    0    0  0.24163362480E+01  0.23112112251E+01 -0.42904117365E+01  0.54394863103E+01  0.51100000000E-03 0.  1.
        -12    1    4    4    0    0  0.13737759210E+01  0.29430848490E+02 -0.18668280207E+02  0.34879317496E+02  0.00000000000E+00 0.  1.
</event>
<event>
 8    1  0.3776180E-010  0.9118800E+02  0.7816164E-02  0.1184000E+00
        -11   -1    0    0    0    0  0.00000000000E+00  0.00000000000E+00  0.45593999997E+02  0.45594000000E+02  0.51100000000E-03 0. -1.
         11   -1    0    0    0    0 -0.00000000000E+00 -0.00000000000E+00 -0.45593999997E+02  0.45594000000E+02  0.51100000000E-03 0.  1.
         23    2    1    2    0    0  0.00000000000E+00 -0.35527136788E-14  0.00000000000E+00  0.91188000000E+02  0.91188000000E+02 0.  0.
    9900012    2    3    3    0    0  0.70751754557E+01  0.23501179063E+02  0.35794727775E+02  0.47787238928E+02  0.19999853569E+02 0.  0.
        -12    1    3    3    0    0 -0.70751754557E+01 -0.23501179063E+02 -0.35794727775E+02  0.43400761072E+02  0.00000000000E+00 0.  1.
         11    1    4    4    0    0 -0.36515383191E+01  0.27472833260E+01  0.43323635326E+01  0.62968779414E+01  0.51100000000E-03 0.  1.
        -11    1    4    4    0    0  0.32407044394E+01  0.12806249989E+02  0.26261603732E+02  0.29396837158E+02  0.51100000000E-03 0. -1.
        -12    1    4    4    0    0  0.74860093354E+01  0.79476457484E+01  0.52007605104E+01  0.12093523829E+02  0.00000000000E+00 0.  1.
</event>
<event>
 8    1  0.3776180E-010  0.9118800E+02  0.7816164E-02  0.1184000E+00
        -11   -1    0    0    0    0  0.00000000000E+00  0.00000000000E+00  0.45593999997E+02  0.45594000000E+02  0.51100000000E-03 0. -1.
         11   -1    0    0    0    0 -0.00000000000E+00 -0.00000000000E+00 -0.45593999997E+02  0.45594000000E+02  0.51100000000E-03 0.  1.
         23    2    1    2    0    0  0.13322676296E-14  0.00000000000E+00  0.71054273576E-14  0.91188000000E+02  0.91188000000E+02 0.  0.
    9900012    2    3    3    0    0 -0.31602644439E+01 -0.20910199978E+02 -0.37899861728E+02  0.47787271280E+02  0.20000001073E+02 0.  0.
         12    1    3    3    0    0  0.31602644439E+01  0.20910199978E+02  0.37899861728E+02  0.43400728720E+02  0.00000000000E+00 0. -1.
         11    1    4    4    0    0 -0.40738868822E+01 -0.96674888769E+00 -0.31886889926E+01  0.52629740160E+01  0.51100000000E-03 0. -1.
        -11    1    4    4    0    0 -0.50321399462E+01 -0.16172309819E+02 -0.28409956406E+02  0.33075544751E+02  0.51100000000E-03 0.  1.
         12    1    4    4    0    0  0.59457623844E+01 -0.37711412713E+01 -0.63012163286E+01  0.94487525124E+01  0.00000000000E+00 0. -1.
</event>
<event>
 8    1  0.3776180E-010  0.9118800E+02  0.7816164E-02  0.1184000E+00
        -11   -1    0    0    0    0  0.00000000000E+00  0.00000000000E+00  0.45593999997E+02  0.45594000000E+02  0.51100000000E-03 0. -1.
         11   -1    0    0    0    0 -0.00000000000E+00 -0.00000000000E+00 -0.45593999997E+02  0.45594000000E+02  0.51100000000E-03 0.  1.
         23    2    1    2    0    0  0.00000000000E+00  0.00000000000E+00  0.00000000000E+00  0.91188000000E+02  0.91188000000E+02 0.  0.
    9900012    2    3    3    0    0  0.40193451817E+02 -0.11168693580E+02  0.11973700509E+02  0.47787276628E+02  0.20000025459E+02 0.  0.
        -12    1    3    3    0    0 -0.40193451817E+02  0.11168693580E+02 -0.11973700509E+02  0.43400723372E+02  0.00000000000E+00 0.  1.
         11    1    4    4    0    0  0.16305941086E+02 -0.11749177853E+01 -0.41205345032E+01  0.16859506261E+02  0.51100000000E-03 0. -1.
        -11    1    4    4    0    0  0.70420630208E+00  0.75206481742E-01  0.16984002482E+01  0.18401429822E+01  0.51100000000E-03 0.  1.
         12    1    4    4    0    0  0.23183304429E+02 -0.10068982277E+02  0.14395834764E+02  0.29087627385E+02  0.00000000000E+00 0. -1.
</event>
<event>
 8    1  0.3776180E-010  0.9118800E+02  0.7816164E-02  0.1184000E+00
        -11   -1    0    0    0    0  0.00000000000E+00  0.00000000000E+00  0.45593999997E+02  0.45594000000E+02  0.51100000000E-03 0. -1.
         11   -1    0    0    0    0 -0.00000000000E+00 -0.00000000000E+00 -0.45593999997E+02  0.45594000000E+02  0.51100000000E-03 0.  1.
         23    2    1    2    0    0 -0.35527136788E-14 -0.88817841970E-15  0.00000000000E+00  0.91188000000E+02  0.91188000000E+02 0.  0.
    9900012    2    3    3    0    0  0.97178214411E+01  0.46968706223E+01  0.42037205371E+02  0.47787270944E+02  0.19999999541E+02 0.  0.
        -12    1    3    3    0    0 -0.97178214411E+01 -0.46968706223E+01 -0.42037205371E+02  0.43400729056E+02  0.00000000000E+00 0.  1.
         11    1    4    4    0    0  0.13345581994E+02  0.31180646113E+01  0.24196008347E+02  0.27807799371E+02  0.51100000000E-03 0. -1.
        -11    1    4    4    0    0  0.20895763297E+00  0.42691901654E+01  0.76656436839E+01  0.87767728301E+01  0.51100000000E-03 0.  1.
         12    1    4    4    0    0 -0.38367181860E+01 -0.26903841544E+01  0.10175553340E+02  0.11202698743E+02  0.00000000000E+00 0. -1.
</event>
<event>
 8    1  0.3776180E-010  0.9118800E+02  0.7816164E-02  0.1184000E+00
        -11   -1    0    0    0    0  0.00000000000E+00  0.00000000000E+00  0.45593999997E+02  0.45594000000E+02  0.51100000000E-03 0.  1.
         11   -1    0    0    0    0 -0.00000000000E+00 -0.00000000000E+00 -0.45593999997E+02  0.45594000000E+02  0.51100000000E-03 0. -1.
         23    2    1    2    0    0  0.88817841970E-15  0.00000000000E+00  0.00000000000E+00  0.91188000000E+02  0.91188000000E+02 0.  0.
    9900012    2    3    3    0    0  0.32864450412E+01 -0.41810674420E+02  0.11166475535E+02  0.47787269680E+02  0.19999993778E+02 0.  0.
        -12    1    3    3    0    0 -0.32864450412E+01  0.41810674420E+02 -0.11166475535E+02  0.43400730320E+02  0.00000000000E+00 0.  1.
         11    1    4    4    0    0 -0.28374136977E+01 -0.26667715297E+01  0.11120834443E+01  0.40496069848E+01  0.51100000000E-03 0.  1.
        -11    1    4    4    0    0 -0.46722917087E+01 -0.17957036647E+02  0.66784804692E+01  0.19720232670E+02  0.51100000000E-03 0. -1.
         12    1    4    4    0    0  0.10796150448E+02 -0.21186866244E+02  0.33759116216E+01  0.24017430025E+02  0.00000000000E+00 0. -1.
</event>
<event>
 8    1  0.3776180E-010  0.9118800E+02  0.7816164E-02  0.1184000E+00
        -11   -1    0    0    0    0  0.00000000000E+00  0.00000000000E+00  0.45593999997E+02  0.45594000000E+02  0.51100000000E-03 0. -1.
         11   -1    0    0    0    0 -0.00000000000E+00 -0.00000000000E+00 -0.45593999997E+02  0.45594000000E+02  0.51100000000E-03 0.  1.
         23    2    1    2    0    0  0.00000000000E+00  0.00000000000E+00 -0.17763568394E-14  0.91188000000E+02  0.91188000000E+02 0.  0.
    9900012    2    3    3    0    0 -0.30219005221E+02 -0.28980187772E+02  0.11427335509E+02  0.47787267786E+02  0.19999985145E+02 0.  0.
        -12    1    3    3    0    0  0.30219005221E+02  0.28980187772E+02 -0.11427335509E+02  0.43400732214E+02  0.00000000000E+00 0.  1.
         11    1    4    4    0    0 -0.62497770022E+01 -0.44356712426E+01  0.35366144226E+01  0.84405292361E+01  0.51100000000E-03 0. -1.
        -11    1    4    4    0    0 -0.14893749323E+01  0.26305173546E+01 -0.57475996208E+00  0.30770454200E+01  0.51100000000E-03 0.  1.
         12    1    4    4    0    0 -0.22479853287E+02 -0.27175033884E+02  0.84654810488E+01  0.36269693130E+02  0.00000000000E+00 0. -1.
</event>
<event>
 8    1  0.3776180E-010  0.9118800E+02  0.7816164E-02  0.1184000E+00
        -11   -1    0    0    0    0  0.00000000000E+00  0.00000000000E+00  0.45593999997E+02  0.45594000000E+02  0.51100000000E-03 0. -1.
         11   -1    0    0    0    0 -0.00000000000E+00 -0.00000000000E+00 -0.45593999997E+02  0.45594000000E+02  0.51100000000E-03 0.  1.
         23    2    1    2    0    0  0.00000000000E+00 -0.35527136788E-14  0.00000000000E+00  0.91188000000E+02  0.91188000000E+02 0.  0.
    9900012    2    3    3    0    0 -0.13246278193E+02  0.27130405486E+02 -0.31178527577E+02  0.47787269941E+02  0.19999994969E+02 0.  0.
         12    1    3    3    0    0  0.13246278193E+02 -0.27130405486E+02  0.31178527577E+02  0.43400730059E+02  0.00000000000E+00 0. -1.
         11    1    4    4    0    0 -0.50542560123E+01  0.26248304988E+02 -0.21472236732E+02  0.34286673346E+02  0.51100000000E-03 0. -1.
        -11    1    4    4    0    0 -0.19719771966E+01  0.65612007327E+00 -0.13386988171E+00  0.20825726928E+01  0.51100000000E-03 0.  1.
         12    1    4    4    0    0 -0.62200449837E+01  0.22598042554E+00 -0.95724209626E+01  0.11418023902E+02  0.00000000000E+00 0. -1.
</event>
<event>
 8    1  0.3776180E-010  0.9118800E+02  0.7816164E-02  0.1184000E+00
        -11   -1    0    0    0    0  0.00000000000E+00  0.00000000000E+00  0.45593999997E+02  0.45594000000E+02  0.51100000000E-03 0. -1.
         11   -1    0    0    0    0 -0.00000000000E+00 -0.00000000000E+00 -0.45593999997E+02  0.45594000000E+02  0.51100000000E-03 0.  1.
         23    2    1    2    0    0  0.00000000000E+00 -0.35527136788E-14  0.00000000000E+00  0.91188000000E+02  0.91188000000E+02 0.  0.
    9900012    2    3    3    0    0  0.15377210215E+02  0.21943382086E+02  0.34141658197E+02  0.47787269179E+02  0.19999991496E+02 0.  0.
        -12    1    3    3    0    0 -0.15377210215E+02 -0.21943382086E+02 -0.34141658197E+02  0.43400730821E+02  0.00000000000E+00 0.  1.
         11    1    4    4    0    0  0.58835803530E+01  0.77344981598E+01  0.11435625946E+02  0.15007082348E+02  0.51100000000E-03 0. -1.
        -11    1    4    4    0    0  0.44074937584E-01  0.13596345604E+02  0.16829722375E+02  0.21635667586E+02  0.51100000000E-03 0.  1.
         12    1    4    4    0    0  0.94495549244E+01  0.61253832192E+00  0.58763098750E+01  0.11144519245E+02  0.00000000000E+00 0. -1.
</event>
<event>
 8    1  0.3776180E-010  0.9118800E+02  0.7816164E-02  0.1184000E+00
        -11   -1    0    0    0    0  0.00000000000E+00  0.00000000000E+00  0.45593999997E+02  0.45594000000E+02  0.51100000000E-03 0. -1.
         11   -1    0    0    0    0 -0.00000000000E+00 -0.00000000000E+00 -0.45593999997E+02  0.45594000000E+02  0.51100000000E-03 0.  1.
         23    2    1    2    0    0  0.00000000000E+00  0.00000000000E+00 -0.35527136788E-14  0.91188000000E+02  0.91188000000E+02 0.  0.
    9900012    2    3    3    0    0 -0.10648736568E+02 -0.32523928778E+02  0.26691226261E+02  0.47787273128E+02  0.20000009502E+02 0.  0.
        -12    1    3    3    0    0  0.10648736568E+02  0.32523928778E+02 -0.26691226261E+02  0.43400726872E+02  0.00000000000E+00 0.  1.
         11    1    4    4    0    0 -0.11406622603E+01 -0.13394574875E+02  0.14388607500E+02  0.19691312108E+02  0.51100000000E-03 0. -1.
        -11    1    4    4    0    0 -0.10622908669E+02 -0.17287556554E+02  0.14561956341E+02  0.24975115073E+02  0.51100000000E-03 0.  1.
        -12    1    4    4    0    0  0.11148343613E+01 -0.18417973495E+01 -0.22593375797E+01  0.31208459476E+01  0.00000000000E+00 0.  1.
</event>
<event>
 8    1  0.3776180E-010  0.9118800E+02  0.7816164E-02  0.1184000E+00
        -11   -1    0    0    0    0  0.00000000000E+00  0.00000000000E+00  0.45593999997E+02  0.45594000000E+02  0.51100000000E-03 0. -1.
         11   -1    0    0    0    0 -0.00000000000E+00 -0.00000000000E+00 -0.45593999997E+02  0.45594000000E+02  0.51100000000E-03 0.  1.
         23    2    1    2    0    0  0.17763568394E-14  0.00000000000E+00  0.00000000000E+00  0.91188000000E+02  0.91188000000E+02 0.  0.
    9900012    2    3    3    0    0  0.15949730820E+02 -0.24811110360E+02 -0.31837745900E+02  0.47787226107E+02  0.19999795112E+02 0.  0.
         12    1    3    3    0    0 -0.15949730820E+02  0.24811110360E+02  0.31837745900E+02  0.43400773893E+02  0.00000000000E+00 0. -1.
         11    1    4    4    0    0  0.10534014577E+01 -0.11989600857E+01  0.15161704137E+01  0.22013479740E+01  0.51100000000E-03 0. -1.
        -11    1    4    4    0    0  0.71046242107E+01 -0.15828408364E+02 -0.10666068699E+02  0.20366129192E+02  0.51100000000E-03 0.  1.
        -12    1    4    4    0    0  0.77917051518E+01 -0.77837419105E+01 -0.22687847614E+02  0.25219748941E+02  0.00000000000E+00 0.  1.
</event>
<event>
 8    1  0.3776180E-010  0.9118800E+02  0.7816164E-02  0.1184000E+00
        -11   -1    0    0    0    0  0.00000000000E+00  0.00000000000E+00  0.45593999997E+02  0.45594000000E+02  0.51100000000E-03 0. -1.
         11   -1    0    0    0    0 -0.00000000000E+00 -0.00000000000E+00 -0.45593999997E+02  0.45594000000E+02  0.51100000000E-03 0.  1.
         23    2    1    2    0    0 -0.35527136788E-14 -0.35527136788E-14  0.35527136788E-14  0.91188000000E+02  0.91188000000E+02 0.  0.
    9900012    2    3    3    0    0  0.21438647752E+02  0.26203659474E+02 -0.27154646966E+02  0.47787282965E+02  0.20000054352E+02 0.  0.
         12    1    3    3    0    0 -0.21438647752E+02 -0.26203659474E+02  0.27154646966E+02  0.43400717035E+02  0.00000000000E+00 0. -1.
         11    1    4    4    0    0  0.10633291903E+02  0.22286237201E+02 -0.20329961538E+02  0.31985162211E+02  0.51100000000E-03 0. -1.
        -11    1    4    4    0    0  0.84674075916E+01  0.56074858835E+01 -0.77471528860E+01  0.12773381203E+02  0.51100000000E-03 0.  1.
         12    1    4    4    0    0  0.23379482572E+01 -0.16900636099E+01  0.92246745832E+00  0.30287395514E+01  0.00000000000E+00 0. -1.
</event>
<event>
 8    1  0.3776180E-010  0.9118800E+02  0.7816164E-02  0.1184000E+00
        -11   -1    0    0    0    0  0.00000000000E+00  0.00000000000E+00  0.45593999997E+02  0.45594000000E+02  0.51100000000E-03 0. -1.
         11   -1    0    0    0    0 -0.00000000000E+00 -0.00000000000E+00 -0.45593999997E+02  0.45594000000E+02  0.51100000000E-03 0.  1.
         23    2    1    2    0    0  0.22204460493E-15  0.00000000000E+00  0.00000000000E+00  0.91188000000E+02  0.91188000000E+02 0.  0.
    9900012    2    3    3    0    0  0.49884227833E+00  0.10721361216E+02  0.42052665032E+02  0.47787273437E+02  0.20000010907E+02 0.  0.
        -12    1    3    3    0    0 -0.49884227833E+00 -0.10721361216E+02 -0.42052665032E+02  0.43400726563E+02  0.00000000000E+00 0.  1.
         11    1    4    4    0    0 -0.82318841214E+01  0.84734533343E+01  0.27270825215E+02  0.29719711233E+02  0.51100000000E-03 0. -1.
        -11    1    4    4    0    0  0.18257943054E+00  0.22359946093E+00 -0.42027097384E+00  0.50986264813E+00  0.51100000000E-03 0.  1.
        -12    1    4    4    0    0  0.85481469692E+01  0.20243084212E+01  0.15202110790E+02  0.17557699555E+02  0.00000000000E+00 0.  1.
</event>
<event>
 8    1  0.3776180E-010  0.9118800E+02  0.7816164E-02  0.1184000E+00
        -11   -1    0    0    0    0  0.00000000000E+00  0.00000000000E+00  0.45593999997E+02  0.45594000000E+02  0.51100000000E-03 0. -1.
         11   -1    0    0    0    0 -0.00000000000E+00 -0.00000000000E+00 -0.45593999997E+02  0.45594000000E+02  0.51100000000E-03 0.  1.
         23    2    1    2    0    0  0.71054273576E-14 -0.17763568394E-14  0.35527136788E-14  0.91188000000E+02  0.91188000000E+02 0.  0.
    9900012    2    3    3    0    0 -0.27218534893E+02  0.12436674459E+02 -0.31434114876E+02  0.47787273147E+02  0.20000009587E+02 0.  0.
         12    1    3    3    0    0  0.27218534893E+02 -0.12436674459E+02  0.31434114876E+02  0.43400726853E+02  0.00000000000E+00 0. -1.
         11    1    4    4    0    0 -0.51217719542E+01  0.36733546412E+01 -0.99645173126E+01  0.11790576229E+02  0.51100000000E-03 0. -1.
        -11    1    4    4    0    0 -0.22787906787E+02  0.83816516292E+01 -0.13098115018E+02  0.27588066207E+02  0.51100000000E-03 0.  1.
        -12    1    4    4    0    0  0.69114384850E+00  0.38166818811E+00 -0.83714825458E+01  0.84086307113E+01  0.00000000000E+00 0.  1.
</event>
<event>
 8    1  0.3776180E-010  0.9118800E+02  0.7816164E-02  0.1184000E+00
        -11   -1    0    0    0    0  0.00000000000E+00  0.00000000000E+00  0.45593999997E+02  0.45594000000E+02  0.51100000000E-03 0. -1.
         11   -1    0    0    0    0 -0.00000000000E+00 -0.00000000000E+00 -0.45593999997E+02  0.45594000000E+02  0.51100000000E-03 0.  1.
         23    2    1    2    0    0  0.00000000000E+00 -0.27755575616E-15 -0.71054273576E-14  0.91188000000E+02  0.91188000000E+02 0.  0.
    9900012    2    3    3    0    0  0.21548126697E+02 -0.22691604076E+00 -0.37672933691E+02  0.47787272034E+02  0.20000004514E+02 0.  0.
         12    1    3    3    0    0 -0.21548126697E+02  0.22691604076E+00  0.37672933691E+02  0.43400727966E+02  0.00000000000E+00 0. -1.
         11    1    4    4    0    0  0.47931219573E+01  0.29641699374E+01 -0.23114187116E+02  0.23791300254E+02  0.51100000000E-03 0. -1.
        -11    1    4    4    0    0  0.87527337406E+01  0.75468028888E+00 -0.11691622360E+02  0.14624429013E+02  0.51100000000E-03 0.  1.
        -12    1    4    4    0    0  0.80022709988E+01 -0.39457662671E+01 -0.28671242153E+01  0.93715427673E+01  0.00000000000E+00 0.  1.
</event>
<event>
 8    1  0.3776180E-010  0.9118800E+02  0.7816164E-02  0.1184000E+00
        -11   -1    0    0    0    0  0.00000000000E+00  0.00000000000E+00  0.45593999997E+02  0.45594000000E+02  0.51100000000E-03 0. -1.
         11   -1    0    0    0    0 -0.00000000000E+00 -0.00000000000E+00 -0.45593999997E+02  0.45594000000E+02  0.51100000000E-03 0.  1.
         23    2    1    2    0    0  0.00000000000E+00  0.00000000000E+00  0.00000000000E+00  0.91188000000E+02  0.91188000000E+02 0.  0.
    9900012    2    3    3    0    0 -0.14663976934E+02  0.17517188542E+02 -0.36901755592E+02  0.47787266369E+02  0.19999978681E+02 0.  0.
         12    1    3    3    0    0  0.14663976934E+02 -0.17517188542E+02  0.36901755592E+02  0.43400733631E+02  0.00000000000E+00 0. -1.
         11    1    4    4    0    0 -0.12994558542E+02  0.11093884559E+02 -0.18327760607E+02  0.25056728347E+02  0.51100000000E-03 0. -1.
        -11    1    4    4    0    0 -0.59150121488E+01  0.19952401600E+01 -0.56292476530E+01  0.84057588245E+01  0.51100000000E-03 0.  1.
        -12    1    4    4    0    0  0.42455937561E+01  0.44280638226E+01 -0.12944747332E+02  0.14324779197E+02  0.00000000000E+00 0.  1.
</event>
<event>
 8    1  0.3776180E-010  0.9118800E+02  0.7816164E-02  0.1184000E+00
        -11   -1    0    0    0    0  0.00000000000E+00  0.00000000000E+00  0.45593999997E+02  0.45594000000E+02  0.51100000000E-03 0. -1.
         11   -1    0    0    0    0 -0.00000000000E+00 -0.00000000000E+00 -0.45593999997E+02  0.45594000000E+02  0.51100000000E-03 0.  1.
         23    2    1    2    0    0  0.00000000000E+00  0.00000000000E+00  0.35527136788E-14  0.91188000000E+02  0.91188000000E+02 0.  0.
    9900012    2    3    3    0    0  0.36870544544E+02  0.12933753222E+02 -0.18891907826E+02  0.47787271796E+02  0.20000003425E+02 0.  0.
         12    1    3    3    0    0 -0.36870544544E+02 -0.12933753222E+02  0.18891907826E+02  0.43400728204E+02  0.00000000000E+00 0. -1.
         11    1    4    4    0    0  0.23421783907E+00  0.23318759200E+01 -0.29501875367E+00  0.23621049148E+01  0.51100000000E-03 0. -1.
        -11    1    4    4    0    0  0.16093298120E+02 -0.89225920115E+00 -0.12159996959E+01  0.16163818434E+02  0.51100000000E-03 0.  1.
        -12    1    4    4    0    0  0.20543028585E+02  0.11494136504E+02 -0.17380889376E+02  0.29261348447E+02  0.00000000000E+00 0.  1.
</event>
<event>
 8    1  0.3776180E-010  0.9118800E+02  0.7816164E-02  0.1184000E+00
        -11   -1    0    0    0    0  0.00000000000E+00  0.00000000000E+00  0.45593999997E+02  0.45594000000E+02  0.51100000000E-03 0. -1.
         11   -1    0    0    0    0 -0.00000000000E+00 -0.00000000000E+00 -0.45593999997E+02  0.45594000000E+02  0.51100000000E-03 0.  1.
         23    2    1    2    0    0  0.35527136788E-14  0.00000000000E+00  0.00000000000E+00  0.91188000000E+02  0.91188000000E+02 0.  0.
    9900012    2    3    3    0    0 -0.26252710666E+02 -0.33206914410E+02 -0.95770191901E+01  0.47787270991E+02  0.19999999755E+02 0.  0.
         12    1    3    3    0    0  0.26252710666E+02  0.33206914410E+02  0.95770191901E+01  0.43400729009E+02  0.00000000000E+00 0. -1.
         11    1    4    4    0    0 -0.99070631948E+01 -0.16080089011E+02 -0.93442070337E+01  0.21072099304E+02  0.51100000000E-03 0. -1.
        -11    1    4    4    0    0 -0.41190094151E+01 -0.11842779268E+02 -0.34658008227E+01  0.13008821429E+02  0.51100000000E-03 0.  1.
        -12    1    4    4    0    0 -0.12226638056E+02 -0.52840461312E+01  0.32329886663E+01  0.13706350258E+02  0.00000000000E+00 0.  1.
</event>
<event>
 8    1  0.3776180E-010  0.9118800E+02  0.7816164E-02  0.1184000E+00
        -11   -1    0    0    0    0  0.00000000000E+00  0.00000000000E+00  0.45593999997E+02  0.45594000000E+02  0.51100000000E-03 0. -1.
         11   -1    0    0    0    0 -0.00000000000E+00 -0.00000000000E+00 -0.45593999997E+02  0.45594000000E+02  0.51100000000E-03 0.  1.
         23    2    1    2    0    0  0.00000000000E+00  0.00000000000E+00  0.00000000000E+00  0.91188000000E+02  0.91188000000E+02 0.  0.
    9900012    2    3    3    0    0 -0.20697476440E+02 -0.19195442334E+01  0.38099253907E+02  0.47787270406E+02  0.19999997087E+02 0.  0.
        -12    1    3    3    0    0  0.20697476440E+02  0.19195442334E+01 -0.38099253907E+02  0.43400729594E+02  0.00000000000E+00 0.  1.
         11    1    4    4    0    0 -0.22001799939E+01 -0.42309124551E+01  0.64068711323E+01  0.79868272909E+01  0.51100000000E-03 0. -1.
        -11    1    4    4    0    0  0.10684618364E+01 -0.76196171207E+00 -0.94954421466E+00  0.16198243186E+01  0.51100000000E-03 0.  1.
        -12    1    4    4    0    0 -0.19565758282E+02  0.30733299338E+01  0.32641926990E+02  0.38180618796E+02  0.00000000000E+00 0.  1.
</event>
<event>
 8    1  0.3776180E-010  0.9118800E+02  0.7816164E-02  0.1184000E+00
        -11   -1    0    0    0    0  0.00000000000E+00  0.00000000000E+00  0.45593999997E+02  0.45594000000E+02  0.51100000000E-03 0. -1.
         11   -1    0    0    0    0 -0.00000000000E+00 -0.00000000000E+00 -0.45593999997E+02  0.45594000000E+02  0.51100000000E-03 0.  1.
         23    2    1    2    0    0  0.88817841970E-15  0.00000000000E+00 -0.17763568394E-14  0.91188000000E+02  0.91188000000E+02 0.  0.
    9900012    2    3    3    0    0  0.65735021217E+01 -0.39987769239E+02 -0.15536751092E+02  0.47787271281E+02  0.20000001078E+02 0.  0.
         12    1    3    3    0    0 -0.65735021217E+01  0.39987769239E+02  0.15536751092E+02  0.43400728719E+02  0.00000000000E+00 0. -1.
         11    1    4    4    0    0 -0.21517752350E+01 -0.11754783652E+02 -0.52880308034E+01  0.13067836294E+02  0.51100000000E-03 0. -1.
        -11    1    4    4    0    0 -0.25212226802E+01 -0.59952955529E+01 -0.70554859506E+01  0.95958332015E+01  0.51100000000E-03 0.  1.
         12    1    4    4    0    0  0.11246500037E+02 -0.22237690034E+02 -0.31932343379E+01  0.25123601785E+02  0.00000000000E+00 0. -1.
</event>
<event>
 8    1  0.3776180E-010  0.9118800E+02  0.7816164E-02  0.1184000E+00
        -11   -1    0    0    0    0  0.00000000000E+00  0.00000000000E+00  0.45593999997E+02  0.45594000000E+02  0.51100000000E-03 0. -1.
         11   -1    0    0    0    0 -0.00000000000E+00 -0.00000000000E+00 -0.45593999997E+02  0.45594000000E+02  0.51100000000E-03 0.  1.
         23    2    1    2    0    0  0.00000000000E+00  0.00000000000E+00  0.00000000000E+00  0.91188000000E+02  0.91188000000E+02 0.  0.
    9900012    2    3    3    0    0  0.12102785164E+02  0.17466263304E+02 -0.37842802618E+02  0.47787245715E+02  0.19999884511E+02 0.  0.
         12    1    3    3    0    0 -0.12102785164E+02 -0.17466263304E+02  0.37842802618E+02  0.43400754285E+02  0.00000000000E+00 0. -1.
         11    1    4    4    0    0  0.96013960974E+01  0.17111100281E+02 -0.21504645247E+02  0.29110587890E+02  0.51100000000E-03 0. -1.
        -11    1    4    4    0    0  0.56700413190E+01  0.18145227670E+00 -0.84869017803E+01  0.10208319919E+02  0.51100000000E-03 0.  1.
        -12    1    4    4    0    0 -0.31686522519E+01  0.17371074607E+00 -0.78512555913E+01  0.84683379052E+01  0.00000000000E+00 0.  1.
</event>
<event>
 8    1  0.3776180E-010  0.9118800E+02  0.7816164E-02  0.1184000E+00
        -11   -1    0    0    0    0  0.00000000000E+00  0.00000000000E+00  0.45593999997E+02  0.45594000000E+02  0.51100000000E-03 0. -1.
         11   -1    0    0    0    0 -0.00000000000E+00 -0.00000000000E+00 -0.45593999997E+02  0.45594000000E+02  0.51100000000E-03 0.  1.
         23    2    1    2    0    0  0.35527136788E-14 -0.35527136788E-14  0.00000000000E+00  0.91188000000E+02  0.91188000000E+02 0.  0.
    9900012    2    3    3    0    0  0.21067525115E+02 -0.17332908610E+02  0.33754300219E+02  0.47787272833E+02  0.20000008156E+02 0.  0.
        -12    1    3    3    0    0 -0.21067525115E+02  0.17332908610E+02 -0.33754300219E+02  0.43400727167E+02  0.00000000000E+00 0.  1.
         11    1    4    4    0    0  0.85034233166E+01 -0.13561969006E+02  0.17976493007E+02  0.24070511264E+02  0.51100000000E-03 0. -1.
        -11    1    4    4    0    0  0.13756755882E+02 -0.53388103477E+01  0.15962393762E+02  0.21738197791E+02  0.51100000000E-03 0.  1.
        -12    1    4    4    0    0 -0.11926540835E+01  0.15678707438E+01 -0.18458654959E+00  0.19785637787E+01  0.00000000000E+00 0.  1.
</event>
<event>
 8    1  0.3776180E-010  0.9118800E+02  0.7816164E-02  0.1184000E+00
        -11   -1    0    0    0    0  0.00000000000E+00  0.00000000000E+00  0.45593999997E+02  0.45594000000E+02  0.51100000000E-03 0. -1.
         11   -1    0    0    0    0 -0.00000000000E+00 -0.00000000000E+00 -0.45593999997E+02  0.45594000000E+02  0.51100000000E-03 0.  1.
         23    2    1    2    0    0  0.00000000000E+00  0.00000000000E+00  0.00000000000E+00  0.91188000000E+02  0.91188000000E+02 0.  0.
    9900012    2    3    3    0    0  0.75867771373E+01 -0.12060993234E+02 -0.40995083529E+02  0.47787267072E+02  0.19999981888E+02 0.  0.
         12    1    3    3    0    0 -0.75867771373E+01  0.12060993234E+02  0.40995083529E+02  0.43400732928E+02  0.00000000000E+00 0. -1.
         11    1    4    4    0    0 -0.50343711424E+01  0.94088350352E+00 -0.96294902491E+01  0.10906751913E+02  0.51100000000E-03 0. -1.
        -11    1    4    4    0    0  0.50053186902E+01 -0.11640250133E+01 -0.62701366304E+01  0.81069589272E+01  0.51100000000E-03 0.  1.
         12    1    4    4    0    0  0.76158295895E+01 -0.11837851724E+02 -0.25095456650E+02  0.28773556232E+02  0.00000000000E+00 0. -1.
</event>
<event>
 8    1  0.3776180E-010  0.9118800E+02  0.7816164E-02  0.1184000E+00
        -11   -1    0    0    0    0  0.00000000000E+00  0.00000000000E+00  0.45593999997E+02  0.45594000000E+02  0.51100000000E-03 0. -1.
         11   -1    0    0    0    0 -0.00000000000E+00 -0.00000000000E+00 -0.45593999997E+02  0.45594000000E+02  0.51100000000E-03 0.  1.
         23    2    1    2    0    0 -0.35527136788E-14 -0.35527136788E-14  0.00000000000E+00  0.91188000000E+02  0.91188000000E+02 0.  0.
    9900012    2    3    3    0    0 -0.15135995641E+02 -0.29664836495E+02  0.27830190426E+02  0.47787304298E+02  0.20000151614E+02 0.  0.
        -12    1    3    3    0    0  0.15135995641E+02  0.29664836495E+02 -0.27830190426E+02  0.43400695702E+02  0.00000000000E+00 0.  1.
         11    1    4    4    0    0 -0.42844005337E+01 -0.22973482713E+01  0.10264485352E+02  0.11357533043E+02  0.51100000000E-03 0. -1.
        -11    1    4    4    0    0 -0.95235109582E+01 -0.82731451297E+01  0.87763369798E+01  0.15367702572E+02  0.51100000000E-03 0.  1.
         12    1    4    4    0    0 -0.13280841489E+01 -0.19094343094E+02  0.87893680940E+01  0.21062068682E+02  0.00000000000E+00 0. -1.
</event>
<event>
 8    1  0.3776180E-010  0.9118800E+02  0.7816164E-02  0.1184000E+00
        -11   -1    0    0    0    0  0.00000000000E+00  0.00000000000E+00  0.45593999997E+02  0.45594000000E+02  0.51100000000E-03 0. -1.
         11   -1    0    0    0    0 -0.00000000000E+00 -0.00000000000E+00 -0.45593999997E+02  0.45594000000E+02  0.51100000000E-03 0.  1.
         23    2    1    2    0    0  0.00000000000E+00  0.00000000000E+00  0.00000000000E+00  0.91188000000E+02  0.91188000000E+02 0.  0.
    9900012    2    3    3    0    0 -0.10850782398E+02 -0.38658358944E+02 -0.16474524504E+02  0.47787330045E+02  0.20000269006E+02 0.  0.
         12    1    3    3    0    0  0.10850782398E+02  0.38658358944E+02  0.16474524504E+02  0.43400669955E+02  0.00000000000E+00 0. -1.
         11    1    4    4    0    0 -0.27690477460E+01 -0.96858650188E+01 -0.12917247372E+01  0.10156385166E+02  0.51100000000E-03 0. -1.
        -11    1    4    4    0    0 -0.84830068166E+01 -0.24292621119E+02 -0.18661556698E+02  0.31785948847E+02  0.51100000000E-03 0.  1.
         12    1    4    4    0    0  0.40127216425E+00 -0.46798728062E+01  0.34787569306E+01  0.58449960320E+01  0.00000000000E+00 0. -1.
</event>
<event>
 8    1  0.3776180E-010  0.9118800E+02  0.7816164E-02  0.1184000E+00
        -11   -1    0    0    0    0  0.00000000000E+00  0.00000000000E+00  0.45593999997E+02  0.45594000000E+02  0.51100000000E-03 0. -1.
         11   -1    0    0    0    0 -0.00000000000E+00 -0.00000000000E+00 -0.45593999997E+02  0.45594000000E+02  0.51100000000E-03 0.  1.
         23    2    1    2    0    0 -0.71054273576E-14  0.00000000000E+00 -0.35527136788E-14  0.91188000000E+02  0.91188000000E+02 0.  0.
    9900012    2    3    3    0    0  0.32605350146E+02 -0.16235906422E+02  0.23598938042E+02  0.47787269681E+02  0.19999993784E+02 0.  0.
        -12    1    3    3    0    0 -0.32605350146E+02  0.16235906422E+02 -0.23598938042E+02  0.43400730319E+02  0.00000000000E+00 0.  1.
         11    1    4    4    0    0  0.18061700517E+02 -0.93364023592E+01  0.18946066053E+02  0.27791129047E+02  0.51100000000E-03 0. -1.
        -11    1    4    4    0    0  0.12580267795E+02 -0.44570305456E+01  0.78789399647E+01  0.15498579106E+02  0.51100000000E-03 0.  1.
        -12    1    4    4    0    0  0.19633818340E+01 -0.24424735170E+01 -0.32260679757E+01  0.44975615272E+01  0.00000000000E+00 0.  1.
</event>
<event>
 8    1  0.3776180E-010  0.9118800E+02  0.7816164E-02  0.1184000E+00
        -11   -1    0    0    0    0  0.00000000000E+00  0.00000000000E+00  0.45593999997E+02  0.45594000000E+02  0.51100000000E-03 0.  1.
         11   -1    0    0    0    0 -0.00000000000E+00 -0.00000000000E+00 -0.45593999997E+02  0.45594000000E+02  0.51100000000E-03 0. -1.
         23    2    1    2    0    0  0.00000000000E+00  0.00000000000E+00  0.00000000000E+00  0.91188000000E+02  0.91188000000E+02 0.  0.
    9900012    2    3    3    0    0  0.32742605759E+02  0.14686179564E+02  0.24410266254E+02  0.47787271888E+02  0.20000003846E+02 0.  0.
        -12    1    3    3    0    0 -0.32742605759E+02 -0.14686179564E+02 -0.24410266254E+02  0.43400728112E+02  0.00000000000E+00 0.  1.
         11    1    4    4    0    0  0.17435020487E+02  0.75431051373E+01  0.33462982218E+01  0.19289273873E+02  0.51100000000E-03 0. -1.
        -11    1    4    4    0    0  0.31689448846E+00  0.10668066429E+01 -0.74941170546E+00  0.13416842757E+01  0.51100000000E-03 0.  1.
        -12    1    4    4    0    0  0.14990690784E+02  0.60762677834E+01  0.21813379737E+02  0.27156313740E+02  0.00000000000E+00 0.  1.
</event>
<event>
 8    1  0.3776180E-010  0.9118800E+02  0.7816164E-02  0.1184000E+00
        -11   -1    0    0    0    0  0.00000000000E+00  0.00000000000E+00  0.45593999997E+02  0.45594000000E+02  0.51100000000E-03 0. -1.
         11   -1    0    0    0    0 -0.00000000000E+00 -0.00000000000E+00 -0.45593999997E+02  0.45594000000E+02  0.51100000000E-03 0.  1.
         23    2    1    2    0    0  0.00000000000E+00 -0.35527136788E-14  0.00000000000E+00  0.91188000000E+02  0.91188000000E+02 0.  0.
    9900012    2    3    3    0    0  0.16118937349E+02 -0.30889130489E+02 -0.25877881917E+02  0.47787270788E+02  0.19999998830E+02 0.  0.
         12    1    3    3    0    0 -0.16118937349E+02  0.30889130489E+02  0.25877881917E+02  0.43400729212E+02  0.00000000000E+00 0. -1.
         11    1    4    4    0    0  0.17153960115E+01 -0.72570578311E+01 -0.18982686046E+01  0.76948616490E+01  0.51100000000E-03 0. -1.
        -11    1    4    4    0    0  0.86639336469E+01 -0.13650945376E+01 -0.40405318458E+01  0.96567658765E+01  0.51100000000E-03 0.  1.
        -12    1    4    4    0    0  0.57396076903E+01 -0.22266978120E+02 -0.19939081467E+02  0.30435643262E+02  0.00000000000E+00 0.  1.
</event>
<event>
 8    1  0.3776180E-010  0.9118800E+02  0.7816164E-02  0.1184000E+00
        -11   -1    0    0    0    0  0.00000000000E+00  0.00000000000E+00  0.45593999997E+02  0.45594000000E+02  0.51100000000E-03 0. -1.
         11   -1    0    0    0    0 -0.00000000000E+00 -0.00000000000E+00 -0.45593999997E+02  0.45594000000E+02  0.51100000000E-03 0.  1.
         23    2    1    2    0    0 -0.71054273576E-14 -0.17763568394E-14  0.00000000000E+00  0.91188000000E+02  0.91188000000E+02 0.  0.
    9900012    2    3    3    0    0 -0.38901593565E+02  0.15592443776E+02  0.11276754344E+02  0.47787268747E+02  0.19999989524E+02 0.  0.
        -12    1    3    3    0    0  0.38901593565E+02 -0.15592443776E+02 -0.11276754344E+02  0.43400731253E+02  0.00000000000E+00 0.  1.
         11    1    4    4    0    0 -0.58907700101E+01 -0.24312892340E+01  0.60959988234E+00  0.64018708928E+01  0.51100000000E-03 0. -1.
        -11    1    4    4    0    0 -0.95149647647E+01  0.23454124027E+01 -0.26576584288E+01  0.10153751149E+02  0.51100000000E-03 0.  1.
         12    1    4    4    0    0 -0.23495858790E+02  0.15678320607E+02  0.13324812890E+02  0.31231646705E+02  0.00000000000E+00 0. -1.
</event>
<event>
 8    1  0.3776180E-010  0.9118800E+02  0.7816164E-02  0.1184000E+00
        -11   -1    0    0    0    0  0.00000000000E+00  0.00000000000E+00  0.45593999997E+02  0.45594000000E+02  0.51100000000E-03 0. -1.
         11   -1    0    0    0    0 -0.00000000000E+00 -0.00000000000E+00 -0.45593999997E+02  0.45594000000E+02  0.51100000000E-03 0.  1.
         23    2    1    2    0    0 -0.35527136788E-14  0.22204460493E-15  0.00000000000E+00  0.91188000000E+02  0.91188000000E+02 0.  0.
    9900012    2    3    3    0    0  0.28717499682E+02 -0.99097949847E+00  0.32526095736E+02  0.47787265764E+02  0.19999975925E+02 0.  0.
        -12    1    3    3    0    0 -0.28717499682E+02  0.99097949847E+00 -0.32526095736E+02  0.43400734236E+02  0.00000000000E+00 0.  1.
         11    1    4    4    0    0  0.51974016655E+01  0.41484386555E+01  0.65687997438E+01  0.93472807642E+01  0.51100000000E-03 0. -1.
        -11    1    4    4    0    0  0.75195425234E+01 -0.12961220538E+01 -0.88971608296E-01  0.76309480635E+01  0.51100000000E-03 0.  1.
         12    1    4    4    0    0  0.16000555493E+02 -0.38432961001E+01  0.26046267601E+02  0.30809036936E+02  0.00000000000E+00 0. -1.
</event>
<event>
 8    1  0.3776180E-010  0.9118800E+02  0.7816164E-02  0.1184000E+00
        -11   -1    0    0    0    0  0.00000000000E+00  0.00000000000E+00  0.45593999997E+02  0.45594000000E+02  0.51100000000E-03 0. -1.
         11   -1    0    0    0    0 -0.00000000000E+00 -0.00000000000E+00 -0.45593999997E+02  0.45594000000E+02  0.51100000000E-03 0.  1.
         23    2    1    2    0    0  0.00000000000E+00 -0.88817841970E-15  0.35527136788E-14  0.91188000000E+02  0.91188000000E+02 0.  0.
    9900012    2    3    3    0    0  0.34166623252E+02 -0.54885824529E+01  0.26194271505E+02  0.47787279483E+02  0.20000038473E+02 0.  0.
        -12    1    3    3    0    0 -0.34166623252E+02  0.54885824529E+01 -0.26194271505E+02  0.43400720517E+02  0.00000000000E+00 0.  1.
         11    1    4    4    0    0  0.20659142448E+01 -0.33330776526E+01  0.21404588810E+01  0.44675466184E+01  0.51100000000E-03 0. -1.
        -11    1    4    4    0    0  0.58936695315E+01 -0.50475220764E+01  0.19659699908E+00  0.77621820579E+01  0.51100000000E-03 0.  1.
         12    1    4    4    0    0  0.26207039475E+02  0.28920172761E+01  0.23857215625E+02  0.35557550806E+02  0.00000000000E+00 0. -1.
</event>
<event>
 8    1  0.3776180E-010  0.9118800E+02  0.7816164E-02  0.1184000E+00
        -11   -1    0    0    0    0  0.00000000000E+00  0.00000000000E+00  0.45593999997E+02  0.45594000000E+02  0.51100000000E-03 0.  1.
         11   -1    0    0    0    0 -0.00000000000E+00 -0.00000000000E+00 -0.45593999997E+02  0.45594000000E+02  0.51100000000E-03 0. -1.
         23    2    1    2    0    0 -0.88817841970E-15  0.00000000000E+00  0.00000000000E+00  0.91188000000E+02  0.91188000000E+02 0.  0.
    9900012    2    3    3    0    0  0.68311480613E+01  0.42202975018E+02 -0.74744579892E+01  0.47787271821E+02  0.20000003540E+02 0.  0.
        -12    1    3    3    0    0 -0.68311480613E+01 -0.42202975018E+02  0.74744579892E+01  0.43400728179E+02  0.00000000000E+00 0.  1.
         11    1    4    4    0    0  0.28384779738E+01  0.23637780803E+02 -0.48433276151E+01  0.24295255939E+02  0.51100000000E-03 0. -1.
        -11    1    4    4    0    0 -0.12476641661E+01  0.11318546116E+02 -0.71769245793E+01  0.13460103964E+02  0.51100000000E-03 0.  1.
        -12    1    4    4    0    0  0.52403342536E+01  0.72466481001E+01  0.45457942051E+01  0.10031911918E+02  0.00000000000E+00 0.  1.
</event>
<event>
 8    1  0.3776180E-010  0.9118800E+02  0.7816164E-02  0.1184000E+00
        -11   -1    0    0    0    0  0.00000000000E+00  0.00000000000E+00  0.45593999997E+02  0.45594000000E+02  0.51100000000E-03 0. -1.
         11   -1    0    0    0    0 -0.00000000000E+00 -0.00000000000E+00 -0.45593999997E+02  0.45594000000E+02  0.51100000000E-03 0.  1.
         23    2    1    2    0    0 -0.35527136788E-14  0.00000000000E+00  0.00000000000E+00  0.91188000000E+02  0.91188000000E+02 0.  0.
    9900012    2    3    3    0    0  0.29339717196E+02 -0.11627704233E+02 -0.29792631981E+02  0.47787269232E+02  0.19999991736E+02 0.  0.
         12    1    3    3    0    0 -0.29339717196E+02  0.11627704233E+02  0.29792631981E+02  0.43400730768E+02  0.00000000000E+00 0. -1.
         11    1    4    4    0    0  0.12694665859E+02  0.35875783272E+00 -0.96358773080E+01  0.15941561411E+02  0.51100000000E-03 0. -1.
        -11    1    4    4    0    0  0.13153854080E+02 -0.82699056187E+01 -0.21542944676E+02  0.26561507519E+02  0.51100000000E-03 0.  1.
         12    1    4    4    0    0  0.34911972571E+01 -0.37165564467E+01  0.13861900032E+01  0.52842003023E+01  0.00000000000E+00 0. -1.
</event>
<event>
 8    1  0.3776180E-010  0.9118800E+02  0.7816164E-02  0.1184000E+00
        -11   -1    0    0    0    0  0.00000000000E+00  0.00000000000E+00  0.45593999997E+02  0.45594000000E+02  0.51100000000E-03 0. -1.
         11   -1    0    0    0    0 -0.00000000000E+00 -0.00000000000E+00 -0.45593999997E+02  0.45594000000E+02  0.51100000000E-03 0.  1.
         23    2    1    2    0    0  0.00000000000E+00 -0.17763568394E-14 -0.71054273576E-14  0.91188000000E+02  0.91188000000E+02 0.  0.
    9900012    2    3    3    0    0 -0.92515839653E+01  0.15453241647E+02  0.39487072377E+02  0.47787269958E+02  0.19999995047E+02 0.  0.
        -12    1    3    3    0    0  0.92515839653E+01 -0.15453241647E+02 -0.39487072377E+02  0.43400730042E+02  0.00000000000E+00 0.  1.
         11    1    4    4    0    0 -0.22327404102E+00  0.34886369095E+01  0.22579314085E+01  0.41615734152E+01  0.51100000000E-03 0.  1.
        -11    1    4    4    0    0 -0.16821911198E+01  0.70203117031E+01  0.33058714195E+02  0.33837747086E+02  0.51100000000E-03 0. -1.
         12    1    4    4    0    0 -0.73461188045E+01  0.49442930340E+01  0.41704267735E+01  0.97879494568E+01  0.00000000000E+00 0. -1.
</event>
<event>
 8    1  0.3776180E-010  0.9118800E+02  0.7816164E-02  0.1184000E+00
        -11   -1    0    0    0    0  0.00000000000E+00  0.00000000000E+00  0.45593999997E+02  0.45594000000E+02  0.51100000000E-03 0. -1.
         11   -1    0    0    0    0 -0.00000000000E+00 -0.00000000000E+00 -0.45593999997E+02  0.45594000000E+02  0.51100000000E-03 0.  1.
         23    2    1    2    0    0  0.00000000000E+00  0.35527136788E-14  0.00000000000E+00  0.91188000000E+02  0.91188000000E+02 0.  0.
    9900012    2    3    3    0    0  0.34418672299E+02  0.24646341710E+02 -0.95674520271E+01  0.47787270734E+02  0.19999998587E+02 0.  0.
         12    1    3    3    0    0 -0.34418672299E+02 -0.24646341710E+02  0.95674520271E+01  0.43400729266E+02  0.00000000000E+00 0. -1.
         11    1    4    4    0    0 -0.17664623344E+00 -0.70464880547E+00 -0.20076177980E+01  0.21350089730E+01  0.51100000000E-03 0. -1.
        -11    1    4    4    0    0  0.20552353271E+02  0.96141094251E+01 -0.92284571969E+01  0.24494790212E+02  0.51100000000E-03 0.  1.
         12    1    4    4    0    0  0.14042965261E+02  0.15736881090E+02  0.16686229678E+01  0.21157471550E+02  0.00000000000E+00 0. -1.
</event>
<event>
 8    1  0.3776180E-010  0.9118800E+02  0.7816164E-02  0.1184000E+00
        -11   -1    0    0    0    0  0.00000000000E+00  0.00000000000E+00  0.45593999997E+02  0.45594000000E+02  0.51100000000E-03 0. -1.
         11   -1    0    0    0    0 -0.00000000000E+00 -0.00000000000E+00 -0.45593999997E+02  0.45594000000E+02  0.51100000000E-03 0.  1.
         23    2    1    2    0    0  0.35527136788E-14  0.00000000000E+00  0.00000000000E+00  0.91188000000E+02  0.91188000000E+02 0.  0.
    9900012    2    3    3    0    0  0.29493980568E+02 -0.39098388596E+01 -0.31598135507E+02  0.47787263864E+02  0.19999967261E+02 0.  0.
         12    1    3    3    0    0 -0.29493980568E+02  0.39098388596E+01  0.31598135507E+02  0.43400736136E+02  0.00000000000E+00 0. -1.
         11    1    4    4    0    0  0.14616025142E+02 -0.34083270113E+01 -0.14003043221E+02  0.20526327087E+02  0.51100000000E-03 0. -1.
        -11    1    4    4    0    0  0.13178440569E+02  0.12561511431E+01 -0.45645601686E+01  0.14003014722E+02  0.51100000000E-03 0.  1.
         12    1    4    4    0    0  0.16995148570E+01 -0.17576629914E+01 -0.13030532118E+02  0.13257922055E+02  0.00000000000E+00 0. -1.
</event>
<event>
 8    1  0.3776180E-010  0.9118800E+02  0.7816164E-02  0.1184000E+00
        -11   -1    0    0    0    0  0.00000000000E+00  0.00000000000E+00  0.45593999997E+02  0.45594000000E+02  0.51100000000E-03 0. -1.
         11   -1    0    0    0    0 -0.00000000000E+00 -0.00000000000E+00 -0.45593999997E+02  0.45594000000E+02  0.51100000000E-03 0.  1.
         23    2    1    2    0    0  0.35527136788E-14 -0.44408920985E-15  0.00000000000E+00  0.91188000000E+02  0.91188000000E+02 0.  0.
    9900012    2    3    3    0    0  0.17194272385E+02 -0.23332236650E+01 -0.39781108018E+02  0.47787268547E+02  0.19999988611E+02 0.  0.
         12    1    3    3    0    0 -0.17194272385E+02  0.23332236650E+01  0.39781108018E+02  0.43400731453E+02  0.00000000000E+00 0. -1.
         11    1    4    4    0    0  0.49726822342E+01 -0.23893865210E+01 -0.35862202343E+01  0.65800997241E+01  0.51100000000E-03 0. -1.
        -11    1    4    4    0    0  0.98579529518E+01 -0.14281923431E+01 -0.77368937423E+01  0.12612632351E+02  0.51100000000E-03 0.  1.
         12    1    4    4    0    0  0.23636371989E+01  0.14843551991E+01 -0.28457994042E+02  0.28594536472E+02  0.00000000000E+00 0. -1.
</event>
<event>
 8    1  0.3776180E-010  0.9118800E+02  0.7816164E-02  0.1184000E+00
        -11   -1    0    0    0    0  0.00000000000E+00  0.00000000000E+00  0.45593999997E+02  0.45594000000E+02  0.51100000000E-03 0.  1.
         11   -1    0    0    0    0 -0.00000000000E+00 -0.00000000000E+00 -0.45593999997E+02  0.45594000000E+02  0.51100000000E-03 0. -1.
         23    2    1    2    0    0 -0.35527136788E-14 -0.35527136788E-14  0.00000000000E+00  0.91188000000E+02  0.91188000000E+02 0.  0.
    9900012    2    3    3    0    0 -0.17088357386E+02 -0.30432530352E+02  0.25796735286E+02  0.47787280961E+02  0.20000045212E+02 0.  0.
        -12    1    3    3    0    0  0.17088357386E+02  0.30432530352E+02 -0.25796735286E+02  0.43400719039E+02  0.00000000000E+00 0.  1.
         11    1    4    4    0    0 -0.29032992790E+00 -0.50096238380E+01 -0.10163261733E+01  0.51199161729E+01  0.51100000000E-03 0. -1.
        -11    1    4    4    0    0  0.13523329423E+01 -0.58217816416E+01  0.80334677570E+01  0.10012919171E+02  0.51100000000E-03 0.  1.
         12    1    4    4    0    0 -0.18150360400E+02 -0.19601124872E+02  0.18779593702E+02  0.32654445616E+02  0.00000000000E+00 0. -1.
</event>
<event>
 8    1  0.3776180E-010  0.9118800E+02  0.7816164E-02  0.1184000E+00
        -11   -1    0    0    0    0  0.00000000000E+00  0.00000000000E+00  0.45593999997E+02  0.45594000000E+02  0.51100000000E-03 0. -1.
         11   -1    0    0    0    0 -0.00000000000E+00 -0.00000000000E+00 -0.45593999997E+02  0.45594000000E+02  0.51100000000E-03 0.  1.
         23    2    1    2    0    0  0.00000000000E+00  0.00000000000E+00  0.35527136788E-14  0.91188000000E+02  0.91188000000E+02 0.  0.
    9900012    2    3    3    0    0  0.32702473438E+02 -0.82629508236E+01 -0.27311079913E+02  0.47787271765E+02  0.20000003286E+02 0.  0.
         12    1    3    3    0    0 -0.32702473438E+02  0.82629508236E+01  0.27311079913E+02  0.43400728235E+02  0.00000000000E+00 0. -1.
         11    1    4    4    0    0  0.79661000530E+01 -0.69986099297E+01 -0.11633235359E+02  0.15740757802E+02  0.51100000000E-03 0. -1.
        -11    1    4    4    0    0  0.17767078674E+02 -0.65574632123E+01 -0.86404461917E+01  0.20816501124E+02  0.51100000000E-03 0.  1.
         12    1    4    4    0    0  0.69692947109E+01  0.52931223184E+01 -0.70373983621E+01  0.11230012838E+02  0.00000000000E+00 0. -1.
</event>
<event>
 8    1  0.3776180E-010  0.9118800E+02  0.7816164E-02  0.1184000E+00
        -11   -1    0    0    0    0  0.00000000000E+00  0.00000000000E+00  0.45593999997E+02  0.45594000000E+02  0.51100000000E-03 0. -1.
         11   -1    0    0    0    0 -0.00000000000E+00 -0.00000000000E+00 -0.45593999997E+02  0.45594000000E+02  0.51100000000E-03 0.  1.
         23    2    1    2    0    0  0.17763568394E-14  0.00000000000E+00  0.00000000000E+00  0.91188000000E+02  0.91188000000E+02 0.  0.
    9900012    2    3    3    0    0  0.13748862081E+02 -0.20573952567E+02 -0.35655363527E+02  0.47787266354E+02  0.19999978613E+02 0.  0.
         12    1    3    3    0    0 -0.13748862081E+02  0.20573952567E+02  0.35655363527E+02  0.43400733646E+02  0.00000000000E+00 0. -1.
         11    1    4    4    0    0 -0.16743107160E+01  0.10904394838E+01 -0.43785038661E+01  0.48128651559E+01  0.51100000000E-03 0. -1.
        -11    1    4    4    0    0  0.15068024792E+00  0.12055409933E+01  0.13835229309E+00  0.12227735857E+01  0.51100000000E-03 0.  1.
        -12    1    4    4    0    0  0.15272492549E+02 -0.22869933044E+02 -0.31415211954E+02  0.41751627612E+02  0.00000000000E+00 0.  1.
</event>
<event>
 8    1  0.3776180E-010  0.9118800E+02  0.7816164E-02  0.1184000E+00
        -11   -1    0    0    0    0  0.00000000000E+00  0.00000000000E+00  0.45593999997E+02  0.45594000000E+02  0.51100000000E-03 0. -1.
         11   -1    0    0    0    0 -0.00000000000E+00 -0.00000000000E+00 -0.45593999997E+02  0.45594000000E+02  0.51100000000E-03 0.  1.
         23    2    1    2    0    0 -0.35527136788E-14  0.00000000000E+00  0.00000000000E+00  0.91188000000E+02  0.91188000000E+02 0.  0.
    9900012    2    3    3    0    0 -0.24872852198E+02 -0.10049565931E+02  0.34117015958E+02  0.47787270401E+02  0.19999997067E+02 0.  0.
        -12    1    3    3    0    0  0.24872852198E+02  0.10049565931E+02 -0.34117015958E+02  0.43400729599E+02  0.00000000000E+00 0.  1.
         11    1    4    4    0    0 -0.24817643602E+02 -0.59644228695E+01  0.33887048614E+02  0.42424307162E+02  0.51100000000E-03 0. -1.
        -11    1    4    4    0    0 -0.76568991475E+00  0.14600646807E+00 -0.61164265470E+00  0.99081074502E+00  0.51100000000E-03 0.  1.
         12    1    4    4    0    0  0.71048131878E+00 -0.42311495294E+01  0.84160999826E+00  0.43721524943E+01  0.00000000000E+00 0. -1.
</event>
<event>
 8    1  0.3776180E-010  0.9118800E+02  0.7816164E-02  0.1184000E+00
        -11   -1    0    0    0    0  0.00000000000E+00  0.00000000000E+00  0.45593999997E+02  0.45594000000E+02  0.51100000000E-03 0. -1.
         11   -1    0    0    0    0 -0.00000000000E+00 -0.00000000000E+00 -0.45593999997E+02  0.45594000000E+02  0.51100000000E-03 0.  1.
         23    2    1    2    0    0  0.00000000000E+00  0.00000000000E+00 -0.35527136788E-14  0.91188000000E+02  0.91188000000E+02 0.  0.
    9900012    2    3    3    0    0  0.66686772149E+01  0.32204132602E+02 -0.28320416035E+02  0.47787269859E+02  0.19999994593E+02 0.  0.
         12    1    3    3    0    0 -0.66686772149E+01 -0.32204132602E+02  0.28320416035E+02  0.43400730141E+02  0.00000000000E+00 0. -1.
         11    1    4    4    0    0  0.10198115645E+01  0.92376180697E+01 -0.14137002787E+01  0.94006463590E+01  0.51100000000E-03 0. -1.
        -11    1    4    4    0    0  0.26707965978E+01  0.11415194799E+02 -0.37000578377E+01  0.12293504587E+02  0.51100000000E-03 0.  1.
         12    1    4    4    0    0  0.29780690526E+01  0.11551319733E+02 -0.23206657919E+02  0.26093118913E+02  0.00000000000E+00 0. -1.
</event>
<event>
 8    1  0.3776180E-010  0.9118800E+02  0.7816164E-02  0.1184000E+00
        -11   -1    0    0    0    0  0.00000000000E+00  0.00000000000E+00  0.45593999997E+02  0.45594000000E+02  0.51100000000E-03 0. -1.
         11   -1    0    0    0    0 -0.00000000000E+00 -0.00000000000E+00 -0.45593999997E+02  0.45594000000E+02  0.51100000000E-03 0.  1.
         23    2    1    2    0    0  0.00000000000E+00  0.00000000000E+00  0.00000000000E+00  0.91188000000E+02  0.91188000000E+02 0.  0.
    9900012    2    3    3    0    0  0.28352497781E+02 -0.21058672837E+02  0.25224814414E+02  0.47787273113E+02  0.20000009431E+02 0.  0.
        -12    1    3    3    0    0 -0.28352497781E+02  0.21058672837E+02 -0.25224814414E+02  0.43400726887E+02  0.00000000000E+00 0.  1.
         11    1    4    4    0    0  0.95040916336E+01 -0.55367764408E+01  0.13455448764E+02  0.17379089528E+02  0.51100000000E-03 0. -1.
        -11    1    4    4    0    0  0.11315764189E+02 -0.70326783087E+00  0.36701502865E+01  0.11916841369E+02  0.51100000000E-03 0.  1.
         12    1    4    4    0    0  0.75326419587E+01 -0.14818628566E+02  0.80992153643E+01  0.18491342216E+02  0.00000000000E+00 0. -1.
</event>
<event>
 8    1  0.3776180E-010  0.9118800E+02  0.7816164E-02  0.1184000E+00
        -11   -1    0    0    0    0  0.00000000000E+00  0.00000000000E+00  0.45593999997E+02  0.45594000000E+02  0.51100000000E-03 0. -1.
         11   -1    0    0    0    0 -0.00000000000E+00 -0.00000000000E+00 -0.45593999997E+02  0.45594000000E+02  0.51100000000E-03 0.  1.
         23    2    1    2    0    0  0.00000000000E+00  0.00000000000E+00  0.00000000000E+00  0.91188000000E+02  0.91188000000E+02 0.  0.
    9900012    2    3    3    0    0  0.86818120338E+01  0.43998657493E+01 -0.42295287296E+02  0.47787262607E+02  0.19999961532E+02 0.  0.
         12    1    3    3    0    0 -0.86818120338E+01 -0.43998657493E+01  0.42295287296E+02  0.43400737393E+02  0.00000000000E+00 0. -1.
         11    1    4    4    0    0  0.11288369081E+01 -0.17625449967E+01  0.84758296219E-01  0.20947605735E+01  0.51100000000E-03 0. -1.
        -11    1    4    4    0    0 -0.36270548793E+01  0.32433118192E+01 -0.74256264292E+01  0.88777546024E+01  0.51100000000E-03 0.  1.
        -12    1    4    4    0    0  0.11180030005E+02  0.29190989268E+01 -0.34954419163E+02  0.36814747432E+02  0.00000000000E+00 0.  1.
</event>
<event>
 8    1  0.3776180E-010  0.9118800E+02  0.7816164E-02  0.1184000E+00
        -11   -1    0    0    0    0  0.00000000000E+00  0.00000000000E+00  0.45593999997E+02  0.45594000000E+02  0.51100000000E-03 0. -1.
         11   -1    0    0    0    0 -0.00000000000E+00 -0.00000000000E+00 -0.45593999997E+02  0.45594000000E+02  0.51100000000E-03 0.  1.
         23    2    1    2    0    0  0.00000000000E+00  0.00000000000E+00  0.00000000000E+00  0.91188000000E+02  0.91188000000E+02 0.  0.
    9900012    2    3    3    0    0  0.10527318880E+02 -0.16927681818E+02  0.38551946485E+02  0.47787269219E+02  0.19999991677E+02 0.  0.
        -12    1    3    3    0    0 -0.10527318880E+02  0.16927681818E+02 -0.38551946485E+02  0.43400730781E+02  0.00000000000E+00 0.  1.
         11    1    4    4    0    0  0.15826041546E+01 -0.37975145464E+01  0.23261700022E+01  0.47261844844E+01  0.51100000000E-03 0.  1.
        -11    1    4    4    0    0  0.12608081034E+02 -0.13414211048E+02  0.34262672968E+02  0.38895186393E+02  0.51100000000E-03 0. -1.
         12    1    4    4    0    0 -0.36633663088E+01  0.28404377635E+00  0.19631035148E+01  0.41658983412E+01  0.00000000000E+00 0. -1.
</event>
<event>
 8    1  0.3776180E-010  0.9118800E+02  0.7816164E-02  0.1184000E+00
        -11   -1    0    0    0    0  0.00000000000E+00  0.00000000000E+00  0.45593999997E+02  0.45594000000E+02  0.51100000000E-03 0. -1.
         11   -1    0    0    0    0 -0.00000000000E+00 -0.00000000000E+00 -0.45593999997E+02  0.45594000000E+02  0.51100000000E-03 0.  1.
         23    2    1    2    0    0  0.00000000000E+00  0.00000000000E+00 -0.71054273576E-14  0.91188000000E+02  0.91188000000E+02 0.  0.
    9900012    2    3    3    0    0 -0.20187159175E+02  0.11322570608E+02 -0.36713773392E+02  0.47787272386E+02  0.20000006117E+02 0.  0.
         12    1    3    3    0    0  0.20187159175E+02 -0.11322570608E+02  0.36713773392E+02  0.43400727614E+02  0.00000000000E+00 0. -1.
         11    1    4    4    0    0 -0.34679690319E+01  0.73878854968E+01 -0.11006592927E+02  0.13702289934E+02  0.51100000000E-03 0. -1.
        -11    1    4    4    0    0 -0.16405168462E+02  0.79781487832E+01 -0.19833078212E+02  0.26946825451E+02  0.51100000000E-03 0.  1.
         12    1    4    4    0    0 -0.31402168128E+00 -0.40434636723E+01 -0.58741022535E+01  0.71381570010E+01  0.00000000000E+00 0. -1.
</event>
<event>
 8    1  0.3776180E-010  0.9118800E+02  0.7816164E-02  0.1184000E+00
        -11   -1    0    0    0    0  0.00000000000E+00  0.00000000000E+00  0.45593999997E+02  0.45594000000E+02  0.51100000000E-03 0. -1.
         11   -1    0    0    0    0 -0.00000000000E+00 -0.00000000000E+00 -0.45593999997E+02  0.45594000000E+02  0.51100000000E-03 0.  1.
         23    2    1    2    0    0  0.00000000000E+00 -0.35527136788E-14  0.00000000000E+00  0.91188000000E+02  0.91188000000E+02 0.  0.
    9900012    2    3    3    0    0  0.23753085165E+02 -0.22013088482E+02 -0.28893574031E+02  0.47787265679E+02  0.19999975537E+02 0.  0.
         12    1    3    3    0    0 -0.23753085165E+02  0.22013088482E+02  0.28893574031E+02  0.43400734321E+02  0.00000000000E+00 0. -1.
         11    1    4    4    0    0  0.52268767589E+01 -0.65536918307E+00 -0.35266451430E+00  0.52795948651E+01  0.51100000000E-03 0. -1.
        -11    1    4    4    0    0  0.76074777949E+00  0.13282203618E+01 -0.52159003769E+01  0.54358553620E+01  0.51100000000E-03 0.  1.
        -12    1    4    4    0    0  0.17765460626E+02 -0.22685939660E+02 -0.23325009139E+02  0.37071815452E+02  0.00000000000E+00 0.  1.
</event>
<event>
 8    1  0.3776180E-010  0.9118800E+02  0.7816164E-02  0.1184000E+00
        -11   -1    0    0    0    0  0.00000000000E+00  0.00000000000E+00  0.45593999997E+02  0.45594000000E+02  0.51100000000E-03 0. -1.
         11   -1    0    0    0    0 -0.00000000000E+00 -0.00000000000E+00 -0.45593999997E+02  0.45594000000E+02  0.51100000000E-03 0.  1.
         23    2    1    2    0    0  0.17763568394E-14 -0.35527136788E-14  0.00000000000E+00  0.91188000000E+02  0.91188000000E+02 0.  0.
    9900012    2    3    3    0    0  0.15593173362E+02 -0.20822455381E+02  0.34740490052E+02  0.47787270137E+02  0.19999995862E+02 0.  0.
        -12    1    3    3    0    0 -0.15593173362E+02  0.20822455381E+02 -0.34740490052E+02  0.43400729863E+02  0.00000000000E+00 0.  1.
         11    1    4    4    0    0  0.34141337489E+01 -0.16056025619E+02  0.13876517867E+02  0.21494418260E+02  0.51100000000E-03 0. -1.
        -11    1    4    4    0    0  0.74216768208E+01 -0.73264566643E+01  0.15484295762E+02  0.18668735083E+02  0.51100000000E-03 0.  1.
        -12    1    4    4    0    0  0.47573627928E+01  0.25600269025E+01  0.53796764227E+01  0.76241167945E+01  0.00000000000E+00 0.  1.
</event>
<event>
 8    1  0.3776180E-010  0.9118800E+02  0.7816164E-02  0.1184000E+00
        -11   -1    0    0    0    0  0.00000000000E+00  0.00000000000E+00  0.45593999997E+02  0.45594000000E+02  0.51100000000E-03 0.  1.
         11   -1    0    0    0    0 -0.00000000000E+00 -0.00000000000E+00 -0.45593999997E+02  0.45594000000E+02  0.51100000000E-03 0. -1.
         23    2    1    2    0    0  0.00000000000E+00  0.71054273576E-14  0.00000000000E+00  0.91188000000E+02  0.91188000000E+02 0.  0.
    9900012    2    3    3    0    0 -0.16987663139E+02  0.39569434755E+02  0.54131931159E+01  0.47787268146E+02  0.19999986785E+02 0.  0.
        -12    1    3    3    0    0  0.16987663139E+02 -0.39569434755E+02 -0.54131931159E+01  0.43400731854E+02  0.00000000000E+00 0.  1.
         11    1    4    4    0    0 -0.36004832181E+00  0.56837681730E+01  0.52159512529E+01  0.77227587798E+01  0.51100000000E-03 0. -1.
        -11    1    4    4    0    0 -0.16128029346E+01  0.18484264731E+02  0.16173589111E-01  0.18554499125E+02  0.51100000000E-03 0.  1.
        -12    1    4    4    0    0 -0.15014811882E+02  0.15401401851E+02  0.18106827395E+00  0.21510010241E+02  0.00000000000E+00 0.  1.
</event>
<event>
 8    1  0.3776180E-010  0.9118800E+02  0.7816164E-02  0.1184000E+00
        -11   -1    0    0    0    0  0.00000000000E+00  0.00000000000E+00  0.45593999997E+02  0.45594000000E+02  0.51100000000E-03 0. -1.
         11   -1    0    0    0    0 -0.00000000000E+00 -0.00000000000E+00 -0.45593999997E+02  0.45594000000E+02  0.51100000000E-03 0.  1.
         23    2    1    2    0    0  0.17763568394E-14  0.00000000000E+00  0.00000000000E+00  0.91188000000E+02  0.91188000000E+02 0.  0.
    9900012    2    3    3    0    0  0.12756898264E+02 -0.38553953428E+02  0.15312659236E+02  0.47787270615E+02  0.19999998044E+02 0.  0.
        -12    1    3    3    0    0 -0.12756898264E+02  0.38553953428E+02 -0.15312659236E+02  0.43400729385E+02  0.00000000000E+00 0.  1.
         11    1    4    4    0    0  0.68519360241E+01 -0.12391408388E+02  0.55959763953E+01  0.15225340101E+02  0.51100000000E-03 0.  1.
        -11    1    4    4    0    0 -0.85599132537E+00 -0.22681156362E+02  0.39973580817E+01  0.23046614653E+02  0.51100000000E-03 0. -1.
         12    1    4    4    0    0  0.67609535654E+01 -0.34813886775E+01  0.57193247594E+01  0.95153158613E+01  0.00000000000E+00 0. -1.
</event>
<event>
 8    1  0.3776180E-010  0.9118800E+02  0.7816164E-02  0.1184000E+00
        -11   -1    0    0    0    0  0.00000000000E+00  0.00000000000E+00  0.45593999997E+02  0.45594000000E+02  0.51100000000E-03 0.  1.
         11   -1    0    0    0    0 -0.00000000000E+00 -0.00000000000E+00 -0.45593999997E+02  0.45594000000E+02  0.51100000000E-03 0. -1.
         23    2    1    2    0    0  0.00000000000E+00  0.00000000000E+00  0.35527136788E-14  0.91188000000E+02  0.91188000000E+02 0.  0.
    9900012    2    3    3    0    0  0.19690727437E+02 -0.33943368783E+02  0.18540396157E+02  0.47787270501E+02  0.19999997524E+02 0.  0.
        -12    1    3    3    0    0 -0.19690727437E+02  0.33943368783E+02 -0.18540396157E+02  0.43400729499E+02  0.00000000000E+00 0.  1.
         11    1    4    4    0    0  0.26585546838E+01 -0.70510795803E+01  0.26499491423E+01  0.79879826597E+01  0.51100000000E-03 0. -1.
        -11    1    4    4    0    0  0.42096527765E+01 -0.18394817289E+02  0.15486300750E+02  0.24411390594E+02  0.51100000000E-03 0.  1.
        -12    1    4    4    0    0  0.12822519977E+02 -0.84974719142E+01  0.40414626523E+00  0.15387897247E+02  0.00000000000E+00 0.  1.
</event>
<event>
 8    1  0.3776180E-010  0.9118800E+02  0.7816164E-02  0.1184000E+00
        -11   -1    0    0    0    0  0.00000000000E+00  0.00000000000E+00  0.45593999997E+02  0.45594000000E+02  0.51100000000E-03 0. -1.
         11   -1    0    0    0    0 -0.00000000000E+00 -0.00000000000E+00 -0.45593999997E+02  0.45594000000E+02  0.51100000000E-03 0.  1.
         23    2    1    2    0    0 -0.14210854715E-13 -0.44408920985E-15  0.35527136788E-14  0.91188000000E+02  0.91188000000E+02 0.  0.
    9900012    2    3    3    0    0 -0.33316247362E+02 -0.17303274292E+01  0.27760709614E+02  0.47787269942E+02  0.19999994973E+02 0.  0.
        -12    1    3    3    0    0  0.33316247362E+02  0.17303274292E+01 -0.27760709614E+02  0.43400730058E+02  0.00000000000E+00 0.  1.
         11    1    4    4    0    0 -0.20966501674E+02  0.34505765382E+01  0.20348058980E+02  0.29420132144E+02  0.51100000000E-03 0. -1.
        -11    1    4    4    0    0 -0.11102148114E+02 -0.47676066192E+01  0.98561083103E+01  0.15592646886E+02  0.51100000000E-03 0.  1.
        -12    1    4    4    0    0 -0.12475975742E+01 -0.41329734828E+00 -0.24434576760E+01  0.27744909118E+01  0.00000000000E+00 0.  1.
</event>
<event>
 8    1  0.3776180E-010  0.9118800E+02  0.7816164E-02  0.1184000E+00
        -11   -1    0    0    0    0  0.00000000000E+00  0.00000000000E+00  0.45593999997E+02  0.45594000000E+02  0.51100000000E-03 0. -1.
         11   -1    0    0    0    0 -0.00000000000E+00 -0.00000000000E+00 -0.45593999997E+02  0.45594000000E+02  0.51100000000E-03 0.  1.
         23    2    1    2    0    0 -0.17763568394E-14 -0.35527136788E-14  0.00000000000E+00  0.91188000000E+02  0.91188000000E+02 0.  0.
    9900012    2    3    3    0    0 -0.14951509541E+02 -0.23262881341E+02 -0.33450170908E+02  0.47787271670E+02  0.20000002852E+02 0.  0.
         12    1    3    3    0    0  0.14951509541E+02  0.23262881341E+02  0.33450170908E+02  0.43400728330E+02  0.00000000000E+00 0. -1.
         11    1    4    4    0    0 -0.38572284683E+01 -0.86742160270E+00 -0.37779521298E+00  0.39715691077E+01  0.51100000000E-03 0. -1.
        -11    1    4    4    0    0  0.15518270518E+01 -0.21325950487E+00 -0.75601529891E+01  0.77207227832E+01  0.51100000000E-03 0.  1.
        -12    1    4    4    0    0 -0.12646108124E+02 -0.22182200233E+02 -0.25512222706E+02  0.36094979779E+02  0.00000000000E+00 0.  1.
</event>
<event>
 8    1  0.3776180E-010  0.9118800E+02  0.7816164E-02  0.1184000E+00
        -11   -1    0    0    0    0  0.00000000000E+00  0.00000000000E+00  0.45593999997E+02  0.45594000000E+02  0.51100000000E-03 0. -1.
         11   -1    0    0    0    0 -0.00000000000E+00 -0.00000000000E+00 -0.45593999997E+02  0.45594000000E+02  0.51100000000E-03 0.  1.
         23    2    1    2    0    0  0.00000000000E+00  0.00000000000E+00  0.00000000000E+00  0.91188000000E+02  0.91188000000E+02 0.  0.
    9900012    2    3    3    0    0  0.74938320743E+01  0.85096881518E+01 -0.41893331028E+02  0.47787268483E+02  0.19999988320E+02 0.  0.
         12    1    3    3    0    0 -0.74938320743E+01 -0.85096881518E+01  0.41893331028E+02  0.43400731517E+02  0.00000000000E+00 0. -1.
         11    1    4    4    0    0 -0.18699893531E+01  0.31068893883E+01 -0.47977133371E+01  0.60139567157E+01  0.51100000000E-03 0. -1.
        -11    1    4    4    0    0  0.30107168593E+01  0.40016092870E+01 -0.10133498311E+01  0.51092241128E+01  0.51100000000E-03 0.  1.
        -12    1    4    4    0    0  0.63531045681E+01  0.14011894764E+01 -0.36082267860E+02  0.36664087654E+02  0.00000000000E+00 0.  1.
</event>
<event>
 8    1  0.3776180E-010  0.9118800E+02  0.7816164E-02  0.1184000E+00
        -11   -1    0    0    0    0  0.00000000000E+00  0.00000000000E+00  0.45593999997E+02  0.45594000000E+02  0.51100000000E-03 0. -1.
         11   -1    0    0    0    0 -0.00000000000E+00 -0.00000000000E+00 -0.45593999997E+02  0.45594000000E+02  0.51100000000E-03 0.  1.
         23    2    1    2    0    0  0.00000000000E+00  0.35527136788E-14  0.00000000000E+00  0.91188000000E+02  0.91188000000E+02 0.  0.
    9900012    2    3    3    0    0  0.67014023307E+01  0.22675353730E+02 -0.36394268680E+02  0.47787271288E+02  0.20000001111E+02 0.  0.
         12    1    3    3    0    0 -0.67014023307E+01 -0.22675353730E+02  0.36394268680E+02  0.43400728712E+02  0.00000000000E+00 0. -1.
         11    1    4    4    0    0 -0.16723798453E+01  0.71412847839E+00 -0.20479574921E+01  0.27387887800E+01  0.51100000000E-03 0. -1.
        -11    1    4    4    0    0  0.10837637766E+02  0.93372722861E+01 -0.26119660640E+02  0.29780458665E+02  0.51100000000E-03 0.  1.
        -12    1    4    4    0    0 -0.24638555900E+01  0.12623952965E+02 -0.82266505479E+01  0.15268023843E+02  0.00000000000E+00 0.  1.
</event>
<event>
 8    1  0.3776180E-010  0.9118800E+02  0.7816164E-02  0.1184000E+00
        -11   -1    0    0    0    0  0.00000000000E+00  0.00000000000E+00  0.45593999997E+02  0.45594000000E+02  0.51100000000E-03 0. -1.
         11   -1    0    0    0    0 -0.00000000000E+00 -0.00000000000E+00 -0.45593999997E+02  0.45594000000E+02  0.51100000000E-03 0.  1.
         23    2    1    2    0    0  0.00000000000E+00 -0.35527136788E-14  0.00000000000E+00  0.91188000000E+02  0.91188000000E+02 0.  0.
    9900012    2    3    3    0    0 -0.89901356514E+01  0.29638477936E+02 -0.30403309686E+02  0.47787272434E+02  0.20000006337E+02 0.  0.
         12    1    3    3    0    0  0.89901356514E+01 -0.29638477936E+02  0.30403309686E+02  0.43400727566E+02  0.00000000000E+00 0. -1.
         11    1    4    4    0    0  0.24573389554E+01  0.48039511833E+01 -0.56227996274E+01  0.77930955098E+01  0.51100000000E-03 0. -1.
        -11    1    4    4    0    0 -0.96814982850E+00 -0.41981638804E+00 -0.76639028925E+01  0.77362114563E+01  0.51100000000E-03 0.  1.
         12    1    4    4    0    0 -0.10479324778E+02  0.25254343141E+02 -0.17116607166E+02  0.32257965468E+02  0.00000000000E+00 0. -1.
</event>
<event>
 8    1  0.3776180E-010  0.9118800E+02  0.7816164E-02  0.1184000E+00
        -11   -1    0    0    0    0  0.00000000000E+00  0.00000000000E+00  0.45593999997E+02  0.45594000000E+02  0.51100000000E-03 0. -1.
         11   -1    0    0    0    0 -0.00000000000E+00 -0.00000000000E+00 -0.45593999997E+02  0.45594000000E+02  0.51100000000E-03 0.  1.
         23    2    1    2    0    0  0.00000000000E+00  0.35527136788E-14  0.17763568394E-14  0.91188000000E+02  0.91188000000E+02 0.  0.
    9900012    2    3    3    0    0  0.32112593120E+02  0.25190501615E+02  0.14759517856E+02  0.47787269870E+02  0.19999994645E+02 0.  0.
        -12    1    3    3    0    0 -0.32112593120E+02 -0.25190501615E+02 -0.14759517856E+02  0.43400730130E+02  0.00000000000E+00 0.  1.
         11    1    4    4    0    0  0.24025611995E+02  0.21055276084E+02  0.10235954217E+02  0.33545930330E+02  0.51100000000E-03 0. -1.
        -11    1    4    4    0    0 -0.10123218434E+01 -0.21894301751E+01  0.59836566664E+00  0.24852448045E+01  0.51100000000E-03 0.  1.
        -12    1    4    4    0    0  0.90993029681E+01  0.63246557060E+01  0.39251979728E+01  0.11756094736E+02  0.00000000000E+00 0.  1.
</event>
<event>
 8    1  0.3776180E-010  0.9118800E+02  0.7816164E-02  0.1184000E+00
        -11   -1    0    0    0    0  0.00000000000E+00  0.00000000000E+00  0.45593999997E+02  0.45594000000E+02  0.51100000000E-03 0. -1.
         11   -1    0    0    0    0 -0.00000000000E+00 -0.00000000000E+00 -0.45593999997E+02  0.45594000000E+02  0.51100000000E-03 0.  1.
         23    2    1    2    0    0 -0.35527136788E-14 -0.44408920985E-15  0.71054273576E-14  0.91188000000E+02  0.91188000000E+02 0.  0.
    9900012    2    3    3    0    0  0.19406806186E+02 -0.33617572655E+01 -0.38674251482E+02  0.47787271135E+02  0.20000000414E+02 0.  0.
         12    1    3    3    0    0 -0.19406806186E+02  0.33617572655E+01  0.38674251482E+02  0.43400728865E+02  0.00000000000E+00 0. -1.
         11    1    4    4    0    0  0.15169855219E+01 -0.56505084101E+01 -0.10778248163E+02  0.12263772833E+02  0.51100000000E-03 0. -1.
        -11    1    4    4    0    0  0.47421915775E+01  0.17943718280E+00 -0.18819297102E+02  0.19408413700E+02  0.51100000000E-03 0.  1.
         12    1    4    4    0    0  0.13147629087E+02  0.21093139619E+01 -0.90767062171E+01  0.16115084603E+02  0.00000000000E+00 0. -1.
</event>
<event>
 8    1  0.3776180E-010  0.9118800E+02  0.7816164E-02  0.1184000E+00
        -11   -1    0    0    0    0  0.00000000000E+00  0.00000000000E+00  0.45593999997E+02  0.45594000000E+02  0.51100000000E-03 0. -1.
         11   -1    0    0    0    0 -0.00000000000E+00 -0.00000000000E+00 -0.45593999997E+02  0.45594000000E+02  0.51100000000E-03 0.  1.
         23    2    1    2    0    0 -0.35527136788E-14  0.00000000000E+00 -0.35527136788E-14  0.91188000000E+02  0.91188000000E+02 0.  0.
    9900012    2    3    3    0    0 -0.28430001980E+02 -0.82077827133E+01  0.31748864081E+02  0.47787273277E+02  0.20000010179E+02 0.  0.
        -12    1    3    3    0    0  0.28430001980E+02  0.82077827133E+01 -0.31748864081E+02  0.43400726723E+02  0.00000000000E+00 0.  1.
         11    1    4    4    0    0 -0.20241291582E+02 -0.37395262940E+01  0.23290158066E+02  0.31082557887E+02  0.51100000000E-03 0. -1.
        -11    1    4    4    0    0 -0.59950242773E+01  0.11155117768E+01  0.87880309479E+01  0.10696455993E+02  0.51100000000E-03 0.  1.
        -12    1    4    4    0    0 -0.21936861208E+01 -0.55837681961E+01 -0.32932493319E+00  0.60082593965E+01  0.00000000000E+00 0.  1.
</event>
<event>
 8    1  0.3776180E-010  0.9118800E+02  0.7816164E-02  0.1184000E+00
        -11   -1    0    0    0    0  0.00000000000E+00  0.00000000000E+00  0.45593999997E+02  0.45594000000E+02  0.51100000000E-03 0.  1.
         11   -1    0    0    0    0 -0.00000000000E+00 -0.00000000000E+00 -0.45593999997E+02  0.45594000000E+02  0.51100000000E-03 0. -1.
         23    2    1    2    0    0  0.71054273576E-14  0.00000000000E+00  0.17763568394E-14  0.91188000000E+02  0.91188000000E+02 0.  0.
    9900012    2    3    3    0    0 -0.24415631929E+02 -0.34542785873E+02 -0.97106244886E+01  0.47787269979E+02  0.19999995144E+02 0.  0.
         12    1    3    3    0    0  0.24415631929E+02  0.34542785873E+02  0.97106244886E+01  0.43400730021E+02  0.00000000000E+00 0. -1.
         11    1    4    4    0    0 -0.53569475841E+01 -0.32864394147E+01  0.10088664090E+00  0.62855190574E+01  0.51100000000E-03 0. -1.
        -11    1    4    4    0    0 -0.39140951944E+01  0.14305525154E+01 -0.10170942938E-01  0.41673403267E+01  0.51100000000E-03 0.  1.
        -12    1    4    4    0    0 -0.15144589151E+02 -0.32686898974E+02 -0.98013401866E+01  0.37334410595E+02  0.00000000000E+00 0.  1.
</event>
<event>
 8    1  0.3776180E-010  0.9118800E+02  0.7816164E-02  0.1184000E+00
        -11   -1    0    0    0    0  0.00000000000E+00  0.00000000000E+00  0.45593999997E+02  0.45594000000E+02  0.51100000000E-03 0. -1.
         11   -1    0    0    0    0 -0.00000000000E+00 -0.00000000000E+00 -0.45593999997E+02  0.45594000000E+02  0.51100000000E-03 0.  1.
         23    2    1    2    0    0 -0.17763568394E-14  0.00000000000E+00  0.00000000000E+00  0.91188000000E+02  0.91188000000E+02 0.  0.
    9900012    2    3    3    0    0  0.11144484842E+02  0.24532698364E+02  0.34023092194E+02  0.47787266898E+02  0.19999981094E+02 0.  0.
        -12    1    3    3    0    0 -0.11144484842E+02 -0.24532698364E+02 -0.34023092194E+02  0.43400733102E+02  0.00000000000E+00 0.  1.
         11    1    4    4    0    0  0.53225955998E+01  0.13171229427E+02  0.12074202992E+02  0.18643971859E+02  0.51100000000E-03 0. -1.
        -11    1    4    4    0    0  0.26018154734E+01  0.89648686633E+01  0.30464117804E+01  0.98193145843E+01  0.51100000000E-03 0.  1.
        -12    1    4    4    0    0  0.32200737683E+01  0.23966002737E+01  0.18902477421E+02  0.19323980454E+02  0.00000000000E+00 0.  1.
</event>
<event>
 8    1  0.3776180E-010  0.9118800E+02  0.7816164E-02  0.1184000E+00
        -11   -1    0    0    0    0  0.00000000000E+00  0.00000000000E+00  0.45593999997E+02  0.45594000000E+02  0.51100000000E-03 0. -1.
         11   -1    0    0    0    0 -0.00000000000E+00 -0.00000000000E+00 -0.45593999997E+02  0.45594000000E+02  0.51100000000E-03 0.  1.
         23    2    1    2    0    0  0.00000000000E+00  0.00000000000E+00  0.00000000000E+00  0.91188000000E+02  0.91188000000E+02 0.  0.
    9900012    2    3    3    0    0 -0.38105300548E+02 -0.12447298949E+02 -0.16633533274E+02  0.47787267170E+02  0.19999982335E+02 0.  0.
         12    1    3    3    0    0  0.38105300548E+02  0.12447298949E+02  0.16633533274E+02  0.43400732830E+02  0.00000000000E+00 0. -1.
         11    1    4    4    0    0 -0.13295133981E+01  0.25872205141E+01 -0.15711197844E+00  0.29130740291E+01  0.51100000000E-03 0. -1.
        -11    1    4    4    0    0 -0.14781001878E+01  0.12720036565E+01  0.10608394792E+01  0.22199446230E+01  0.51100000000E-03 0.  1.
        -12    1    4    4    0    0 -0.35297686962E+02 -0.16306523120E+02 -0.17537260775E+02  0.42654248518E+02  0.00000000000E+00 0.  1.
</event>
<event>
 8    1  0.3776180E-010  0.9118800E+02  0.7816164E-02  0.1184000E+00
        -11   -1    0    0    0    0  0.00000000000E+00  0.00000000000E+00  0.45593999997E+02  0.45594000000E+02  0.51100000000E-03 0.  1.
         11   -1    0    0    0    0 -0.00000000000E+00 -0.00000000000E+00 -0.45593999997E+02  0.45594000000E+02  0.51100000000E-03 0. -1.
         23    2    1    2    0    0  0.00000000000E+00  0.71054273576E-14 -0.17763568394E-14  0.91188000000E+02  0.91188000000E+02 0.  0.
    9900012    2    3    3    0    0 -0.21463770919E+02  0.37206590449E+02 -0.62128358424E+01  0.47787272309E+02  0.20000005765E+02 0.  0.
        -12    1    3    3    0    0  0.21463770919E+02 -0.37206590449E+02  0.62128358424E+01  0.43400727691E+02  0.00000000000E+00 0.  1.
         11    1    4    4    0    0 -0.62542452976E+01  0.87428271508E+01 -0.35892553514E+01  0.11332932766E+02  0.51100000000E-03 0. -1.
        -11    1    4    4    0    0 -0.25915421944E+01  0.20233666629E+02  0.24786026566E+01  0.20548986048E+02  0.51100000000E-03 0.  1.
         12    1    4    4    0    0 -0.12617983427E+02  0.82300966693E+01 -0.51021831476E+01  0.15905353495E+02  0.00000000000E+00 0. -1.
</event>
<event>
 8    1  0.3776180E-010  0.9118800E+02  0.7816164E-02  0.1184000E+00
        -11   -1    0    0    0    0  0.00000000000E+00  0.00000000000E+00  0.45593999997E+02  0.45594000000E+02  0.51100000000E-03 0.  1.
         11   -1    0    0    0    0 -0.00000000000E+00 -0.00000000000E+00 -0.45593999997E+02  0.45594000000E+02  0.51100000000E-03 0. -1.
         23    2    1    2    0    0  0.00000000000E+00  0.00000000000E+00 -0.17763568394E-14  0.91188000000E+02  0.91188000000E+02 0.  0.
    9900012    2    3    3    0    0 -0.47473387804E+01  0.41341660742E+02  0.12327023731E+02  0.47787243642E+02  0.19999875061E+02 0.  0.
        -12    1    3    3    0    0  0.47473387804E+01 -0.41341660742E+02 -0.12327023731E+02  0.43400756358E+02  0.00000000000E+00 0.  1.
         11    1    4    4    0    0  0.30777397338E+00  0.17073277845E+02  0.40156432673E+00  0.17080772681E+02  0.51100000000E-03 0. -1.
        -11    1    4    4    0    0  0.18642853391E+01  0.15125860553E+02  0.16845762329E+01  0.15333134534E+02  0.51100000000E-03 0.  1.
        -12    1    4    4    0    0 -0.69193980929E+01  0.91425223432E+01  0.10240883172E+02  0.15373336427E+02  0.00000000000E+00 0.  1.
</event>
<event>
 8    1  0.3776180E-010  0.9118800E+02  0.7816164E-02  0.1184000E+00
        -11   -1    0    0    0    0  0.00000000000E+00  0.00000000000E+00  0.45593999997E+02  0.45594000000E+02  0.51100000000E-03 0. -1.
         11   -1    0    0    0    0 -0.00000000000E+00 -0.00000000000E+00 -0.45593999997E+02  0.45594000000E+02  0.51100000000E-03 0.  1.
         23    2    1    2    0    0 -0.88817841970E-15  0.00000000000E+00  0.00000000000E+00  0.91188000000E+02  0.91188000000E+02 0.  0.
    9900012    2    3    3    0    0  0.74957890028E+01  0.12175460359E+02 -0.40977973979E+02  0.47787273748E+02  0.20000012328E+02 0.  0.
         12    1    3    3    0    0 -0.74957890028E+01 -0.12175460359E+02  0.40977973979E+02  0.43400726252E+02  0.00000000000E+00 0. -1.
         11    1    4    4    0    0  0.47856312537E+01 -0.37891910708E+00 -0.27365570532E+01  0.55258113389E+01  0.51100000000E-03 0. -1.
        -11    1    4    4    0    0  0.20605377395E+01 -0.21208077717E+01 -0.10001569639E+02  0.10429527165E+02  0.51100000000E-03 0.  1.
        -12    1    4    4    0    0  0.64962000964E+00  0.14675187237E+02 -0.28239847288E+02  0.31831935245E+02  0.00000000000E+00 0.  1.
</event>
<event>
 8    1  0.3776180E-010  0.9118800E+02  0.7816164E-02  0.1184000E+00
        -11   -1    0    0    0    0  0.00000000000E+00  0.00000000000E+00  0.45593999997E+02  0.45594000000E+02  0.51100000000E-03 0. -1.
         11   -1    0    0    0    0 -0.00000000000E+00 -0.00000000000E+00 -0.45593999997E+02  0.45594000000E+02  0.51100000000E-03 0.  1.
         23    2    1    2    0    0  0.35527136788E-14 -0.35527136788E-14  0.00000000000E+00  0.91188000000E+02  0.91188000000E+02 0.  0.
    9900012    2    3    3    0    0 -0.20652695337E+02  0.17537414240E+02 -0.33904698221E+02  0.47787270923E+02  0.19999999448E+02 0.  0.
         12    1    3    3    0    0  0.20652695337E+02 -0.17537414240E+02  0.33904698221E+02  0.43400729077E+02  0.00000000000E+00 0. -1.
         11    1    4    4    0    0 -0.97993548450E+01  0.11167641393E+02 -0.96149396629E+01  0.17697192847E+02  0.51100000000E-03 0. -1.
        -11    1    4    4    0    0 -0.11715919144E+02  0.90371919976E+01 -0.21759375341E+02  0.26313570949E+02  0.51100000000E-03 0.  1.
         12    1    4    4    0    0  0.86257865179E+00 -0.26674191514E+01 -0.25303832172E+01  0.37765071277E+01  0.00000000000E+00 0. -1.
</event>
<event>
 8    1  0.3776180E-010  0.9118800E+02  0.7816164E-02  0.1184000E+00
        -11   -1    0    0    0    0  0.00000000000E+00  0.00000000000E+00  0.45593999997E+02  0.45594000000E+02  0.51100000000E-03 0.  1.
         11   -1    0    0    0    0 -0.00000000000E+00 -0.00000000000E+00 -0.45593999997E+02  0.45594000000E+02  0.51100000000E-03 0. -1.
         23    2    1    2    0    0  0.00000000000E+00  0.00000000000E+00 -0.22204460493E-15  0.91188000000E+02  0.91188000000E+02 0.  0.
    9900012    2    3    3    0    0 -0.43394609319E+02 -0.31696541178E+00 -0.65625004599E+00  0.47787271329E+02  0.20000001298E+02 0.  0.
        -12    1    3    3    0    0  0.43394609319E+02  0.31696541178E+00  0.65625004599E+00  0.43400728671E+02  0.00000000000E+00 0.  1.
         11    1    4    4    0    0 -0.18239873526E+02 -0.44006458279E+01  0.39048935335E+01  0.19165251465E+02  0.51100000000E-03 0. -1.
        -11    1    4    4    0    0 -0.24289648006E+02  0.32929110297E+01 -0.63006201999E+00  0.24519935597E+02  0.51100000000E-03 0.  1.
         12    1    4    4    0    0 -0.86508778761E+00  0.79076938644E+00 -0.39310815595E+01  0.41020842666E+01  0.00000000000E+00 0. -1.
</event>
<event>
 8    1  0.3776180E-010  0.9118800E+02  0.7816164E-02  0.1184000E+00
        -11   -1    0    0    0    0  0.00000000000E+00  0.00000000000E+00  0.45593999997E+02  0.45594000000E+02  0.51100000000E-03 0.  1.
         11   -1    0    0    0    0 -0.00000000000E+00 -0.00000000000E+00 -0.45593999997E+02  0.45594000000E+02  0.51100000000E-03 0. -1.
         23    2    1    2    0    0  0.00000000000E+00 -0.17763568394E-14 -0.24980018054E-15  0.91188000000E+02  0.91188000000E+02 0.  0.
    9900012    2    3    3    0    0 -0.43016495251E+02 -0.57597896121E+01 -0.17107947171E+00  0.47787270649E+02  0.19999998196E+02 0.  0.
         12    1    3    3    0    0  0.43016495251E+02  0.57597896121E+01  0.17107947171E+00  0.43400729351E+02  0.00000000000E+00 0. -1.
         11    1    4    4    0    0 -0.12126470045E+02 -0.77881367390E+01  0.17145571229E+01  0.14513650678E+02  0.51100000000E-03 0. -1.
        -11    1    4    4    0    0 -0.29303036554E+02  0.48824070836E+00 -0.47135129284E+01  0.29683725081E+02  0.51100000000E-03 0.  1.
         12    1    4    4    0    0 -0.15869886519E+01  0.15401064186E+01  0.28278763337E+01  0.35898948899E+01  0.00000000000E+00 0. -1.
</event>
<event>
 8    1  0.3776180E-010  0.9118800E+02  0.7816164E-02  0.1184000E+00
        -11   -1    0    0    0    0  0.00000000000E+00  0.00000000000E+00  0.45593999997E+02  0.45594000000E+02  0.51100000000E-03 0. -1.
         11   -1    0    0    0    0 -0.00000000000E+00 -0.00000000000E+00 -0.45593999997E+02  0.45594000000E+02  0.51100000000E-03 0.  1.
         23    2    1    2    0    0  0.00000000000E+00  0.00000000000E+00 -0.88817841970E-15  0.91188000000E+02  0.91188000000E+02 0.  0.
    9900012    2    3    3    0    0 -0.41036652751E+02  0.13295823657E+02  0.47788470811E+01  0.47787272182E+02  0.20000005187E+02 0.  0.
        -12    1    3    3    0    0  0.41036652751E+02 -0.13295823657E+02 -0.47788470811E+01  0.43400727818E+02  0.00000000000E+00 0.  1.
         11    1    4    4    0    0 -0.12759378154E+02 -0.10470270714E+01  0.11894150667E+01  0.12857398844E+02  0.51100000000E-03 0. -1.
        -11    1    4    4    0    0 -0.10141067792E+02  0.22290401871E+01  0.74522137232E+01  0.12780663744E+02  0.51100000000E-03 0.  1.
         12    1    4    4    0    0 -0.18136206805E+02  0.12113810542E+02 -0.38627817088E+01  0.22149209594E+02  0.00000000000E+00 0. -1.
</event>
<event>
 8    1  0.3776180E-010  0.9118800E+02  0.7816164E-02  0.1184000E+00
        -11   -1    0    0    0    0  0.00000000000E+00  0.00000000000E+00  0.45593999997E+02  0.45594000000E+02  0.51100000000E-03 0. -1.
         11   -1    0    0    0    0 -0.00000000000E+00 -0.00000000000E+00 -0.45593999997E+02  0.45594000000E+02  0.51100000000E-03 0.  1.
         23    2    1    2    0    0  0.00000000000E+00 -0.35527136788E-14  0.00000000000E+00  0.91188000000E+02  0.91188000000E+02 0.  0.
    9900012    2    3    3    0    0  0.47259820247E+01  0.20643737491E+02  0.37883035448E+02  0.47787272143E+02  0.20000005011E+02 0.  0.
        -12    1    3    3    0    0 -0.47259820247E+01 -0.20643737491E+02 -0.37883035448E+02  0.43400727857E+02  0.00000000000E+00 0.  1.
         11    1    4    4    0    0  0.89083508084E+00  0.45940172595E+01  0.73938279532E+01  0.87502727834E+01  0.51100000000E-03 0. -1.
        -11    1    4    4    0    0 -0.13682619576E+01  0.21984488970E+01  0.21644009718E+02  0.21798359463E+02  0.51100000000E-03 0.  1.
        -12    1    4    4    0    0  0.52034089014E+01  0.13851271335E+02  0.88451977765E+01  0.17238639897E+02  0.00000000000E+00 0.  1.
</event>
<event>
 8    1  0.3776180E-010  0.9118800E+02  0.7816164E-02  0.1184000E+00
        -11   -1    0    0    0    0  0.00000000000E+00  0.00000000000E+00  0.45593999997E+02  0.45594000000E+02  0.51100000000E-03 0. -1.
         11   -1    0    0    0    0 -0.00000000000E+00 -0.00000000000E+00 -0.45593999997E+02  0.45594000000E+02  0.51100000000E-03 0.  1.
         23    2    1    2    0    0  0.00000000000E+00 -0.11102230246E-15  0.00000000000E+00  0.91188000000E+02  0.91188000000E+02 0.  0.
    9900012    2    3    3    0    0  0.25104220332E+02  0.69233388041E+00 -0.35396638660E+02  0.47787271515E+02  0.20000002144E+02 0.  0.
         12    1    3    3    0    0 -0.25104220332E+02 -0.69233388041E+00  0.35396638660E+02  0.43400728485E+02  0.00000000000E+00 0. -1.
         11    1    4    4    0    0  0.26866601641E+01  0.16545227886E+01  0.48630859305E+00  0.31925044721E+01  0.51100000000E-03 0. -1.
        -11    1    4    4    0    0 -0.62120270151E+00  0.28586809388E+01 -0.59425254708E+01  0.66235608805E+01  0.51100000000E-03 0.  1.
        -12    1    4    4    0    0  0.23038762869E+02 -0.38208698470E+01 -0.29940421782E+02  0.37971206162E+02  0.00000000000E+00 0.  1.
</event>
<event>
 8    1  0.3776180E-010  0.9118800E+02  0.7816164E-02  0.1184000E+00
        -11   -1    0    0    0    0  0.00000000000E+00  0.00000000000E+00  0.45593999997E+02  0.45594000000E+02  0.51100000000E-03 0. -1.
         11   -1    0    0    0    0 -0.00000000000E+00 -0.00000000000E+00 -0.45593999997E+02  0.45594000000E+02  0.51100000000E-03 0.  1.
         23    2    1    2    0    0  0.00000000000E+00  0.00000000000E+00  0.00000000000E+00  0.91188000000E+02  0.91188000000E+02 0.  0.
    9900012    2    3    3    0    0 -0.67930931921E+01  0.32464244554E+02  0.27991970270E+02  0.47787266260E+02  0.19999978185E+02 0.  0.
        -12    1    3    3    0    0  0.67930931921E+01 -0.32464244554E+02 -0.27991970270E+02  0.43400733740E+02  0.00000000000E+00 0.  1.
         11    1    4    4    0    0 -0.25234077401E+01  0.48138956782E+01  0.12369980435E+02  0.13511387584E+02  0.51100000000E-03 0. -1.
        -11    1    4    4    0    0  0.31544966642E+01  0.19326319180E+01  0.24978240229E+01  0.44637473546E+01  0.51100000000E-03 0.  1.
        -12    1    4    4    0    0 -0.74241821162E+01  0.25717716958E+02  0.13124165811E+02  0.29812131321E+02  0.00000000000E+00 0.  1.
</event>
<event>
 8    1  0.3776180E-010  0.9118800E+02  0.7816164E-02  0.1184000E+00
        -11   -1    0    0    0    0  0.00000000000E+00  0.00000000000E+00  0.45593999997E+02  0.45594000000E+02  0.51100000000E-03 0. -1.
         11   -1    0    0    0    0 -0.00000000000E+00 -0.00000000000E+00 -0.45593999997E+02  0.45594000000E+02  0.51100000000E-03 0.  1.
         23    2    1    2    0    0  0.17763568394E-14  0.17763568394E-14 -0.71054273576E-14  0.91188000000E+02  0.91188000000E+02 0.  0.
    9900012    2    3    3    0    0 -0.87792417705E+01 -0.14949467113E+02  0.39787703107E+02  0.47787274527E+02  0.20000015880E+02 0.  0.
        -12    1    3    3    0    0  0.87792417705E+01  0.14949467113E+02 -0.39787703107E+02  0.43400725473E+02  0.00000000000E+00 0.  1.
         11    1    4    4    0    0 -0.28718326803E+01  0.18637285100E+01  0.73201086229E+01  0.80811445609E+01  0.51100000000E-03 0. -1.
        -11    1    4    4    0    0  0.24949643656E+01  0.84945848332E+00  0.77496401469E+01  0.81855573768E+01  0.51100000000E-03 0.  1.
         12    1    4    4    0    0 -0.84023734557E+01 -0.17662654106E+02  0.24717954337E+02  0.31520572590E+02  0.00000000000E+00 0. -1.
</event>
<event>
 8    1  0.3776180E-010  0.9118800E+02  0.7816164E-02  0.1184000E+00
        -11   -1    0    0    0    0  0.00000000000E+00  0.00000000000E+00  0.45593999997E+02  0.45594000000E+02  0.51100000000E-03 0. -1.
         11   -1    0    0    0    0 -0.00000000000E+00 -0.00000000000E+00 -0.45593999997E+02  0.45594000000E+02  0.51100000000E-03 0.  1.
         23    2    1    2    0    0 -0.35527136788E-14  0.00000000000E+00  0.00000000000E+00  0.91188000000E+02  0.91188000000E+02 0.  0.
    9900012    2    3    3    0    0 -0.19343867905E+02 -0.14165409014E+02  0.36177053546E+02  0.47787271419E+02  0.20000001709E+02 0.  0.
        -12    1    3    3    0    0  0.19343867905E+02  0.14165409014E+02 -0.36177053546E+02  0.43400728581E+02  0.00000000000E+00 0.  1.
         11    1    4    4    0    0 -0.11303800707E+02 -0.10000458819E+02  0.20553250009E+02  0.25499434762E+02  0.51100000000E-03 0. -1.
        -11    1    4    4    0    0  0.90081323204E+00 -0.56754421020E+01  0.10240495948E+02  0.11742651535E+02  0.51100000000E-03 0.  1.
        -12    1    4    4    0    0 -0.89408804301E+01  0.15104919072E+01  0.53833075888E+01  0.10545185122E+02  0.00000000000E+00 0.  1.
</event>
<event>
 8    1  0.3776180E-010  0.9118800E+02  0.7816164E-02  0.1184000E+00
        -11   -1    0    0    0    0  0.00000000000E+00  0.00000000000E+00  0.45593999997E+02  0.45594000000E+02  0.51100000000E-03 0. -1.
         11   -1    0    0    0    0 -0.00000000000E+00 -0.00000000000E+00 -0.45593999997E+02  0.45594000000E+02  0.51100000000E-03 0.  1.
         23    2    1    2    0    0  0.00000000000E+00  0.44408920985E-15  0.00000000000E+00  0.91188000000E+02  0.91188000000E+02 0.  0.
    9900012    2    3    3    0    0  0.29682607328E+02 -0.37639895950E+01 -0.31438806633E+02  0.47787270076E+02  0.19999995585E+02 0.  0.
         12    1    3    3    0    0 -0.29682607328E+02  0.37639895950E+01  0.31438806633E+02  0.43400729924E+02  0.00000000000E+00 0. -1.
         11    1    4    4    0    0  0.14307477382E+02  0.35269790701E+01 -0.86985979921E+01  0.17111665544E+02  0.51100000000E-03 0.  1.
        -11    1    4    4    0    0  0.11514623452E+01  0.26248520728E+01 -0.14316187385E+01  0.32039423231E+01  0.51100000000E-03 0. -1.
         12    1    4    4    0    0  0.14223667601E+02 -0.99158207379E+01 -0.21308589902E+02  0.27471662209E+02  0.00000000000E+00 0. -1.
</event>
<event>
 8    1  0.3776180E-010  0.9118800E+02  0.7816164E-02  0.1184000E+00
        -11   -1    0    0    0    0  0.00000000000E+00  0.00000000000E+00  0.45593999997E+02  0.45594000000E+02  0.51100000000E-03 0.  1.
         11   -1    0    0    0    0 -0.00000000000E+00 -0.00000000000E+00 -0.45593999997E+02  0.45594000000E+02  0.51100000000E-03 0. -1.
         23    2    1    2    0    0  0.00000000000E+00  0.44408920985E-15  0.00000000000E+00  0.91188000000E+02  0.91188000000E+02 0.  0.
    9900012    2    3    3    0    0  0.41306360098E+02 -0.14245752616E+01 -0.13243021037E+02  0.47787281050E+02  0.20000045618E+02 0.  0.
         12    1    3    3    0    0 -0.41306360098E+02  0.14245752616E+01  0.13243021037E+02  0.43400718950E+02  0.00000000000E+00 0. -1.
         11    1    4    4    0    0  0.35796972790E+02  0.14209227579E+01 -0.11966430689E+02  0.37770858424E+02  0.51100000000E-03 0. -1.
        -11    1    4    4    0    0  0.23125435864E+01  0.25006359550E+01  0.70807199300E+00  0.34788509923E+01  0.51100000000E-03 0.  1.
         12    1    4    4    0    0  0.31968437221E+01 -0.53461339744E+01 -0.19846623410E+01  0.65375716335E+01  0.00000000000E+00 0. -1.
</event>
<event>
 8    1  0.3776180E-010  0.9118800E+02  0.7816164E-02  0.1184000E+00
        -11   -1    0    0    0    0  0.00000000000E+00  0.00000000000E+00  0.45593999997E+02  0.45594000000E+02  0.51100000000E-03 0. -1.
         11   -1    0    0    0    0 -0.00000000000E+00 -0.00000000000E+00 -0.45593999997E+02  0.45594000000E+02  0.51100000000E-03 0.  1.
         23    2    1    2    0    0  0.71054273576E-14 -0.17763568394E-14  0.00000000000E+00  0.91188000000E+02  0.91188000000E+02 0.  0.
    9900012    2    3    3    0    0  0.32786900008E+02 -0.85201194686E+01  0.27130274869E+02  0.47787250440E+02  0.19999906055E+02 0.  0.
        -12    1    3    3    0    0 -0.32786900008E+02  0.85201194686E+01 -0.27130274869E+02  0.43400749560E+02  0.00000000000E+00 0.  1.
         11    1    4    4    0    0  0.11698318520E+02 -0.61030717357E+01  0.12548957215E+02  0.18209186370E+02  0.51100000000E-03 0. -1.
        -11    1    4    4    0    0  0.17825280144E+02  0.24208810003E+01  0.15406177333E+02  0.23684416339E+02  0.51100000000E-03 0.  1.
        -12    1    4    4    0    0  0.32633013437E+01 -0.48379287332E+01 -0.82485967890E+00  0.58936477310E+01  0.00000000000E+00 0.  1.
</event>
<event>
 8    1  0.3776180E-010  0.9118800E+02  0.7816164E-02  0.1184000E+00
        -11   -1    0    0    0    0  0.00000000000E+00  0.00000000000E+00  0.45593999997E+02  0.45594000000E+02  0.51100000000E-03 0. -1.
         11   -1    0    0    0    0 -0.00000000000E+00 -0.00000000000E+00 -0.45593999997E+02  0.45594000000E+02  0.51100000000E-03 0.  1.
         23    2    1    2    0    0  0.22204460493E-15  0.00000000000E+00  0.00000000000E+00  0.91188000000E+02  0.91188000000E+02 0.  0.
    9900012    2    3    3    0    0  0.19392297625E+01  0.13339628323E+02  0.41254296362E+02  0.47787271156E+02  0.20000000508E+02 0.  0.
        -12    1    3    3    0    0 -0.19392297625E+01 -0.13339628323E+02 -0.41254296362E+02  0.43400728844E+02  0.00000000000E+00 0.  1.
         11    1    4    4    0    0 -0.44129403412E+01  0.34086427518E+01  0.88833763773E+01  0.10488434773E+02  0.51100000000E-03 0. -1.
        -11    1    4    4    0    0  0.21827625910E+01  0.84571873488E+01  0.60885222633E+01  0.10646998356E+02  0.51100000000E-03 0.  1.
        -12    1    4    4    0    0  0.41694075127E+01  0.14737982224E+01  0.26282397722E+02  0.26651838027E+02  0.00000000000E+00 0.  1.
</event>
<event>
 8    1  0.3776180E-010  0.9118800E+02  0.7816164E-02  0.1184000E+00
        -11   -1    0    0    0    0  0.00000000000E+00  0.00000000000E+00  0.45593999997E+02  0.45594000000E+02  0.51100000000E-03 0. -1.
         11   -1    0    0    0    0 -0.00000000000E+00 -0.00000000000E+00 -0.45593999997E+02  0.45594000000E+02  0.51100000000E-03 0.  1.
         23    2    1    2    0    0  0.44408920985E-15  0.17763568394E-14  0.71054273576E-14  0.91188000000E+02  0.91188000000E+02 0.  0.
    9900012    2    3    3    0    0  0.39212267249E+01  0.13075535677E+02  0.41198029809E+02  0.47787270601E+02  0.19999997978E+02 0.  0.
        -12    1    3    3    0    0 -0.39212267249E+01 -0.13075535677E+02 -0.41198029809E+02  0.43400729399E+02  0.00000000000E+00 0.  1.
         11    1    4    4    0    0  0.33104613296E+01  0.11107869580E+02  0.11561932142E+02  0.16371383446E+02  0.51100000000E-03 0. -1.
        -11    1    4    4    0    0 -0.32310181102E+01  0.68061850876E+00  0.29618392127E+01  0.44356748490E+01  0.51100000000E-03 0.  1.
        -12    1    4    4    0    0  0.38417835055E+01  0.12870475880E+01  0.26674258454E+02  0.26980212306E+02  0.00000000000E+00 0.  1.
</event>
<event>
 8    1  0.3776180E-010  0.9118800E+02  0.7816164E-02  0.1184000E+00
        -11   -1    0    0    0    0  0.00000000000E+00  0.00000000000E+00  0.45593999997E+02  0.45594000000E+02  0.51100000000E-03 0. -1.
         11   -1    0    0    0    0 -0.00000000000E+00 -0.00000000000E+00 -0.45593999997E+02  0.45594000000E+02  0.51100000000E-03 0.  1.
         23    2    1    2    0    0  0.88817841970E-15  0.00000000000E+00  0.00000000000E+00  0.91188000000E+02  0.91188000000E+02 0.  0.
    9900012    2    3    3    0    0  0.68362814678E+01  0.34364382814E+02  0.25612062345E+02  0.47787270881E+02  0.19999999257E+02 0.  0.
        -12    1    3    3    0    0 -0.68362814678E+01 -0.34364382814E+02 -0.25612062345E+02  0.43400729119E+02  0.00000000000E+00 0.  1.
         11    1    4    4    0    0 -0.38469381036E+01  0.66355506342E+01  0.67253339266E+00  0.76994653332E+01  0.51100000000E-03 0. -1.
        -11    1    4    4    0    0  0.24054122490E-02  0.44915548909E+01  0.87057129397E+01  0.97960966295E+01  0.51100000000E-03 0.  1.
         12    1    4    4    0    0  0.10680814159E+02  0.23237277289E+02  0.16233816012E+02  0.30291708919E+02  0.00000000000E+00 0. -1.
</event>
<event>
 8    1  0.3776180E-010  0.9118800E+02  0.7816164E-02  0.1184000E+00
        -11   -1    0    0    0    0  0.00000000000E+00  0.00000000000E+00  0.45593999997E+02  0.45594000000E+02  0.51100000000E-03 0.  1.
         11   -1    0    0    0    0 -0.00000000000E+00 -0.00000000000E+00 -0.45593999997E+02  0.45594000000E+02  0.51100000000E-03 0. -1.
         23    2    1    2    0    0  0.00000000000E+00  0.00000000000E+00  0.00000000000E+00  0.91188000000E+02  0.91188000000E+02 0.  0.
    9900012    2    3    3    0    0 -0.22013815526E+02  0.34283363730E+02  0.14955475180E+02  0.47787270277E+02  0.19999996500E+02 0.  0.
        -12    1    3    3    0    0  0.22013815526E+02 -0.34283363730E+02 -0.14955475180E+02  0.43400729723E+02  0.00000000000E+00 0.  1.
         11    1    4    4    0    0 -0.37951982999E+01  0.45742814884E+01 -0.44780165405E+00  0.59605459359E+01  0.51100000000E-03 0. -1.
        -11    1    4    4    0    0 -0.29096170577E+01 -0.79796836593E+00 -0.18930176236E+01  0.35617609297E+01  0.51100000000E-03 0.  1.
         12    1    4    4    0    0 -0.15309000168E+02  0.30507050607E+02  0.17296294458E+02  0.38264963411E+02  0.00000000000E+00 0. -1.
</event>
<event>
 8    1  0.3776180E-010  0.9118800E+02  0.7816164E-02  0.1184000E+00
        -11   -1    0    0    0    0  0.00000000000E+00  0.00000000000E+00  0.45593999997E+02  0.45594000000E+02  0.51100000000E-03 0. -1.
         11   -1    0    0    0    0 -0.00000000000E+00 -0.00000000000E+00 -0.45593999997E+02  0.45594000000E+02  0.51100000000E-03 0.  1.
         23    2    1    2    0    0  0.00000000000E+00  0.35527136788E-14  0.00000000000E+00  0.91188000000E+02  0.91188000000E+02 0.  0.
    9900012    2    3    3    0    0 -0.31571499994E+02 -0.16293711283E+02  0.24927473156E+02  0.47787267780E+02  0.19999985118E+02 0.  0.
        -12    1    3    3    0    0  0.31571499994E+02  0.16293711283E+02 -0.24927473156E+02  0.43400732220E+02  0.00000000000E+00 0.  1.
         11    1    4    4    0    0 -0.19639934111E+02 -0.25808117431E+01  0.18484232693E+02  0.27093439421E+02  0.51100000000E-03 0. -1.
        -11    1    4    4    0    0 -0.62291512031E+00 -0.11744706195E+01  0.32476946157E+01  0.35092627518E+01  0.51100000000E-03 0.  1.
        -12    1    4    4    0    0 -0.11308650763E+02 -0.12538428921E+02  0.31955458474E+01  0.17184565608E+02  0.00000000000E+00 0.  1.
</event>
<event>
 8    1  0.3776180E-010  0.9118800E+02  0.7816164E-02  0.1184000E+00
        -11   -1    0    0    0    0  0.00000000000E+00  0.00000000000E+00  0.45593999997E+02  0.45594000000E+02  0.51100000000E-03 0. -1.
         11   -1    0    0    0    0 -0.00000000000E+00 -0.00000000000E+00 -0.45593999997E+02  0.45594000000E+02  0.51100000000E-03 0.  1.
         23    2    1    2    0    0  0.00000000000E+00  0.17763568394E-14 -0.71054273576E-14  0.91188000000E+02  0.91188000000E+02 0.  0.
    9900012    2    3    3    0    0 -0.20246540649E+02 -0.10868419802E+02  0.36818172103E+02  0.47787277031E+02  0.20000027295E+02 0.  0.
        -12    1    3    3    0    0  0.20246540649E+02  0.10868419802E+02 -0.36818172103E+02  0.43400722969E+02  0.00000000000E+00 0.  1.
         11    1    4    4    0    0 -0.71666178906E+00  0.30947932854E+01  0.40038588193E+01  0.51109916167E+01  0.51100000000E-03 0. -1.
        -11    1    4    4    0    0 -0.48044980137E+00 -0.70696015064E+00 -0.12155447213E+01  0.14859925628E+01  0.51100000000E-03 0.  1.
         12    1    4    4    0    0 -0.19049429058E+02 -0.13256252937E+02  0.34029858005E+02  0.41190292852E+02  0.00000000000E+00 0. -1.
</event>
<event>
 8    1  0.3776180E-010  0.9118800E+02  0.7816164E-02  0.1184000E+00
        -11   -1    0    0    0    0  0.00000000000E+00  0.00000000000E+00  0.45593999997E+02  0.45594000000E+02  0.51100000000E-03 0. -1.
         11   -1    0    0    0    0 -0.00000000000E+00 -0.00000000000E+00 -0.45593999997E+02  0.45594000000E+02  0.51100000000E-03 0.  1.
         23    2    1    2    0    0  0.00000000000E+00 -0.35527136788E-14  0.35527136788E-14  0.91188000000E+02  0.91188000000E+02 0.  0.
    9900012    2    3    3    0    0 -0.17241306589E+02 -0.28426570546E+02  0.27897854944E+02  0.47787275624E+02  0.20000020880E+02 0.  0.
        -12    1    3    3    0    0  0.17241306589E+02  0.28426570546E+02 -0.27897854944E+02  0.43400724376E+02  0.00000000000E+00 0.  1.
         11    1    4    4    0    0 -0.29271115828E+01 -0.15829643911E+02  0.97399574281E+01  0.18815216701E+02  0.51100000000E-03 0. -1.
        -11    1    4    4    0    0  0.15333765234E+01 -0.44401159916E+01  0.46345742173E+01  0.65988750570E+01  0.51100000000E-03 0.  1.
         12    1    4    4    0    0 -0.15847571530E+02 -0.81568106437E+01  0.13523323298E+02  0.22373183866E+02  0.00000000000E+00 0. -1.
</event>
<event>
 8    1  0.3776180E-010  0.9118800E+02  0.7816164E-02  0.1184000E+00
        -11   -1    0    0    0    0  0.00000000000E+00  0.00000000000E+00  0.45593999997E+02  0.45594000000E+02  0.51100000000E-03 0. -1.
         11   -1    0    0    0    0 -0.00000000000E+00 -0.00000000000E+00 -0.45593999997E+02  0.45594000000E+02  0.51100000000E-03 0.  1.
         23    2    1    2    0    0 -0.35527136788E-14  0.00000000000E+00 -0.35527136788E-14  0.91188000000E+02  0.91188000000E+02 0.  0.
    9900012    2    3    3    0    0 -0.22945434435E+02 -0.26962246438E+02 -0.25103145307E+02  0.47787267303E+02  0.19999982940E+02 0.  0.
         12    1    3    3    0    0  0.22945434435E+02  0.26962246438E+02  0.25103145307E+02  0.43400732697E+02  0.00000000000E+00 0. -1.
         11    1    4    4    0    0 -0.44651160142E+01 -0.12619081758E+00 -0.80413194530E+01  0.91986957743E+01  0.51100000000E-03 0. -1.
        -11    1    4    4    0    0 -0.10417042758E+02 -0.58304169321E+01 -0.41007609365E+01  0.12622392085E+02  0.51100000000E-03 0.  1.
         12    1    4    4    0    0 -0.80632756626E+01 -0.21005638688E+02 -0.12961064918E+02  0.25966179444E+02  0.00000000000E+00 0. -1.
</event>
<event>
 8    1  0.3776180E-010  0.9118800E+02  0.7816164E-02  0.1184000E+00
        -11   -1    0    0    0    0  0.00000000000E+00  0.00000000000E+00  0.45593999997E+02  0.45594000000E+02  0.51100000000E-03 0. -1.
         11   -1    0    0    0    0 -0.00000000000E+00 -0.00000000000E+00 -0.45593999997E+02  0.45594000000E+02  0.51100000000E-03 0.  1.
         23    2    1    2    0    0 -0.71054273576E-14  0.00000000000E+00  0.00000000000E+00  0.91188000000E+02  0.91188000000E+02 0.  0.
    9900012    2    3    3    0    0  0.39913012252E+02 -0.14758661612E+02 -0.85297147418E+01  0.47787277964E+02  0.20000031551E+02 0.  0.
         12    1    3    3    0    0 -0.39913012252E+02  0.14758661612E+02  0.85297147418E+01  0.43400722036E+02  0.00000000000E+00 0. -1.
         11    1    4    4    0    0  0.30275193598E+01 -0.77706752843E+01 -0.91273448810E+00  0.83894190714E+01  0.51100000000E-03 0. -1.
        -11    1    4    4    0    0  0.16860262232E+02 -0.78766629562E+01 -0.36070320132E+01  0.18955762766E+02  0.51100000000E-03 0.  1.
        -12    1    4    4    0    0  0.20025230661E+02  0.88867662808E+00 -0.40099482405E+01  0.20442096127E+02  0.00000000000E+00 0.  1.
</event>
<event>
 8    1  0.3776180E-010  0.9118800E+02  0.7816164E-02  0.1184000E+00
        -11   -1    0    0    0    0  0.00000000000E+00  0.00000000000E+00  0.45593999997E+02  0.45594000000E+02  0.51100000000E-03 0. -1.
         11   -1    0    0    0    0 -0.00000000000E+00 -0.00000000000E+00 -0.45593999997E+02  0.45594000000E+02  0.51100000000E-03 0.  1.
         23    2    1    2    0    0 -0.34694469520E-15  0.35527136788E-14  0.00000000000E+00  0.91188000000E+02  0.91188000000E+02 0.  0.
    9900012    2    3    3    0    0 -0.77001706368E-01 -0.17821045442E+02 -0.39573063738E+02  0.47787274620E+02  0.20000016304E+02 0.  0.
         12    1    3    3    0    0  0.77001706368E-01  0.17821045442E+02  0.39573063738E+02  0.43400725380E+02  0.00000000000E+00 0. -1.
         11    1    4    4    0    0  0.43340138089E+01 -0.10585503046E+01 -0.14858586955E+02  0.15513923134E+02  0.51100000000E-03 0. -1.
        -11    1    4    4    0    0 -0.20387469549E+01 -0.99956693628E+01 -0.22602735285E+02  0.24798256749E+02  0.51100000000E-03 0.  1.
         12    1    4    4    0    0 -0.23722685604E+01 -0.67668257744E+01 -0.21117414978E+01  0.74750947377E+01  0.00000000000E+00 0. -1.
</event>
<event>
 8    1  0.3776180E-010  0.9118800E+02  0.7816164E-02  0.1184000E+00
        -11   -1    0    0    0    0  0.00000000000E+00  0.00000000000E+00  0.45593999997E+02  0.45594000000E+02  0.51100000000E-03 0. -1.
         11   -1    0    0    0    0 -0.00000000000E+00 -0.00000000000E+00 -0.45593999997E+02  0.45594000000E+02  0.51100000000E-03 0.  1.
         23    2    1    2    0    0  0.17763568394E-14  0.35527136788E-14  0.00000000000E+00  0.91188000000E+02  0.91188000000E+02 0.  0.
    9900012    2    3    3    0    0  0.11705824268E+02  0.28312513906E+02 -0.30740830542E+02  0.47787269270E+02  0.19999991911E+02 0.  0.
         12    1    3    3    0    0 -0.11705824268E+02 -0.28312513906E+02  0.30740830542E+02  0.43400730730E+02  0.00000000000E+00 0. -1.
         11    1    4    4    0    0  0.43310205133E+00  0.32141816835E+01 -0.44272587588E+00  0.32733083789E+01  0.51100000000E-03 0. -1.
        -11    1    4    4    0    0  0.76040346978E+01  0.55032067283E+01 -0.19960678515E+02  0.22057545535E+02  0.51100000000E-03 0.  1.
        -12    1    4    4    0    0  0.36686875191E+01  0.19595125494E+02 -0.10337426151E+02  0.22456415357E+02  0.00000000000E+00 0.  1.
</event>
<event>
 8    1  0.3776180E-010  0.9118800E+02  0.7816164E-02  0.1184000E+00
        -11   -1    0    0    0    0  0.00000000000E+00  0.00000000000E+00  0.45593999997E+02  0.45594000000E+02  0.51100000000E-03 0. -1.
         11   -1    0    0    0    0 -0.00000000000E+00 -0.00000000000E+00 -0.45593999997E+02  0.45594000000E+02  0.51100000000E-03 0.  1.
         23    2    1    2    0    0  0.00000000000E+00  0.00000000000E+00  0.00000000000E+00  0.91188000000E+02  0.91188000000E+02 0.  0.
    9900012    2    3    3    0    0 -0.30391209115E+02 -0.17971028717E+02  0.25239632745E+02  0.47787279663E+02  0.20000039297E+02 0.  0.
        -12    1    3    3    0    0  0.30391209115E+02  0.17971028717E+02 -0.25239632745E+02  0.43400720337E+02  0.00000000000E+00 0.  1.
         11    1    4    4    0    0 -0.12623974808E+02 -0.87170873902E+01  0.31367913137E+01  0.15658601870E+02  0.51100000000E-03 0. -1.
        -11    1    4    4    0    0 -0.73423644196E+01  0.10830308834E+01  0.29267562068E+01  0.79780432012E+01  0.51100000000E-03 0.  1.
         12    1    4    4    0    0 -0.10424869887E+02 -0.10336972210E+02  0.19176085225E+02  0.24150634592E+02  0.00000000000E+00 0. -1.
</event>
<event>
 8    1  0.3776180E-010  0.9118800E+02  0.7816164E-02  0.1184000E+00
        -11   -1    0    0    0    0  0.00000000000E+00  0.00000000000E+00  0.45593999997E+02  0.45594000000E+02  0.51100000000E-03 0. -1.
         11   -1    0    0    0    0 -0.00000000000E+00 -0.00000000000E+00 -0.45593999997E+02  0.45594000000E+02  0.51100000000E-03 0.  1.
         23    2    1    2    0    0  0.35527136788E-14  0.00000000000E+00  0.35527136788E-14  0.91188000000E+02  0.91188000000E+02 0.  0.
    9900012    2    3    3    0    0 -0.23648682589E+02 -0.17618240053E+02  0.31842749838E+02  0.47787270882E+02  0.19999999257E+02 0.  0.
        -12    1    3    3    0    0  0.23648682589E+02  0.17618240053E+02 -0.31842749838E+02  0.43400729118E+02  0.00000000000E+00 0.  1.
         11    1    4    4    0    0 -0.57027348581E+01  0.79960545644E+00  0.74285123716E+01  0.93991143234E+01  0.51100000000E-03 0. -1.
        -11    1    4    4    0    0 -0.90964206823E+01 -0.11258286657E+01  0.34125451550E+01  0.97804817933E+01  0.51100000000E-03 0.  1.
         12    1    4    4    0    0 -0.88495270490E+01 -0.17292016844E+02  0.21001692311E+02  0.28607674765E+02  0.00000000000E+00 0. -1.
</event>
<event>
 8    1  0.3776180E-010  0.9118800E+02  0.7816164E-02  0.1184000E+00
        -11   -1    0    0    0    0  0.00000000000E+00  0.00000000000E+00  0.45593999997E+02  0.45594000000E+02  0.51100000000E-03 0. -1.
         11   -1    0    0    0    0 -0.00000000000E+00 -0.00000000000E+00 -0.45593999997E+02  0.45594000000E+02  0.51100000000E-03 0.  1.
         23    2    1    2    0    0  0.00000000000E+00  0.00000000000E+00  0.00000000000E+00  0.91188000000E+02  0.91188000000E+02 0.  0.
    9900012    2    3    3    0    0 -0.31817334502E+02  0.14040083136E+01 -0.29484055476E+02  0.47787267962E+02  0.19999985945E+02 0.  0.
         12    1    3    3    0    0  0.31817334502E+02 -0.14040083136E+01  0.29484055476E+02  0.43400732038E+02  0.00000000000E+00 0. -1.
         11    1    4    4    0    0 -0.86458732282E+01  0.22538689596E+01  0.95119730837E-01  0.89353286000E+01  0.51100000000E-03 0. -1.
        -11    1    4    4    0    0 -0.44590407793E+01  0.38261647042E+01 -0.76814238140E+01  0.96709282433E+01  0.51100000000E-03 0.  1.
        -12    1    4    4    0    0 -0.18712420495E+02 -0.46760253503E+01 -0.21897751392E+02  0.29181011118E+02  0.00000000000E+00 0.  1.
</event>
<event>
 8    1  0.4659447E-010  0.9118800E+02  0.7816164E-02  0.1184000E+00
        -11   -1    0    0    0    0  0.00000000000E+00  0.00000000000E+00  0.45593999997E+02  0.45594000000E+02  0.51100000000E-03 0. -1.
         11   -1    0    0    0    0 -0.00000000000E+00 -0.00000000000E+00 -0.45593999997E+02  0.45594000000E+02  0.51100000000E-03 0.  1.
         23    2    1    2    0    0  0.00000000000E+00  0.00000000000E+00 -0.71054273576E-14  0.91188000000E+02  0.91188000000E+02 0.  0.
    9900012    2    3    3    0    0  0.83926163582E+01  0.25326429353E+02  0.34230972522E+02  0.47787268291E+02  0.19999987445E+02 0.  0.
        -12    1    3    3    0    0 -0.83926163582E+01 -0.25326429353E+02 -0.34230972522E+02  0.43400731709E+02  0.00000000000E+00 0.  1.
         11    1    4    4    0    0  0.10470646181E+01  0.10234098950E+02  0.19780279378E+02  0.22295573062E+02  0.51100000000E-03 0. -1.
        -11    1    4    4    0    0 -0.15613789970E+01  0.61618231629E+01  0.10500465355E+02  0.12274597427E+02  0.51100000000E-03 0.  1.
        -12    1    4    4    0    0  0.89069307371E+01  0.89305072401E+01  0.39502277890E+01  0.13217097802E+02  0.00000000000E+00 0.  1.
</event>
<event>
 8    1  0.3776180E-010  0.9118800E+02  0.7816164E-02  0.1184000E+00
        -11   -1    0    0    0    0  0.00000000000E+00  0.00000000000E+00  0.45593999997E+02  0.45594000000E+02  0.51100000000E-03 0.  1.
         11   -1    0    0    0    0 -0.00000000000E+00 -0.00000000000E+00 -0.45593999997E+02  0.45594000000E+02  0.51100000000E-03 0. -1.
         23    2    1    2    0    0  0.00000000000E+00  0.71054273576E-14 -0.17763568394E-14  0.91188000000E+02  0.91188000000E+02 0.  0.
    9900012    2    3    3    0    0 -0.93262287919E+01  0.41265079061E+02 -0.96870063160E+01  0.47787269767E+02  0.19999994177E+02 0.  0.
        -12    1    3    3    0    0  0.93262287919E+01 -0.41265079061E+02  0.96870063160E+01  0.43400730233E+02  0.00000000000E+00 0.  1.
         11    1    4    4    0    0 -0.62216686589E+01  0.36530455745E+02 -0.14342474370E+02  0.39735247944E+02  0.51100000000E-03 0. -1.
        -11    1    4    4    0    0 -0.32053618011E+01  0.40746031572E+01  0.24243237724E+01  0.57231181343E+01  0.51100000000E-03 0.  1.
         12    1    4    4    0    0  0.10080166808E+00  0.66002015869E+00  0.22311442821E+01  0.23289036892E+01  0.00000000000E+00 0. -1.
</event>
<event>
 8    1  0.3776180E-010  0.9118800E+02  0.7816164E-02  0.1184000E+00
        -11   -1    0    0    0    0  0.00000000000E+00  0.00000000000E+00  0.45593999997E+02  0.45594000000E+02  0.51100000000E-03 0.  1.
         11   -1    0    0    0    0 -0.00000000000E+00 -0.00000000000E+00 -0.45593999997E+02  0.45594000000E+02  0.51100000000E-03 0. -1.
         23    2    1    2    0    0  0.88817841970E-15  0.00000000000E+00  0.00000000000E+00  0.91188000000E+02  0.91188000000E+02 0.  0.
    9900012    2    3    3    0    0 -0.72037494897E+01 -0.25538534574E+02 -0.34344033144E+02  0.47787269966E+02  0.19999995081E+02 0.  0.
         12    1    3    3    0    0  0.72037494897E+01  0.25538534574E+02  0.34344033144E+02  0.43400730034E+02  0.00000000000E+00 0. -1.
         11    1    4    4    0    0  0.12796479414E+01 -0.61432135635E+01 -0.36819285003E+01  0.72755185027E+01  0.51100000000E-03 0. -1.
        -11    1    4    4    0    0  0.20886590097E+01 -0.10494001701E+02 -0.60683913600E+01  0.12300891924E+02  0.51100000000E-03 0.  1.
         12    1    4    4    0    0 -0.10572056441E+02 -0.89013193099E+01 -0.24593713284E+02  0.28210859539E+02  0.00000000000E+00 0. -1.
</event>
<event>
 8    1  0.3867054E-010  0.9118800E+02  0.7816164E-02  0.1184000E+00
        -11   -1    0    0    0    0  0.00000000000E+00  0.00000000000E+00  0.45593999997E+02  0.45594000000E+02  0.51100000000E-03 0. -1.
         11   -1    0    0    0    0 -0.00000000000E+00 -0.00000000000E+00 -0.45593999997E+02  0.45594000000E+02  0.51100000000E-03 0.  1.
         23    2    1    2    0    0  0.00000000000E+00  0.00000000000E+00 -0.88817841970E-15  0.91188000000E+02  0.91188000000E+02 0.  0.
    9900012    2    3    3    0    0  0.23598907138E+02 -0.35640798934E+02  0.75132555133E+01  0.47787262965E+02  0.19999963162E+02 0.  0.
        -12    1    3    3    0    0 -0.23598907138E+02  0.35640798934E+02 -0.75132555133E+01  0.43400737035E+02  0.00000000000E+00 0.  1.
         11    1    4    4    0    0  0.18297099896E+02 -0.22542260758E+02  0.86527919753E+01  0.30295349378E+02  0.51100000000E-03 0. -1.
        -11    1    4    4    0    0  0.26244537784E+01 -0.26997991848E+01  0.40806962613E+01  0.55523648575E+01  0.51100000000E-03 0.  1.
        -12    1    4    4    0    0  0.26773534638E+01 -0.10398738991E+02 -0.52202327233E+01  0.11939548729E+02  0.00000000000E+00 0.  1.
</event>
<event>
 8    1  0.3776180E-010  0.9118800E+02  0.7816164E-02  0.1184000E+00
        -11   -1    0    0    0    0  0.00000000000E+00  0.00000000000E+00  0.45593999997E+02  0.45594000000E+02  0.51100000000E-03 0. -1.
         11   -1    0    0    0    0 -0.00000000000E+00 -0.00000000000E+00 -0.45593999997E+02  0.45594000000E+02  0.51100000000E-03 0.  1.
         23    2    1    2    0    0  0.00000000000E+00  0.00000000000E+00  0.00000000000E+00  0.91188000000E+02  0.91188000000E+02 0.  0.
    9900012    2    3    3    0    0  0.10226563810E+02  0.17345883340E+02  0.38446837954E+02  0.47787290042E+02  0.20000086616E+02 0.  0.
        -12    1    3    3    0    0 -0.10226563810E+02 -0.17345883340E+02 -0.38446837954E+02  0.43400709958E+02  0.00000000000E+00 0.  1.
         11    1    4    4    0    0 -0.13526721882E+01  0.56839259995E+01  0.95184659675E+01  0.11168613676E+02  0.51100000000E-03 0. -1.
        -11    1    4    4    0    0  0.34171794074E+01  0.19828832594E+01 -0.10400879026E+01  0.40854282798E+01  0.51100000000E-03 0.  1.
         12    1    4    4    0    0  0.81620565910E+01  0.96790740816E+01  0.29968459889E+02  0.32533248086E+02  0.00000000000E+00 0. -1.
</event>
<event>
 8    1  0.3776180E-010  0.9118800E+02  0.7816164E-02  0.1184000E+00
        -11   -1    0    0    0    0  0.00000000000E+00  0.00000000000E+00  0.45593999997E+02  0.45594000000E+02  0.51100000000E-03 0. -1.
         11   -1    0    0    0    0 -0.00000000000E+00 -0.00000000000E+00 -0.45593999997E+02  0.45594000000E+02  0.51100000000E-03 0.  1.
         23    2    1    2    0    0  0.00000000000E+00  0.44408920985E-15  0.71054273576E-14  0.91188000000E+02  0.91188000000E+02 0.  0.
    9900012    2    3    3    0    0  0.28592738537E+02  0.10144212603E+01 -0.32635091272E+02  0.47787275008E+02  0.20000018070E+02 0.  0.
         12    1    3    3    0    0 -0.28592738537E+02 -0.10144212603E+01  0.32635091272E+02  0.43400724992E+02  0.00000000000E+00 0. -1.
         11    1    4    4    0    0  0.70610699851E+01  0.74659876707E+01 -0.14926885675E+02  0.18122130047E+02  0.51100000000E-03 0. -1.
        -11    1    4    4    0    0  0.29152103376E+01 -0.33612108226E+01 -0.59534737412E+01  0.74323643180E+01  0.51100000000E-03 0.  1.
        -12    1    4    4    0    0  0.18616458214E+02 -0.30903555877E+01 -0.11754731856E+02  0.22232780643E+02  0.00000000000E+00 0.  1.
</event>
<event>
 8    1  0.3776180E-010  0.9118800E+02  0.7816164E-02  0.1184000E+00
        -11   -1    0    0    0    0  0.00000000000E+00  0.00000000000E+00  0.45593999997E+02  0.45594000000E+02  0.51100000000E-03 0. -1.
         11   -1    0    0    0    0 -0.00000000000E+00 -0.00000000000E+00 -0.45593999997E+02  0.45594000000E+02  0.51100000000E-03 0.  1.
         23    2    1    2    0    0  0.00000000000E+00  0.00000000000E+00  0.00000000000E+00  0.91188000000E+02  0.91188000000E+02 0.  0.
    9900012    2    3    3    0    0  0.34664597239E+02 -0.50855481492E+01 -0.25614952080E+02  0.47787275677E+02  0.20000021121E+02 0.  0.
         12    1    3    3    0    0 -0.34664597239E+02  0.50855481492E+01  0.25614952080E+02  0.43400724323E+02  0.00000000000E+00 0. -1.
         11    1    4    4    0    0  0.57834387216E+01  0.64988667771E+01 -0.53986539029E+01  0.10238598393E+02  0.51100000000E-03 0. -1.
        -11    1    4    4    0    0  0.25270360891E+01  0.24127756880E+00 -0.29662512935E+01  0.39041994388E+01  0.51100000000E-03 0.  1.
         12    1    4    4    0    0  0.26354122428E+02 -0.11825692495E+02 -0.17250046883E+02  0.33644477845E+02  0.00000000000E+00 0. -1.
</event>
<event>
 8    1  0.3776180E-010  0.9118800E+02  0.7816164E-02  0.1184000E+00
        -11   -1    0    0    0    0  0.00000000000E+00  0.00000000000E+00  0.45593999997E+02  0.45594000000E+02  0.51100000000E-03 0. -1.
         11   -1    0    0    0    0 -0.00000000000E+00 -0.00000000000E+00 -0.45593999997E+02  0.45594000000E+02  0.51100000000E-03 0.  1.
         23    2    1    2    0    0  0.00000000000E+00  0.00000000000E+00  0.00000000000E+00  0.91188000000E+02  0.91188000000E+02 0.  0.
    9900012    2    3    3    0    0 -0.37350940037E+02  0.18379901450E+02  0.12276372481E+02  0.47787276270E+02  0.20000023825E+02 0.  0.
        -12    1    3    3    0    0  0.37350940037E+02 -0.18379901450E+02 -0.12276372481E+02  0.43400723730E+02  0.00000000000E+00 0.  1.
         11    1    4    4    0    0 -0.53229653252E+01  0.48545794936E+01  0.58179311975E+01  0.92600877745E+01  0.51100000000E-03 0. -1.
        -11    1    4    4    0    0 -0.88704690305E+01 -0.42383316242E-01  0.75746854729E+01  0.11664599326E+02  0.51100000000E-03 0.  1.
        -12    1    4    4    0    0 -0.23157505682E+02  0.13567705273E+02 -0.11162441890E+01  0.26862589169E+02  0.00000000000E+00 0.  1.
</event>
<event>
 8    1  0.3776180E-010  0.9118800E+02  0.7816164E-02  0.1184000E+00
        -11   -1    0    0    0    0  0.00000000000E+00  0.00000000000E+00  0.45593999997E+02  0.45594000000E+02  0.51100000000E-03 0. -1.
         11   -1    0    0    0    0 -0.00000000000E+00 -0.00000000000E+00 -0.45593999997E+02  0.45594000000E+02  0.51100000000E-03 0.  1.
         23    2    1    2    0    0  0.00000000000E+00  0.35527136788E-14  0.00000000000E+00  0.91188000000E+02  0.91188000000E+02 0.  0.
    9900012    2    3    3    0    0  0.16585022832E+02  0.30517724462E+02  0.26023617823E+02  0.47787272204E+02  0.20000005285E+02 0.  0.
        -12    1    3    3    0    0 -0.16585022832E+02 -0.30517724462E+02 -0.26023617823E+02  0.43400727796E+02  0.00000000000E+00 0.  1.
         11    1    4    4    0    0  0.22514120619E+00 -0.81774654057E+00  0.42321787586E+00  0.94789851720E+00  0.51100000000E-03 0. -1.
        -11    1    4    4    0    0 -0.11659615646E+01 -0.15413057096E+01  0.17150761139E+01  0.25839071187E+01  0.51100000000E-03 0.  1.
         12    1    4    4    0    0  0.17525843190E+02  0.32876776712E+02  0.23885323833E+02  0.44255466568E+02  0.00000000000E+00 0. -1.
</event>
<event>
 8    1  0.3776180E-010  0.9118800E+02  0.7816164E-02  0.1184000E+00
        -11   -1    0    0    0    0  0.00000000000E+00  0.00000000000E+00  0.45593999997E+02  0.45594000000E+02  0.51100000000E-03 0. -1.
         11   -1    0    0    0    0 -0.00000000000E+00 -0.00000000000E+00 -0.45593999997E+02  0.45594000000E+02  0.51100000000E-03 0.  1.
         23    2    1    2    0    0  0.35527136788E-14  0.00000000000E+00  0.00000000000E+00  0.91188000000E+02  0.91188000000E+02 0.  0.
    9900012    2    3    3    0    0 -0.28004751580E+02 -0.79186950152E+01  0.32197071314E+02  0.47787271400E+02  0.20000001621E+02 0.  0.
        -12    1    3    3    0    0  0.28004751580E+02  0.79186950152E+01 -0.32197071314E+02  0.43400728600E+02  0.00000000000E+00 0.  1.
         11    1    4    4    0    0 -0.89897900329E+01 -0.16333216482E+01  0.91542654765E+01  0.12933856390E+02  0.51100000000E-03 0. -1.
        -11    1    4    4    0    0 -0.14070835960E+01  0.27282512360E-01 -0.26926846288E+01  0.30382855943E+01  0.51100000000E-03 0.  1.
         12    1    4    4    0    0 -0.17607877951E+02 -0.63126558794E+01  0.25735490466E+02  0.31815129416E+02  0.00000000000E+00 0. -1.
</event>
<event>
 8    1  0.3776180E-010  0.9118800E+02  0.7816164E-02  0.1184000E+00
        -11   -1    0    0    0    0  0.00000000000E+00  0.00000000000E+00  0.45593999997E+02  0.45594000000E+02  0.51100000000E-03 0. -1.
         11   -1    0    0    0    0 -0.00000000000E+00 -0.00000000000E+00 -0.45593999997E+02  0.45594000000E+02  0.51100000000E-03 0.  1.
         23    2    1    2    0    0  0.00000000000E+00 -0.44408920985E-15  0.00000000000E+00  0.91188000000E+02  0.91188000000E+02 0.  0.
    9900012    2    3    3    0    0  0.15985511426E+02 -0.10711537772E+01  0.40335332600E+02  0.47787274177E+02  0.20000014285E+02 0.  0.
        -12    1    3    3    0    0 -0.15985511426E+02  0.10711537772E+01 -0.40335332600E+02  0.43400725823E+02  0.00000000000E+00 0.  1.
         11    1    4    4    0    0 -0.16095715526E+00 -0.27318487966E+01  0.89383416486E+01  0.93478797993E+01  0.51100000000E-03 0. -1.
        -11    1    4    4    0    0 -0.25145964660E+00 -0.23627161331E+01 -0.42665840944E+00  0.24140623726E+01  0.51100000000E-03 0.  1.
         12    1    4    4    0    0  0.16397928227E+02  0.40234111525E+01  0.31823649361E+02  0.36025332006E+02  0.00000000000E+00 0. -1.
</event>
<event>
 8    1  0.3776180E-010  0.9118800E+02  0.7816164E-02  0.1184000E+00
        -11   -1    0    0    0    0  0.00000000000E+00  0.00000000000E+00  0.45593999997E+02  0.45594000000E+02  0.51100000000E-03 0. -1.
         11   -1    0    0    0    0 -0.00000000000E+00 -0.00000000000E+00 -0.45593999997E+02  0.45594000000E+02  0.51100000000E-03 0.  1.
         23    2    1    2    0    0  0.00000000000E+00  0.00000000000E+00  0.00000000000E+00  0.91188000000E+02  0.91188000000E+02 0.  0.
    9900012    2    3    3    0    0 -0.11750689838E+02 -0.12724892853E+02 -0.39794745279E+02  0.47787270033E+02  0.19999995390E+02 0.  0.
         12    1    3    3    0    0  0.11750689838E+02  0.12724892853E+02  0.39794745279E+02  0.43400729967E+02  0.00000000000E+00 0. -1.
         11    1    4    4    0    0 -0.11079591183E+01 -0.87461513601E+01 -0.66672389585E+01  0.11053271580E+02  0.51100000000E-03 0. -1.
        -11    1    4    4    0    0 -0.52390805545E+01  0.53544521723E+00 -0.36015900028E+01  0.63801345946E+01  0.51100000000E-03 0.  1.
        -12    1    4    4    0    0 -0.54036501650E+01 -0.45141867101E+01 -0.29525916318E+02  0.30353863859E+02  0.00000000000E+00 0.  1.
</event>
<event>
 8    1  0.3776180E-010  0.9118800E+02  0.7816164E-02  0.1184000E+00
        -11   -1    0    0    0    0  0.00000000000E+00  0.00000000000E+00  0.45593999997E+02  0.45594000000E+02  0.51100000000E-03 0. -1.
         11   -1    0    0    0    0 -0.00000000000E+00 -0.00000000000E+00 -0.45593999997E+02  0.45594000000E+02  0.51100000000E-03 0.  1.
         23    2    1    2    0    0 -0.71054273576E-14  0.00000000000E+00  0.00000000000E+00  0.91188000000E+02  0.91188000000E+02 0.  0.
    9900012    2    3    3    0    0  0.39773452789E+02 -0.81531197860E+01  0.15336945900E+02  0.47787276290E+02  0.20000023915E+02 0.  0.
        -12    1    3    3    0    0 -0.39773452789E+02  0.81531197860E+01 -0.15336945900E+02  0.43400723710E+02  0.00000000000E+00 0.  1.
         11    1    4    4    0    0  0.57092186311E+01  0.54570294057E+00  0.65671119785E+01  0.87189408230E+01  0.51100000000E-03 0. -1.
        -11    1    4    4    0    0  0.19178918723E+02  0.26381611410E+01  0.45896081012E+01  0.19896113198E+02  0.51100000000E-03 0.  1.
        -12    1    4    4    0    0  0.14885315435E+02 -0.11336983868E+02  0.41802258200E+01  0.19172222269E+02  0.00000000000E+00 0.  1.
</event>
<event>
 8    1  0.3776180E-010  0.9118800E+02  0.7816164E-02  0.1184000E+00
        -11   -1    0    0    0    0  0.00000000000E+00  0.00000000000E+00  0.45593999997E+02  0.45594000000E+02  0.51100000000E-03 0. -1.
         11   -1    0    0    0    0 -0.00000000000E+00 -0.00000000000E+00 -0.45593999997E+02  0.45594000000E+02  0.51100000000E-03 0.  1.
         23    2    1    2    0    0  0.00000000000E+00  0.38857805862E-15 -0.35527136788E-14  0.91188000000E+02  0.91188000000E+02 0.  0.
    9900012    2    3    3    0    0 -0.33386002959E+02  0.38105878543E+00  0.27728194598E+02  0.47787272183E+02  0.20000005190E+02 0.  0.
        -12    1    3    3    0    0  0.33386002959E+02 -0.38105878543E+00 -0.27728194598E+02  0.43400727817E+02  0.00000000000E+00 0.  1.
         11    1    4    4    0    0 -0.96826679953E+01 -0.27111539600E+01  0.48322972089E+01  0.11155963064E+02  0.51100000000E-03 0. -1.
        -11    1    4    4    0    0 -0.50323245735E+01 -0.14401424484E+01 -0.16239973721E+01  0.54804806916E+01  0.51100000000E-03 0.  1.
         12    1    4    4    0    0 -0.18671010390E+02  0.45323551938E+01  0.24519894762E+02  0.31150828428E+02  0.00000000000E+00 0. -1.
</event>
<event>
 8    1  0.3776180E-010  0.9118800E+02  0.7816164E-02  0.1184000E+00
        -11   -1    0    0    0    0  0.00000000000E+00  0.00000000000E+00  0.45593999997E+02  0.45594000000E+02  0.51100000000E-03 0. -1.
         11   -1    0    0    0    0 -0.00000000000E+00 -0.00000000000E+00 -0.45593999997E+02  0.45594000000E+02  0.51100000000E-03 0.  1.
         23    2    1    2    0    0 -0.44408920985E-15  0.44408920985E-15  0.00000000000E+00  0.91188000000E+02  0.91188000000E+02 0.  0.
    9900012    2    3    3    0    0  0.13849186920E+01 -0.20961757247E+01 -0.43327950230E+02  0.47787271623E+02  0.20000002640E+02 0.  0.
         12    1    3    3    0    0 -0.13849186920E+01  0.20961757247E+01  0.43327950230E+02  0.43400728377E+02  0.00000000000E+00 0. -1.
         11    1    4    4    0    0 -0.36770943639E+01 -0.54267547073E+00 -0.23444874461E+00  0.37243101512E+01  0.51100000000E-03 0. -1.
        -11    1    4    4    0    0 -0.17169552761E+01  0.84433011369E+00 -0.11788627190E+02  0.11942887425E+02  0.51100000000E-03 0.  1.
        -12    1    4    4    0    0  0.67789683319E+01 -0.23978303677E+01 -0.31304874296E+02  0.32120074047E+02  0.00000000000E+00 0.  1.
</event>
<event>
 8    1  0.3776180E-010  0.9118800E+02  0.7816164E-02  0.1184000E+00
        -11   -1    0    0    0    0  0.00000000000E+00  0.00000000000E+00  0.45593999997E+02  0.45594000000E+02  0.51100000000E-03 0. -1.
         11   -1    0    0    0    0 -0.00000000000E+00 -0.00000000000E+00 -0.45593999997E+02  0.45594000000E+02  0.51100000000E-03 0.  1.
         23    2    1    2    0    0  0.00000000000E+00  0.00000000000E+00  0.00000000000E+00  0.91188000000E+02  0.91188000000E+02 0.  0.
    9900012    2    3    3    0    0 -0.34604221960E+02  0.24523053946E+02 -0.92081831846E+01  0.47787274316E+02  0.20000014918E+02 0.  0.
         12    1    3    3    0    0  0.34604221960E+02 -0.24523053946E+02  0.92081831846E+01  0.43400725684E+02  0.00000000000E+00 0. -1.
         11    1    4    4    0    0 -0.77444076600E+00  0.59792465026E+01 -0.19520477436E+01  0.63373210344E+01  0.51100000000E-03 0. -1.
        -11    1    4    4    0    0 -0.17314903256E+02  0.88408821402E+01 -0.10385865789E+02  0.22041626080E+02  0.51100000000E-03 0.  1.
         12    1    4    4    0    0 -0.16514877938E+02  0.97029253029E+01  0.31297303476E+01  0.19408327202E+02  0.00000000000E+00 0. -1.
</event>
<event>
 8    1  0.3776180E-010  0.9118800E+02  0.7816164E-02  0.1184000E+00
        -11   -1    0    0    0    0  0.00000000000E+00  0.00000000000E+00  0.45593999997E+02  0.45594000000E+02  0.51100000000E-03 0. -1.
         11   -1    0    0    0    0 -0.00000000000E+00 -0.00000000000E+00 -0.45593999997E+02  0.45594000000E+02  0.51100000000E-03 0.  1.
         23    2    1    2    0    0  0.71054273576E-14  0.00000000000E+00  0.00000000000E+00  0.91188000000E+02  0.91188000000E+02 0.  0.
    9900012    2    3    3    0    0 -0.33959900553E+02  0.15613152019E+02  0.22058512616E+02  0.47787270279E+02  0.19999996509E+02 0.  0.
        -12    1    3    3    0    0  0.33959900553E+02 -0.15613152019E+02 -0.22058512616E+02  0.43400729721E+02  0.00000000000E+00 0.  1.
         11    1    4    4    0    0 -0.72443568472E+01  0.67690572661E+01  0.48020845874E+01  0.11016390473E+02  0.51100000000E-03 0. -1.
        -11    1    4    4    0    0 -0.78881498744E+01 -0.21746736545E+00  0.13359532894E+02  0.15516034284E+02  0.51100000000E-03 0.  1.
         12    1    4    4    0    0 -0.18827393831E+02  0.90615621181E+01  0.38968951349E+01  0.21254845522E+02  0.00000000000E+00 0. -1.
</event>
<event>
 8    1  0.3776180E-010  0.9118800E+02  0.7816164E-02  0.1184000E+00
        -11   -1    0    0    0    0  0.00000000000E+00  0.00000000000E+00  0.45593999997E+02  0.45594000000E+02  0.51100000000E-03 0. -1.
         11   -1    0    0    0    0 -0.00000000000E+00 -0.00000000000E+00 -0.45593999997E+02  0.45594000000E+02  0.51100000000E-03 0.  1.
         23    2    1    2    0    0  0.00000000000E+00 -0.88817841970E-15  0.00000000000E+00  0.91188000000E+02  0.91188000000E+02 0.  0.
    9900012    2    3    3    0    0  0.19256690354E+02  0.77391522023E+01 -0.38117040353E+02  0.47787269989E+02  0.19999995187E+02 0.  0.
         12    1    3    3    0    0 -0.19256690354E+02 -0.77391522023E+01  0.38117040353E+02  0.43400730011E+02  0.00000000000E+00 0. -1.
         11    1    4    4    0    0  0.26471805471E+01 -0.18024735529E+01 -0.27880300659E+01  0.42461261954E+01  0.51100000000E-03 0. -1.
        -11    1    4    4    0    0  0.54294152330E+01  0.92118337415E+01 -0.62505148172E+01  0.12385692003E+02  0.51100000000E-03 0.  1.
        -12    1    4    4    0    0  0.11180094574E+02  0.32979201364E+00 -0.29078495470E+02  0.31155451790E+02  0.00000000000E+00 0.  1.
</event>
<event>
 8    1  0.3776180E-010  0.9118800E+02  0.7816164E-02  0.1184000E+00
        -11   -1    0    0    0    0  0.00000000000E+00  0.00000000000E+00  0.45593999997E+02  0.45594000000E+02  0.51100000000E-03 0. -1.
         11   -1    0    0    0    0 -0.00000000000E+00 -0.00000000000E+00 -0.45593999997E+02  0.45594000000E+02  0.51100000000E-03 0.  1.
         23    2    1    2    0    0  0.44408920985E-15  0.71054273576E-14  0.00000000000E+00  0.91188000000E+02  0.91188000000E+02 0.  0.
    9900012    2    3    3    0    0 -0.27199498959E+01  0.31022532697E+02 -0.30229578339E+02  0.47787273406E+02  0.20000010766E+02 0.  0.
         12    1    3    3    0    0  0.27199498959E+01 -0.31022532697E+02  0.30229578339E+02  0.43400726594E+02  0.00000000000E+00 0. -1.
         11    1    4    4    0    0 -0.48529363800E+01  0.17008470470E+02 -0.14268940382E+02  0.22725354104E+02  0.51100000000E-03 0. -1.
        -11    1    4    4    0    0 -0.19266339376E+01  0.77284887910E+01 -0.61441195311E+00  0.79886769638E+01  0.51100000000E-03 0.  1.
        -12    1    4    4    0    0  0.40596204217E+01  0.62855734353E+01 -0.15346226004E+02  0.17073242338E+02  0.00000000000E+00 0.  1.
</event>
<event>
 8    1  0.3776180E-010  0.9118800E+02  0.7816164E-02  0.1184000E+00
        -11   -1    0    0    0    0  0.00000000000E+00  0.00000000000E+00  0.45593999997E+02  0.45594000000E+02  0.51100000000E-03 0. -1.
         11   -1    0    0    0    0 -0.00000000000E+00 -0.00000000000E+00 -0.45593999997E+02  0.45594000000E+02  0.51100000000E-03 0.  1.
         23    2    1    2    0    0  0.00000000000E+00  0.35527136788E-14  0.00000000000E+00  0.91188000000E+02  0.91188000000E+02 0.  0.
    9900012    2    3    3    0    0 -0.20160181553E+02  0.26960705822E+02  0.27391807297E+02  0.47787266301E+02  0.19999978372E+02 0.  0.
        -12    1    3    3    0    0  0.20160181553E+02 -0.26960705822E+02 -0.27391807297E+02  0.43400733699E+02  0.00000000000E+00 0.  1.
         11    1    4    4    0    0 -0.11653064212E+02  0.72390486967E+01  0.99353921092E+01  0.16938410439E+02  0.51100000000E-03 0. -1.
        -11    1    4    4    0    0 -0.48398100378E+01  0.63794498926E-01  0.98015577840E+00  0.49384751241E+01  0.51100000000E-03 0.  1.
         12    1    4    4    0    0 -0.36673073033E+01  0.19657862626E+02  0.16476259409E+02  0.25910380738E+02  0.00000000000E+00 0. -1.
</event>
<event>
 8    1  0.3776180E-010  0.9118800E+02  0.7816164E-02  0.1184000E+00
        -11   -1    0    0    0    0  0.00000000000E+00  0.00000000000E+00  0.45593999997E+02  0.45594000000E+02  0.51100000000E-03 0. -1.
         11   -1    0    0    0    0 -0.00000000000E+00 -0.00000000000E+00 -0.45593999997E+02  0.45594000000E+02  0.51100000000E-03 0.  1.
         23    2    1    2    0    0  0.88817841970E-15  0.00000000000E+00  0.00000000000E+00  0.91188000000E+02  0.91188000000E+02 0.  0.
    9900012    2    3    3    0    0  0.72942842998E+01  0.27076857354E+02 -0.33124923549E+02  0.47787270194E+02  0.19999996121E+02 0.  0.
         12    1    3    3    0    0 -0.72942842998E+01 -0.27076857354E+02  0.33124923549E+02  0.43400729806E+02  0.00000000000E+00 0. -1.
         11    1    4    4    0    0  0.72902729856E+01  0.16286905063E+02 -0.17289027276E+02  0.24845961868E+02  0.51100000000E-03 0. -1.
        -11    1    4    4    0    0  0.32075425454E+01  0.23116286637E+01 -0.12778462788E+02  0.13376137998E+02  0.51100000000E-03 0.  1.
        -12    1    4    4    0    0 -0.32035312313E+01  0.84783236273E+01 -0.30574334846E+01  0.95651703274E+01  0.00000000000E+00 0.  1.
</event>
<event>
 8    1  0.3776180E-010  0.9118800E+02  0.7816164E-02  0.1184000E+00
        -11   -1    0    0    0    0  0.00000000000E+00  0.00000000000E+00  0.45593999997E+02  0.45594000000E+02  0.51100000000E-03 0. -1.
         11   -1    0    0    0    0 -0.00000000000E+00 -0.00000000000E+00 -0.45593999997E+02  0.45594000000E+02  0.51100000000E-03 0.  1.
         23    2    1    2    0    0  0.00000000000E+00  0.00000000000E+00  0.00000000000E+00  0.91188000000E+02  0.91188000000E+02 0.  0.
    9900012    2    3    3    0    0 -0.20384338330E+02 -0.18857275507E+02  0.33354238538E+02  0.47787270545E+02  0.19999997725E+02 0.  0.
        -12    1    3    3    0    0  0.20384338330E+02  0.18857275507E+02 -0.33354238538E+02  0.43400729455E+02  0.00000000000E+00 0.  1.
         11    1    4    4    0    0 -0.32753333150E+01 -0.82950266599E+01  0.26115478420E+01  0.92927637442E+01  0.51100000000E-03 0. -1.
        -11    1    4    4    0    0 -0.12553107705E+01  0.65282002988E+00 -0.66867503345E+00  0.15649618792E+01  0.51100000000E-03 0.  1.
         12    1    4    4    0    0 -0.15853694245E+02 -0.11215068877E+02  0.31411365730E+02  0.36929544922E+02  0.00000000000E+00 0. -1.
</event>
<event>
 8    1  0.3776180E-010  0.9118800E+02  0.7816164E-02  0.1184000E+00
        -11   -1    0    0    0    0  0.00000000000E+00  0.00000000000E+00  0.45593999997E+02  0.45594000000E+02  0.51100000000E-03 0. -1.
         11   -1    0    0    0    0 -0.00000000000E+00 -0.00000000000E+00 -0.45593999997E+02  0.45594000000E+02  0.51100000000E-03 0.  1.
         23    2    1    2    0    0  0.00000000000E+00 -0.35527136788E-14  0.71054273576E-14  0.91188000000E+02  0.91188000000E+02 0.  0.
    9900012    2    3    3    0    0  0.49658709239E+01 -0.16043709677E+02  0.40019530573E+02  0.47787270496E+02  0.19999997499E+02 0.  0.
        -12    1    3    3    0    0 -0.49658709239E+01  0.16043709677E+02 -0.40019530573E+02  0.43400729504E+02  0.00000000000E+00 0.  1.
         11    1    4    4    0    0  0.82019058883E+01 -0.10463298261E+02  0.23926171989E+02  0.27371766056E+02  0.51100000000E-03 0. -1.
        -11    1    4    4    0    0  0.17278286414E+01 -0.41593063807E+01  0.14230857019E+02  0.14926570710E+02  0.51100000000E-03 0.  1.
        -12    1    4    4    0    0 -0.49638636058E+01 -0.14211050348E+01  0.18625015640E+01  0.54889337301E+01  0.00000000000E+00 0.  1.
</event>
<event>
 8    1  0.3776180E-010  0.9118800E+02  0.7816164E-02  0.1184000E+00
        -11   -1    0    0    0    0  0.00000000000E+00  0.00000000000E+00  0.45593999997E+02  0.45594000000E+02  0.51100000000E-03 0.  1.
         11   -1    0    0    0    0 -0.00000000000E+00 -0.00000000000E+00 -0.45593999997E+02  0.45594000000E+02  0.51100000000E-03 0. -1.
         23    2    1    2    0    0  0.00000000000E+00  0.00000000000E+00  0.35527136788E-14  0.91188000000E+02  0.91188000000E+02 0.  0.
    9900012    2    3    3    0    0  0.30097142949E+02 -0.10536683212E+02 -0.29440849147E+02  0.47787270683E+02  0.19999998351E+02 0.  0.
         12    1    3    3    0    0 -0.30097142949E+02  0.10536683212E+02  0.29440849147E+02  0.43400729317E+02  0.00000000000E+00 0. -1.
         11    1    4    4    0    0  0.13034750229E+01 -0.11316104869E+00 -0.96449564199E+01  0.97332952879E+01  0.51100000000E-03 0. -1.
        -11    1    4    4    0    0  0.46491523217E+01 -0.19622937659E+01  0.92607759207E+00  0.51305783399E+01  0.51100000000E-03 0.  1.
         12    1    4    4    0    0  0.24144515604E+02 -0.84612283972E+01 -0.20721970319E+02  0.32923397055E+02  0.00000000000E+00 0. -1.
</event>
<event>
 8    1  0.3776180E-010  0.9118800E+02  0.7816164E-02  0.1184000E+00
        -11   -1    0    0    0    0  0.00000000000E+00  0.00000000000E+00  0.45593999997E+02  0.45594000000E+02  0.51100000000E-03 0. -1.
         11   -1    0    0    0    0 -0.00000000000E+00 -0.00000000000E+00 -0.45593999997E+02  0.45594000000E+02  0.51100000000E-03 0.  1.
         23    2    1    2    0    0  0.00000000000E+00  0.17763568394E-14  0.00000000000E+00  0.91188000000E+02  0.91188000000E+02 0.  0.
    9900012    2    3    3    0    0 -0.40509317757E+02 -0.13487597077E+02 -0.77912206870E+01  0.47787271667E+02  0.20000002840E+02 0.  0.
         12    1    3    3    0    0  0.40509317757E+02  0.13487597077E+02  0.77912206870E+01  0.43400728333E+02  0.00000000000E+00 0. -1.
         11    1    4    4    0    0 -0.74189161793E+01 -0.10000761493E+02 -0.59294064547E+01  0.13791787733E+02  0.51100000000E-03 0. -1.
        -11    1    4    4    0    0 -0.38111746268E+01 -0.12351850579E+01  0.18191447837E+01  0.44000025191E+01  0.51100000000E-03 0.  1.
        -12    1    4    4    0    0 -0.29279226951E+02 -0.22516505258E+01 -0.36809590159E+01  0.29595481415E+02  0.00000000000E+00 0.  1.
</event>
<event>
 8    1  0.3776180E-010  0.9118800E+02  0.7816164E-02  0.1184000E+00
        -11   -1    0    0    0    0  0.00000000000E+00  0.00000000000E+00  0.45593999997E+02  0.45594000000E+02  0.51100000000E-03 0. -1.
         11   -1    0    0    0    0 -0.00000000000E+00 -0.00000000000E+00 -0.45593999997E+02  0.45594000000E+02  0.51100000000E-03 0.  1.
         23    2    1    2    0    0 -0.17763568394E-14  0.00000000000E+00  0.00000000000E+00  0.91188000000E+02  0.91188000000E+02 0.  0.
    9900012    2    3    3    0    0  0.91536803760E+01 -0.26285463509E+02 -0.33300268236E+02  0.47787270502E+02  0.19999997529E+02 0.  0.
         12    1    3    3    0    0 -0.91536803760E+01  0.26285463509E+02  0.33300268236E+02  0.43400729498E+02  0.00000000000E+00 0. -1.
         11    1    4    4    0    0 -0.39036104481E+01  0.49695766589E+00 -0.52948485306E+01  0.65970116474E+01  0.51100000000E-03 0. -1.
        -11    1    4    4    0    0 -0.67693464146E-01  0.78504268056E-01  0.10963165154E+00  0.15087970483E+00  0.51100000000E-03 0.  1.
        -12    1    4    4    0    0  0.13124984288E+02 -0.26860925443E+02 -0.28115051357E+02  0.41039379150E+02  0.00000000000E+00 0.  1.
</event>
<event>
 8    1  0.3776180E-010  0.9118800E+02  0.7816164E-02  0.1184000E+00
        -11   -1    0    0    0    0  0.00000000000E+00  0.00000000000E+00  0.45593999997E+02  0.45594000000E+02  0.51100000000E-03 0. -1.
         11   -1    0    0    0    0 -0.00000000000E+00 -0.00000000000E+00 -0.45593999997E+02  0.45594000000E+02  0.51100000000E-03 0.  1.
         23    2    1    2    0    0  0.00000000000E+00 -0.17763568394E-14  0.71054273576E-14  0.91188000000E+02  0.91188000000E+02 0.  0.
    9900012    2    3    3    0    0 -0.83200987776E+01 -0.10230498355E+02 -0.41348954102E+02  0.47787272522E+02  0.20000006739E+02 0.  0.
         12    1    3    3    0    0  0.83200987776E+01  0.10230498355E+02  0.41348954102E+02  0.43400727478E+02  0.00000000000E+00 0. -1.
         11    1    4    4    0    0 -0.43857982577E+01 -0.29183825601E+01 -0.17514100371E+02  0.18289228939E+02  0.51100000000E-03 0.  1.
        -11    1    4    4    0    0  0.49916868611E+01 -0.58975097035E+01 -0.71714619594E+01  0.10541699356E+02  0.51100000000E-03 0. -1.
         12    1    4    4    0    0 -0.89259873811E+01 -0.14146060912E+01 -0.16663391771E+02  0.18956344227E+02  0.00000000000E+00 0. -1.
</event>
<event>
 8    1  0.3776180E-010  0.9118800E+02  0.7816164E-02  0.1184000E+00
        -11   -1    0    0    0    0  0.00000000000E+00  0.00000000000E+00  0.45593999997E+02  0.45594000000E+02  0.51100000000E-03 0. -1.
         11   -1    0    0    0    0 -0.00000000000E+00 -0.00000000000E+00 -0.45593999997E+02  0.45594000000E+02  0.51100000000E-03 0.  1.
         23    2    1    2    0    0 -0.88817841970E-15 -0.44408920985E-15  0.00000000000E+00  0.91188000000E+02  0.91188000000E+02 0.  0.
    9900012    2    3    3    0    0 -0.26059374630E+01 -0.37484833423E+01  0.43159923808E+02  0.47787296543E+02  0.20000116259E+02 0.  0.
        -12    1    3    3    0    0  0.26059374630E+01  0.37484833423E+01 -0.43159923808E+02  0.43400703457E+02  0.00000000000E+00 0.  1.
         11    1    4    4    0    0  0.41275979013E+01 -0.32210711516E+00  0.31120256584E+02  0.31394445170E+02  0.51100000000E-03 0. -1.
        -11    1    4    4    0    0  0.17130239866E+01  0.27555258447E+00  0.97999956184E+00  0.19926815621E+01  0.51100000000E-03 0.  1.
        -12    1    4    4    0    0 -0.84465593509E+01 -0.37019288116E+01  0.11059667663E+02  0.14400169812E+02  0.00000000000E+00 0.  1.
</event>
<event>
 8    1  0.3776180E-010  0.9118800E+02  0.7816164E-02  0.1184000E+00
        -11   -1    0    0    0    0  0.00000000000E+00  0.00000000000E+00  0.45593999997E+02  0.45594000000E+02  0.51100000000E-03 0. -1.
         11   -1    0    0    0    0 -0.00000000000E+00 -0.00000000000E+00 -0.45593999997E+02  0.45594000000E+02  0.51100000000E-03 0.  1.
         23    2    1    2    0    0  0.00000000000E+00  0.00000000000E+00  0.00000000000E+00  0.91188000000E+02  0.91188000000E+02 0.  0.
    9900012    2    3    3    0    0  0.83082012554E+01  0.18439813349E+02  0.38400131834E+02  0.47787273632E+02  0.20000011796E+02 0.  0.
        -12    1    3    3    0    0 -0.83082012554E+01 -0.18439813349E+02 -0.38400131834E+02  0.43400726368E+02  0.00000000000E+00 0.  1.
         11    1    4    4    0    0  0.91366808506E+01  0.17064826009E+02  0.25939615898E+02  0.32365890948E+02  0.51100000000E-03 0. -1.
        -11    1    4    4    0    0 -0.98192275809E+00  0.48359922019E+01  0.10064453518E+02  0.11209113157E+02  0.51100000000E-03 0.  1.
        -12    1    4    4    0    0  0.15344316289E+00 -0.34610048616E+01  0.23960624173E+01  0.42122695265E+01  0.00000000000E+00 0.  1.
</event>
<event>
 8    1  0.3776180E-010  0.9118800E+02  0.7816164E-02  0.1184000E+00
        -11   -1    0    0    0    0  0.00000000000E+00  0.00000000000E+00  0.45593999997E+02  0.45594000000E+02  0.51100000000E-03 0. -1.
         11   -1    0    0    0    0 -0.00000000000E+00 -0.00000000000E+00 -0.45593999997E+02  0.45594000000E+02  0.51100000000E-03 0.  1.
         23    2    1    2    0    0  0.00000000000E+00  0.00000000000E+00  0.00000000000E+00  0.91188000000E+02  0.91188000000E+02 0.  0.
    9900012    2    3    3    0    0  0.33768950446E+02 -0.87416556371E+01 -0.25823673937E+02  0.47787300777E+02  0.20000135560E+02 0.  0.
         12    1    3    3    0    0 -0.33768950446E+02  0.87416556371E+01  0.25823673937E+02  0.43400699223E+02  0.00000000000E+00 0. -1.
         11    1    4    4    0    0  0.53139474777E+01  0.37339683992E+01 -0.87027493301E+01  0.10859024080E+02  0.51100000000E-03 0. -1.
        -11    1    4    4    0    0  0.18265429398E+02 -0.30157694320E+01 -0.12237323748E+02  0.22191729746E+02  0.51100000000E-03 0.  1.
         12    1    4    4    0    0  0.10189573570E+02 -0.94598546043E+01 -0.48836008592E+01  0.14736546950E+02  0.00000000000E+00 0. -1.
</event>
<event>
 8    1  0.3776180E-010  0.9118800E+02  0.7816164E-02  0.1184000E+00
        -11   -1    0    0    0    0  0.00000000000E+00  0.00000000000E+00  0.45593999997E+02  0.45594000000E+02  0.51100000000E-03 0. -1.
         11   -1    0    0    0    0 -0.00000000000E+00 -0.00000000000E+00 -0.45593999997E+02  0.45594000000E+02  0.51100000000E-03 0.  1.
         23    2    1    2    0    0  0.35527136788E-14  0.00000000000E+00  0.00000000000E+00  0.91188000000E+02  0.91188000000E+02 0.  0.
    9900012    2    3    3    0    0 -0.20322711582E+02 -0.11496838978E+02 -0.36584611731E+02  0.47787265812E+02  0.19999976143E+02 0.  0.
         12    1    3    3    0    0  0.20322711582E+02  0.11496838978E+02  0.36584611731E+02  0.43400734188E+02  0.00000000000E+00 0. -1.
         11    1    4    4    0    0  0.30777633425E+00 -0.21667320865E+01 -0.49290212102E+00  0.22433026921E+01  0.51100000000E-03 0. -1.
        -11    1    4    4    0    0 -0.11893083044E+02  0.26214124310E+01 -0.11003492981E+02  0.16413228978E+02  0.51100000000E-03 0.  1.
        -12    1    4    4    0    0 -0.87374048721E+01 -0.11951519323E+02 -0.25088216629E+02  0.29130734142E+02  0.00000000000E+00 0.  1.
</event>
<event>
 8    1  0.3776180E-010  0.9118800E+02  0.7816164E-02  0.1184000E+00
        -11   -1    0    0    0    0  0.00000000000E+00  0.00000000000E+00  0.45593999997E+02  0.45594000000E+02  0.51100000000E-03 0. -1.
         11   -1    0    0    0    0 -0.00000000000E+00 -0.00000000000E+00 -0.45593999997E+02  0.45594000000E+02  0.51100000000E-03 0.  1.
         23    2    1    2    0    0 -0.35527136788E-14  0.00000000000E+00  0.00000000000E+00  0.91188000000E+02  0.91188000000E+02 0.  0.
    9900012    2    3    3    0    0  0.27395973192E+02  0.21038464880E+02  0.26276739510E+02  0.47787269696E+02  0.19999993851E+02 0.  0.
        -12    1    3    3    0    0 -0.27395973192E+02 -0.21038464880E+02 -0.26276739510E+02  0.43400730304E+02  0.00000000000E+00 0.  1.
         11    1    4    4    0    0 -0.34515753216E-01  0.32369477642E+01  0.34158477470E+01  0.47060639878E+01  0.51100000000E-03 0.  1.
        -11    1    4    4    0    0  0.59626084208E+01  0.13251599558E+02  0.81335559621E+01  0.16652697165E+02  0.51100000000E-03 0. -1.
         12    1    4    4    0    0  0.21467880524E+02  0.45499175579E+01  0.14727335801E+02  0.26428508543E+02  0.00000000000E+00 0. -1.
</event>
<event>
 8    1  0.3776180E-010  0.9118800E+02  0.7816164E-02  0.1184000E+00
        -11   -1    0    0    0    0  0.00000000000E+00  0.00000000000E+00  0.45593999997E+02  0.45594000000E+02  0.51100000000E-03 0. -1.
         11   -1    0    0    0    0 -0.00000000000E+00 -0.00000000000E+00 -0.45593999997E+02  0.45594000000E+02  0.51100000000E-03 0.  1.
         23    2    1    2    0    0  0.00000000000E+00  0.00000000000E+00  0.00000000000E+00  0.91188000000E+02  0.91188000000E+02 0.  0.
    9900012    2    3    3    0    0 -0.51071797250E+01 -0.36879315083E+02 -0.22303720977E+02  0.47787272643E+02  0.20000007288E+02 0.  0.
         12    1    3    3    0    0  0.51071797250E+01  0.36879315083E+02  0.22303720977E+02  0.43400727357E+02  0.00000000000E+00 0. -1.
         11    1    4    4    0    0 -0.25376498745E+00 -0.34606372377E+01  0.30836292144E+00  0.34836036962E+01  0.51100000000E-03 0. -1.
        -11    1    4    4    0    0  0.64801672105E+01 -0.16342511907E+02 -0.96698849368E+01  0.20064320010E+02  0.51100000000E-03 0.  1.
        -12    1    4    4    0    0 -0.11333581948E+02 -0.17076165938E+02 -0.12942198962E+02  0.24239348937E+02  0.00000000000E+00 0.  1.
</event>
<event>
 8    1  0.3776180E-010  0.9118800E+02  0.7816164E-02  0.1184000E+00
        -11   -1    0    0    0    0  0.00000000000E+00  0.00000000000E+00  0.45593999997E+02  0.45594000000E+02  0.51100000000E-03 0.  1.
         11   -1    0    0    0    0 -0.00000000000E+00 -0.00000000000E+00 -0.45593999997E+02  0.45594000000E+02  0.51100000000E-03 0. -1.
         23    2    1    2    0    0  0.00000000000E+00  0.00000000000E+00  0.00000000000E+00  0.91188000000E+02  0.91188000000E+02 0.  0.
    9900012    2    3    3    0    0 -0.18667487591E+02  0.38595754811E+02  0.67465446411E+01  0.47787271354E+02  0.20000001411E+02 0.  0.
        -12    1    3    3    0    0  0.18667487591E+02 -0.38595754811E+02 -0.67465446411E+01  0.43400728646E+02  0.00000000000E+00 0.  1.
         11    1    4    4    0    0  0.95777799451E+00  0.64936064178E+00 -0.42136633679E-01  0.11579221420E+01  0.51100000000E-03 0. -1.
        -11    1    4    4    0    0 -0.25082089984E+01  0.21719791791E+02 -0.72314207864E+00  0.21876092031E+02  0.51100000000E-03 0.  1.
         12    1    4    4    0    0 -0.17117056588E+02  0.16226602379E+02  0.75118233535E+01  0.24753257181E+02  0.00000000000E+00 0. -1.
</event>
<event>
 8    1  0.3776180E-010  0.9118800E+02  0.7816164E-02  0.1184000E+00
        -11   -1    0    0    0    0  0.00000000000E+00  0.00000000000E+00  0.45593999997E+02  0.45594000000E+02  0.51100000000E-03 0. -1.
         11   -1    0    0    0    0 -0.00000000000E+00 -0.00000000000E+00 -0.45593999997E+02  0.45594000000E+02  0.51100000000E-03 0.  1.
         23    2    1    2    0    0  0.35527136788E-14  0.00000000000E+00  0.00000000000E+00  0.91188000000E+02  0.91188000000E+02 0.  0.
    9900012    2    3    3    0    0 -0.24706554544E+02 -0.15136225145E+02  0.32312610710E+02  0.47787263140E+02  0.19999963962E+02 0.  0.
        -12    1    3    3    0    0  0.24706554544E+02  0.15136225145E+02 -0.32312610710E+02  0.43400736860E+02  0.00000000000E+00 0.  1.
         11    1    4    4    0    0 -0.29691450376E+01  0.52105287971E+00  0.12825905471E+02  0.13175400175E+02  0.51100000000E-03 0. -1.
        -11    1    4    4    0    0 -0.21993530932E+01 -0.62219605275E+01  0.68103095699E+01  0.94831568337E+01  0.51100000000E-03 0.  1.
        -12    1    4    4    0    0 -0.19538056413E+02 -0.94353174972E+01  0.12676395669E+02  0.25128706131E+02  0.00000000000E+00 0.  1.
</event>
<event>
 8    1  0.3776180E-010  0.9118800E+02  0.7816164E-02  0.1184000E+00
        -11   -1    0    0    0    0  0.00000000000E+00  0.00000000000E+00  0.45593999997E+02  0.45594000000E+02  0.51100000000E-03 0.  1.
         11   -1    0    0    0    0 -0.00000000000E+00 -0.00000000000E+00 -0.45593999997E+02  0.45594000000E+02  0.51100000000E-03 0. -1.
         23    2    1    2    0    0  0.35527136788E-14  0.00000000000E+00 -0.35527136788E-14  0.91188000000E+02  0.91188000000E+02 0.  0.
    9900012    2    3    3    0    0 -0.22103660322E+02  0.33201042850E+02  0.17109703151E+02  0.47787274339E+02  0.20000015023E+02 0.  0.
        -12    1    3    3    0    0  0.22103660322E+02 -0.33201042850E+02 -0.17109703151E+02  0.43400725661E+02  0.00000000000E+00 0.  1.
         11    1    4    4    0    0  0.29321668509E+01  0.12171441060E+01  0.10379173543E+01  0.33401070210E+01  0.51100000000E-03 0. -1.
        -11    1    4    4    0    0  0.22469461452E+00  0.11041340216E+01 -0.51761307250E+00  0.12399690163E+01  0.51100000000E-03 0.  1.
        -12    1    4    4    0    0 -0.25260521787E+02  0.30879764722E+02  0.16589398869E+02  0.43207198302E+02  0.00000000000E+00 0.  1.
</event>
<event>
 8    1  0.3776180E-010  0.9118800E+02  0.7816164E-02  0.1184000E+00
        -11   -1    0    0    0    0  0.00000000000E+00  0.00000000000E+00  0.45593999997E+02  0.45594000000E+02  0.51100000000E-03 0.  1.
         11   -1    0    0    0    0 -0.00000000000E+00 -0.00000000000E+00 -0.45593999997E+02  0.45594000000E+02  0.51100000000E-03 0. -1.
         23    2    1    2    0    0  0.35527136788E-14 -0.35527136788E-14  0.00000000000E+00  0.91188000000E+02  0.91188000000E+02 0.  0.
    9900012    2    3    3    0    0  0.29854583412E+02 -0.26276180882E+02 -0.17374944502E+02  0.47787279627E+02  0.20000039132E+02 0.  0.
         12    1    3    3    0    0 -0.29854583412E+02  0.26276180882E+02  0.17374944502E+02  0.43400720373E+02  0.00000000000E+00 0. -1.
         11    1    4    4    0    0  0.38024553108E+01 -0.83885165790E+01 -0.41738692956E+01  0.10111728930E+02  0.51100000000E-03 0. -1.
        -11    1    4    4    0    0  0.21393368242E+02 -0.19294701320E+02 -0.15008568427E+02  0.32484131976E+02  0.51100000000E-03 0.  1.
         12    1    4    4    0    0  0.46587598597E+01  0.14070370170E+01  0.18074932210E+01  0.51914187215E+01  0.00000000000E+00 0. -1.
</event>
<event>
 8    1  0.3776180E-010  0.9118800E+02  0.7816164E-02  0.1184000E+00
        -11   -1    0    0    0    0  0.00000000000E+00  0.00000000000E+00  0.45593999997E+02  0.45594000000E+02  0.51100000000E-03 0. -1.
         11   -1    0    0    0    0 -0.00000000000E+00 -0.00000000000E+00 -0.45593999997E+02  0.45594000000E+02  0.51100000000E-03 0.  1.
         23    2    1    2    0    0 -0.35527136788E-14  0.00000000000E+00  0.00000000000E+00  0.91188000000E+02  0.91188000000E+02 0.  0.
    9900012    2    3    3    0    0  0.17261085622E+02  0.34277344208E+02 -0.20266721186E+02  0.47787292743E+02  0.20000098931E+02 0.  0.
         12    1    3    3    0    0 -0.17261085622E+02 -0.34277344208E+02  0.20266721186E+02  0.43400707257E+02  0.00000000000E+00 0. -1.
         11    1    4    4    0    0  0.77535070939E+01  0.49215456900E+01 -0.32386322567E+01  0.97379270581E+01  0.51100000000E-03 0. -1.
        -11    1    4    4    0    0 -0.13179822588E+01 -0.10887645311E+01 -0.99938763949E+00  0.19802175017E+01  0.51100000000E-03 0.  1.
        -12    1    4    4    0    0  0.10825560787E+02  0.30444563049E+02 -0.16028701290E+02  0.36069148183E+02  0.00000000000E+00 0.  1.
</event>
<event>
 8    1  0.3776180E-010  0.9118800E+02  0.7816164E-02  0.1184000E+00
        -11   -1    0    0    0    0  0.00000000000E+00  0.00000000000E+00  0.45593999997E+02  0.45594000000E+02  0.51100000000E-03 0.  1.
         11   -1    0    0    0    0 -0.00000000000E+00 -0.00000000000E+00 -0.45593999997E+02  0.45594000000E+02  0.51100000000E-03 0. -1.
         23    2    1    2    0    0  0.00000000000E+00 -0.35527136788E-14  0.00000000000E+00  0.91188000000E+02  0.91188000000E+02 0.  0.
    9900012    2    3    3    0    0  0.19239920355E+02 -0.29935426788E+02 -0.24845908896E+02  0.47787268427E+02  0.19999988064E+02 0.  0.
         12    1    3    3    0    0 -0.19239920355E+02  0.29935426788E+02  0.24845908896E+02  0.43400731573E+02  0.00000000000E+00 0. -1.
         11    1    4    4    0    0  0.48508527387E+01 -0.33133075811E+01 -0.11210688616E+01  0.59804326828E+01  0.51100000000E-03 0. -1.
        -11    1    4    4    0    0 -0.30049702666E+01 -0.69547255506E+01 -0.22957276256E+01  0.79163387611E+01  0.51100000000E-03 0.  1.
        -12    1    4    4    0    0  0.17394037883E+02 -0.19667393656E+02 -0.21429112409E+02  0.33890496983E+02  0.00000000000E+00 0.  1.
</event>
<event>
 8    1  0.3776180E-010  0.9118800E+02  0.7816164E-02  0.1184000E+00
        -11   -1    0    0    0    0  0.00000000000E+00  0.00000000000E+00  0.45593999997E+02  0.45594000000E+02  0.51100000000E-03 0. -1.
         11   -1    0    0    0    0 -0.00000000000E+00 -0.00000000000E+00 -0.45593999997E+02  0.45594000000E+02  0.51100000000E-03 0.  1.
         23    2    1    2    0    0  0.00000000000E+00 -0.17763568394E-14  0.00000000000E+00  0.91188000000E+02  0.91188000000E+02 0.  0.
    9900012    2    3    3    0    0  0.10824889330E+02 -0.82417701323E+01  0.41213096198E+02  0.47787259198E+02  0.19999945989E+02 0.  0.
        -12    1    3    3    0    0 -0.10824889330E+02  0.82417701323E+01 -0.41213096198E+02  0.43400740802E+02  0.00000000000E+00 0.  1.
         11    1    4    4    0    0  0.54021954070E+01  0.11014696968E+01  0.14397341377E+02  0.15416886511E+02  0.51100000000E-03 0. -1.
        -11    1    4    4    0    0  0.55161589435E+01 -0.63886061230E+00  0.17285438438E+01  0.58158418525E+01  0.51100000000E-03 0.  1.
         12    1    4    4    0    0 -0.93465020442E-01 -0.87043792168E+01  0.25087210977E+02  0.26554530835E+02  0.00000000000E+00 0. -1.
</event>
<event>
 8    1  0.3776180E-010  0.9118800E+02  0.7816164E-02  0.1184000E+00
        -11   -1    0    0    0    0  0.00000000000E+00  0.00000000000E+00  0.45593999997E+02  0.45594000000E+02  0.51100000000E-03 0. -1.
         11   -1    0    0    0    0 -0.00000000000E+00 -0.00000000000E+00 -0.45593999997E+02  0.45594000000E+02  0.51100000000E-03 0.  1.
         23    2    1    2    0    0  0.00000000000E+00 -0.35527136788E-14  0.35527136788E-14  0.91188000000E+02  0.91188000000E+02 0.  0.
    9900012    2    3    3    0    0  0.45259001600E+01  0.30776524048E+02  0.30264584854E+02  0.47787270731E+02  0.19999998571E+02 0.  0.
        -12    1    3    3    0    0 -0.45259001600E+01 -0.30776524048E+02 -0.30264584854E+02  0.43400729269E+02  0.00000000000E+00 0.  1.
         11    1    4    4    0    0 -0.34048509616E+01  0.52019743270E+01  0.11511737023E+02  0.13083334304E+02  0.51100000000E-03 0.  1.
        -11    1    4    4    0    0  0.69720962500E+01  0.11480486618E+02  0.14901821616E+02  0.20061804177E+02  0.51100000000E-03 0. -1.
         12    1    4    4    0    0  0.95865487156E+00  0.14094063103E+02  0.38510262145E+01  0.14642132250E+02  0.00000000000E+00 0. -1.
</event>
<event>
 8    1  0.3776180E-010  0.9118800E+02  0.7816164E-02  0.1184000E+00
        -11   -1    0    0    0    0  0.00000000000E+00  0.00000000000E+00  0.45593999997E+02  0.45594000000E+02  0.51100000000E-03 0. -1.
         11   -1    0    0    0    0 -0.00000000000E+00 -0.00000000000E+00 -0.45593999997E+02  0.45594000000E+02  0.51100000000E-03 0.  1.
         23    2    1    2    0    0  0.00000000000E+00  0.00000000000E+00 -0.35527136788E-14  0.91188000000E+02  0.91188000000E+02 0.  0.
    9900012    2    3    3    0    0  0.26774412656E+02  0.12536186142E+02  0.31774175316E+02  0.47787270132E+02  0.19999995842E+02 0.  0.
        -12    1    3    3    0    0 -0.26774412656E+02 -0.12536186142E+02 -0.31774175316E+02  0.43400729868E+02  0.00000000000E+00 0.  1.
         11    1    4    4    0    0  0.76328822696E+01  0.74143044561E+01  0.51550770454E+01  0.11824027314E+02  0.51100000000E-03 0. -1.
        -11    1    4    4    0    0  0.35883918022E+01  0.48049942815E+00 -0.11499203043E+01  0.37986513915E+01  0.51100000000E-03 0.  1.
         12    1    4    4    0    0  0.15553138584E+02  0.46413822573E+01  0.27769018575E+02  0.32164591427E+02  0.00000000000E+00 0. -1.
</event>
<event>
 8    1  0.3776180E-010  0.9118800E+02  0.7816164E-02  0.1184000E+00
        -11   -1    0    0    0    0  0.00000000000E+00  0.00000000000E+00  0.45593999997E+02  0.45594000000E+02  0.51100000000E-03 0.  1.
         11   -1    0    0    0    0 -0.00000000000E+00 -0.00000000000E+00 -0.45593999997E+02  0.45594000000E+02  0.51100000000E-03 0. -1.
         23    2    1    2    0    0  0.00000000000E+00  0.00000000000E+00  0.00000000000E+00  0.91188000000E+02  0.91188000000E+02 0.  0.
    9900012    2    3    3    0    0 -0.23967468689E+02 -0.34688259543E+02 -0.10291180068E+02  0.47787270828E+02  0.19999999011E+02 0.  0.
        -12    1    3    3    0    0  0.23967468689E+02  0.34688259543E+02  0.10291180068E+02  0.43400729172E+02  0.00000000000E+00 0.  1.
         11    1    4    4    0    0 -0.16351512486E+02 -0.95762745047E+01 -0.17266723305E+01  0.19027832025E+02  0.51100000000E-03 0. -1.
        -11    1    4    4    0    0  0.14674514673E+01 -0.13508314990E+01 -0.32978847410E+00  0.20216132781E+01  0.51100000000E-03 0.  1.
        -12    1    4    4    0    0 -0.90834076706E+01 -0.23761153539E+02 -0.82347192638E+01  0.26737825525E+02  0.00000000000E+00 0.  1.
</event>
<event>
 8    1  0.3776180E-010  0.9118800E+02  0.7816164E-02  0.1184000E+00
        -11   -1    0    0    0    0  0.00000000000E+00  0.00000000000E+00  0.45593999997E+02  0.45594000000E+02  0.51100000000E-03 0. -1.
         11   -1    0    0    0    0 -0.00000000000E+00 -0.00000000000E+00 -0.45593999997E+02  0.45594000000E+02  0.51100000000E-03 0.  1.
         23    2    1    2    0    0  0.35527136788E-14  0.00000000000E+00  0.00000000000E+00  0.91188000000E+02  0.91188000000E+02 0.  0.
    9900012    2    3    3    0    0  0.23884466234E+02 -0.52774416676E+01 -0.35851138342E+02  0.47787271455E+02  0.20000001870E+02 0.  0.
         12    1    3    3    0    0 -0.23884466234E+02  0.52774416676E+01  0.35851138342E+02  0.43400728545E+02  0.00000000000E+00 0. -1.
         11    1    4    4    0    0  0.71737245422E+01 -0.37765810901E+01 -0.31098953576E+01  0.86831064680E+01  0.51100000000E-03 0. -1.
        -11    1    4    4    0    0 -0.89233291259E+00 -0.34343509798E+01 -0.71644170929E+01  0.79949920088E+01  0.51100000000E-03 0.  1.
        -12    1    4    4    0    0  0.17603074604E+02  0.19334904023E+01 -0.25576825892E+02  0.31109172978E+02  0.00000000000E+00 0.  1.
</event>
<event>
 8    1  0.3776180E-010  0.9118800E+02  0.7816164E-02  0.1184000E+00
        -11   -1    0    0    0    0  0.00000000000E+00  0.00000000000E+00  0.45593999997E+02  0.45594000000E+02  0.51100000000E-03 0. -1.
         11   -1    0    0    0    0 -0.00000000000E+00 -0.00000000000E+00 -0.45593999997E+02  0.45594000000E+02  0.51100000000E-03 0.  1.
         23    2    1    2    0    0  0.17763568394E-14  0.00000000000E+00  0.00000000000E+00  0.91188000000E+02  0.91188000000E+02 0.  0.
    9900012    2    3    3    0    0 -0.11933263913E+02  0.11083329854E+02 -0.40229120845E+02  0.47787249405E+02  0.19999901336E+02 0.  0.
         12    1    3    3    0    0  0.11933263913E+02 -0.11083329854E+02  0.40229120845E+02  0.43400750595E+02  0.00000000000E+00 0. -1.
         11    1    4    4    0    0 -0.64498818305E+01  0.48991094464E+01 -0.11336942269E+02  0.13933000727E+02  0.51100000000E-03 0. -1.
        -11    1    4    4    0    0 -0.61799901510E+01  0.96728896272E+01 -0.27887731670E+02  0.30157630045E+02  0.51100000000E-03 0.  1.
         12    1    4    4    0    0  0.69660806881E+00 -0.34886692195E+01 -0.10044469064E+01  0.36966186323E+01  0.00000000000E+00 0. -1.
</event>
<event>
 8    1  0.3776180E-010  0.9118800E+02  0.7816164E-02  0.1184000E+00
        -11   -1    0    0    0    0  0.00000000000E+00  0.00000000000E+00  0.45593999997E+02  0.45594000000E+02  0.51100000000E-03 0. -1.
         11   -1    0    0    0    0 -0.00000000000E+00 -0.00000000000E+00 -0.45593999997E+02  0.45594000000E+02  0.51100000000E-03 0.  1.
         23    2    1    2    0    0  0.00000000000E+00  0.00000000000E+00  0.00000000000E+00  0.91188000000E+02  0.91188000000E+02 0.  0.
    9900012    2    3    3    0    0  0.26951651030E+02  0.18697087812E+02 -0.28419197329E+02  0.47787270021E+02  0.19999995334E+02 0.  0.
         12    1    3    3    0    0 -0.26951651030E+02 -0.18697087812E+02  0.28419197329E+02  0.43400729979E+02  0.00000000000E+00 0. -1.
         11    1    4    4    0    0  0.14549252066E+01  0.41431050785E+01 -0.19424549116E+01  0.48015891529E+01  0.51100000000E-03 0. -1.
        -11    1    4    4    0    0  0.19865857019E+02  0.13569787160E+02 -0.28149689171E+02  0.37029669177E+02  0.51100000000E-03 0.  1.
         12    1    4    4    0    0  0.56308688048E+01  0.98419557317E+00  0.16729467543E+01  0.59560116912E+01  0.00000000000E+00 0. -1.
</event>
<event>
 8    1  0.3776180E-010  0.9118800E+02  0.7816164E-02  0.1184000E+00
        -11   -1    0    0    0    0  0.00000000000E+00  0.00000000000E+00  0.45593999997E+02  0.45594000000E+02  0.51100000000E-03 0.  1.
         11   -1    0    0    0    0 -0.00000000000E+00 -0.00000000000E+00 -0.45593999997E+02  0.45594000000E+02  0.51100000000E-03 0. -1.
         23    2    1    2    0    0  0.17763568394E-14  0.00000000000E+00  0.00000000000E+00  0.91188000000E+02  0.91188000000E+02 0.  0.
    9900012    2    3    3    0    0  0.15354416753E+02 -0.40589594188E+02 -0.59174161226E+00  0.47787269265E+02  0.19999991887E+02 0.  0.
         12    1    3    3    0    0 -0.15354416753E+02  0.40589594188E+02  0.59174161226E+00  0.43400730735E+02  0.00000000000E+00 0. -1.
         11    1    4    4    0    0  0.41939035375E+01 -0.19635195715E+02  0.20984846890E+00  0.20079187590E+02  0.51100000000E-03 0. -1.
        -11    1    4    4    0    0  0.77706517863E+01 -0.18232288081E+02 -0.62096571859E+01  0.20769188730E+02  0.51100000000E-03 0.  1.
        -12    1    4    4    0    0  0.33898614292E+01 -0.27221103926E+01  0.54080671048E+01  0.69388929455E+01  0.00000000000E+00 0.  1.
</event>
<event>
 8    1  0.3776180E-010  0.9118800E+02  0.7816164E-02  0.1184000E+00
        -11   -1    0    0    0    0  0.00000000000E+00  0.00000000000E+00  0.45593999997E+02  0.45594000000E+02  0.51100000000E-03 0. -1.
         11   -1    0    0    0    0 -0.00000000000E+00 -0.00000000000E+00 -0.45593999997E+02  0.45594000000E+02  0.51100000000E-03 0.  1.
         23    2    1    2    0    0  0.00000000000E+00 -0.17763568394E-14  0.00000000000E+00  0.91188000000E+02  0.91188000000E+02 0.  0.
    9900012    2    3    3    0    0  0.21169124101E+01 -0.15969561106E+02  0.40300301060E+02  0.47787280356E+02  0.20000042457E+02 0.  0.
        -12    1    3    3    0    0 -0.21169124101E+01  0.15969561106E+02 -0.40300301060E+02  0.43400719644E+02  0.00000000000E+00 0.  1.
         11    1    4    4    0    0 -0.11698832084E+01 -0.48650151386E+01  0.67373051945E+01  0.83921558950E+01  0.51100000000E-03 0. -1.
        -11    1    4    4    0    0 -0.19763295034E+01 -0.50634663994E+01  0.59553711180E+00  0.54680192938E+01  0.51100000000E-03 0.  1.
         12    1    4    4    0    0  0.52631251219E+01 -0.60410795680E+01  0.32967458753E+02  0.33927105168E+02  0.00000000000E+00 0. -1.
</event>
<event>
 8    1  0.3776180E-010  0.9118800E+02  0.7816164E-02  0.1184000E+00
        -11   -1    0    0    0    0  0.00000000000E+00  0.00000000000E+00  0.45593999997E+02  0.45594000000E+02  0.51100000000E-03 0. -1.
         11   -1    0    0    0    0 -0.00000000000E+00 -0.00000000000E+00 -0.45593999997E+02  0.45594000000E+02  0.51100000000E-03 0.  1.
         23    2    1    2    0    0 -0.17763568394E-14  0.00000000000E+00 -0.71054273576E-14  0.91188000000E+02  0.91188000000E+02 0.  0.
    9900012    2    3    3    0    0  0.14661631599E+02 -0.17917031842E+02  0.36710214129E+02  0.47787270829E+02  0.19999999019E+02 0.  0.
        -12    1    3    3    0    0 -0.14661631599E+02  0.17917031842E+02 -0.36710214129E+02  0.43400729171E+02  0.00000000000E+00 0.  1.
         11    1    4    4    0    0  0.34131118106E+01 -0.85800964979E+01  0.22489215572E+02  0.24311153931E+02  0.51100000000E-03 0. -1.
        -11    1    4    4    0    0  0.99539677101E+01 -0.74181590662E+01  0.16214683978E+02  0.20421227531E+02  0.51100000000E-03 0.  1.
        -12    1    4    4    0    0  0.12945520788E+01 -0.19187762776E+01 -0.19936854212E+01  0.30548893674E+01  0.00000000000E+00 0.  1.
</event>
<event>
 8    1  0.3776180E-010  0.9118800E+02  0.7816164E-02  0.1184000E+00
        -11   -1    0    0    0    0  0.00000000000E+00  0.00000000000E+00  0.45593999997E+02  0.45594000000E+02  0.51100000000E-03 0. -1.
         11   -1    0    0    0    0 -0.00000000000E+00 -0.00000000000E+00 -0.45593999997E+02  0.45594000000E+02  0.51100000000E-03 0.  1.
         23    2    1    2    0    0 -0.66613381478E-15  0.00000000000E+00  0.00000000000E+00  0.91188000000E+02  0.91188000000E+02 0.  0.
    9900012    2    3    3    0    0  0.10079545533E+01 -0.29070249131E+02 -0.32210679133E+02  0.47787271814E+02  0.20000003508E+02 0.  0.
         12    1    3    3    0    0 -0.10079545533E+01  0.29070249131E+02  0.32210679133E+02  0.43400728186E+02  0.00000000000E+00 0. -1.
         11    1    4    4    0    0  0.67858150847E+00  0.20772427108E+01 -0.27324944085E+01  0.34988478242E+01  0.51100000000E-03 0. -1.
        -11    1    4    4    0    0 -0.38237274881E+01 -0.45703186831E+01 -0.36006792130E+01  0.69622981712E+01  0.51100000000E-03 0.  1.
         12    1    4    4    0    0  0.41531005329E+01 -0.26577173159E+02 -0.25877505511E+02  0.37326125818E+02  0.00000000000E+00 0. -1.
</event>
<event>
 8    1  0.3776180E-010  0.9118800E+02  0.7816164E-02  0.1184000E+00
        -11   -1    0    0    0    0  0.00000000000E+00  0.00000000000E+00  0.45593999997E+02  0.45594000000E+02  0.51100000000E-03 0. -1.
         11   -1    0    0    0    0 -0.00000000000E+00 -0.00000000000E+00 -0.45593999997E+02  0.45594000000E+02  0.51100000000E-03 0.  1.
         23    2    1    2    0    0  0.00000000000E+00 -0.13322676296E-14  0.71054273576E-14  0.91188000000E+02  0.91188000000E+02 0.  0.
    9900012    2    3    3    0    0  0.51770413260E+01  0.21046395664E+01 -0.43039437606E+02  0.47787257448E+02  0.19999938008E+02 0.  0.
         12    1    3    3    0    0 -0.51770413260E+01 -0.21046395664E+01  0.43039437606E+02  0.43400742552E+02  0.00000000000E+00 0. -1.
         11    1    4    4    0    0  0.43460097159E+01 -0.22221628459E+01 -0.53911452915E+01  0.72725687332E+01  0.51100000000E-03 0.  1.
        -11    1    4    4    0    0  0.69815711620E+00 -0.52590135877E+01 -0.11509857513E+02  0.12673652492E+02  0.51100000000E-03 0. -1.
         12    1    4    4    0    0  0.13287449396E+00  0.95858159999E+01 -0.26138434802E+02  0.27841036222E+02  0.00000000000E+00 0. -1.
</event>
<event>
 8    1  0.3776180E-010  0.9118800E+02  0.7816164E-02  0.1184000E+00
        -11   -1    0    0    0    0  0.00000000000E+00  0.00000000000E+00  0.45593999997E+02  0.45594000000E+02  0.51100000000E-03 0. -1.
         11   -1    0    0    0    0 -0.00000000000E+00 -0.00000000000E+00 -0.45593999997E+02  0.45594000000E+02  0.51100000000E-03 0.  1.
         23    2    1    2    0    0  0.88817841970E-15 -0.35527136788E-14  0.00000000000E+00  0.91188000000E+02  0.91188000000E+02 0.  0.
    9900012    2    3    3    0    0 -0.49461567556E+01 -0.27801655025E+02  0.32957958253E+02  0.47787268428E+02  0.19999988070E+02 0.  0.
        -12    1    3    3    0    0  0.49461567556E+01  0.27801655025E+02 -0.32957958253E+02  0.43400731572E+02  0.00000000000E+00 0.  1.
         11    1    4    4    0    0 -0.28030502871E+01 -0.49655232065E+01  0.11464631753E+01  0.58161748340E+01  0.51100000000E-03 0. -1.
        -11    1    4    4    0    0  0.40702691084E+01 -0.13094067064E+02  0.90053273206E+01  0.16404804275E+02  0.51100000000E-03 0.  1.
        -12    1    4    4    0    0 -0.62133755769E+01 -0.97420647542E+01  0.22806167757E+02  0.25566289318E+02  0.00000000000E+00 0.  1.
</event>
<event>
 8    1  0.3776180E-010  0.9118800E+02  0.7816164E-02  0.1184000E+00
        -11   -1    0    0    0    0  0.00000000000E+00  0.00000000000E+00  0.45593999997E+02  0.45594000000E+02  0.51100000000E-03 0. -1.
         11   -1    0    0    0    0 -0.00000000000E+00 -0.00000000000E+00 -0.45593999997E+02  0.45594000000E+02  0.51100000000E-03 0.  1.
         23    2    1    2    0    0  0.00000000000E+00 -0.88817841970E-15  0.00000000000E+00  0.91188000000E+02  0.91188000000E+02 0.  0.
    9900012    2    3    3    0    0  0.61073885624E+01 -0.55922927042E+01 -0.42603397984E+02  0.47787268987E+02  0.19999990618E+02 0.  0.
         12    1    3    3    0    0 -0.61073885624E+01  0.55922927042E+01  0.42603397984E+02  0.43400731013E+02  0.00000000000E+00 0. -1.
         11    1    4    4    0    0  0.18021826345E+00  0.47911974307E-02  0.44374276698E+00  0.47896709952E+00  0.51100000000E-03 0. -1.
        -11    1    4    4    0    0  0.97033820715E+01 -0.59289771221E+01 -0.14100150744E+02  0.18114155917E+02  0.51100000000E-03 0.  1.
         12    1    4    4    0    0 -0.37762117725E+01  0.33189322051E+00 -0.28946990007E+02  0.29194145970E+02  0.00000000000E+00 0. -1.
</event>
<event>
 8    1  0.4013342E-010  0.9118800E+02  0.7816164E-02  0.1184000E+00
        -11   -1    0    0    0    0  0.00000000000E+00  0.00000000000E+00  0.45593999997E+02  0.45594000000E+02  0.51100000000E-03 0. -1.
         11   -1    0    0    0    0 -0.00000000000E+00 -0.00000000000E+00 -0.45593999997E+02  0.45594000000E+02  0.51100000000E-03 0.  1.
         23    2    1    2    0    0  0.00000000000E+00  0.00000000000E+00  0.00000000000E+00  0.91188000000E+02  0.91188000000E+02 0.  0.
    9900012    2    3    3    0    0 -0.52118788714E+01 -0.32300048758E+01  0.42965408033E+02  0.47787275348E+02  0.20000019623E+02 0.  0.
        -12    1    3    3    0    0  0.52118788714E+01  0.32300048758E+01 -0.42965408033E+02  0.43400724652E+02  0.00000000000E+00 0.  1.
         11    1    4    4    0    0 -0.23524555455E+01 -0.15520926687E+01  0.23058590011E+02  0.23230187522E+02  0.51100000000E-03 0. -1.
        -11    1    4    4    0    0 -0.26502635803E+01 -0.53982341496E+01  0.19943759916E+02  0.20830707833E+02  0.51100000000E-03 0.  1.
        -12    1    4    4    0    0 -0.20915974563E+00  0.37203219425E+01 -0.36941893569E-01  0.37263799939E+01  0.00000000000E+00 0.  1.
</event>
<event>
 8    1  0.3776180E-010  0.9118800E+02  0.7816164E-02  0.1184000E+00
        -11   -1    0    0    0    0  0.00000000000E+00  0.00000000000E+00  0.45593999997E+02  0.45594000000E+02  0.51100000000E-03 0. -1.
         11   -1    0    0    0    0 -0.00000000000E+00 -0.00000000000E+00 -0.45593999997E+02  0.45594000000E+02  0.51100000000E-03 0.  1.
         23    2    1    2    0    0 -0.17763568394E-14  0.35527136788E-14  0.71054273576E-14  0.91188000000E+02  0.91188000000E+02 0.  0.
    9900012    2    3    3    0    0  0.85986232128E+01  0.27171406309E+02 -0.32732276334E+02  0.47787267794E+02  0.19999985179E+02 0.  0.
         12    1    3    3    0    0 -0.85986232128E+01 -0.27171406309E+02  0.32732276334E+02  0.43400732206E+02  0.00000000000E+00 0. -1.
         11    1    4    4    0    0  0.64423296488E+01  0.31234728255E+01 -0.38264824273E+01  0.81179838521E+01  0.51100000000E-03 0. -1.
        -11    1    4    4    0    0  0.64414910177E+01  0.13284098252E+02 -0.20893325414E+02  0.25583024059E+02  0.51100000000E-03 0.  1.
         12    1    4    4    0    0 -0.42851974537E+01  0.10763835232E+02 -0.80124684927E+01  0.14086259882E+02  0.00000000000E+00 0. -1.
</event>
<event>
 8    1  0.3776180E-010  0.9118800E+02  0.7816164E-02  0.1184000E+00
        -11   -1    0    0    0    0  0.00000000000E+00  0.00000000000E+00  0.45593999997E+02  0.45594000000E+02  0.51100000000E-03 0. -1.
         11   -1    0    0    0    0 -0.00000000000E+00 -0.00000000000E+00 -0.45593999997E+02  0.45594000000E+02  0.51100000000E-03 0.  1.
         23    2    1    2    0    0  0.49960036108E-15  0.00000000000E+00  0.00000000000E+00  0.91188000000E+02  0.91188000000E+02 0.  0.
    9900012    2    3    3    0    0  0.34789334645E+00  0.39956292329E+02  0.16940985321E+02  0.47787270627E+02  0.19999998096E+02 0.  0.
        -12    1    3    3    0    0 -0.34789334645E+00 -0.39956292329E+02 -0.16940985321E+02  0.43400729373E+02  0.00000000000E+00 0.  1.
         11    1    4    4    0    0  0.38571532807E+01  0.15152017146E+02 -0.26471153614E+01  0.15857757566E+02  0.51100000000E-03 0. -1.
        -11    1    4    4    0    0 -0.30267586521E+00  0.28635189437E+01  0.35101982327E+01  0.45401371471E+01  0.51100000000E-03 0.  1.
         12    1    4    4    0    0 -0.32065840690E+01  0.21940756239E+02  0.16077902450E+02  0.27389375913E+02  0.00000000000E+00 0. -1.
</event>
<event>
 8    1  0.3776180E-010  0.9118800E+02  0.7816164E-02  0.1184000E+00
        -11   -1    0    0    0    0  0.00000000000E+00  0.00000000000E+00  0.45593999997E+02  0.45594000000E+02  0.51100000000E-03 0. -1.
         11   -1    0    0    0    0 -0.00000000000E+00 -0.00000000000E+00 -0.45593999997E+02  0.45594000000E+02  0.51100000000E-03 0.  1.
         23    2    1    2    0    0  0.14988010832E-14  0.88817841970E-15  0.00000000000E+00  0.91188000000E+02  0.91188000000E+02 0.  0.
    9900012    2    3    3    0    0 -0.41467558066E+00 -0.74267789178E+01  0.42758556687E+02  0.47787272231E+02  0.20000005411E+02 0.  0.
        -12    1    3    3    0    0  0.41467558066E+00  0.74267789178E+01 -0.42758556687E+02  0.43400727769E+02  0.00000000000E+00 0.  1.
         11    1    4    4    0    0 -0.87087133118E+00 -0.70574308612E+00  0.56170687552E+01  0.57278226090E+01  0.51100000000E-03 0. -1.
        -11    1    4    4    0    0 -0.65704988315E+01 -0.62452914528E+01  0.80364707164E+01  0.12114453436E+02  0.51100000000E-03 0.  1.
        -12    1    4    4    0    0  0.70266945820E+01 -0.47574437885E+00  0.29105017215E+02  0.29944996186E+02  0.00000000000E+00 0.  1.
</event>
<event>
 8    1  0.3776180E-010  0.9118800E+02  0.7816164E-02  0.1184000E+00
        -11   -1    0    0    0    0  0.00000000000E+00  0.00000000000E+00  0.45593999997E+02  0.45594000000E+02  0.51100000000E-03 0.  1.
         11   -1    0    0    0    0 -0.00000000000E+00 -0.00000000000E+00 -0.45593999997E+02  0.45594000000E+02  0.51100000000E-03 0. -1.
         23    2    1    2    0    0  0.00000000000E+00  0.00000000000E+00  0.00000000000E+00  0.91188000000E+02  0.91188000000E+02 0.  0.
    9900012    2    3    3    0    0 -0.40050035339E+02  0.16674680638E+02  0.12540930987E+01  0.47787273571E+02  0.20000011519E+02 0.  0.
         12    1    3    3    0    0  0.40050035339E+02 -0.16674680638E+02 -0.12540930987E+01  0.43400726429E+02  0.00000000000E+00 0. -1.
         11    1    4    4    0    0 -0.11959628757E+02  0.99360930586E+00 -0.35608910915E+01  0.12517984066E+02  0.51100000000E-03 0. -1.
        -11    1    4    4    0    0 -0.24630259275E+02  0.82762172189E+01  0.67993434175E+01  0.26858453317E+02  0.51100000000E-03 0.  1.
        -12    1    4    4    0    0 -0.34601473073E+01  0.74048541135E+01 -0.19843592273E+01  0.84108361875E+01  0.00000000000E+00 0.  1.
</event>
<event>
 8    1  0.3776180E-010  0.9118800E+02  0.7816164E-02  0.1184000E+00
        -11   -1    0    0    0    0  0.00000000000E+00  0.00000000000E+00  0.45593999997E+02  0.45594000000E+02  0.51100000000E-03 0. -1.
         11   -1    0    0    0    0 -0.00000000000E+00 -0.00000000000E+00 -0.45593999997E+02  0.45594000000E+02  0.51100000000E-03 0.  1.
         23    2    1    2    0    0  0.17763568394E-14  0.00000000000E+00  0.00000000000E+00  0.91188000000E+02  0.91188000000E+02 0.  0.
    9900012    2    3    3    0    0  0.57400545698E+01  0.27285924059E+02 -0.33258915016E+02  0.47787247630E+02  0.19999893244E+02 0.  0.
         12    1    3    3    0    0 -0.57400545698E+01 -0.27285924059E+02  0.33258915016E+02  0.43400752370E+02  0.00000000000E+00 0. -1.
         11    1    4    4    0    0 -0.42075120767E+01  0.99139864003E+00 -0.55703736913E+01  0.70508930257E+01  0.51100000000E-03 0. -1.
        -11    1    4    4    0    0 -0.15421561847E+01  0.56272216993E+01 -0.83638733786E+01  0.10197953123E+02  0.51100000000E-03 0.  1.
        -12    1    4    4    0    0  0.11489722831E+02  0.20667303720E+02 -0.19324667946E+02  0.30538401481E+02  0.00000000000E+00 0.  1.
</event>
<event>
 8    1  0.3776180E-010  0.9118800E+02  0.7816164E-02  0.1184000E+00
        -11   -1    0    0    0    0  0.00000000000E+00  0.00000000000E+00  0.45593999997E+02  0.45594000000E+02  0.51100000000E-03 0. -1.
         11   -1    0    0    0    0 -0.00000000000E+00 -0.00000000000E+00 -0.45593999997E+02  0.45594000000E+02  0.51100000000E-03 0.  1.
         23    2    1    2    0    0 -0.44408920985E-15 -0.23314683517E-14  0.00000000000E+00  0.91188000000E+02  0.91188000000E+02 0.  0.
    9900012    2    3    3    0    0 -0.11884561266E+01  0.61116190067E+00  0.43380148799E+02  0.47787271243E+02  0.20000000904E+02 0.  0.
        -12    1    3    3    0    0  0.11884561266E+01 -0.61116190067E+00 -0.43380148799E+02  0.43400728757E+02  0.00000000000E+00 0.  1.
         11    1    4    4    0    0 -0.56596231194E+01  0.38861305237E+01  0.11219056200E+02  0.13152967976E+02  0.51100000000E-03 0. -1.
        -11    1    4    4    0    0  0.24737620446E+01  0.43072758145E+01  0.11087207087E+02  0.12149003451E+02  0.51100000000E-03 0.  1.
        -12    1    4    4    0    0  0.19974049482E+01 -0.75822444375E+01  0.21073885512E+02  0.22485299815E+02  0.00000000000E+00 0.  1.
</event>
<event>
 8    1  0.3776180E-010  0.9118800E+02  0.7816164E-02  0.1184000E+00
        -11   -1    0    0    0    0  0.00000000000E+00  0.00000000000E+00  0.45593999997E+02  0.45594000000E+02  0.51100000000E-03 0. -1.
         11   -1    0    0    0    0 -0.00000000000E+00 -0.00000000000E+00 -0.45593999997E+02  0.45594000000E+02  0.51100000000E-03 0.  1.
         23    2    1    2    0    0  0.00000000000E+00  0.88817841970E-15  0.00000000000E+00  0.91188000000E+02  0.91188000000E+02 0.  0.
    9900012    2    3    3    0    0 -0.33398386915E+02  0.51132075774E+01  0.27240154200E+02  0.47787272574E+02  0.20000006974E+02 0.  0.
        -12    1    3    3    0    0  0.33398386915E+02 -0.51132075774E+01 -0.27240154200E+02  0.43400727426E+02  0.00000000000E+00 0.  1.
         11    1    4    4    0    0 -0.85044285834E+01  0.49093331181E+01  0.58640347422E+01  0.11437384356E+02  0.51100000000E-03 0. -1.
        -11    1    4    4    0    0 -0.10247778881E+02  0.53717726001E+01  0.16341776407E+02  0.20023150832E+02  0.51100000000E-03 0.  1.
        -12    1    4    4    0    0 -0.14646179451E+02 -0.51678981407E+01  0.50343430515E+01  0.16326737386E+02  0.00000000000E+00 0.  1.
</event>
<event>
 8    1  0.3776180E-010  0.9118800E+02  0.7816164E-02  0.1184000E+00
        -11   -1    0    0    0    0  0.00000000000E+00  0.00000000000E+00  0.45593999997E+02  0.45594000000E+02  0.51100000000E-03 0.  1.
         11   -1    0    0    0    0 -0.00000000000E+00 -0.00000000000E+00 -0.45593999997E+02  0.45594000000E+02  0.51100000000E-03 0. -1.
         23    2    1    2    0    0  0.35527136788E-14  0.71054273576E-14  0.35527136788E-14  0.91188000000E+02  0.91188000000E+02 0.  0.
    9900012    2    3    3    0    0  0.13412735405E+02  0.34919963386E+02  0.22007231654E+02  0.47787267759E+02  0.19999985021E+02 0.  0.
         12    1    3    3    0    0 -0.13412735405E+02 -0.34919963386E+02 -0.22007231654E+02  0.43400732241E+02  0.00000000000E+00 0. -1.
         11    1    4    4    0    0 -0.19129722792E+01  0.63631566347E+01 -0.97857843921E+00  0.67161626932E+01  0.51100000000E-03 0. -1.
        -11    1    4    4    0    0  0.46691574074E+01  0.19422649195E+02  0.12721059941E+02  0.23682603297E+02  0.51100000000E-03 0.  1.
         12    1    4    4    0    0  0.10656550277E+02  0.91341575567E+01  0.10264750152E+02  0.17388501769E+02  0.00000000000E+00 0. -1.
</event>
<event>
 8    1  0.3776180E-010  0.9118800E+02  0.7816164E-02  0.1184000E+00
        -11   -1    0    0    0    0  0.00000000000E+00  0.00000000000E+00  0.45593999997E+02  0.45594000000E+02  0.51100000000E-03 0. -1.
         11   -1    0    0    0    0 -0.00000000000E+00 -0.00000000000E+00 -0.45593999997E+02  0.45594000000E+02  0.51100000000E-03 0.  1.
         23    2    1    2    0    0  0.17763568394E-14  0.00000000000E+00  0.71054273576E-14  0.91188000000E+02  0.91188000000E+02 0.  0.
    9900012    2    3    3    0    0 -0.12002092838E+02  0.20452764133E+02 -0.36349103216E+02  0.47787273073E+02  0.20000009250E+02 0.  0.
         12    1    3    3    0    0  0.12002092838E+02 -0.20452764133E+02  0.36349103216E+02  0.43400726927E+02  0.00000000000E+00 0. -1.
         11    1    4    4    0    0  0.30422819596E+01  0.72839797429E+01 -0.67971421591E+01  0.10416956475E+02  0.51100000000E-03 0. -1.
        -11    1    4    4    0    0 -0.13075776726E+01 -0.19907776679E+01 -0.37476375757E+01  0.44404665017E+01  0.51100000000E-03 0.  1.
        -12    1    4    4    0    0 -0.13736797125E+02  0.15159562058E+02 -0.25804323481E+02  0.32929850096E+02  0.00000000000E+00 0.  1.
</event>
<event>
 8    1  0.3776180E-010  0.9118800E+02  0.7816164E-02  0.1184000E+00
        -11   -1    0    0    0    0  0.00000000000E+00  0.00000000000E+00  0.45593999997E+02  0.45594000000E+02  0.51100000000E-03 0. -1.
         11   -1    0    0    0    0 -0.00000000000E+00 -0.00000000000E+00 -0.45593999997E+02  0.45594000000E+02  0.51100000000E-03 0.  1.
         23    2    1    2    0    0 -0.22204460493E-15 -0.22204460493E-15 -0.71054273576E-14  0.91188000000E+02  0.91188000000E+02 0.  0.
    9900012    2    3    3    0    0 -0.14054978288E+01  0.17113457352E+01 -0.43344187194E+02  0.47787277750E+02  0.20000030571E+02 0.  0.
         12    1    3    3    0    0  0.14054978288E+01 -0.17113457352E+01  0.43344187194E+02  0.43400722250E+02  0.00000000000E+00 0. -1.
         11    1    4    4    0    0  0.12834502734E+01 -0.33931003282E-01 -0.51236057356E+00  0.13823565155E+01  0.51100000000E-03 0. -1.
        -11    1    4    4    0    0  0.52723981807E+01 -0.30483608147E+01 -0.29696650458E+02  0.30314711527E+02  0.51100000000E-03 0.  1.
         12    1    4    4    0    0 -0.79613462830E+01  0.47936375531E+01 -0.13135176162E+02  0.16090209707E+02  0.00000000000E+00 0. -1.
</event>
<event>
 8    1  0.3776180E-010  0.9118800E+02  0.7816164E-02  0.1184000E+00
        -11   -1    0    0    0    0  0.00000000000E+00  0.00000000000E+00  0.45593999997E+02  0.45594000000E+02  0.51100000000E-03 0. -1.
         11   -1    0    0    0    0 -0.00000000000E+00 -0.00000000000E+00 -0.45593999997E+02  0.45594000000E+02  0.51100000000E-03 0.  1.
         23    2    1    2    0    0  0.00000000000E+00  0.00000000000E+00  0.00000000000E+00  0.91188000000E+02  0.91188000000E+02 0.  0.
    9900012    2    3    3    0    0 -0.30677734243E+02 -0.24981283114E+01 -0.30598353440E+02  0.47787271243E+02  0.20000000907E+02 0.  0.
         12    1    3    3    0    0  0.30677734243E+02  0.24981283114E+01  0.30598353440E+02  0.43400728757E+02  0.00000000000E+00 0. -1.
         11    1    4    4    0    0 -0.78848922492E+01  0.48790608909E+01 -0.13066321338E+01  0.93639761188E+01  0.51100000000E-03 0. -1.
        -11    1    4    4    0    0 -0.88527800230E+01 -0.56177869312E+01 -0.15665855773E+02  0.18850736895E+02  0.51100000000E-03 0.  1.
        -12    1    4    4    0    0 -0.13940061971E+02 -0.17594022711E+01 -0.13625865533E+02  0.19572558229E+02  0.00000000000E+00 0.  1.
</event>
<event>
 8    1  0.3776180E-010  0.9118800E+02  0.7816164E-02  0.1184000E+00
        -11   -1    0    0    0    0  0.00000000000E+00  0.00000000000E+00  0.45593999997E+02  0.45594000000E+02  0.51100000000E-03 0. -1.
         11   -1    0    0    0    0 -0.00000000000E+00 -0.00000000000E+00 -0.45593999997E+02  0.45594000000E+02  0.51100000000E-03 0.  1.
         23    2    1    2    0    0  0.00000000000E+00  0.00000000000E+00  0.00000000000E+00  0.91188000000E+02  0.91188000000E+02 0.  0.
    9900012    2    3    3    0    0  0.22099412592E+02 -0.32429794512E+02  0.18535037166E+02  0.47787271760E+02  0.20000003264E+02 0.  0.
        -12    1    3    3    0    0 -0.22099412592E+02  0.32429794512E+02 -0.18535037166E+02  0.43400728240E+02  0.00000000000E+00 0.  1.
         11    1    4    4    0    0 -0.97087058025E+00 -0.85412776132E+01  0.32660921537E+01  0.91958344464E+01  0.51100000000E-03 0. -1.
        -11    1    4    4    0    0  0.18406179970E+01  0.12405641391E+01 -0.22101132194E+00  0.22306322556E+01  0.51100000000E-03 0.  1.
         12    1    4    4    0    0  0.21229665175E+02 -0.25129081038E+02  0.15489956334E+02  0.36360805058E+02  0.00000000000E+00 0. -1.
</event>
<event>
 8    1  0.3776180E-010  0.9118800E+02  0.7816164E-02  0.1184000E+00
        -11   -1    0    0    0    0  0.00000000000E+00  0.00000000000E+00  0.45593999997E+02  0.45594000000E+02  0.51100000000E-03 0. -1.
         11   -1    0    0    0    0 -0.00000000000E+00 -0.00000000000E+00 -0.45593999997E+02  0.45594000000E+02  0.51100000000E-03 0.  1.
         23    2    1    2    0    0 -0.88817841970E-15 -0.35527136788E-14  0.35527136788E-14  0.91188000000E+02  0.91188000000E+02 0.  0.
    9900012    2    3    3    0    0  0.56269347227E+01  0.30008331652E+02 -0.30845760338E+02  0.47787270815E+02  0.19999998954E+02 0.  0.
         12    1    3    3    0    0 -0.56269347227E+01 -0.30008331652E+02  0.30845760338E+02  0.43400729185E+02  0.00000000000E+00 0. -1.
         11    1    4    4    0    0  0.58670886604E+01  0.45167874634E+01 -0.54707240198E+01  0.92061349056E+01  0.51100000000E-03 0. -1.
        -11    1    4    4    0    0  0.46739838193E+01  0.23152422434E+02 -0.20685790734E+02  0.31397177068E+02  0.51100000000E-03 0.  1.
        -12    1    4    4    0    0 -0.49141377570E+01  0.23391217547E+01 -0.46892455847E+01  0.71839588412E+01  0.00000000000E+00 0.  1.
</event>
<event>
 8    1  0.3776180E-010  0.9118800E+02  0.7816164E-02  0.1184000E+00
        -11   -1    0    0    0    0  0.00000000000E+00  0.00000000000E+00  0.45593999997E+02  0.45594000000E+02  0.51100000000E-03 0. -1.
         11   -1    0    0    0    0 -0.00000000000E+00 -0.00000000000E+00 -0.45593999997E+02  0.45594000000E+02  0.51100000000E-03 0.  1.
         23    2    1    2    0    0  0.00000000000E+00  0.00000000000E+00  0.00000000000E+00  0.91188000000E+02  0.91188000000E+02 0.  0.
    9900012    2    3    3    0    0 -0.34637794387E+02  0.14981479369E+02  0.21433657693E+02  0.47787271824E+02  0.20000003555E+02 0.  0.
        -12    1    3    3    0    0  0.34637794387E+02 -0.14981479369E+02 -0.21433657693E+02  0.43400728176E+02  0.00000000000E+00 0.  1.
         11    1    4    4    0    0 -0.14521279318E+02  0.19040212322E+01  0.11882740022E+02  0.18859808073E+02  0.51100000000E-03 0. -1.
        -11    1    4    4    0    0 -0.14162388714E+02  0.10128166686E+02  0.14569138063E+00  0.17411899401E+02  0.51100000000E-03 0.  1.
        -12    1    4    4    0    0 -0.59541263549E+01  0.29492914510E+01  0.94052262909E+01  0.11515564350E+02  0.00000000000E+00 0.  1.
</event>
<event>
 8    1  0.3776180E-010  0.9118800E+02  0.7816164E-02  0.1184000E+00
        -11   -1    0    0    0    0  0.00000000000E+00  0.00000000000E+00  0.45593999997E+02  0.45594000000E+02  0.51100000000E-03 0. -1.
         11   -1    0    0    0    0 -0.00000000000E+00 -0.00000000000E+00 -0.45593999997E+02  0.45594000000E+02  0.51100000000E-03 0.  1.
         23    2    1    2    0    0  0.35527136788E-14  0.00000000000E+00  0.00000000000E+00  0.91188000000E+02  0.91188000000E+02 0.  0.
    9900012    2    3    3    0    0 -0.17205158016E+02 -0.17158666087E+02  0.35960899416E+02  0.47787267621E+02  0.19999984390E+02 0.  0.
        -12    1    3    3    0    0  0.17205158016E+02  0.17158666087E+02 -0.35960899416E+02  0.43400732379E+02  0.00000000000E+00 0.  1.
         11    1    4    4    0    0 -0.80524436738E+01 -0.12112375049E+02  0.20306626301E+02  0.24978201505E+02  0.51100000000E-03 0. -1.
        -11    1    4    4    0    0 -0.93736140672E+01 -0.69066046732E+01  0.62395434622E+01  0.13209758956E+02  0.51100000000E-03 0.  1.
        -12    1    4    4    0    0  0.22089972485E+00  0.18603136350E+01  0.94147296527E+01  0.95993071595E+01  0.00000000000E+00 0.  1.
</event>
<event>
 8    1  0.3776180E-010  0.9118800E+02  0.7816164E-02  0.1184000E+00
        -11   -1    0    0    0    0  0.00000000000E+00  0.00000000000E+00  0.45593999997E+02  0.45594000000E+02  0.51100000000E-03 0. -1.
         11   -1    0    0    0    0 -0.00000000000E+00 -0.00000000000E+00 -0.45593999997E+02  0.45594000000E+02  0.51100000000E-03 0.  1.
         23    2    1    2    0    0  0.00000000000E+00  0.00000000000E+00  0.00000000000E+00  0.91188000000E+02  0.91188000000E+02 0.  0.
    9900012    2    3    3    0    0  0.17823723960E+02 -0.12607336772E+02  0.37509907368E+02  0.47787271584E+02  0.20000002459E+02 0.  0.
        -12    1    3    3    0    0 -0.17823723960E+02  0.12607336772E+02 -0.37509907368E+02  0.43400728416E+02  0.00000000000E+00 0.  1.
         11    1    4    4    0    0  0.17616752311E-01 -0.13914115334E+01 -0.12803541370E+01  0.18909371705E+01  0.51100000000E-03 0. -1.
        -11    1    4    4    0    0  0.50220325667E+01 -0.23420062589E+01  0.18999941000E+01  0.58579674170E+01  0.51100000000E-03 0.  1.
         12    1    4    4    0    0  0.12784074641E+02 -0.88739189795E+01  0.36890267405E+02  0.40038366996E+02  0.00000000000E+00 0. -1.
</event>
<event>
 8    1  0.3776180E-010  0.9118800E+02  0.7816164E-02  0.1184000E+00
        -11   -1    0    0    0    0  0.00000000000E+00  0.00000000000E+00  0.45593999997E+02  0.45594000000E+02  0.51100000000E-03 0. -1.
         11   -1    0    0    0    0 -0.00000000000E+00 -0.00000000000E+00 -0.45593999997E+02  0.45594000000E+02  0.51100000000E-03 0.  1.
         23    2    1    2    0    0  0.00000000000E+00 -0.17763568394E-14 -0.71054273576E-14  0.91188000000E+02  0.91188000000E+02 0.  0.
    9900012    2    3    3    0    0  0.10793601491E+02  0.10435676922E+02 -0.40721226920E+02  0.47787268349E+02  0.19999987710E+02 0.  0.
         12    1    3    3    0    0 -0.10793601491E+02 -0.10435676922E+02  0.40721226920E+02  0.43400731651E+02  0.00000000000E+00 0. -1.
         11    1    4    4    0    0 -0.15611112153E+00  0.66060358681E+01 -0.96020805153E+01  0.11656072712E+02  0.51100000000E-03 0. -1.
        -11    1    4    4    0    0 -0.30674837024E+01  0.26728063206E+01 -0.48225646933E+01  0.63095546891E+01  0.51100000000E-03 0.  1.
        -12    1    4    4    0    0  0.14017196315E+02  0.11568347330E+01 -0.26296581712E+02  0.29821640948E+02  0.00000000000E+00 0.  1.
</event>
<event>
 8    1  0.3776180E-010  0.9118800E+02  0.7816164E-02  0.1184000E+00
        -11   -1    0    0    0    0  0.00000000000E+00  0.00000000000E+00  0.45593999997E+02  0.45594000000E+02  0.51100000000E-03 0. -1.
         11   -1    0    0    0    0 -0.00000000000E+00 -0.00000000000E+00 -0.45593999997E+02  0.45594000000E+02  0.51100000000E-03 0.  1.
         23    2    1    2    0    0  0.00000000000E+00  0.00000000000E+00  0.00000000000E+00  0.91188000000E+02  0.91188000000E+02 0.  0.
    9900012    2    3    3    0    0 -0.17113201667E+02  0.23324226361E+02  0.32353393640E+02  0.47787270897E+02  0.19999999327E+02 0.  0.
        -12    1    3    3    0    0  0.17113201667E+02 -0.23324226361E+02 -0.32353393640E+02  0.43400729103E+02  0.00000000000E+00 0.  1.
         11    1    4    4    0    0 -0.11148135631E+02  0.13147584426E+02  0.96097234402E+01  0.19735417126E+02  0.51100000000E-03 0. -1.
        -11    1    4    4    0    0  0.22237043150E+01  0.72591078010E+01  0.88221095946E+01  0.11639120452E+02  0.51100000000E-03 0.  1.
        -12    1    4    4    0    0 -0.81887703501E+01  0.29175341342E+01  0.13921560606E+02  0.16412733318E+02  0.00000000000E+00 0.  1.
</event>
<event>
 8    1  0.3886233E-010  0.9118800E+02  0.7816164E-02  0.1184000E+00
        -11   -1    0    0    0    0  0.00000000000E+00  0.00000000000E+00  0.45593999997E+02  0.45594000000E+02  0.51100000000E-03 0. -1.
         11   -1    0    0    0    0 -0.00000000000E+00 -0.00000000000E+00 -0.45593999997E+02  0.45594000000E+02  0.51100000000E-03 0.  1.
         23    2    1    2    0    0  0.88817841970E-15 -0.35527136788E-14  0.35527136788E-14  0.91188000000E+02  0.91188000000E+02 0.  0.
    9900012    2    3    3    0    0  0.54069680296E+01 -0.31919677622E+02  0.28905431008E+02  0.47787250415E+02  0.19999905943E+02 0.  0.
        -12    1    3    3    0    0 -0.54069680296E+01  0.31919677622E+02 -0.28905431008E+02  0.43400749585E+02  0.00000000000E+00 0.  1.
         11    1    4    4    0    0  0.37410060420E+01 -0.13823449237E+02  0.14944867478E+02  0.20698597517E+02  0.51100000000E-03 0. -1.
        -11    1    4    4    0    0 -0.19058162434E+01 -0.89392292990E+00  0.84011269880E+01  0.86608411074E+01  0.51100000000E-03 0.  1.
        -12    1    4    4    0    0  0.35717782310E+01 -0.17202305455E+02  0.55594365425E+01  0.18427811790E+02  0.00000000000E+00 0.  1.
</event>
<event>
 8    1  0.3776180E-010  0.9118800E+02  0.7816164E-02  0.1184000E+00
        -11   -1    0    0    0    0  0.00000000000E+00  0.00000000000E+00  0.45593999997E+02  0.45594000000E+02  0.51100000000E-03 0. -1.
         11   -1    0    0    0    0 -0.00000000000E+00 -0.00000000000E+00 -0.45593999997E+02  0.45594000000E+02  0.51100000000E-03 0.  1.
         23    2    1    2    0    0  0.00000000000E+00  0.00000000000E+00  0.00000000000E+00  0.91188000000E+02  0.91188000000E+02 0.  0.
    9900012    2    3    3    0    0  0.20671152888E+02 -0.17827705554E+02  0.33741661004E+02  0.47787270348E+02  0.19999996823E+02 0.  0.
        -12    1    3    3    0    0 -0.20671152888E+02  0.17827705554E+02 -0.33741661004E+02  0.43400729652E+02  0.00000000000E+00 0.  1.
         11    1    4    4    0    0  0.17995965830E+01 -0.10032003876E+02  0.58122780042E+01  0.11732954678E+02  0.51100000000E-03 0. -1.
        -11    1    4    4    0    0  0.17822738833E+01  0.23143774419E+01  0.30554483852E+01  0.42271276577E+01  0.51100000000E-03 0.  1.
        -12    1    4    4    0    0  0.17089282422E+02 -0.10110079121E+02  0.24873934615E+02  0.31827188012E+02  0.00000000000E+00 0.  1.
</event>
<event>
 8    1  0.3776180E-010  0.9118800E+02  0.7816164E-02  0.1184000E+00
        -11   -1    0    0    0    0  0.00000000000E+00  0.00000000000E+00  0.45593999997E+02  0.45594000000E+02  0.51100000000E-03 0. -1.
         11   -1    0    0    0    0 -0.00000000000E+00 -0.00000000000E+00 -0.45593999997E+02  0.45594000000E+02  0.51100000000E-03 0.  1.
         23    2    1    2    0    0 -0.17763568394E-14  0.00000000000E+00  0.71054273576E-14  0.91188000000E+02  0.91188000000E+02 0.  0.
    9900012    2    3    3    0    0  0.14576161776E+02 -0.10857434512E+01 -0.40865390004E+02  0.47787269233E+02  0.19999991739E+02 0.  0.
         12    1    3    3    0    0 -0.14576161776E+02  0.10857434512E+01  0.40865390004E+02  0.43400730767E+02  0.00000000000E+00 0. -1.
         11    1    4    4    0    0  0.27049478347E+01  0.42943977799E+01 -0.16154098268E+02  0.16932616047E+02  0.51100000000E-03 0. -1.
        -11    1    4    4    0    0  0.73561012199E+01 -0.18307944090E+01 -0.23876682252E+02  0.25051147458E+02  0.51100000000E-03 0.  1.
         12    1    4    4    0    0  0.45151127211E+01 -0.35493468221E+01 -0.83460948460E+00  0.58035057284E+01  0.00000000000E+00 0. -1.
</event>
<event>
 8    1  0.3776180E-010  0.9118800E+02  0.7816164E-02  0.1184000E+00
        -11   -1    0    0    0    0  0.00000000000E+00  0.00000000000E+00  0.45593999997E+02  0.45594000000E+02  0.51100000000E-03 0.  1.
         11   -1    0    0    0    0 -0.00000000000E+00 -0.00000000000E+00 -0.45593999997E+02  0.45594000000E+02  0.51100000000E-03 0. -1.
         23    2    1    2    0    0 -0.71054273576E-14  0.00000000000E+00  0.00000000000E+00  0.91188000000E+02  0.91188000000E+02 0.  0.
    9900012    2    3    3    0    0  0.38976951345E+02  0.16773111763E+02 -0.91150077385E+01  0.47787269816E+02  0.19999994401E+02 0.  0.
         12    1    3    3    0    0 -0.38976951345E+02 -0.16773111763E+02  0.91150077385E+01  0.43400730184E+02  0.00000000000E+00 0. -1.
         11    1    4    4    0    0  0.69540789570E+01  0.16801860373E+01  0.78122506033E+00  0.71967042538E+01  0.51100000000E-03 0. -1.
        -11    1    4    4    0    0  0.24096282497E+02  0.23865288037E+01 -0.42436616057E+01  0.24583226273E+02  0.51100000000E-03 0.  1.
         12    1    4    4    0    0  0.79265898916E+01  0.12706396922E+02 -0.56525711932E+01  0.16007339290E+02  0.00000000000E+00 0. -1.
</event>
<event>
 8    1  0.3776180E-010  0.9118800E+02  0.7816164E-02  0.1184000E+00
        -11   -1    0    0    0    0  0.00000000000E+00  0.00000000000E+00  0.45593999997E+02  0.45594000000E+02  0.51100000000E-03 0. -1.
         11   -1    0    0    0    0 -0.00000000000E+00 -0.00000000000E+00 -0.45593999997E+02  0.45594000000E+02  0.51100000000E-03 0.  1.
         23    2    1    2    0    0  0.00000000000E+00 -0.88817841970E-15  0.35527136788E-14  0.91188000000E+02  0.91188000000E+02 0.  0.
    9900012    2    3    3    0    0 -0.31389738695E+02  0.57840580384E+01 -0.29408370012E+02  0.47787271326E+02  0.20000001282E+02 0.  0.
         12    1    3    3    0    0  0.31389738695E+02 -0.57840580384E+01  0.29408370012E+02  0.43400728674E+02  0.00000000000E+00 0. -1.
         11    1    4    4    0    0 -0.77877874159E+01  0.55266055101E+01 -0.40171202522E+01  0.10360031693E+02  0.51100000000E-03 0. -1.
        -11    1    4    4    0    0 -0.17892518540E+02  0.57485716920E+01 -0.13501893726E+02  0.23140644560E+02  0.51100000000E-03 0.  1.
         12    1    4    4    0    0 -0.57094327388E+01 -0.54911191637E+01 -0.11889356033E+02  0.14286595072E+02  0.00000000000E+00 0. -1.
</event>
<event>
 8    1  0.3776180E-010  0.9118800E+02  0.7816164E-02  0.1184000E+00
        -11   -1    0    0    0    0  0.00000000000E+00  0.00000000000E+00  0.45593999997E+02  0.45594000000E+02  0.51100000000E-03 0. -1.
         11   -1    0    0    0    0 -0.00000000000E+00 -0.00000000000E+00 -0.45593999997E+02  0.45594000000E+02  0.51100000000E-03 0.  1.
         23    2    1    2    0    0  0.00000000000E+00  0.00000000000E+00  0.00000000000E+00  0.91188000000E+02  0.91188000000E+02 0.  0.
    9900012    2    3    3    0    0  0.32202194518E+02  0.21918388459E+02  0.19137033167E+02  0.47787272784E+02  0.20000007932E+02 0.  0.
        -12    1    3    3    0    0 -0.32202194518E+02 -0.21918388459E+02 -0.19137033167E+02  0.43400727216E+02  0.00000000000E+00 0.  1.
         11    1    4    4    0    0  0.15533754983E+01  0.69961494230E+01  0.67055301427E+01  0.98144392068E+01  0.51100000000E-03 0. -1.
        -11    1    4    4    0    0  0.53201537768E+01 -0.97972826652E+00  0.44884756808E+01  0.70292473198E+01  0.51100000000E-03 0.  1.
        -12    1    4    4    0    0  0.25328665243E+02  0.15901967303E+02  0.79430273431E+01  0.30943586258E+02  0.00000000000E+00 0.  1.
</event>
<event>
 8    1  0.3776180E-010  0.9118800E+02  0.7816164E-02  0.1184000E+00
        -11   -1    0    0    0    0  0.00000000000E+00  0.00000000000E+00  0.45593999997E+02  0.45594000000E+02  0.51100000000E-03 0. -1.
         11   -1    0    0    0    0 -0.00000000000E+00 -0.00000000000E+00 -0.45593999997E+02  0.45594000000E+02  0.51100000000E-03 0.  1.
         23    2    1    2    0    0  0.00000000000E+00  0.00000000000E+00  0.00000000000E+00  0.91188000000E+02  0.91188000000E+02 0.  0.
    9900012    2    3    3    0    0  0.11754206867E+02 -0.37308086610E+02  0.18803421012E+02  0.47787270198E+02  0.19999996141E+02 0.  0.
        -12    1    3    3    0    0 -0.11754206867E+02  0.37308086610E+02 -0.18803421012E+02  0.43400729802E+02  0.00000000000E+00 0.  1.
         11    1    4    4    0    0  0.98647237819E+01 -0.15773890896E+02  0.77617598064E+01  0.20158703451E+02  0.51100000000E-03 0. -1.
        -11    1    4    4    0    0  0.26958774095E+01 -0.51079915160E+01  0.94901502304E+01  0.11109558227E+02  0.51100000000E-03 0.  1.
        -12    1    4    4    0    0 -0.80639432396E+00 -0.16426204199E+02  0.15515109750E+01  0.16519008520E+02  0.00000000000E+00 0.  1.
</event>
<event>
 8    1  0.3776180E-010  0.9118800E+02  0.7816164E-02  0.1184000E+00
        -11   -1    0    0    0    0  0.00000000000E+00  0.00000000000E+00  0.45593999997E+02  0.45594000000E+02  0.51100000000E-03 0. -1.
         11   -1    0    0    0    0 -0.00000000000E+00 -0.00000000000E+00 -0.45593999997E+02  0.45594000000E+02  0.51100000000E-03 0.  1.
         23    2    1    2    0    0  0.00000000000E+00  0.00000000000E+00 -0.71054273576E-14  0.91188000000E+02  0.91188000000E+02 0.  0.
    9900012    2    3    3    0    0  0.15320482708E+02 -0.98937499225E+01 -0.39382988822E+02  0.47787270899E+02  0.19999999337E+02 0.  0.
         12    1    3    3    0    0 -0.15320482708E+02  0.98937499225E+01  0.39382988822E+02  0.43400729101E+02  0.00000000000E+00 0. -1.
         11    1    4    4    0    0  0.44031594847E+01 -0.33090271059E+01 -0.20241656610E+02  0.20977658030E+02  0.51100000000E-03 0.  1.
        -11    1    4    4    0    0  0.76591691585E+01 -0.89575318462E+01 -0.19476856450E+02  0.22765065043E+02  0.51100000000E-03 0. -1.
         12    1    4    4    0    0  0.32581540648E+01  0.23728090296E+01  0.33552423852E+00  0.40445478259E+01  0.00000000000E+00 0. -1.
</event>
<event>
 8    1  0.3776180E-010  0.9118800E+02  0.7816164E-02  0.1184000E+00
        -11   -1    0    0    0    0  0.00000000000E+00  0.00000000000E+00  0.45593999997E+02  0.45594000000E+02  0.51100000000E-03 0. -1.
         11   -1    0    0    0    0 -0.00000000000E+00 -0.00000000000E+00 -0.45593999997E+02  0.45594000000E+02  0.51100000000E-03 0.  1.
         23    2    1    2    0    0  0.35527136788E-14  0.00000000000E+00  0.00000000000E+00  0.91188000000E+02  0.91188000000E+02 0.  0.
    9900012    2    3    3    0    0  0.27476014661E+02 -0.22247664746E+02  0.25174065579E+02  0.47787267909E+02  0.19999985703E+02 0.  0.
        -12    1    3    3    0    0 -0.27476014661E+02  0.22247664746E+02 -0.25174065579E+02  0.43400732091E+02  0.00000000000E+00 0.  1.
         11    1    4    4    0    0  0.19032532163E+02 -0.88084281443E+01  0.14671919312E+02  0.25594743669E+02  0.51100000000E-03 0. -1.
        -11    1    4    4    0    0  0.20723879422E+01  0.19227452308E+01  0.23247855999E+01  0.36601051012E+01  0.51100000000E-03 0.  1.
        -12    1    4    4    0    0  0.63710945560E+01 -0.15361981832E+02  0.81773606673E+01  0.18532419139E+02  0.00000000000E+00 0.  1.
</event>
<event>
 8    1  0.3776180E-010  0.9118800E+02  0.7816164E-02  0.1184000E+00
        -11   -1    0    0    0    0  0.00000000000E+00  0.00000000000E+00  0.45593999997E+02  0.45594000000E+02  0.51100000000E-03 0.  1.
         11   -1    0    0    0    0 -0.00000000000E+00 -0.00000000000E+00 -0.45593999997E+02  0.45594000000E+02  0.51100000000E-03 0. -1.
         23    2    1    2    0    0 -0.44408920985E-15  0.00000000000E+00 -0.44408920985E-15  0.91188000000E+02  0.91188000000E+02 0.  0.
    9900012    2    3    3    0    0  0.26103787242E+01  0.43210346000E+02  0.31104966923E+01  0.47787271110E+02  0.20000000297E+02 0.  0.
        -12    1    3    3    0    0 -0.26103787242E+01 -0.43210346000E+02 -0.31104966923E+01  0.43400728890E+02  0.00000000000E+00 0.  1.
         11    1    4    4    0    0 -0.50122862895E+01  0.18849881563E+02 -0.61622028339E+01  0.20455165431E+02  0.51100000000E-03 0. -1.
        -11    1    4    4    0    0  0.16646460087E+01  0.84381662290E+01  0.19357594726E+01  0.88159435479E+01  0.51100000000E-03 0.  1.
         12    1    4    4    0    0  0.59580190050E+01  0.15922298209E+02  0.73369400536E+01  0.18516162131E+02  0.00000000000E+00 0. -1.
</event>
<event>
 8    1  0.3776180E-010  0.9118800E+02  0.7816164E-02  0.1184000E+00
        -11   -1    0    0    0    0  0.00000000000E+00  0.00000000000E+00  0.45593999997E+02  0.45594000000E+02  0.51100000000E-03 0. -1.
         11   -1    0    0    0    0 -0.00000000000E+00 -0.00000000000E+00 -0.45593999997E+02  0.45594000000E+02  0.51100000000E-03 0.  1.
         23    2    1    2    0    0  0.00000000000E+00  0.00000000000E+00  0.00000000000E+00  0.91188000000E+02  0.91188000000E+02 0.  0.
    9900012    2    3    3    0    0 -0.32480159985E+02 -0.25399990653E+02  0.13546305077E+02  0.47787277667E+02  0.20000030193E+02 0.  0.
        -12    1    3    3    0    0  0.32480159985E+02  0.25399990653E+02 -0.13546305077E+02  0.43400722333E+02  0.00000000000E+00 0.  1.
         11    1    4    4    0    0 -0.99519291544E+01 -0.27743945561E+01  0.55275215851E+01  0.11717152136E+02  0.51100000000E-03 0. -1.
        -11    1    4    4    0    0 -0.17671141106E+02 -0.73525077142E+01  0.44984146009E+01  0.19661239326E+02  0.51100000000E-03 0.  1.
         12    1    4    4    0    0 -0.48570897255E+01 -0.15273088382E+02  0.35203688909E+01  0.16408886204E+02  0.00000000000E+00 0. -1.
</event>
<event>
 8    1  0.3776180E-010  0.9118800E+02  0.7816164E-02  0.1184000E+00
        -11   -1    0    0    0    0  0.00000000000E+00  0.00000000000E+00  0.45593999997E+02  0.45594000000E+02  0.51100000000E-03 0. -1.
         11   -1    0    0    0    0 -0.00000000000E+00 -0.00000000000E+00 -0.45593999997E+02  0.45594000000E+02  0.51100000000E-03 0.  1.
         23    2    1    2    0    0  0.17763568394E-14  0.00000000000E+00  0.00000000000E+00  0.91188000000E+02  0.91188000000E+02 0.  0.
    9900012    2    3    3    0    0 -0.86194886940E+01  0.17076788537E+01  0.42501889993E+02  0.47787281050E+02  0.20000045621E+02 0.  0.
        -12    1    3    3    0    0  0.86194886940E+01 -0.17076788537E+01 -0.42501889993E+02  0.43400718950E+02  0.00000000000E+00 0.  1.
         11    1    4    4    0    0 -0.31010204789E+00  0.42495291233E+01  0.56762501771E+01  0.70974979665E+01  0.51100000000E-03 0. -1.
        -11    1    4    4    0    0 -0.18272663714E+01  0.94278208383E+00 -0.90616698161E+00  0.22469711412E+01  0.51100000000E-03 0.  1.
         12    1    4    4    0    0 -0.64821202747E+01 -0.34846323534E+01  0.37731806797E+02  0.38442811943E+02  0.00000000000E+00 0. -1.
</event>
<event>
 8    1  0.3776180E-010  0.9118800E+02  0.7816164E-02  0.1184000E+00
        -11   -1    0    0    0    0  0.00000000000E+00  0.00000000000E+00  0.45593999997E+02  0.45594000000E+02  0.51100000000E-03 0. -1.
         11   -1    0    0    0    0 -0.00000000000E+00 -0.00000000000E+00 -0.45593999997E+02  0.45594000000E+02  0.51100000000E-03 0.  1.
         23    2    1    2    0    0  0.17763568394E-14  0.00000000000E+00  0.71054273576E-14  0.91188000000E+02  0.91188000000E+02 0.  0.
    9900012    2    3    3    0    0  0.97963795578E+01 -0.24235119774E+02 -0.34645539082E+02  0.47787268886E+02  0.19999990161E+02 0.  0.
         12    1    3    3    0    0 -0.97963795578E+01  0.24235119774E+02  0.34645539082E+02  0.43400731114E+02  0.00000000000E+00 0. -1.
         11    1    4    4    0    0  0.17287849565E+01 -0.13926864906E+01 -0.38535146899E+00  0.22531686805E+01  0.51100000000E-03 0. -1.
        -11    1    4    4    0    0 -0.33428346174E+01 -0.45482289328E+01 -0.17008814183E+02  0.17920956723E+02  0.51100000000E-03 0.  1.
        -12    1    4    4    0    0  0.11410429219E+02 -0.18294204350E+02 -0.17251373430E+02  0.27613143483E+02  0.00000000000E+00 0.  1.
</event>
<event>
 8    1  0.3776180E-010  0.9118800E+02  0.7816164E-02  0.1184000E+00
        -11   -1    0    0    0    0  0.00000000000E+00  0.00000000000E+00  0.45593999997E+02  0.45594000000E+02  0.51100000000E-03 0. -1.
         11   -1    0    0    0    0 -0.00000000000E+00 -0.00000000000E+00 -0.45593999997E+02  0.45594000000E+02  0.51100000000E-03 0.  1.
         23    2    1    2    0    0  0.00000000000E+00  0.00000000000E+00 -0.44408920985E-15  0.91188000000E+02  0.91188000000E+02 0.  0.
    9900012    2    3    3    0    0 -0.35790331026E+02 -0.24525960140E+02 -0.10743270852E+01  0.47787254679E+02  0.19999925383E+02 0.  0.
        -12    1    3    3    0    0  0.35790331026E+02  0.24525960140E+02  0.10743270852E+01  0.43400745321E+02  0.00000000000E+00 0.  1.
         11    1    4    4    0    0 -0.10635762186E+01 -0.16697967380E+01  0.83664419761E+00  0.21492764582E+01  0.51100000000E-03 0. -1.
        -11    1    4    4    0    0 -0.13697939456E+01 -0.34269937933E+01  0.52091077150E+01  0.63839976003E+01  0.51100000000E-03 0.  1.
         12    1    4    4    0    0 -0.33356960862E+02 -0.19429169609E+02 -0.71200789979E+01  0.39253980620E+02  0.00000000000E+00 0. -1.
</event>
<event>
 8    1  0.3776180E-010  0.9118800E+02  0.7816164E-02  0.1184000E+00
        -11   -1    0    0    0    0  0.00000000000E+00  0.00000000000E+00  0.45593999997E+02  0.45594000000E+02  0.51100000000E-03 0. -1.
         11   -1    0    0    0    0 -0.00000000000E+00 -0.00000000000E+00 -0.45593999997E+02  0.45594000000E+02  0.51100000000E-03 0.  1.
         23    2    1    2    0    0  0.00000000000E+00  0.00000000000E+00  0.00000000000E+00  0.91188000000E+02  0.91188000000E+02 0.  0.
    9900012    2    3    3    0    0 -0.33280515740E+02 -0.20764166538E+02  0.18570941595E+02  0.47787271762E+02  0.20000003270E+02 0.  0.
        -12    1    3    3    0    0  0.33280515740E+02  0.20764166538E+02 -0.18570941595E+02  0.43400728238E+02  0.00000000000E+00 0.  1.
         11    1    4    4    0    0 -0.78621366873E+01 -0.72846548582E+01  0.13041398851E+02  0.16880683456E+02  0.51100000000E-03 0. -1.
        -11    1    4    4    0    0 -0.10390985745E+01  0.84089997880E+00 -0.12510379098E+01  0.18308289747E+01  0.51100000000E-03 0.  1.
         12    1    4    4    0    0 -0.24379280478E+02 -0.14320411658E+02  0.67805806537E+01  0.29075759331E+02  0.00000000000E+00 0. -1.
</event>
<event>
 8    1  0.3776180E-010  0.9118800E+02  0.7816164E-02  0.1184000E+00
        -11   -1    0    0    0    0  0.00000000000E+00  0.00000000000E+00  0.45593999997E+02  0.45594000000E+02  0.51100000000E-03 0. -1.
         11   -1    0    0    0    0 -0.00000000000E+00 -0.00000000000E+00 -0.45593999997E+02  0.45594000000E+02  0.51100000000E-03 0.  1.
         23    2    1    2    0    0  0.00000000000E+00  0.00000000000E+00  0.00000000000E+00  0.91188000000E+02  0.91188000000E+02 0.  0.
    9900012    2    3    3    0    0  0.63833275394E+01 -0.36181763231E+02 -0.23103175232E+02  0.47787267669E+02  0.19999984612E+02 0.  0.
         12    1    3    3    0    0 -0.63833275394E+01  0.36181763231E+02  0.23103175232E+02  0.43400732331E+02  0.00000000000E+00 0. -1.
         11    1    4    4    0    0  0.42484424277E+01 -0.10550013402E+01 -0.38357494129E+01  0.58202461038E+01  0.51100000000E-03 0.  1.
        -11    1    4    4    0    0 -0.17855042262E+01 -0.87090464046E+01 -0.10717472334E+02  0.13924788261E+02  0.51100000000E-03 0. -1.
        -12    1    4    4    0    0  0.39203893380E+01 -0.26417715487E+02 -0.85499534852E+01  0.28042233304E+02  0.00000000000E+00 0.  1.
</event>
<event>
 8    1  0.3776180E-010  0.9118800E+02  0.7816164E-02  0.1184000E+00
        -11   -1    0    0    0    0  0.00000000000E+00  0.00000000000E+00  0.45593999997E+02  0.45594000000E+02  0.51100000000E-03 0. -1.
         11   -1    0    0    0    0 -0.00000000000E+00 -0.00000000000E+00 -0.45593999997E+02  0.45594000000E+02  0.51100000000E-03 0.  1.
         23    2    1    2    0    0  0.00000000000E+00  0.00000000000E+00  0.00000000000E+00  0.91188000000E+02  0.91188000000E+02 0.  0.
    9900012    2    3    3    0    0 -0.72960256357E+00 -0.19323094604E+02 -0.38854973016E+02  0.47787271515E+02  0.20000002147E+02 0.  0.
         12    1    3    3    0    0  0.72960256357E+00  0.19323094604E+02  0.38854973016E+02  0.43400728485E+02  0.00000000000E+00 0. -1.
         11    1    4    4    0    0  0.21854881324E+00 -0.83033482701E+01 -0.78300203100E+01  0.11415015304E+02  0.51100000000E-03 0. -1.
        -11    1    4    4    0    0 -0.21485394467E+01 -0.13453267194E+02 -0.30764735840E+02  0.33646331026E+02  0.51100000000E-03 0.  1.
         12    1    4    4    0    0  0.12003880699E+01  0.24335208607E+01 -0.26021686576E+00  0.27259251852E+01  0.00000000000E+00 0. -1.
</event>
<event>
 8    1  0.3776180E-010  0.9118800E+02  0.7816164E-02  0.1184000E+00
        -11   -1    0    0    0    0  0.00000000000E+00  0.00000000000E+00  0.45593999997E+02  0.45594000000E+02  0.51100000000E-03 0. -1.
         11   -1    0    0    0    0 -0.00000000000E+00 -0.00000000000E+00 -0.45593999997E+02  0.45594000000E+02  0.51100000000E-03 0.  1.
         23    2    1    2    0    0 -0.17763568394E-14  0.00000000000E+00  0.00000000000E+00  0.91188000000E+02  0.91188000000E+02 0.  0.
    9900012    2    3    3    0    0 -0.12545811890E+02  0.24439512784E+02  0.33599645127E+02  0.47787270354E+02  0.19999996851E+02 0.  0.
        -12    1    3    3    0    0  0.12545811890E+02 -0.24439512784E+02 -0.33599645127E+02  0.43400729646E+02  0.00000000000E+00 0.  1.
         11    1    4    4    0    0 -0.45901940778E+01  0.24148378594E+01  0.15031720759E+02  0.15901382104E+02  0.51100000000E-03 0. -1.
        -11    1    4    4    0    0 -0.41127648888E+01  0.74392031578E+00  0.41851668099E+01  0.59147167265E+01  0.51100000000E-03 0.  1.
        -12    1    4    4    0    0 -0.38428529236E+01  0.21280754609E+02  0.14382757558E+02  0.25971171524E+02  0.00000000000E+00 0.  1.
</event>
<event>
 8    1  0.3776180E-010  0.9118800E+02  0.7816164E-02  0.1184000E+00
        -11   -1    0    0    0    0  0.00000000000E+00  0.00000000000E+00  0.45593999997E+02  0.45594000000E+02  0.51100000000E-03 0. -1.
         11   -1    0    0    0    0 -0.00000000000E+00 -0.00000000000E+00 -0.45593999997E+02  0.45594000000E+02  0.51100000000E-03 0.  1.
         23    2    1    2    0    0  0.35527136788E-14  0.17763568394E-14 -0.71054273576E-14  0.91188000000E+02  0.91188000000E+02 0.  0.
    9900012    2    3    3    0    0  0.17059865403E+02  0.11088163515E+02 -0.38335841926E+02  0.47787272427E+02  0.20000006304E+02 0.  0.
         12    1    3    3    0    0 -0.17059865403E+02 -0.11088163515E+02  0.38335841926E+02  0.43400727573E+02  0.00000000000E+00 0. -1.
         11    1    4    4    0    0  0.92064699123E+01 -0.29716816212E+01 -0.12643679752E+02  0.15920195283E+02  0.51100000000E-03 0. -1.
        -11    1    4    4    0    0 -0.20813340971E+01  0.45659628221E+01 -0.55293525701E+01  0.74668405783E+01  0.51100000000E-03 0.  1.
        -12    1    4    4    0    0  0.99347295880E+01  0.94938823136E+01 -0.20162809603E+02  0.24400236566E+02  0.00000000000E+00 0.  1.
</event>
<event>
 8    1  0.3776180E-010  0.9118800E+02  0.7816164E-02  0.1184000E+00
        -11   -1    0    0    0    0  0.00000000000E+00  0.00000000000E+00  0.45593999997E+02  0.45594000000E+02  0.51100000000E-03 0. -1.
         11   -1    0    0    0    0 -0.00000000000E+00 -0.00000000000E+00 -0.45593999997E+02  0.45594000000E+02  0.51100000000E-03 0.  1.
         23    2    1    2    0    0  0.00000000000E+00  0.00000000000E+00 -0.35527136788E-14  0.91188000000E+02  0.91188000000E+02 0.  0.
    9900012    2    3    3    0    0  0.15893239720E+02 -0.33593683034E+02 -0.22416354735E+02  0.47787267653E+02  0.19999984539E+02 0.  0.
         12    1    3    3    0    0 -0.15893239720E+02  0.33593683034E+02  0.22416354735E+02  0.43400732347E+02  0.00000000000E+00 0. -1.
         11    1    4    4    0    0  0.39699392698E+01 -0.12674418090E+02  0.10460620854E+01  0.13322745133E+02  0.51100000000E-03 0. -1.
        -11    1    4    4    0    0  0.51239746598E+01 -0.64504769962E+01 -0.36601861973E+01  0.90144735317E+01  0.51100000000E-03 0.  1.
        -12    1    4    4    0    0  0.67993257905E+01 -0.14468787948E+02 -0.19802230623E+02  0.25450048989E+02  0.00000000000E+00 0.  1.
</event>
<event>
 8    1  0.3776180E-010  0.9118800E+02  0.7816164E-02  0.1184000E+00
        -11   -1    0    0    0    0  0.00000000000E+00  0.00000000000E+00  0.45593999997E+02  0.45594000000E+02  0.51100000000E-03 0. -1.
         11   -1    0    0    0    0 -0.00000000000E+00 -0.00000000000E+00 -0.45593999997E+02  0.45594000000E+02  0.51100000000E-03 0.  1.
         23    2    1    2    0    0  0.00000000000E+00  0.00000000000E+00  0.00000000000E+00  0.91188000000E+02  0.91188000000E+02 0.  0.
    9900012    2    3    3    0    0 -0.40535812854E+01 -0.15159273188E+02 -0.40464656710E+02  0.47787268123E+02  0.19999986679E+02 0.  0.
         12    1    3    3    0    0  0.40535812854E+01  0.15159273188E+02  0.40464656710E+02  0.43400731877E+02  0.00000000000E+00 0. -1.
         11    1    4    4    0    0  0.44155955162E+00 -0.10557797399E+01 -0.15168338214E+00  0.11544062570E+01  0.51100000000E-03 0. -1.
        -11    1    4    4    0    0  0.53011536041E+01 -0.35686714613E+01 -0.24213187265E+02  0.25042285905E+02  0.51100000000E-03 0.  1.
         12    1    4    4    0    0 -0.97962944411E+01 -0.10534821987E+02 -0.16099786062E+02  0.21590575961E+02  0.00000000000E+00 0. -1.
</event>
<event>
 8    1  0.3776180E-010  0.9118800E+02  0.7816164E-02  0.1184000E+00
        -11   -1    0    0    0    0  0.00000000000E+00  0.00000000000E+00  0.45593999997E+02  0.45594000000E+02  0.51100000000E-03 0. -1.
         11   -1    0    0    0    0 -0.00000000000E+00 -0.00000000000E+00 -0.45593999997E+02  0.45594000000E+02  0.51100000000E-03 0.  1.
         23    2    1    2    0    0 -0.11102230246E-14  0.00000000000E+00  0.71054273576E-14  0.91188000000E+02  0.91188000000E+02 0.  0.
    9900012    2    3    3    0    0 -0.18052248532E+01 -0.21339992678E+02 -0.37748764090E+02  0.47787270575E+02  0.19999997862E+02 0.  0.
         12    1    3    3    0    0  0.18052248532E+01  0.21339992678E+02  0.37748764090E+02  0.43400729425E+02  0.00000000000E+00 0. -1.
         11    1    4    4    0    0  0.40431727477E+01 -0.91821062083E-01 -0.61081728836E+01  0.73256708370E+01  0.51100000000E-03 0. -1.
        -11    1    4    4    0    0  0.37685425149E+01 -0.75145071928E+01 -0.94240202193E+01  0.12628613875E+02  0.51100000000E-03 0.  1.
        -12    1    4    4    0    0 -0.96169401159E+01 -0.13733664423E+02 -0.22216570987E+02  0.27832985864E+02  0.00000000000E+00 0.  1.
</event>
<event>
 8    1  0.3776180E-010  0.9118800E+02  0.7816164E-02  0.1184000E+00
        -11   -1    0    0    0    0  0.00000000000E+00  0.00000000000E+00  0.45593999997E+02  0.45594000000E+02  0.51100000000E-03 0. -1.
         11   -1    0    0    0    0 -0.00000000000E+00 -0.00000000000E+00 -0.45593999997E+02  0.45594000000E+02  0.51100000000E-03 0.  1.
         23    2    1    2    0    0 -0.17763568394E-14  0.26645352591E-14  0.00000000000E+00  0.91188000000E+02  0.91188000000E+02 0.  0.
    9900012    2    3    3    0    0 -0.66761108360E+01  0.55745203606E+01 -0.42520325127E+02  0.47787265190E+02  0.19999973305E+02 0.  0.
         12    1    3    3    0    0  0.66761108360E+01 -0.55745203606E+01  0.42520325127E+02  0.43400734810E+02  0.00000000000E+00 0. -1.
         11    1    4    4    0    0 -0.14370330517E+00  0.32213543277E+00  0.11209718000E+00  0.37011878613E+00  0.51100000000E-03 0. -1.
        -11    1    4    4    0    0 -0.45748828601E+01  0.93776850312E+01 -0.41390048376E+02  0.42684969656E+02  0.51100000000E-03 0.  1.
        -12    1    4    4    0    0 -0.19575246708E+01 -0.41253001034E+01 -0.12423739313E+01  0.47321767470E+01  0.00000000000E+00 0.  1.
</event>
<event>
 8    1  0.3776180E-010  0.9118800E+02  0.7816164E-02  0.1184000E+00
        -11   -1    0    0    0    0  0.00000000000E+00  0.00000000000E+00  0.45593999997E+02  0.45594000000E+02  0.51100000000E-03 0. -1.
         11   -1    0    0    0    0 -0.00000000000E+00 -0.00000000000E+00 -0.45593999997E+02  0.45594000000E+02  0.51100000000E-03 0.  1.
         23    2    1    2    0    0  0.00000000000E+00 -0.77715611724E-15  0.00000000000E+00  0.91188000000E+02  0.91188000000E+02 0.  0.
    9900012    2    3    3    0    0  0.17575416939E+02  0.54749631242E+00  0.39679056300E+02  0.47787279480E+02  0.20000038461E+02 0.  0.
        -12    1    3    3    0    0 -0.17575416939E+02 -0.54749631242E+00 -0.39679056300E+02  0.43400720520E+02  0.00000000000E+00 0.  1.
         11    1    4    4    0    0  0.34150324418E+01  0.45998808278E+01  0.33756340647E+01  0.66495304953E+01  0.51100000000E-03 0. -1.
        -11    1    4    4    0    0 -0.16936853090E+00  0.31659656629E+01  0.79550745298E+01  0.85635994368E+01  0.51100000000E-03 0.  1.
        -12    1    4    4    0    0  0.14329753028E+02 -0.72183501782E+01  0.28348347706E+02  0.32574149548E+02  0.00000000000E+00 0.  1.
</event>
<event>
 8    1  0.3776180E-010  0.9118800E+02  0.7816164E-02  0.1184000E+00
        -11   -1    0    0    0    0  0.00000000000E+00  0.00000000000E+00  0.45593999997E+02  0.45594000000E+02  0.51100000000E-03 0. -1.
         11   -1    0    0    0    0 -0.00000000000E+00 -0.00000000000E+00 -0.45593999997E+02  0.45594000000E+02  0.51100000000E-03 0.  1.
         23    2    1    2    0    0  0.00000000000E+00 -0.35527136788E-14  0.00000000000E+00  0.91188000000E+02  0.91188000000E+02 0.  0.
    9900012    2    3    3    0    0  0.33492760295E+02 -0.16914872486E+02 -0.21811595785E+02  0.47787267125E+02  0.19999982128E+02 0.  0.
         12    1    3    3    0    0 -0.33492760295E+02  0.16914872486E+02  0.21811595785E+02  0.43400732875E+02  0.00000000000E+00 0. -1.
         11    1    4    4    0    0  0.33959703548E+01 -0.40167445174E+01  0.16133705912E+01  0.55018011682E+01  0.51100000000E-03 0. -1.
        -11    1    4    4    0    0  0.99011704535E+01 -0.30240226912E+01 -0.78804397705E+00  0.10382625061E+02  0.51100000000E-03 0.  1.
         12    1    4    4    0    0  0.20195619487E+02 -0.98741052773E+01 -0.22636922399E+02  0.31902840896E+02  0.00000000000E+00 0. -1.
</event>
<event>
 8    1  0.3776180E-010  0.9118800E+02  0.7816164E-02  0.1184000E+00
        -11   -1    0    0    0    0  0.00000000000E+00  0.00000000000E+00  0.45593999997E+02  0.45594000000E+02  0.51100000000E-03 0. -1.
         11   -1    0    0    0    0 -0.00000000000E+00 -0.00000000000E+00 -0.45593999997E+02  0.45594000000E+02  0.51100000000E-03 0.  1.
         23    2    1    2    0    0  0.00000000000E+00  0.35527136788E-14  0.00000000000E+00  0.91188000000E+02  0.91188000000E+02 0.  0.
    9900012    2    3    3    0    0 -0.25378296927E+02  0.24836551284E+02  0.24954187131E+02  0.47787266251E+02  0.19999978144E+02 0.  0.
        -12    1    3    3    0    0  0.25378296927E+02 -0.24836551284E+02 -0.24954187131E+02  0.43400733749E+02  0.00000000000E+00 0.  1.
         11    1    4    4    0    0 -0.20731400163E+02  0.19904947620E+02  0.10025657065E+02  0.30438654575E+02  0.51100000000E-03 0. -1.
        -11    1    4    4    0    0 -0.10922691130E+01  0.12291564108E+01  0.89243387941E-01  0.16467671180E+01  0.51100000000E-03 0.  1.
        -12    1    4    4    0    0 -0.35546276501E+01  0.37024472534E+01  0.14839286679E+02  0.15701844558E+02  0.00000000000E+00 0.  1.
</event>
<event>
 8    1  0.3776180E-010  0.9118800E+02  0.7816164E-02  0.1184000E+00
        -11   -1    0    0    0    0  0.00000000000E+00  0.00000000000E+00  0.45593999997E+02  0.45594000000E+02  0.51100000000E-03 0. -1.
         11   -1    0    0    0    0 -0.00000000000E+00 -0.00000000000E+00 -0.45593999997E+02  0.45594000000E+02  0.51100000000E-03 0.  1.
         23    2    1    2    0    0  0.17763568394E-14  0.71054273576E-14  0.35527136788E-14  0.91188000000E+02  0.91188000000E+02 0.  0.
    9900012    2    3    3    0    0  0.75924643604E+01 -0.35256378562E+02 -0.24144680227E+02  0.47787270425E+02  0.19999997173E+02 0.  0.
         12    1    3    3    0    0 -0.75924643604E+01  0.35256378562E+02  0.24144680227E+02  0.43400729575E+02  0.00000000000E+00 0. -1.
         11    1    4    4    0    0  0.54540855263E+01 -0.12167703208E+02 -0.88862534088E+01  0.16023905585E+02  0.51100000000E-03 0. -1.
        -11    1    4    4    0    0  0.37463448986E+01 -0.63537709702E+01 -0.12799244907E+02  0.14772480363E+02  0.51100000000E-03 0.  1.
        -12    1    4    4    0    0 -0.16079660645E+01 -0.16734904385E+02 -0.24591819122E+01  0.16990884477E+02  0.00000000000E+00 0.  1.
</event>
<event>
 8    1  0.3776180E-010  0.9118800E+02  0.7816164E-02  0.1184000E+00
        -11   -1    0    0    0    0  0.00000000000E+00  0.00000000000E+00  0.45593999997E+02  0.45594000000E+02  0.51100000000E-03 0. -1.
         11   -1    0    0    0    0 -0.00000000000E+00 -0.00000000000E+00 -0.45593999997E+02  0.45594000000E+02  0.51100000000E-03 0.  1.
         23    2    1    2    0    0  0.00000000000E+00 -0.17763568394E-14 -0.35527136788E-14  0.91188000000E+02  0.91188000000E+02 0.  0.
    9900012    2    3    3    0    0  0.38907683992E+02  0.15152631506E+02  0.11841168427E+02  0.47787269766E+02  0.19999994170E+02 0.  0.
        -12    1    3    3    0    0 -0.38907683992E+02 -0.15152631506E+02 -0.11841168427E+02  0.43400730234E+02  0.00000000000E+00 0.  1.
         11    1    4    4    0    0  0.10313393062E+02  0.14804653863E+00 -0.65140338029E-01  0.10314661301E+02  0.51100000000E-03 0. -1.
        -11    1    4    4    0    0  0.17398286660E+02  0.23437711765E+01  0.10631066971E+02  0.20523479901E+02  0.51100000000E-03 0.  1.
         12    1    4    4    0    0  0.11196004269E+02  0.12660813791E+02  0.12752417947E+01  0.16949128564E+02  0.00000000000E+00 0. -1.
</event>
<event>
 8    1  0.3776180E-010  0.9118800E+02  0.7816164E-02  0.1184000E+00
        -11   -1    0    0    0    0  0.00000000000E+00  0.00000000000E+00  0.45593999997E+02  0.45594000000E+02  0.51100000000E-03 0. -1.
         11   -1    0    0    0    0 -0.00000000000E+00 -0.00000000000E+00 -0.45593999997E+02  0.45594000000E+02  0.51100000000E-03 0.  1.
         23    2    1    2    0    0  0.35527136788E-14  0.00000000000E+00  0.00000000000E+00  0.91188000000E+02  0.91188000000E+02 0.  0.
    9900012    2    3    3    0    0 -0.16429917186E+02 -0.32549861421E+02  0.23541164990E+02  0.47787284495E+02  0.20000061326E+02 0.  0.
        -12    1    3    3    0    0  0.16429917186E+02  0.32549861421E+02 -0.23541164990E+02  0.43400715505E+02  0.00000000000E+00 0.  1.
         11    1    4    4    0    0 -0.18389923253E+01 -0.48529806149E+01 -0.20715186525E+01  0.55878889941E+01  0.51100000000E-03 0. -1.
        -11    1    4    4    0    0 -0.89210642383E+01 -0.51916033802E+01  0.74749034388E+01  0.12744109011E+02  0.51100000000E-03 0.  1.
         12    1    4    4    0    0 -0.56698606227E+01 -0.22505277426E+02  0.18137780203E+02  0.29455286490E+02  0.00000000000E+00 0. -1.
</event>
<event>
 8    1  0.3776180E-010  0.9118800E+02  0.7816164E-02  0.1184000E+00
        -11   -1    0    0    0    0  0.00000000000E+00  0.00000000000E+00  0.45593999997E+02  0.45594000000E+02  0.51100000000E-03 0. -1.
         11   -1    0    0    0    0 -0.00000000000E+00 -0.00000000000E+00 -0.45593999997E+02  0.45594000000E+02  0.51100000000E-03 0.  1.
         23    2    1    2    0    0 -0.88817841970E-15  0.00000000000E+00  0.00000000000E+00  0.91188000000E+02  0.91188000000E+02 0.  0.
    9900012    2    3    3    0    0 -0.36792624822E+01  0.11425696190E+01 -0.43229397349E+02  0.47787271517E+02  0.20000002153E+02 0.  0.
         12    1    3    3    0    0  0.36792624822E+01 -0.11425696190E+01  0.43229397349E+02  0.43400728483E+02  0.00000000000E+00 0. -1.
         11    1    4    4    0    0 -0.51615368437E+01 -0.57012876670E+01 -0.83145995352E+01  0.11326019130E+02  0.51100000000E-03 0.  1.
        -11    1    4    4    0    0 -0.31765494717E+01  0.26354898958E+01 -0.11455228927E+02  0.12176146499E+02  0.51100000000E-03 0. -1.
        -12    1    4    4    0    0  0.46588238332E+01  0.42083673902E+01 -0.23459568887E+02  0.24285105887E+02  0.00000000000E+00 0.  1.
</event>
<event>
 8    1  0.3776180E-010  0.9118800E+02  0.7816164E-02  0.1184000E+00
        -11   -1    0    0    0    0  0.00000000000E+00  0.00000000000E+00  0.45593999997E+02  0.45594000000E+02  0.51100000000E-03 0. -1.
         11   -1    0    0    0    0 -0.00000000000E+00 -0.00000000000E+00 -0.45593999997E+02  0.45594000000E+02  0.51100000000E-03 0.  1.
         23    2    1    2    0    0  0.00000000000E+00  0.00000000000E+00  0.00000000000E+00  0.91188000000E+02  0.91188000000E+02 0.  0.
    9900012    2    3    3    0    0 -0.12824724751E+02  0.11315400527E+02  0.39888742591E+02  0.47787266832E+02  0.19999980793E+02 0.  0.
        -12    1    3    3    0    0  0.12824724751E+02 -0.11315400527E+02 -0.39888742591E+02  0.43400733168E+02  0.00000000000E+00 0.  1.
         11    1    4    4    0    0 -0.93959990973E+01  0.82984018486E+01  0.13710069379E+02  0.18577251544E+02  0.51100000000E-03 0. -1.
        -11    1    4    4    0    0 -0.80368839155E+00  0.61103447522E+01  0.59081302474E+01  0.85374604715E+01  0.51100000000E-03 0.  1.
        -12    1    4    4    0    0 -0.26250372618E+01 -0.30933460736E+01  0.20270542965E+02  0.20672554817E+02  0.00000000000E+00 0.  1.
</event>
<event>
 8    1  0.3776180E-010  0.9118800E+02  0.7816164E-02  0.1184000E+00
        -11   -1    0    0    0    0  0.00000000000E+00  0.00000000000E+00  0.45593999997E+02  0.45594000000E+02  0.51100000000E-03 0. -1.
         11   -1    0    0    0    0 -0.00000000000E+00 -0.00000000000E+00 -0.45593999997E+02  0.45594000000E+02  0.51100000000E-03 0.  1.
         23    2    1    2    0    0  0.00000000000E+00  0.00000000000E+00  0.00000000000E+00  0.91188000000E+02  0.91188000000E+02 0.  0.
    9900012    2    3    3    0    0  0.91268350424E+01 -0.31445477716E+02  0.28486942648E+02  0.47787273184E+02  0.20000009757E+02 0.  0.
        -12    1    3    3    0    0 -0.91268350424E+01  0.31445477716E+02 -0.28486942648E+02  0.43400726816E+02  0.00000000000E+00 0.  1.
         11    1    4    4    0    0 -0.12100791973E+00 -0.15847371185E+02  0.12586005450E+02  0.20237622139E+02  0.51100000000E-03 0. -1.
        -11    1    4    4    0    0 -0.16007349623E+01  0.49991411533E-01 -0.11647598280E+01  0.19802821210E+01  0.51100000000E-03 0.  1.
        -12    1    4    4    0    0  0.10848577924E+02 -0.15648097942E+02  0.17065697026E+02  0.25569368924E+02  0.00000000000E+00 0.  1.
</event>
<event>
 8    1  0.3776180E-010  0.9118800E+02  0.7816164E-02  0.1184000E+00
        -11   -1    0    0    0    0  0.00000000000E+00  0.00000000000E+00  0.45593999997E+02  0.45594000000E+02  0.51100000000E-03 0. -1.
         11   -1    0    0    0    0 -0.00000000000E+00 -0.00000000000E+00 -0.45593999997E+02  0.45594000000E+02  0.51100000000E-03 0.  1.
         23    2    1    2    0    0  0.00000000000E+00  0.00000000000E+00  0.00000000000E+00  0.91188000000E+02  0.91188000000E+02 0.  0.
    9900012    2    3    3    0    0  0.24317240410E+02 -0.44303852562E+01 -0.35674456511E+02  0.47787270260E+02  0.19999996422E+02 0.  0.
         12    1    3    3    0    0 -0.24317240410E+02  0.44303852562E+01  0.35674456511E+02  0.43400729740E+02  0.00000000000E+00 0. -1.
         11    1    4    4    0    0  0.50114120353E+01 -0.11037832858E+01 -0.14110638930E+02  0.15014750062E+02  0.51100000000E-03 0. -1.
        -11    1    4    4    0    0  0.91005007180E+01  0.23193297245E+01 -0.18447380189E+02  0.20700343953E+02  0.51100000000E-03 0.  1.
         12    1    4    4    0    0  0.10205327656E+02 -0.56459316949E+01 -0.31164373917E+01  0.12072176245E+02  0.00000000000E+00 0. -1.
</event>
<event>
 8    1  0.3776180E-010  0.9118800E+02  0.7816164E-02  0.1184000E+00
        -11   -1    0    0    0    0  0.00000000000E+00  0.00000000000E+00  0.45593999997E+02  0.45594000000E+02  0.51100000000E-03 0. -1.
         11   -1    0    0    0    0 -0.00000000000E+00 -0.00000000000E+00 -0.45593999997E+02  0.45594000000E+02  0.51100000000E-03 0.  1.
         23    2    1    2    0    0 -0.35527136788E-14  0.00000000000E+00  0.00000000000E+00  0.91188000000E+02  0.91188000000E+02 0.  0.
    9900012    2    3    3    0    0  0.30401378856E+02 -0.16272235310E+02  0.26355149378E+02  0.47787269856E+02  0.19999994582E+02 0.  0.
        -12    1    3    3    0    0 -0.30401378856E+02  0.16272235310E+02 -0.26355149378E+02  0.43400730144E+02  0.00000000000E+00 0.  1.
         11    1    4    4    0    0  0.21899205140E+02 -0.77509932244E+01  0.83943547572E+01  0.24700572337E+02  0.51100000000E-03 0.  1.
        -11    1    4    4    0    0  0.62730347761E+01 -0.65454307504E+00  0.84527218108E+01  0.10546463778E+02  0.51100000000E-03 0. -1.
        -12    1    4    4    0    0  0.22291389394E+01 -0.78666990103E+01  0.95080728099E+01  0.12540233741E+02  0.00000000000E+00 0.  1.
</event>
<event>
 8    1  0.3776180E-010  0.9118800E+02  0.7816164E-02  0.1184000E+00
        -11   -1    0    0    0    0  0.00000000000E+00  0.00000000000E+00  0.45593999997E+02  0.45594000000E+02  0.51100000000E-03 0. -1.
         11   -1    0    0    0    0 -0.00000000000E+00 -0.00000000000E+00 -0.45593999997E+02  0.45594000000E+02  0.51100000000E-03 0.  1.
         23    2    1    2    0    0  0.00000000000E+00  0.17763568394E-14  0.00000000000E+00  0.91188000000E+02  0.91188000000E+02 0.  0.
    9900012    2    3    3    0    0  0.39943853391E+02  0.14092569235E+02  0.94610443655E+01  0.47787270837E+02  0.19999999054E+02 0.  0.
        -12    1    3    3    0    0 -0.39943853391E+02 -0.14092569235E+02 -0.94610443655E+01  0.43400729163E+02  0.00000000000E+00 0.  1.
         11    1    4    4    0    0  0.40292843921E+01  0.12234137204E+01  0.18808971316E+01  0.46119028745E+01  0.51100000000E-03 0. -1.
        -11    1    4    4    0    0  0.45987058967E+01  0.36742278964E+01  0.87163480258E+01  0.10517735960E+02  0.51100000000E-03 0.  1.
        -12    1    4    4    0    0  0.31315863102E+02  0.91949276184E+01 -0.11362007919E+01  0.32657632002E+02  0.00000000000E+00 0.  1.
</event>
<event>
 8    1  0.3776180E-010  0.9118800E+02  0.7816164E-02  0.1184000E+00
        -11   -1    0    0    0    0  0.00000000000E+00  0.00000000000E+00  0.45593999997E+02  0.45594000000E+02  0.51100000000E-03 0. -1.
         11   -1    0    0    0    0 -0.00000000000E+00 -0.00000000000E+00 -0.45593999997E+02  0.45594000000E+02  0.51100000000E-03 0.  1.
         23    2    1    2    0    0  0.00000000000E+00 -0.88817841970E-15  0.00000000000E+00  0.91188000000E+02  0.91188000000E+02 0.  0.
    9900012    2    3    3    0    0 -0.39344906580E+02  0.74210447642E+01 -0.16749026586E+02  0.47787268777E+02  0.19999989661E+02 0.  0.
         12    1    3    3    0    0  0.39344906580E+02 -0.74210447642E+01  0.16749026586E+02  0.43400731223E+02  0.00000000000E+00 0. -1.
         11    1    4    4    0    0 -0.11645240718E+02  0.47785010172E+01 -0.27843459618E+01  0.12891791421E+02  0.51100000000E-03 0. -1.
        -11    1    4    4    0    0 -0.57336729379E+01  0.29066893031E+01 -0.10983691076E+02  0.12726559550E+02  0.51100000000E-03 0.  1.
        -12    1    4    4    0    0 -0.21965992924E+02 -0.26414555613E+00 -0.29809895483E+01  0.22168917806E+02  0.00000000000E+00 0.  1.
</event>
<event>
 8    1  0.3776180E-010  0.9118800E+02  0.7816164E-02  0.1184000E+00
        -11   -1    0    0    0    0  0.00000000000E+00  0.00000000000E+00  0.45593999997E+02  0.45594000000E+02  0.51100000000E-03 0. -1.
         11   -1    0    0    0    0 -0.00000000000E+00 -0.00000000000E+00 -0.45593999997E+02  0.45594000000E+02  0.51100000000E-03 0.  1.
         23    2    1    2    0    0  0.44408920985E-15  0.00000000000E+00  0.00000000000E+00  0.91188000000E+02  0.91188000000E+02 0.  0.
    9900012    2    3    3    0    0 -0.34671375336E+01  0.13972812279E+02 -0.40943410666E+02  0.47787269561E+02  0.19999993237E+02 0.  0.
         12    1    3    3    0    0  0.34671375336E+01 -0.13972812279E+02  0.40943410666E+02  0.43400730439E+02  0.00000000000E+00 0. -1.
         11    1    4    4    0    0  0.32480474745E+01  0.96463880978E+01 -0.22681210843E+02  0.24860409114E+02  0.51100000000E-03 0. -1.
        -11    1    4    4    0    0  0.23736854574E+01  0.35026765066E+01 -0.31583928028E+01  0.52800161666E+01  0.51100000000E-03 0.  1.
        -12    1    4    4    0    0 -0.90888704655E+01  0.82374767481E+00 -0.15103807020E+02  0.17646844281E+02  0.00000000000E+00 0.  1.
</event>
<event>
 8    1  0.3776180E-010  0.9118800E+02  0.7816164E-02  0.1184000E+00
        -11   -1    0    0    0    0  0.00000000000E+00  0.00000000000E+00  0.45593999997E+02  0.45594000000E+02  0.51100000000E-03 0.  1.
         11   -1    0    0    0    0 -0.00000000000E+00 -0.00000000000E+00 -0.45593999997E+02  0.45594000000E+02  0.51100000000E-03 0. -1.
         23    2    1    2    0    0  0.00000000000E+00  0.00000000000E+00  0.17763568394E-14  0.91188000000E+02  0.91188000000E+02 0.  0.
    9900012    2    3    3    0    0 -0.32699394896E+02  0.24214426121E+02  0.15100805803E+02  0.47787271954E+02  0.20000004149E+02 0.  0.
        -12    1    3    3    0    0  0.32699394896E+02 -0.24214426121E+02 -0.15100805803E+02  0.43400728046E+02  0.00000000000E+00 0.  1.
         11    1    4    4    0    0 -0.19918660617E+01  0.98537280065E+01 -0.57230720100E+00  0.10069310891E+02  0.51100000000E-03 0. -1.
        -11    1    4    4    0    0 -0.70724419152E+01  0.11502485120E+01  0.23478302626E+01  0.75402130929E+01  0.51100000000E-03 0.  1.
         12    1    4    4    0    0 -0.23635086920E+02  0.13210449603E+02  0.13325282742E+02  0.30177747970E+02  0.00000000000E+00 0. -1.
</event>
<event>
 8    1  0.3776180E-010  0.9118800E+02  0.7816164E-02  0.1184000E+00
        -11   -1    0    0    0    0  0.00000000000E+00  0.00000000000E+00  0.45593999997E+02  0.45594000000E+02  0.51100000000E-03 0. -1.
         11   -1    0    0    0    0 -0.00000000000E+00 -0.00000000000E+00 -0.45593999997E+02  0.45594000000E+02  0.51100000000E-03 0.  1.
         23    2    1    2    0    0 -0.22204460493E-15  0.00000000000E+00  0.00000000000E+00  0.91188000000E+02  0.91188000000E+02 0.  0.
    9900012    2    3    3    0    0 -0.86430240663E+00  0.21206536395E+02  0.37857053343E+02  0.47787300786E+02  0.20000135601E+02 0.  0.
        -12    1    3    3    0    0  0.86430240663E+00 -0.21206536395E+02 -0.37857053343E+02  0.43400699214E+02  0.00000000000E+00 0.  1.
         11    1    4    4    0    0 -0.48210468559E+01  0.23698787064E+01  0.15926333056E+02  0.16807941657E+02  0.51100000000E-03 0. -1.
        -11    1    4    4    0    0 -0.88452123302E+00 -0.16347193505E+00 -0.62313704750E+00  0.10942581625E+01  0.51100000000E-03 0.  1.
        -12    1    4    4    0    0  0.48412656823E+01  0.19000129623E+02  0.22553857335E+02  0.29885100967E+02  0.00000000000E+00 0.  1.
</event>
<event>
 8    1  0.3776180E-010  0.9118800E+02  0.7816164E-02  0.1184000E+00
        -11   -1    0    0    0    0  0.00000000000E+00  0.00000000000E+00  0.45593999997E+02  0.45594000000E+02  0.51100000000E-03 0. -1.
         11   -1    0    0    0    0 -0.00000000000E+00 -0.00000000000E+00 -0.45593999997E+02  0.45594000000E+02  0.51100000000E-03 0.  1.
         23    2    1    2    0    0  0.00000000000E+00  0.00000000000E+00  0.00000000000E+00  0.91188000000E+02  0.91188000000E+02 0.  0.
    9900012    2    3    3    0    0 -0.37945425096E+01  0.34461932493E+02  0.26107466327E+02  0.47787272563E+02  0.20000006925E+02 0.  0.
        -12    1    3    3    0    0  0.37945425096E+01 -0.34461932493E+02 -0.26107466327E+02  0.43400727437E+02  0.00000000000E+00 0.  1.
         11    1    4    4    0    0 -0.49904397011E+01  0.11955362424E+02  0.12164298438E+02  0.17770912634E+02  0.51100000000E-03 0. -1.
        -11    1    4    4    0    0 -0.20865145241E+01 -0.13368830907E+01  0.86743407091E+00  0.26254983120E+01  0.51100000000E-03 0.  1.
        -12    1    4    4    0    0  0.32824117156E+01  0.23843453160E+02  0.13075733818E+02  0.27390861617E+02  0.00000000000E+00 0.  1.
</event>
<event>
 8    1  0.3776180E-010  0.9118800E+02  0.7816164E-02  0.1184000E+00
        -11   -1    0    0    0    0  0.00000000000E+00  0.00000000000E+00  0.45593999997E+02  0.45594000000E+02  0.51100000000E-03 0. -1.
         11   -1    0    0    0    0 -0.00000000000E+00 -0.00000000000E+00 -0.45593999997E+02  0.45594000000E+02  0.51100000000E-03 0.  1.
         23    2    1    2    0    0 -0.35527136788E-14  0.44408920985E-15  0.00000000000E+00  0.91188000000E+02  0.91188000000E+02 0.  0.
    9900012    2    3    3    0    0  0.27479883711E+02 -0.36149017193E+01 -0.33397783876E+02  0.47787268543E+02  0.19999988595E+02 0.  0.
         12    1    3    3    0    0 -0.27479883711E+02  0.36149017193E+01  0.33397783876E+02  0.43400731457E+02  0.00000000000E+00 0. -1.
         11    1    4    4    0    0  0.46441010924E+01  0.17401476339E+01 -0.15533961360E+02  0.16306432612E+02  0.51100000000E-03 0. -1.
        -11    1    4    4    0    0  0.13581407861E+02 -0.47452173443E+01 -0.16842338180E+02  0.22150306606E+02  0.51100000000E-03 0.  1.
        -12    1    4    4    0    0  0.92543747576E+01 -0.60983200886E+00 -0.10214843359E+01  0.93305293248E+01  0.00000000000E+00 0.  1.
</event>
<event>
 8    1  0.4477719E-010  0.9118800E+02  0.7816164E-02  0.1184000E+00
        -11   -1    0    0    0    0  0.00000000000E+00  0.00000000000E+00  0.45593999997E+02  0.45594000000E+02  0.51100000000E-03 0. -1.
         11   -1    0    0    0    0 -0.00000000000E+00 -0.00000000000E+00 -0.45593999997E+02  0.45594000000E+02  0.51100000000E-03 0.  1.
         23    2    1    2    0    0  0.35527136788E-14 -0.35527136788E-14  0.00000000000E+00  0.91188000000E+02  0.91188000000E+02 0.  0.
    9900012    2    3    3    0    0  0.17864810546E+02 -0.22440093260E+02  0.32571677095E+02  0.47787269705E+02  0.19999993894E+02 0.  0.
        -12    1    3    3    0    0 -0.17864810546E+02  0.22440093260E+02 -0.32571677095E+02  0.43400730295E+02  0.00000000000E+00 0.  1.
         11    1    4    4    0    0  0.11615293788E+02 -0.12568916888E+02  0.25992639519E+02  0.31120893800E+02  0.51100000000E-03 0. -1.
        -11    1    4    4    0    0  0.88629194571E+01 -0.76894531670E+01  0.61120314622E+01  0.13230115652E+02  0.51100000000E-03 0.  1.
        -12    1    4    4    0    0 -0.26134026995E+01 -0.21817232057E+01  0.46700611391E+00  0.34362602530E+01  0.00000000000E+00 0.  1.
</event>
<event>
 8    1  0.3776180E-010  0.9118800E+02  0.7816164E-02  0.1184000E+00
        -11   -1    0    0    0    0  0.00000000000E+00  0.00000000000E+00  0.45593999997E+02  0.45594000000E+02  0.51100000000E-03 0. -1.
         11   -1    0    0    0    0 -0.00000000000E+00 -0.00000000000E+00 -0.45593999997E+02  0.45594000000E+02  0.51100000000E-03 0.  1.
         23    2    1    2    0    0  0.00000000000E+00  0.88817841970E-15  0.00000000000E+00  0.91188000000E+02  0.91188000000E+02 0.  0.
    9900012    2    3    3    0    0  0.18668661732E+02 -0.10748175080E+01  0.39165670298E+02  0.47787263907E+02  0.19999967458E+02 0.  0.
        -12    1    3    3    0    0 -0.18668661732E+02  0.10748175080E+01 -0.39165670298E+02  0.43400736093E+02  0.00000000000E+00 0.  1.
         11    1    4    4    0    0  0.10911839311E+02  0.33247210286E+01  0.18960894631E+02  0.22127754801E+02  0.51100000000E-03 0. -1.
        -11    1    4    4    0    0  0.18859744774E+00  0.33120690561E+01  0.74317104552E+00  0.33996579083E+01  0.51100000000E-03 0.  1.
         12    1    4    4    0    0  0.75682249728E+01 -0.77116075927E+01  0.19461604621E+02  0.22259851197E+02  0.00000000000E+00 0. -1.
</event>
<event>
 8    1  0.3776180E-010  0.9118800E+02  0.7816164E-02  0.1184000E+00
        -11   -1    0    0    0    0  0.00000000000E+00  0.00000000000E+00  0.45593999997E+02  0.45594000000E+02  0.51100000000E-03 0. -1.
         11   -1    0    0    0    0 -0.00000000000E+00 -0.00000000000E+00 -0.45593999997E+02  0.45594000000E+02  0.51100000000E-03 0.  1.
         23    2    1    2    0    0  0.00000000000E+00  0.35527136788E-14  0.00000000000E+00  0.91188000000E+02  0.91188000000E+02 0.  0.
    9900012    2    3    3    0    0 -0.57811114734E+01 -0.29272082947E+02 -0.31517401912E+02  0.47787277504E+02  0.20000029451E+02 0.  0.
         12    1    3    3    0    0  0.57811114734E+01  0.29272082947E+02  0.31517401912E+02  0.43400722496E+02  0.00000000000E+00 0. -1.
         11    1    4    4    0    0 -0.33882571323E+01 -0.13714698204E+02 -0.17750184133E+02  0.22685728338E+02  0.51100000000E-03 0.  1.
        -11    1    4    4    0    0  0.38661346872E+01 -0.60992214239E+01 -0.11432426996E+02  0.13522125820E+02  0.51100000000E-03 0. -1.
         12    1    4    4    0    0 -0.62589890283E+01 -0.94581633193E+01 -0.23347907824E+01  0.11579423346E+02  0.00000000000E+00 0. -1.
</event>
<event>
 8    1  0.3776180E-010  0.9118800E+02  0.7816164E-02  0.1184000E+00
        -11   -1    0    0    0    0  0.00000000000E+00  0.00000000000E+00  0.45593999997E+02  0.45594000000E+02  0.51100000000E-03 0. -1.
         11   -1    0    0    0    0 -0.00000000000E+00 -0.00000000000E+00 -0.45593999997E+02  0.45594000000E+02  0.51100000000E-03 0.  1.
         23    2    1    2    0    0 -0.35527136788E-14  0.00000000000E+00  0.00000000000E+00  0.91188000000E+02  0.91188000000E+02 0.  0.
    9900012    2    3    3    0    0  0.20048345583E+02  0.30825189108E+02  0.23054204090E+02  0.47787253804E+02  0.19999921394E+02 0.  0.
        -12    1    3    3    0    0 -0.20048345583E+02 -0.30825189108E+02 -0.23054204090E+02  0.43400746196E+02  0.00000000000E+00 0.  1.
         11    1    4    4    0    0  0.11497512294E+02  0.51077087464E+01  0.11901743284E+02  0.17318573009E+02  0.51100000000E-03 0. -1.
        -11    1    4    4    0    0  0.12618349353E+00  0.14713342613E+01 -0.12744596926E+01  0.19506395238E+01  0.51100000000E-03 0.  1.
         12    1    4    4    0    0  0.84246497950E+01  0.24246146100E+02  0.12426920499E+02  0.28518041272E+02  0.00000000000E+00 0. -1.
</event>
<event>
 8    1  0.3776180E-010  0.9118800E+02  0.7816164E-02  0.1184000E+00
        -11   -1    0    0    0    0  0.00000000000E+00  0.00000000000E+00  0.45593999997E+02  0.45594000000E+02  0.51100000000E-03 0. -1.
         11   -1    0    0    0    0 -0.00000000000E+00 -0.00000000000E+00 -0.45593999997E+02  0.45594000000E+02  0.51100000000E-03 0.  1.
         23    2    1    2    0    0  0.71054273576E-14  0.00000000000E+00  0.00000000000E+00  0.91188000000E+02  0.91188000000E+02 0.  0.
    9900012    2    3    3    0    0 -0.32507410112E+02  0.16776379674E+02 -0.23354750106E+02  0.47787274434E+02  0.20000015456E+02 0.  0.
         12    1    3    3    0    0  0.32507410112E+02 -0.16776379674E+02  0.23354750106E+02  0.43400725566E+02  0.00000000000E+00 0. -1.
         11    1    4    4    0    0  0.11562500244E+00 -0.15659937282E+01 -0.58724662248E+01  0.60787799204E+01  0.51100000000E-03 0. -1.
        -11    1    4    4    0    0 -0.83149738237E+01  0.47704513058E+01 -0.73579061611E+01  0.12084485040E+02  0.51100000000E-03 0.  1.
         12    1    4    4    0    0 -0.24308061291E+02  0.13571922096E+02 -0.10124377720E+02  0.29624009474E+02  0.00000000000E+00 0. -1.
</event>
<event>
 8    1  0.3776180E-010  0.9118800E+02  0.7816164E-02  0.1184000E+00
        -11   -1    0    0    0    0  0.00000000000E+00  0.00000000000E+00  0.45593999997E+02  0.45594000000E+02  0.51100000000E-03 0. -1.
         11   -1    0    0    0    0 -0.00000000000E+00 -0.00000000000E+00 -0.45593999997E+02  0.45594000000E+02  0.51100000000E-03 0.  1.
         23    2    1    2    0    0  0.00000000000E+00  0.00000000000E+00  0.00000000000E+00  0.91188000000E+02  0.91188000000E+02 0.  0.
    9900012    2    3    3    0    0 -0.19450588014E+02 -0.30064286288E+02  0.24524217617E+02  0.47787263442E+02  0.19999965336E+02 0.  0.
        -12    1    3    3    0    0  0.19450588014E+02  0.30064286288E+02 -0.24524217617E+02  0.43400736558E+02  0.00000000000E+00 0.  1.
         11    1    4    4    0    0 -0.72588503409E+01 -0.64161246181E+01  0.13292680964E+02  0.16448493270E+02  0.51100000000E-03 0. -1.
        -11    1    4    4    0    0 -0.57453215365E+01 -0.19368777847E+01  0.49736267921E+01  0.78420136979E+01  0.51100000000E-03 0.  1.
        -12    1    4    4    0    0 -0.64464161366E+01 -0.21711283885E+02  0.62579098608E+01  0.23496756473E+02  0.00000000000E+00 0.  1.
</event>
<event>
 8    1  0.3776180E-010  0.9118800E+02  0.7816164E-02  0.1184000E+00
        -11   -1    0    0    0    0  0.00000000000E+00  0.00000000000E+00  0.45593999997E+02  0.45594000000E+02  0.51100000000E-03 0. -1.
         11   -1    0    0    0    0 -0.00000000000E+00 -0.00000000000E+00 -0.45593999997E+02  0.45594000000E+02  0.51100000000E-03 0.  1.
         23    2    1    2    0    0  0.00000000000E+00 -0.88817841970E-15  0.00000000000E+00  0.91188000000E+02  0.91188000000E+02 0.  0.
    9900012    2    3    3    0    0  0.21261422458E+02  0.59904978404E+00 -0.37831426023E+02  0.47787265668E+02  0.19999975489E+02 0.  0.
         12    1    3    3    0    0 -0.21261422458E+02 -0.59904978404E+00  0.37831426023E+02  0.43400734332E+02  0.00000000000E+00 0. -1.
         11    1    4    4    0    0  0.48405950131E+01  0.57026691173E+01 -0.15012124485E+02  0.16772467826E+02  0.51100000000E-03 0.  1.
        -11    1    4    4    0    0  0.63756896621E+01  0.38486456454E+01 -0.96248463312E+01  0.12169599793E+02  0.51100000000E-03 0. -1.
         12    1    4    4    0    0  0.10045137783E+02 -0.89522649786E+01 -0.13194455207E+02  0.18845198049E+02  0.00000000000E+00 0. -1.
</event>
<event>
 8    1  0.3776180E-010  0.9118800E+02  0.7816164E-02  0.1184000E+00
        -11   -1    0    0    0    0  0.00000000000E+00  0.00000000000E+00  0.45593999997E+02  0.45594000000E+02  0.51100000000E-03 0. -1.
         11   -1    0    0    0    0 -0.00000000000E+00 -0.00000000000E+00 -0.45593999997E+02  0.45594000000E+02  0.51100000000E-03 0.  1.
         23    2    1    2    0    0 -0.88817841970E-15 -0.35527136788E-14  0.00000000000E+00  0.91188000000E+02  0.91188000000E+02 0.  0.
    9900012    2    3    3    0    0 -0.22795042841E+01 -0.29394183125E+02  0.31849786381E+02  0.47787273809E+02  0.20000012605E+02 0.  0.
        -12    1    3    3    0    0  0.22795042841E+01  0.29394183125E+02 -0.31849786381E+02  0.43400726191E+02  0.00000000000E+00 0.  1.
         11    1    4    4    0    0  0.27110679052E+01 -0.12995148564E+01  0.33578729970E+01  0.45070987757E+01  0.51100000000E-03 0. -1.
        -11    1    4    4    0    0  0.13859837823E+01 -0.13532627966E+02  0.22497647813E+02  0.26290628142E+02  0.51100000000E-03 0.  1.
        -12    1    4    4    0    0 -0.63765559716E+01 -0.14562040303E+02  0.59942655707E+01  0.16989546891E+02  0.00000000000E+00 0.  1.
</event>
<event>
 8    1  0.3776180E-010  0.9118800E+02  0.7816164E-02  0.1184000E+00
        -11   -1    0    0    0    0  0.00000000000E+00  0.00000000000E+00  0.45593999997E+02  0.45594000000E+02  0.51100000000E-03 0. -1.
         11   -1    0    0    0    0 -0.00000000000E+00 -0.00000000000E+00 -0.45593999997E+02  0.45594000000E+02  0.51100000000E-03 0.  1.
         23    2    1    2    0    0  0.17763568394E-14 -0.88817841970E-15  0.71054273576E-14  0.91188000000E+02  0.91188000000E+02 0.  0.
    9900012    2    3    3    0    0 -0.89313666659E+01  0.11276584080E+01 -0.42456828248E+02  0.47787272024E+02  0.20000004466E+02 0.  0.
         12    1    3    3    0    0  0.89313666659E+01 -0.11276584080E+01  0.42456828248E+02  0.43400727976E+02  0.00000000000E+00 0. -1.
         11    1    4    4    0    0 -0.27124123349E+01  0.57969384844E+01 -0.16167922209E+02  0.17388599290E+02  0.51100000000E-03 0. -1.
        -11    1    4    4    0    0 -0.65295785680E+01  0.30735123450E+01 -0.97098509468E+01  0.12098061005E+02  0.51100000000E-03 0.  1.
         12    1    4    4    0    0  0.31062423699E+00 -0.77427924214E+01 -0.16579055092E+02  0.18300611729E+02  0.00000000000E+00 0. -1.
</event>
<event>
 8    1  0.3776180E-010  0.9118800E+02  0.7816164E-02  0.1184000E+00
        -11   -1    0    0    0    0  0.00000000000E+00  0.00000000000E+00  0.45593999997E+02  0.45594000000E+02  0.51100000000E-03 0. -1.
         11   -1    0    0    0    0 -0.00000000000E+00 -0.00000000000E+00 -0.45593999997E+02  0.45594000000E+02  0.51100000000E-03 0.  1.
         23    2    1    2    0    0  0.00000000000E+00  0.00000000000E+00  0.00000000000E+00  0.91188000000E+02  0.91188000000E+02 0.  0.
    9900012    2    3    3    0    0  0.11485423133E+02 -0.31607872023E+01 -0.41733891480E+02  0.47787271684E+02  0.20000002915E+02 0.  0.
         12    1    3    3    0    0 -0.11485423133E+02  0.31607872023E+01  0.41733891480E+02  0.43400728316E+02  0.00000000000E+00 0. -1.
         11    1    4    4    0    0  0.78071071588E-01 -0.39692529151E+01 -0.18099231731E+02  0.18529523829E+02  0.51100000000E-03 0. -1.
        -11    1    4    4    0    0 -0.50413952740E+00 -0.25252613886E+01 -0.12011327981E+02  0.12284262366E+02  0.51100000000E-03 0.  1.
        -12    1    4    4    0    0  0.11911491589E+02  0.33337271013E+01 -0.11623331768E+02  0.16973485489E+02  0.00000000000E+00 0.  1.
</event>
<event>
 8    1  0.3776180E-010  0.9118800E+02  0.7816164E-02  0.1184000E+00
        -11   -1    0    0    0    0  0.00000000000E+00  0.00000000000E+00  0.45593999997E+02  0.45594000000E+02  0.51100000000E-03 0.  1.
         11   -1    0    0    0    0 -0.00000000000E+00 -0.00000000000E+00 -0.45593999997E+02  0.45594000000E+02  0.51100000000E-03 0. -1.
         23    2    1    2    0    0  0.00000000000E+00  0.17763568394E-14  0.00000000000E+00  0.91188000000E+02  0.91188000000E+02 0.  0.
    9900012    2    3    3    0    0  0.32781748020E+02 -0.14098600045E+02  0.24702417395E+02  0.47787274757E+02  0.20000016925E+02 0.  0.
        -12    1    3    3    0    0 -0.32781748020E+02  0.14098600045E+02 -0.24702417395E+02  0.43400725243E+02  0.00000000000E+00 0.  1.
         11    1    4    4    0    0  0.37143202812E+01 -0.59551768913E+01  0.14174831394E+02  0.15817273857E+02  0.51100000000E-03 0.  1.
        -11    1    4    4    0    0  0.11059946102E+01 -0.33616254054E+00  0.39248131013E+00  0.12207666327E+01  0.51100000000E-03 0. -1.
        -12    1    4    4    0    0  0.27961433129E+02 -0.78072606137E+01  0.10135104691E+02  0.30749234267E+02  0.00000000000E+00 0.  1.
</event>
<event>
 8    1  0.3776180E-010  0.9118800E+02  0.7816164E-02  0.1184000E+00
        -11   -1    0    0    0    0  0.00000000000E+00  0.00000000000E+00  0.45593999997E+02  0.45594000000E+02  0.51100000000E-03 0. -1.
         11   -1    0    0    0    0 -0.00000000000E+00 -0.00000000000E+00 -0.45593999997E+02  0.45594000000E+02  0.51100000000E-03 0.  1.
         23    2    1    2    0    0  0.00000000000E+00  0.44408920985E-15  0.71054273576E-14  0.91188000000E+02  0.91188000000E+02 0.  0.
    9900012    2    3    3    0    0  0.28924011156E+01 -0.38912018944E+01  0.43129053139E+02  0.47787278105E+02  0.20000032190E+02 0.  0.
        -12    1    3    3    0    0 -0.28924011156E+01  0.38912018944E+01 -0.43129053139E+02  0.43400721895E+02  0.00000000000E+00 0.  1.
         11    1    4    4    0    0  0.82027566628E+01 -0.41814344659E+01  0.26063566101E+02  0.27641980559E+02  0.51100000000E-03 0. -1.
        -11    1    4    4    0    0  0.11811257615E+01  0.26233086249E+01  0.17999770089E+01  0.33936298707E+01  0.51100000000E-03 0.  1.
         12    1    4    4    0    0 -0.64914813086E+01 -0.23330760534E+01  0.15265510029E+02  0.16751667675E+02  0.00000000000E+00 0. -1.
</event>
<event>
 8    1  0.3776180E-010  0.9118800E+02  0.7816164E-02  0.1184000E+00
        -11   -1    0    0    0    0  0.00000000000E+00  0.00000000000E+00  0.45593999997E+02  0.45594000000E+02  0.51100000000E-03 0. -1.
         11   -1    0    0    0    0 -0.00000000000E+00 -0.00000000000E+00 -0.45593999997E+02  0.45594000000E+02  0.51100000000E-03 0.  1.
         23    2    1    2    0    0 -0.44408920985E-15  0.00000000000E+00  0.00000000000E+00  0.91188000000E+02  0.91188000000E+02 0.  0.
    9900012    2    3    3    0    0 -0.69594467127E+00 -0.12127149440E+02 -0.41666201635E+02  0.47787257481E+02  0.19999938159E+02 0.  0.
         12    1    3    3    0    0  0.69594467127E+00  0.12127149440E+02  0.41666201635E+02  0.43400742519E+02  0.00000000000E+00 0. -1.
         11    1    4    4    0    0 -0.25292533021E+00 -0.34606210498E+00  0.14846031472E+01  0.15452433365E+01  0.51100000000E-03 0. -1.
        -11    1    4    4    0    0 -0.48203962844E+01 -0.84121892285E+01 -0.17529852392E+02  0.20032395590E+02  0.51100000000E-03 0.  1.
         12    1    4    4    0    0  0.43773769433E+01 -0.33688981062E+01 -0.25620952391E+02  0.26209618554E+02  0.00000000000E+00 0. -1.
</event>
<event>
 8    1  0.3776180E-010  0.9118800E+02  0.7816164E-02  0.1184000E+00
        -11   -1    0    0    0    0  0.00000000000E+00  0.00000000000E+00  0.45593999997E+02  0.45594000000E+02  0.51100000000E-03 0. -1.
         11   -1    0    0    0    0 -0.00000000000E+00 -0.00000000000E+00 -0.45593999997E+02  0.45594000000E+02  0.51100000000E-03 0.  1.
         23    2    1    2    0    0  0.00000000000E+00  0.00000000000E+00 -0.71054273576E-14  0.91188000000E+02  0.91188000000E+02 0.  0.
    9900012    2    3    3    0    0  0.55033946154E+01  0.11356937136E+02  0.41525365830E+02  0.47787269813E+02  0.19999994386E+02 0.  0.
        -12    1    3    3    0    0 -0.55033946154E+01 -0.11356937136E+02 -0.41525365830E+02  0.43400730187E+02  0.00000000000E+00 0.  1.
         11    1    4    4    0    0 -0.18044332541E+01  0.90318918345E+00  0.90405850167E+00  0.22111201019E+01  0.51100000000E-03 0. -1.
        -11    1    4    4    0    0  0.10961912184E+01  0.57536501152E+01  0.36094953131E+02  0.36567085837E+02  0.51100000000E-03 0.  1.
        -12    1    4    4    0    0  0.62116366510E+01  0.47000978370E+01  0.45263541976E+01  0.90090638739E+01  0.00000000000E+00 0.  1.
</event>
<event>
 8    1  0.3776180E-010  0.9118800E+02  0.7816164E-02  0.1184000E+00
        -11   -1    0    0    0    0  0.00000000000E+00  0.00000000000E+00  0.45593999997E+02  0.45594000000E+02  0.51100000000E-03 0. -1.
         11   -1    0    0    0    0 -0.00000000000E+00 -0.00000000000E+00 -0.45593999997E+02  0.45594000000E+02  0.51100000000E-03 0.  1.
         23    2    1    2    0    0 -0.35527136788E-14 -0.35527136788E-14  0.00000000000E+00  0.91188000000E+02  0.91188000000E+02 0.  0.
    9900012    2    3    3    0    0 -0.25959283838E+02  0.28506108932E+02 -0.19928385463E+02  0.47787271769E+02  0.20000003304E+02 0.  0.
         12    1    3    3    0    0  0.25959283838E+02 -0.28506108932E+02  0.19928385463E+02  0.43400728231E+02  0.00000000000E+00 0. -1.
         11    1    4    4    0    0 -0.39519187812E+01  0.73296855891E+01  0.28926797139E+00  0.83322043367E+01  0.51100000000E-03 0. -1.
        -11    1    4    4    0    0 -0.19711865762E+02  0.19303903201E+02 -0.10877988084E+02  0.29656853434E+02  0.51100000000E-03 0.  1.
         12    1    4    4    0    0 -0.22954992949E+01  0.18725201424E+01 -0.93396653507E+01  0.97982139984E+01  0.00000000000E+00 0. -1.
</event>
<event>
 8    1  0.3776180E-010  0.9118800E+02  0.7816164E-02  0.1184000E+00
        -11   -1    0    0    0    0  0.00000000000E+00  0.00000000000E+00  0.45593999997E+02  0.45594000000E+02  0.51100000000E-03 0.  1.
         11   -1    0    0    0    0 -0.00000000000E+00 -0.00000000000E+00 -0.45593999997E+02  0.45594000000E+02  0.51100000000E-03 0. -1.
         23    2    1    2    0    0  0.00000000000E+00 -0.35527136788E-14  0.35527136788E-14  0.91188000000E+02  0.91188000000E+02 0.  0.
    9900012    2    3    3    0    0  0.36946896539E+02 -0.16909360958E+02  0.15252017150E+02  0.47787266377E+02  0.19999978720E+02 0.  0.
        -12    1    3    3    0    0 -0.36946896539E+02  0.16909360958E+02 -0.15252017150E+02  0.43400733623E+02  0.00000000000E+00 0.  1.
         11    1    4    4    0    0  0.24181706893E+02 -0.74935297047E+01  0.91764814159E+01  0.26927973320E+02  0.51100000000E-03 0. -1.
        -11    1    4    4    0    0  0.10450618653E+02 -0.26650782510E+00  0.23628109546E+01  0.10717711161E+02  0.51100000000E-03 0.  1.
         12    1    4    4    0    0  0.23145709927E+01 -0.91493234278E+01  0.37127247791E+01  0.10141581896E+02  0.00000000000E+00 0. -1.
</event>
<event>
 8    1  0.3776180E-010  0.9118800E+02  0.7816164E-02  0.1184000E+00
        -11   -1    0    0    0    0  0.00000000000E+00  0.00000000000E+00  0.45593999997E+02  0.45594000000E+02  0.51100000000E-03 0. -1.
         11   -1    0    0    0    0 -0.00000000000E+00 -0.00000000000E+00 -0.45593999997E+02  0.45594000000E+02  0.51100000000E-03 0.  1.
         23    2    1    2    0    0  0.00000000000E+00  0.00000000000E+00  0.00000000000E+00  0.91188000000E+02  0.91188000000E+02 0.  0.
    9900012    2    3    3    0    0 -0.35807042526E+02 -0.36372498665E+01  0.24253860126E+02  0.47787267149E+02  0.19999982238E+02 0.  0.
        -12    1    3    3    0    0  0.35807042526E+02  0.36372498665E+01 -0.24253860126E+02  0.43400732851E+02  0.00000000000E+00 0.  1.
         11    1    4    4    0    0 -0.21891860432E+02  0.42132104309E+01  0.10496155315E+02  0.24640900389E+02  0.51100000000E-03 0.  1.
        -11    1    4    4    0    0 -0.83549452999E+01 -0.20461746274E+01  0.18804704981E+01  0.88050048907E+01  0.51100000000E-03 0. -1.
        -12    1    4    4    0    0 -0.55602367934E+01 -0.58042856699E+01  0.11877234313E+02  0.14341361869E+02  0.00000000000E+00 0.  1.
</event>
<event>
 8    1  0.3776180E-010  0.9118800E+02  0.7816164E-02  0.1184000E+00
        -11   -1    0    0    0    0  0.00000000000E+00  0.00000000000E+00  0.45593999997E+02  0.45594000000E+02  0.51100000000E-03 0. -1.
         11   -1    0    0    0    0 -0.00000000000E+00 -0.00000000000E+00 -0.45593999997E+02  0.45594000000E+02  0.51100000000E-03 0.  1.
         23    2    1    2    0    0  0.00000000000E+00  0.44408920985E-15  0.71054273576E-14  0.91188000000E+02  0.91188000000E+02 0.  0.
    9900012    2    3    3    0    0 -0.10060474890E+01 -0.39974216979E+01 -0.43204535311E+02  0.47787269785E+02  0.19999994256E+02 0.  0.
         12    1    3    3    0    0  0.10060474890E+01  0.39974216979E+01  0.43204535311E+02  0.43400730215E+02  0.00000000000E+00 0. -1.
         11    1    4    4    0    0  0.44143990043E+00  0.76664596198E+00 -0.11638513176E+01  0.14619047053E+01  0.51100000000E-03 0. -1.
        -11    1    4    4    0    0  0.84714427966E+01 -0.38711992257E+00 -0.21202406169E+02  0.22835438085E+02  0.51100000000E-03 0.  1.
        -12    1    4    4    0    0 -0.99189301860E+01 -0.43769477373E+01 -0.20838277824E+02  0.23489926995E+02  0.00000000000E+00 0.  1.
</event>
<event>
 8    1  0.3776180E-010  0.9118800E+02  0.7816164E-02  0.1184000E+00
        -11   -1    0    0    0    0  0.00000000000E+00  0.00000000000E+00  0.45593999997E+02  0.45594000000E+02  0.51100000000E-03 0. -1.
         11   -1    0    0    0    0 -0.00000000000E+00 -0.00000000000E+00 -0.45593999997E+02  0.45594000000E+02  0.51100000000E-03 0.  1.
         23    2    1    2    0    0 -0.13322676296E-14 -0.35527136788E-14  0.00000000000E+00  0.91188000000E+02  0.91188000000E+02 0.  0.
    9900012    2    3    3    0    0  0.36765650607E+01  0.21557964345E+02 -0.37488130897E+02  0.47787275173E+02  0.20000018825E+02 0.  0.
         12    1    3    3    0    0 -0.36765650607E+01 -0.21557964345E+02  0.37488130897E+02  0.43400724827E+02  0.00000000000E+00 0. -1.
         11    1    4    4    0    0  0.41115090570E+01 -0.13521494449E+01 -0.17151243789E+01  0.46555844685E+01  0.51100000000E-03 0. -1.
        -11    1    4    4    0    0  0.24638700469E+01  0.36876839415E+01 -0.45681081727E+01  0.63668894288E+01  0.51100000000E-03 0.  1.
        -12    1    4    4    0    0 -0.28988140431E+01  0.19222429848E+02 -0.31204898345E+02  0.36764801276E+02  0.00000000000E+00 0.  1.
</event>
<event>
 8    1  0.3776180E-010  0.9118800E+02  0.7816164E-02  0.1184000E+00
        -11   -1    0    0    0    0  0.00000000000E+00  0.00000000000E+00  0.45593999997E+02  0.45594000000E+02  0.51100000000E-03 0. -1.
         11   -1    0    0    0    0 -0.00000000000E+00 -0.00000000000E+00 -0.45593999997E+02  0.45594000000E+02  0.51100000000E-03 0.  1.
         23    2    1    2    0    0  0.00000000000E+00  0.00000000000E+00  0.00000000000E+00  0.91188000000E+02  0.91188000000E+02 0.  0.
    9900012    2    3    3    0    0  0.16898069857E+02 -0.41954746799E+01  0.39755210945E+02  0.47787267633E+02  0.19999984446E+02 0.  0.
        -12    1    3    3    0    0 -0.16898069857E+02  0.41954746799E+01 -0.39755210945E+02  0.43400732367E+02  0.00000000000E+00 0.  1.
         11    1    4    4    0    0  0.72577607291E+01 -0.23238233647E+01  0.52587603469E+01  0.92590391768E+01  0.51100000000E-03 0. -1.
        -11    1    4    4    0    0 -0.44356350840E+00  0.45533123170E+01  0.14757026489E+02  0.15449894262E+02  0.51100000000E-03 0.  1.
         12    1    4    4    0    0  0.10083872637E+02 -0.64249636322E+01  0.19739424109E+02  0.23078334194E+02  0.00000000000E+00 0. -1.
</event>
<event>
 8    1  0.3776180E-010  0.9118800E+02  0.7816164E-02  0.1184000E+00
        -11   -1    0    0    0    0  0.00000000000E+00  0.00000000000E+00  0.45593999997E+02  0.45594000000E+02  0.51100000000E-03 0. -1.
         11   -1    0    0    0    0 -0.00000000000E+00 -0.00000000000E+00 -0.45593999997E+02  0.45594000000E+02  0.51100000000E-03 0.  1.
         23    2    1    2    0    0  0.00000000000E+00  0.00000000000E+00 -0.71054273576E-14  0.91188000000E+02  0.91188000000E+02 0.  0.
    9900012    2    3    3    0    0 -0.95550381019E+01 -0.47291107373E+01 -0.42070892275E+02  0.47787271684E+02  0.20000002917E+02 0.  0.
         12    1    3    3    0    0  0.95550381019E+01  0.47291107373E+01  0.42070892275E+02  0.43400728316E+02  0.00000000000E+00 0. -1.
         11    1    4    4    0    0 -0.82201626223E+01 -0.14370041634E+01 -0.11492576045E+02  0.14202653235E+02  0.51100000000E-03 0. -1.
        -11    1    4    4    0    0 -0.51989932220E+01  0.31740623895E+01 -0.16976544309E+02  0.18036276210E+02  0.51100000000E-03 0.  1.
         12    1    4    4    0    0  0.38641177424E+01 -0.64661689635E+01 -0.13601771921E+02  0.15548342239E+02  0.00000000000E+00 0. -1.
</event>
<event>
 8    1  0.3776180E-010  0.9118800E+02  0.7816164E-02  0.1184000E+00
        -11   -1    0    0    0    0  0.00000000000E+00  0.00000000000E+00  0.45593999997E+02  0.45594000000E+02  0.51100000000E-03 0. -1.
         11   -1    0    0    0    0 -0.00000000000E+00 -0.00000000000E+00 -0.45593999997E+02  0.45594000000E+02  0.51100000000E-03 0.  1.
         23    2    1    2    0    0 -0.35527136788E-14  0.00000000000E+00  0.00000000000E+00  0.91188000000E+02  0.91188000000E+02 0.  0.
    9900012    2    3    3    0    0 -0.28388169367E+02  0.58267176571E+01 -0.32307653974E+02  0.47787270698E+02  0.19999998419E+02 0.  0.
         12    1    3    3    0    0  0.28388169367E+02 -0.58267176571E+01  0.32307653974E+02  0.43400729302E+02  0.00000000000E+00 0. -1.
         11    1    4    4    0    0 -0.12002872772E+02  0.60337146940E+01 -0.12820039322E+02  0.18569547014E+02  0.51100000000E-03 0.  1.
        -11    1    4    4    0    0 -0.69997024128E+01  0.70274155643E+01 -0.89866584812E+01  0.13384335408E+02  0.51100000000E-03 0. -1.
        -12    1    4    4    0    0 -0.93855941815E+01 -0.72344126011E+01 -0.10500956171E+02  0.15833388277E+02  0.00000000000E+00 0.  1.
</event>
<event>
 8    1  0.3776180E-010  0.9118800E+02  0.7816164E-02  0.1184000E+00
        -11   -1    0    0    0    0  0.00000000000E+00  0.00000000000E+00  0.45593999997E+02  0.45594000000E+02  0.51100000000E-03 0. -1.
         11   -1    0    0    0    0 -0.00000000000E+00 -0.00000000000E+00 -0.45593999997E+02  0.45594000000E+02  0.51100000000E-03 0.  1.
         23    2    1    2    0    0  0.00000000000E+00  0.35527136788E-14  0.00000000000E+00  0.91188000000E+02  0.91188000000E+02 0.  0.
    9900012    2    3    3    0    0 -0.12288326802E+02  0.20069025709E+02 -0.36467170605E+02  0.47787270738E+02  0.19999998604E+02 0.  0.
         12    1    3    3    0    0  0.12288326802E+02 -0.20069025709E+02  0.36467170605E+02  0.43400729262E+02  0.00000000000E+00 0. -1.
         11    1    4    4    0    0 -0.10437130527E+02  0.15677570701E+02 -0.22258578957E+02  0.29157576274E+02  0.51100000000E-03 0. -1.
        -11    1    4    4    0    0 -0.16951286975E+01  0.80719112933E+01 -0.85688207864E+01  0.11893439501E+02  0.51100000000E-03 0.  1.
         12    1    4    4    0    0 -0.15606757724E+00 -0.36804562854E+01 -0.56397708620E+01  0.67362549635E+01  0.00000000000E+00 0. -1.
</event>
<event>
 8    1  0.3776180E-010  0.9118800E+02  0.7816164E-02  0.1184000E+00
        -11   -1    0    0    0    0  0.00000000000E+00  0.00000000000E+00  0.45593999997E+02  0.45594000000E+02  0.51100000000E-03 0. -1.
         11   -1    0    0    0    0 -0.00000000000E+00 -0.00000000000E+00 -0.45593999997E+02  0.45594000000E+02  0.51100000000E-03 0.  1.
         23    2    1    2    0    0  0.00000000000E+00  0.71054273576E-14  0.00000000000E+00  0.91188000000E+02  0.91188000000E+02 0.  0.
    9900012    2    3    3    0    0  0.23776946360E+01 -0.40158983151E+02  0.16285798810E+02  0.47787255739E+02  0.19999930215E+02 0.  0.
        -12    1    3    3    0    0 -0.23776946360E+01  0.40158983151E+02 -0.16285798810E+02  0.43400744261E+02  0.00000000000E+00 0.  1.
         11    1    4    4    0    0  0.13596973142E+01 -0.34445626815E+02  0.16316516957E+02  0.38138939541E+02  0.51100000000E-03 0. -1.
        -11    1    4    4    0    0  0.38476121595E+01 -0.55943732363E+01  0.30342183807E+00  0.67965576809E+01  0.51100000000E-03 0.  1.
        -12    1    4    4    0    0 -0.28296148376E+01 -0.11898309968E+00 -0.33413998430E+00  0.28517585165E+01  0.00000000000E+00 0.  1.
</event>
<event>
 8    1  0.3776180E-010  0.9118800E+02  0.7816164E-02  0.1184000E+00
        -11   -1    0    0    0    0  0.00000000000E+00  0.00000000000E+00  0.45593999997E+02  0.45594000000E+02  0.51100000000E-03 0. -1.
         11   -1    0    0    0    0 -0.00000000000E+00 -0.00000000000E+00 -0.45593999997E+02  0.45594000000E+02  0.51100000000E-03 0.  1.
         23    2    1    2    0    0  0.17763568394E-14  0.00000000000E+00  0.00000000000E+00  0.91188000000E+02  0.91188000000E+02 0.  0.
    9900012    2    3    3    0    0 -0.94465775568E+01 -0.32982285352E+02  0.26581090302E+02  0.47787270326E+02  0.19999996724E+02 0.  0.
        -12    1    3    3    0    0  0.94465775568E+01  0.32982285352E+02 -0.26581090302E+02  0.43400729674E+02  0.00000000000E+00 0.  1.
         11    1    4    4    0    0 -0.92072818711E+00  0.13986525822E+00 -0.99808496808E+00  0.13650921396E+01  0.51100000000E-03 0. -1.
        -11    1    4    4    0    0 -0.59847533456E+00 -0.21260883716E+02  0.92460030132E+01  0.23192065909E+02  0.51100000000E-03 0.  1.
         12    1    4    4    0    0 -0.79273740352E+01 -0.11861266894E+02  0.18333172257E+02  0.23230112278E+02  0.00000000000E+00 0. -1.
</event>
<event>
 8    1  0.3776180E-010  0.9118800E+02  0.7816164E-02  0.1184000E+00
        -11   -1    0    0    0    0  0.00000000000E+00  0.00000000000E+00  0.45593999997E+02  0.45594000000E+02  0.51100000000E-03 0. -1.
         11   -1    0    0    0    0 -0.00000000000E+00 -0.00000000000E+00 -0.45593999997E+02  0.45594000000E+02  0.51100000000E-03 0.  1.
         23    2    1    2    0    0  0.00000000000E+00  0.00000000000E+00  0.44408920985E-15  0.91188000000E+02  0.91188000000E+02 0.  0.
    9900012    2    3    3    0    0  0.20965992829E+02 -0.37793633341E+02 -0.39612834633E+01  0.47787270247E+02  0.19999996365E+02 0.  0.
         12    1    3    3    0    0 -0.20965992829E+02  0.37793633341E+02  0.39612834633E+01  0.43400729753E+02  0.00000000000E+00 0. -1.
         11    1    4    4    0    0  0.88227858761E+01 -0.77698148975E+01  0.56716872629E+01  0.13052954103E+02  0.51100000000E-03 0. -1.
        -11    1    4    4    0    0  0.91085366943E+01 -0.12336402991E+02 -0.31608877989E+01  0.15657058836E+02  0.51100000000E-03 0.  1.
        -12    1    4    4    0    0  0.30346702589E+01 -0.17687415452E+02 -0.64720829274E+01  0.19077257308E+02  0.00000000000E+00 0.  1.
</event>
<event>
 8    1  0.3776180E-010  0.9118800E+02  0.7816164E-02  0.1184000E+00
        -11   -1    0    0    0    0  0.00000000000E+00  0.00000000000E+00  0.45593999997E+02  0.45594000000E+02  0.51100000000E-03 0.  1.
         11   -1    0    0    0    0 -0.00000000000E+00 -0.00000000000E+00 -0.45593999997E+02  0.45594000000E+02  0.51100000000E-03 0. -1.
         23    2    1    2    0    0  0.17763568394E-14 -0.71054273576E-14  0.00000000000E+00  0.91188000000E+02  0.91188000000E+02 0.  0.
    9900012    2    3    3    0    0  0.13325292729E+02 -0.36588345211E+02  0.19166452897E+02  0.47787270188E+02  0.19999996093E+02 0.  0.
         12    1    3    3    0    0 -0.13325292729E+02  0.36588345211E+02 -0.19166452897E+02  0.43400729812E+02  0.00000000000E+00 0. -1.
         11    1    4    4    0    0  0.90184697714E+00 -0.77872339337E+01  0.53420248489E+00  0.78574622407E+01  0.51100000000E-03 0. -1.
        -11    1    4    4    0    0  0.16234986190E+02 -0.24822422181E+02  0.14336632623E+02  0.32943382564E+02  0.51100000000E-03 0.  1.
         12    1    4    4    0    0 -0.38115404387E+01 -0.39786890966E+01  0.42956177890E+01  0.69864253830E+01  0.00000000000E+00 0. -1.
</event>
<event>
 8    1  0.3776180E-010  0.9118800E+02  0.7816164E-02  0.1184000E+00
        -11   -1    0    0    0    0  0.00000000000E+00  0.00000000000E+00  0.45593999997E+02  0.45594000000E+02  0.51100000000E-03 0. -1.
         11   -1    0    0    0    0 -0.00000000000E+00 -0.00000000000E+00 -0.45593999997E+02  0.45594000000E+02  0.51100000000E-03 0.  1.
         23    2    1    2    0    0  0.00000000000E+00  0.35527136788E-14  0.71054273576E-14  0.91188000000E+02  0.91188000000E+02 0.  0.
    9900012    2    3    3    0    0  0.17449774697E+02 -0.26046297297E+02 -0.30011988290E+02  0.47787266354E+02  0.19999978616E+02 0.  0.
         12    1    3    3    0    0 -0.17449774697E+02  0.26046297297E+02  0.30011988290E+02  0.43400733646E+02  0.00000000000E+00 0. -1.
         11    1    4    4    0    0  0.21734116513E+01 -0.95120187816E+01 -0.10352409920E+02  0.14225843065E+02  0.51100000000E-03 0. -1.
        -11    1    4    4    0    0  0.27559539370E+01 -0.87548679441E+01 -0.15884009145E+02  0.18345155808E+02  0.51100000000E-03 0.  1.
         12    1    4    4    0    0  0.12520409109E+02 -0.77794105709E+01 -0.37755692250E+01  0.15216267481E+02  0.00000000000E+00 0. -1.
</event>
<event>
 8    1  0.3776180E-010  0.9118800E+02  0.7816164E-02  0.1184000E+00
        -11   -1    0    0    0    0  0.00000000000E+00  0.00000000000E+00  0.45593999997E+02  0.45594000000E+02  0.51100000000E-03 0. -1.
         11   -1    0    0    0    0 -0.00000000000E+00 -0.00000000000E+00 -0.45593999997E+02  0.45594000000E+02  0.51100000000E-03 0.  1.
         23    2    1    2    0    0  0.00000000000E+00 -0.35527136788E-14  0.00000000000E+00  0.91188000000E+02  0.91188000000E+02 0.  0.
    9900012    2    3    3    0    0 -0.74174593856E+01  0.19455992245E+02 -0.38079771062E+02  0.47787270720E+02  0.19999998519E+02 0.  0.
         12    1    3    3    0    0  0.74174593856E+01 -0.19455992245E+02  0.38079771062E+02  0.43400729280E+02  0.00000000000E+00 0. -1.
         11    1    4    4    0    0 -0.47573368985E+01  0.13008867919E+02 -0.13606793339E+02  0.19416686744E+02  0.51100000000E-03 0. -1.
        -11    1    4    4    0    0 -0.35066072702E+01  0.82838775104E+01 -0.24745570077E+02  0.26329872006E+02  0.51100000000E-03 0.  1.
        -12    1    4    4    0    0  0.84648478319E+00 -0.18367531850E+01  0.27259235379E+00  0.20407119694E+01  0.00000000000E+00 0.  1.
</event>
<event>
 8    1  0.3776180E-010  0.9118800E+02  0.7816164E-02  0.1184000E+00
        -11   -1    0    0    0    0  0.00000000000E+00  0.00000000000E+00  0.45593999997E+02  0.45594000000E+02  0.51100000000E-03 0. -1.
         11   -1    0    0    0    0 -0.00000000000E+00 -0.00000000000E+00 -0.45593999997E+02  0.45594000000E+02  0.51100000000E-03 0.  1.
         23    2    1    2    0    0  0.00000000000E+00  0.00000000000E+00 -0.35527136788E-14  0.91188000000E+02  0.91188000000E+02 0.  0.
    9900012    2    3    3    0    0  0.34252222570E+02 -0.11980979736E+02 -0.23808919505E+02  0.47787271038E+02  0.19999999970E+02 0.  0.
         12    1    3    3    0    0 -0.34252222570E+02  0.11980979736E+02  0.23808919505E+02  0.43400728962E+02  0.00000000000E+00 0. -1.
         11    1    4    4    0    0  0.20134627879E+02 -0.62241189331E+01 -0.12499119877E+02  0.24502467106E+02  0.51100000000E-03 0. -1.
        -11    1    4    4    0    0  0.14805710385E+02 -0.37871382921E+01 -0.41624102455E+01  0.15839101482E+02  0.51100000000E-03 0.  1.
         12    1    4    4    0    0 -0.68811569382E+00 -0.19697225111E+01 -0.71473893830E+01  0.74457024498E+01  0.00000000000E+00 0. -1.
</event>
<event>
 8    1  0.3776180E-010  0.9118800E+02  0.7816164E-02  0.1184000E+00
        -11   -1    0    0    0    0  0.00000000000E+00  0.00000000000E+00  0.45593999997E+02  0.45594000000E+02  0.51100000000E-03 0. -1.
         11   -1    0    0    0    0 -0.00000000000E+00 -0.00000000000E+00 -0.45593999997E+02  0.45594000000E+02  0.51100000000E-03 0.  1.
         23    2    1    2    0    0  0.35527136788E-14  0.00000000000E+00  0.00000000000E+00  0.91188000000E+02  0.91188000000E+02 0.  0.
    9900012    2    3    3    0    0  0.22996904903E+02  0.29300588283E+02  0.22276458390E+02  0.47787277572E+02  0.20000029763E+02 0.  0.
        -12    1    3    3    0    0 -0.22996904903E+02 -0.29300588283E+02 -0.22276458390E+02  0.43400722428E+02  0.00000000000E+00 0.  1.
         11    1    4    4    0    0 -0.10673876478E+01  0.68787948320E+01  0.86440805689E+01  0.11098525302E+02  0.51100000000E-03 0. -1.
        -11    1    4    4    0    0  0.13105540292E+01  0.18975389375E+01 -0.12500831193E+01  0.26231496239E+01  0.51100000000E-03 0.  1.
        -12    1    4    4    0    0  0.22753738522E+02  0.20524254514E+02  0.14882460940E+02  0.34065602647E+02  0.00000000000E+00 0.  1.
</event>
<event>
 8    1  0.3776180E-010  0.9118800E+02  0.7816164E-02  0.1184000E+00
        -11   -1    0    0    0    0  0.00000000000E+00  0.00000000000E+00  0.45593999997E+02  0.45594000000E+02  0.51100000000E-03 0.  1.
         11   -1    0    0    0    0 -0.00000000000E+00 -0.00000000000E+00 -0.45593999997E+02  0.45594000000E+02  0.51100000000E-03 0. -1.
         23    2    1    2    0    0  0.00000000000E+00  0.00000000000E+00  0.00000000000E+00  0.91188000000E+02  0.91188000000E+02 0.  0.
    9900012    2    3    3    0    0  0.16488242891E+02 -0.39875026437E+02 -0.46629498533E+01  0.47787274334E+02  0.20000014999E+02 0.  0.
        -12    1    3    3    0    0 -0.16488242891E+02  0.39875026437E+02  0.46629498533E+01  0.43400725666E+02  0.00000000000E+00 0.  1.
         11    1    4    4    0    0  0.16686256912E+02 -0.18512224437E+02 -0.30979062385E+01  0.25114351409E+02  0.51100000000E-03 0. -1.
        -11    1    4    4    0    0  0.25892631172E+01 -0.27035410892E+01 -0.20405543251E-01  0.37435056509E+01  0.51100000000E-03 0.  1.
        -12    1    4    4    0    0 -0.27872771385E+01 -0.18659260911E+02 -0.15446380716E+01  0.18929417275E+02  0.00000000000E+00 0.  1.
</event>
<event>
 8    1  0.3776180E-010  0.9118800E+02  0.7816164E-02  0.1184000E+00
        -11   -1    0    0    0    0  0.00000000000E+00  0.00000000000E+00  0.45593999997E+02  0.45594000000E+02  0.51100000000E-03 0. -1.
         11   -1    0    0    0    0 -0.00000000000E+00 -0.00000000000E+00 -0.45593999997E+02  0.45594000000E+02  0.51100000000E-03 0.  1.
         23    2    1    2    0    0  0.00000000000E+00  0.00000000000E+00  0.00000000000E+00  0.91188000000E+02  0.91188000000E+02 0.  0.
    9900012    2    3    3    0    0 -0.42121310206E+02  0.66437459893E+01 -0.80795247730E+01  0.47787275872E+02  0.20000022013E+02 0.  0.
         12    1    3    3    0    0  0.42121310206E+02 -0.66437459893E+01  0.80795247730E+01  0.43400724128E+02  0.00000000000E+00 0. -1.
         11    1    4    4    0    0 -0.71565546505E+01  0.58613669100E+01  0.81672697654E+00  0.92864923267E+01  0.51100000000E-03 0. -1.
        -11    1    4    4    0    0 -0.14869267909E+02  0.53464286554E+01  0.59585165114E+00  0.15812478205E+02  0.51100000000E-03 0.  1.
        -12    1    4    4    0    0 -0.20095487646E+02 -0.45640495761E+01 -0.94921034007E+01  0.22688305341E+02  0.00000000000E+00 0.  1.
</event>
<event>
 8    1  0.3776180E-010  0.9118800E+02  0.7816164E-02  0.1184000E+00
        -11   -1    0    0    0    0  0.00000000000E+00  0.00000000000E+00  0.45593999997E+02  0.45594000000E+02  0.51100000000E-03 0. -1.
         11   -1    0    0    0    0 -0.00000000000E+00 -0.00000000000E+00 -0.45593999997E+02  0.45594000000E+02  0.51100000000E-03 0.  1.
         23    2    1    2    0    0  0.00000000000E+00  0.00000000000E+00  0.35527136788E-14  0.91188000000E+02  0.91188000000E+02 0.  0.
    9900012    2    3    3    0    0  0.33920597316E+01 -0.31674658312E+02  0.29475914528E+02  0.47787313535E+02  0.20000193730E+02 0.  0.
        -12    1    3    3    0    0 -0.33920597316E+01  0.31674658312E+02 -0.29475914528E+02  0.43400686465E+02  0.00000000000E+00 0.  1.
         11    1    4    4    0    0 -0.14374207201E+01  0.10165050025E+01  0.34332349540E+01  0.38583109332E+01  0.51100000000E-03 0. -1.
        -11    1    4    4    0    0 -0.29217516671E+01 -0.17427650137E+01  0.17291802951E+01  0.38162714069E+01  0.51100000000E-03 0.  1.
         12    1    4    4    0    0  0.77512321188E+01 -0.30948398300E+02  0.24313499279E+02  0.40112731195E+02  0.00000000000E+00 0. -1.
</event>
<event>
 8    1  0.3776180E-010  0.9118800E+02  0.7816164E-02  0.1184000E+00
        -11   -1    0    0    0    0  0.00000000000E+00  0.00000000000E+00  0.45593999997E+02  0.45594000000E+02  0.51100000000E-03 0.  1.
         11   -1    0    0    0    0 -0.00000000000E+00 -0.00000000000E+00 -0.45593999997E+02  0.45594000000E+02  0.51100000000E-03 0. -1.
         23    2    1    2    0    0 -0.35527136788E-14  0.35527136788E-14  0.00000000000E+00  0.91188000000E+02  0.91188000000E+02 0.  0.
    9900012    2    3    3    0    0 -0.21011693882E+02  0.30151491224E+02  0.23087217564E+02  0.47787270540E+02  0.19999997702E+02 0.  0.
        -12    1    3    3    0    0  0.21011693882E+02 -0.30151491224E+02 -0.23087217564E+02  0.43400729460E+02  0.00000000000E+00 0.  1.
         11    1    4    4    0    0 -0.14320457835E+02  0.10257260316E+02  0.16448908827E+02  0.24100902548E+02  0.51100000000E-03 0. -1.
        -11    1    4    4    0    0 -0.41181216737E+01  0.19157547212E+01  0.18486950923E+01  0.49037451072E+01  0.51100000000E-03 0.  1.
        -12    1    4    4    0    0 -0.25731143735E+01  0.17978476186E+02  0.47896136443E+01  0.18782622885E+02  0.00000000000E+00 0.  1.
</event>
<event>
 8    1  0.3776180E-010  0.9118800E+02  0.7816164E-02  0.1184000E+00
        -11   -1    0    0    0    0  0.00000000000E+00  0.00000000000E+00  0.45593999997E+02  0.45594000000E+02  0.51100000000E-03 0.  1.
         11   -1    0    0    0    0 -0.00000000000E+00 -0.00000000000E+00 -0.45593999997E+02  0.45594000000E+02  0.51100000000E-03 0. -1.
         23    2    1    2    0    0  0.00000000000E+00  0.35527136788E-14  0.00000000000E+00  0.91188000000E+02  0.91188000000E+02 0.  0.
    9900012    2    3    3    0    0 -0.35442554116E+02  0.24867500043E+02 -0.30093203758E+01  0.47787271782E+02  0.20000003364E+02 0.  0.
        -12    1    3    3    0    0  0.35442554116E+02 -0.24867500043E+02  0.30093203758E+01  0.43400728218E+02  0.00000000000E+00 0.  1.
         11    1    4    4    0    0 -0.30146335142E+02  0.18974801488E+02 -0.44779410966E+01  0.35901205700E+02  0.51100000000E-03 0. -1.
        -11    1    4    4    0    0 -0.64984595364E+01  0.65132575308E+01 -0.80977198198E+00  0.92362454998E+01  0.51100000000E-03 0.  1.
        -12    1    4    4    0    0  0.12022405616E+01 -0.62055897596E+00  0.22783927028E+01  0.26498205823E+01  0.00000000000E+00 0.  1.
</event>
<event>
 8    1  0.3776180E-010  0.9118800E+02  0.7816164E-02  0.1184000E+00
        -11   -1    0    0    0    0  0.00000000000E+00  0.00000000000E+00  0.45593999997E+02  0.45594000000E+02  0.51100000000E-03 0. -1.
         11   -1    0    0    0    0 -0.00000000000E+00 -0.00000000000E+00 -0.45593999997E+02  0.45594000000E+02  0.51100000000E-03 0.  1.
         23    2    1    2    0    0  0.35527136788E-14  0.00000000000E+00 -0.71054273576E-14  0.91188000000E+02  0.91188000000E+02 0.  0.
    9900012    2    3    3    0    0  0.20703850840E+02  0.14639292929E+02 -0.35223078475E+02  0.47787267353E+02  0.19999983171E+02 0.  0.
         12    1    3    3    0    0 -0.20703850840E+02 -0.14639292929E+02  0.35223078475E+02  0.43400732647E+02  0.00000000000E+00 0. -1.
         11    1    4    4    0    0  0.45033622968E+01  0.18800605660E+01 -0.36359415996E+00  0.48935774932E+01  0.51100000000E-03 0. -1.
        -11    1    4    4    0    0 -0.17661816669E+01  0.51934577610E+01 -0.70826019926E+01  0.89584961039E+01  0.51100000000E-03 0.  1.
         12    1    4    4    0    0  0.17966670210E+02  0.75657746017E+01 -0.27776882322E+02  0.33935193756E+02  0.00000000000E+00 0. -1.
</event>
<event>
 8    1  0.3776180E-010  0.9118800E+02  0.7816164E-02  0.1184000E+00
        -11   -1    0    0    0    0  0.00000000000E+00  0.00000000000E+00  0.45593999997E+02  0.45594000000E+02  0.51100000000E-03 0. -1.
         11   -1    0    0    0    0 -0.00000000000E+00 -0.00000000000E+00 -0.45593999997E+02  0.45594000000E+02  0.51100000000E-03 0.  1.
         23    2    1    2    0    0  0.11102230246E-15 -0.71054273576E-14  0.35527136788E-14  0.91188000000E+02  0.91188000000E+02 0.  0.
    9900012    2    3    3    0    0  0.37205088075E+00  0.34549178917E+02 -0.26264790021E+02  0.47787269816E+02  0.19999994397E+02 0.  0.
         12    1    3    3    0    0 -0.37205088075E+00 -0.34549178917E+02  0.26264790021E+02  0.43400730184E+02  0.00000000000E+00 0. -1.
         11    1    4    4    0    0 -0.33510129325E+01  0.18060278339E+02 -0.10708547001E+02  0.21262077050E+02  0.51100000000E-03 0. -1.
        -11    1    4    4    0    0 -0.28070310556E+01  0.14123038102E+02 -0.11876133770E+02  0.18664998853E+02  0.51100000000E-03 0.  1.
         12    1    4    4    0    0  0.65300948689E+01  0.23658624757E+01 -0.36801092499E+01  0.78601939125E+01  0.00000000000E+00 0. -1.
</event>
<event>
 8    1  0.3776180E-010  0.9118800E+02  0.7816164E-02  0.1184000E+00
        -11   -1    0    0    0    0  0.00000000000E+00  0.00000000000E+00  0.45593999997E+02  0.45594000000E+02  0.51100000000E-03 0. -1.
         11   -1    0    0    0    0 -0.00000000000E+00 -0.00000000000E+00 -0.45593999997E+02  0.45594000000E+02  0.51100000000E-03 0.  1.
         23    2    1    2    0    0  0.00000000000E+00 -0.17763568394E-14  0.00000000000E+00  0.91188000000E+02  0.91188000000E+02 0.  0.
    9900012    2    3    3    0    0  0.30088238021E+02 -0.12701835270E+02 -0.28582935032E+02  0.47787275795E+02  0.20000021660E+02 0.  0.
         12    1    3    3    0    0 -0.30088238021E+02  0.12701835270E+02  0.28582935032E+02  0.43400724205E+02  0.00000000000E+00 0. -1.
         11    1    4    4    0    0  0.36808528073E+01 -0.37048500218E+01 -0.68501366065E+01  0.86138819856E+01  0.51100000000E-03 0. -1.
        -11    1    4    4    0    0  0.18165720759E+02 -0.13840200381E+02 -0.17222101317E+02  0.28603239875E+02  0.51100000000E-03 0.  1.
        -12    1    4    4    0    0  0.82416644545E+01  0.48432151325E+01 -0.45106971089E+01  0.10570153935E+02  0.00000000000E+00 0.  1.
</event>
<event>
 8    1  0.3776180E-010  0.9118800E+02  0.7816164E-02  0.1184000E+00
        -11   -1    0    0    0    0  0.00000000000E+00  0.00000000000E+00  0.45593999997E+02  0.45594000000E+02  0.51100000000E-03 0. -1.
         11   -1    0    0    0    0 -0.00000000000E+00 -0.00000000000E+00 -0.45593999997E+02  0.45594000000E+02  0.51100000000E-03 0.  1.
         23    2    1    2    0    0  0.00000000000E+00  0.00000000000E+00  0.00000000000E+00  0.91188000000E+02  0.91188000000E+02 0.  0.
    9900012    2    3    3    0    0 -0.14340094746E+02 -0.18136963931E+02  0.36729223389E+02  0.47787266957E+02  0.19999981362E+02 0.  0.
        -12    1    3    3    0    0  0.14340094746E+02  0.18136963931E+02 -0.36729223389E+02  0.43400733043E+02  0.00000000000E+00 0.  1.
         11    1    4    4    0    0 -0.15432422786E+02 -0.10767960151E+02  0.34391364561E+02  0.39202992175E+02  0.51100000000E-03 0. -1.
        -11    1    4    4    0    0  0.46277009934E+00 -0.17513609704E+00 -0.60909731919E+00  0.78474748977E+00  0.51100000000E-03 0.  1.
         12    1    4    4    0    0  0.62955794126E+00 -0.71938676830E+01  0.29469561475E+01  0.77995272919E+01  0.00000000000E+00 0. -1.
</event>
<event>
 8    1  0.3776180E-010  0.9118800E+02  0.7816164E-02  0.1184000E+00
        -11   -1    0    0    0    0  0.00000000000E+00  0.00000000000E+00  0.45593999997E+02  0.45594000000E+02  0.51100000000E-03 0. -1.
         11   -1    0    0    0    0 -0.00000000000E+00 -0.00000000000E+00 -0.45593999997E+02  0.45594000000E+02  0.51100000000E-03 0.  1.
         23    2    1    2    0    0  0.00000000000E+00 -0.71054273576E-14  0.35527136788E-14  0.91188000000E+02  0.91188000000E+02 0.  0.
    9900012    2    3    3    0    0  0.12782832939E+02 -0.37480785348E+02 -0.17759876433E+02  0.47787270753E+02  0.19999998671E+02 0.  0.
         12    1    3    3    0    0 -0.12782832939E+02  0.37480785348E+02  0.17759876433E+02  0.43400729247E+02  0.00000000000E+00 0. -1.
         11    1    4    4    0    0  0.12435166409E+02 -0.13969009598E+02 -0.59160716011E+01  0.19615465740E+02  0.51100000000E-03 0. -1.
        -11    1    4    4    0    0  0.40460120270E+01 -0.80487886925E+01 -0.13185704892E+01  0.91044956552E+01  0.51100000000E-03 0.  1.
        -12    1    4    4    0    0 -0.36983454971E+01 -0.15462987058E+02 -0.10525234343E+02  0.19067309358E+02  0.00000000000E+00 0.  1.
</event>
<event>
 8    1  0.3776180E-010  0.9118800E+02  0.7816164E-02  0.1184000E+00
        -11   -1    0    0    0    0  0.00000000000E+00  0.00000000000E+00  0.45593999997E+02  0.45594000000E+02  0.51100000000E-03 0. -1.
         11   -1    0    0    0    0 -0.00000000000E+00 -0.00000000000E+00 -0.45593999997E+02  0.45594000000E+02  0.51100000000E-03 0.  1.
         23    2    1    2    0    0  0.00000000000E+00 -0.35527136788E-14 -0.71054273576E-14  0.91188000000E+02  0.91188000000E+02 0.  0.
    9900012    2    3    3    0    0 -0.13188326415E+02  0.19790335893E+02  0.36304733308E+02  0.47787274096E+02  0.20000013914E+02 0.  0.
        -12    1    3    3    0    0  0.13188326415E+02 -0.19790335893E+02 -0.36304733308E+02  0.43400725904E+02  0.00000000000E+00 0.  1.
         11    1    4    4    0    0 -0.21700868005E+01  0.11872360104E+02  0.13939540701E+02  0.18438356933E+02  0.51100000000E-03 0. -1.
        -11    1    4    4    0    0 -0.88235363546E+01  0.10595012582E+02  0.11528108103E+02  0.17972377753E+02  0.51100000000E-03 0.  1.
        -12    1    4    4    0    0 -0.21947032596E+01 -0.26770367929E+01  0.10837084504E+02  0.11376539410E+02  0.00000000000E+00 0.  1.
</event>
<event>
 8    1  0.3776180E-010  0.9118800E+02  0.7816164E-02  0.1184000E+00
        -11   -1    0    0    0    0  0.00000000000E+00  0.00000000000E+00  0.45593999997E+02  0.45594000000E+02  0.51100000000E-03 0. -1.
         11   -1    0    0    0    0 -0.00000000000E+00 -0.00000000000E+00 -0.45593999997E+02  0.45594000000E+02  0.51100000000E-03 0.  1.
         23    2    1    2    0    0  0.00000000000E+00 -0.44408920985E-15  0.71054273576E-14  0.91188000000E+02  0.91188000000E+02 0.  0.
    9900012    2    3    3    0    0 -0.19385165286E+02  0.12210728761E+01  0.38811696109E+02  0.47787269510E+02  0.19999993006E+02 0.  0.
        -12    1    3    3    0    0  0.19385165286E+02 -0.12210728761E+01 -0.38811696109E+02  0.43400730490E+02  0.00000000000E+00 0.  1.
         11    1    4    4    0    0 -0.18889825817E+02 -0.20720438829E+01  0.38812847364E+02  0.43215228867E+02  0.51100000000E-03 0. -1.
        -11    1    4    4    0    0  0.75375635256E+00  0.53945129760E-01  0.70022824394E+00  0.10302322897E+01  0.51100000000E-03 0.  1.
         12    1    4    4    0    0 -0.12490958214E+01  0.32391716292E+01 -0.70137949844E+00  0.35418083539E+01  0.00000000000E+00 0. -1.
</event>
<event>
 8    1  0.3776180E-010  0.9118800E+02  0.7816164E-02  0.1184000E+00
        -11   -1    0    0    0    0  0.00000000000E+00  0.00000000000E+00  0.45593999997E+02  0.45594000000E+02  0.51100000000E-03 0.  1.
         11   -1    0    0    0    0 -0.00000000000E+00 -0.00000000000E+00 -0.45593999997E+02  0.45594000000E+02  0.51100000000E-03 0. -1.
         23    2    1    2    0    0  0.00000000000E+00 -0.35527136788E-14  0.00000000000E+00  0.91188000000E+02  0.91188000000E+02 0.  0.
    9900012    2    3    3    0    0 -0.16955968445E+02 -0.17569042104E+02  0.35881013479E+02  0.47787271497E+02  0.20000002062E+02 0.  0.
        -12    1    3    3    0    0  0.16955968445E+02  0.17569042104E+02 -0.35881013479E+02  0.43400728503E+02  0.00000000000E+00 0.  1.
         11    1    4    4    0    0 -0.39705817112E+01 -0.79477672714E+01  0.16093890002E+02  0.18383302733E+02  0.51100000000E-03 0.  1.
        -11    1    4    4    0    0 -0.14862328123E+02 -0.45054693545E+01  0.10879874688E+02  0.18962060142E+02  0.51100000000E-03 0. -1.
         12    1    4    4    0    0  0.18769413893E+01 -0.51158054776E+01  0.89072487893E+01  0.10441908621E+02  0.00000000000E+00 0. -1.
</event>
<event>
 8    1  0.3776180E-010  0.9118800E+02  0.7816164E-02  0.1184000E+00
        -11   -1    0    0    0    0  0.00000000000E+00  0.00000000000E+00  0.45593999997E+02  0.45594000000E+02  0.51100000000E-03 0. -1.
         11   -1    0    0    0    0 -0.00000000000E+00 -0.00000000000E+00 -0.45593999997E+02  0.45594000000E+02  0.51100000000E-03 0.  1.
         23    2    1    2    0    0 -0.88817841970E-15 -0.35527136788E-14  0.71054273576E-14  0.91188000000E+02  0.91188000000E+02 0.  0.
    9900012    2    3    3    0    0  0.63637063474E+01  0.27743028600E+02 -0.32763556955E+02  0.47787273523E+02  0.20000011300E+02 0.  0.
         12    1    3    3    0    0 -0.63637063474E+01 -0.27743028600E+02  0.32763556955E+02  0.43400726477E+02  0.00000000000E+00 0. -1.
         11    1    4    4    0    0  0.92342297565E+01  0.16270422041E+02 -0.19924402459E+02  0.27330924723E+02  0.51100000000E-03 0. -1.
        -11    1    4    4    0    0 -0.16845169312E+01  0.73161480535E+01 -0.14082508413E+02  0.15958717464E+02  0.51100000000E-03 0.  1.
         12    1    4    4    0    0 -0.11860064779E+01  0.41564585054E+01  0.12433539167E+01  0.44976313361E+01  0.00000000000E+00 0. -1.
</event>
<event>
 8    1  0.3776180E-010  0.9118800E+02  0.7816164E-02  0.1184000E+00
        -11   -1    0    0    0    0  0.00000000000E+00  0.00000000000E+00  0.45593999997E+02  0.45594000000E+02  0.51100000000E-03 0. -1.
         11   -1    0    0    0    0 -0.00000000000E+00 -0.00000000000E+00 -0.45593999997E+02  0.45594000000E+02  0.51100000000E-03 0.  1.
         23    2    1    2    0    0  0.00000000000E+00  0.00000000000E+00 -0.71054273576E-14  0.91188000000E+02  0.91188000000E+02 0.  0.
    9900012    2    3    3    0    0 -0.23089042792E+02  0.63585980070E+01 -0.36195142772E+02  0.47787262380E+02  0.19999960496E+02 0.  0.
         12    1    3    3    0    0  0.23089042792E+02 -0.63585980070E+01  0.36195142772E+02  0.43400737620E+02  0.00000000000E+00 0. -1.
         11    1    4    4    0    0 -0.85466709971E+01 -0.51407703169E+01 -0.64746887627E+01  0.11890950316E+02  0.51100000000E-03 0. -1.
        -11    1    4    4    0    0 -0.34923181472E+01  0.10627947484E+01 -0.12036622181E+02  0.12578000338E+02  0.51100000000E-03 0.  1.
         12    1    4    4    0    0 -0.11050053648E+02  0.10436573575E+02 -0.17683831828E+02  0.23318311726E+02  0.00000000000E+00 0. -1.
</event>
<event>
 8    1  0.3776180E-010  0.9118800E+02  0.7816164E-02  0.1184000E+00
        -11   -1    0    0    0    0  0.00000000000E+00  0.00000000000E+00  0.45593999997E+02  0.45594000000E+02  0.51100000000E-03 0. -1.
         11   -1    0    0    0    0 -0.00000000000E+00 -0.00000000000E+00 -0.45593999997E+02  0.45594000000E+02  0.51100000000E-03 0.  1.
         23    2    1    2    0    0  0.00000000000E+00 -0.88817841970E-15 -0.71054273576E-14  0.91188000000E+02  0.91188000000E+02 0.  0.
    9900012    2    3    3    0    0 -0.16936872681E+02 -0.56326611683E+01 -0.39560573055E+02  0.47787268802E+02  0.19999989776E+02 0.  0.
         12    1    3    3    0    0  0.16936872681E+02  0.56326611683E+01  0.39560573055E+02  0.43400731198E+02  0.00000000000E+00 0. -1.
         11    1    4    4    0    0 -0.72114709195E+00  0.23000816197E+01 -0.16934229845E+02  0.17104928216E+02  0.51100000000E-03 0.  1.
        -11    1    4    4    0    0 -0.23784186971E+01 -0.11773840494E+00  0.67738169334E+00  0.24757996790E+01  0.51100000000E-03 0. -1.
        -12    1    4    4    0    0 -0.13837306892E+02 -0.78150043830E+01 -0.23303724904E+02  0.28206540907E+02  0.00000000000E+00 0.  1.
</event>
<event>
 8    1  0.3776180E-010  0.9118800E+02  0.7816164E-02  0.1184000E+00
        -11   -1    0    0    0    0  0.00000000000E+00  0.00000000000E+00  0.45593999997E+02  0.45594000000E+02  0.51100000000E-03 0. -1.
         11   -1    0    0    0    0 -0.00000000000E+00 -0.00000000000E+00 -0.45593999997E+02  0.45594000000E+02  0.51100000000E-03 0.  1.
         23    2    1    2    0    0  0.44408920985E-15 -0.71054273576E-14  0.00000000000E+00  0.91188000000E+02  0.91188000000E+02 0.  0.
    9900012    2    3    3    0    0  0.28565726065E+01  0.37802258362E+02 -0.21129437331E+02  0.47787264220E+02  0.19999968885E+02 0.  0.
         12    1    3    3    0    0 -0.28565726065E+01 -0.37802258362E+02  0.21129437331E+02  0.43400735780E+02  0.00000000000E+00 0. -1.
         11    1    4    4    0    0 -0.43135159217E+01  0.15605972296E+02 -0.38800299626E+01  0.16649547251E+02  0.51100000000E-03 0. -1.
        -11    1    4    4    0    0  0.37497545283E+01  0.19555253315E+02 -0.90551437929E+01  0.21873825011E+02  0.51100000000E-03 0.  1.
        -12    1    4    4    0    0  0.34203339999E+01  0.26410327508E+01 -0.81942635754E+01  0.92638919577E+01  0.00000000000E+00 0.  1.
</event>
<event>
 8    1  0.3776180E-010  0.9118800E+02  0.7816164E-02  0.1184000E+00
        -11   -1    0    0    0    0  0.00000000000E+00  0.00000000000E+00  0.45593999997E+02  0.45594000000E+02  0.51100000000E-03 0. -1.
         11   -1    0    0    0    0 -0.00000000000E+00 -0.00000000000E+00 -0.45593999997E+02  0.45594000000E+02  0.51100000000E-03 0.  1.
         23    2    1    2    0    0  0.00000000000E+00  0.00000000000E+00  0.00000000000E+00  0.91188000000E+02  0.91188000000E+02 0.  0.
    9900012    2    3    3    0    0 -0.91884459128E+01 -0.35576238258E+02  0.23098196672E+02  0.47787274702E+02  0.20000016675E+02 0.  0.
        -12    1    3    3    0    0  0.91884459128E+01  0.35576238258E+02 -0.23098196672E+02  0.43400725298E+02  0.00000000000E+00 0.  1.
         11    1    4    4    0    0  0.12443947707E+01 -0.15581329905E+02  0.18367841137E+02  0.24118539514E+02  0.51100000000E-03 0. -1.
        -11    1    4    4    0    0 -0.14114564090E+00 -0.41556713043E+01  0.18891057394E+01  0.45670829680E+01  0.51100000000E-03 0.  1.
        -12    1    4    4    0    0 -0.10291695043E+02 -0.15839237049E+02  0.28412497956E+01  0.19101652220E+02  0.00000000000E+00 0.  1.
</event>
<event>
 8    1  0.3776180E-010  0.9118800E+02  0.7816164E-02  0.1184000E+00
        -11   -1    0    0    0    0  0.00000000000E+00  0.00000000000E+00  0.45593999997E+02  0.45594000000E+02  0.51100000000E-03 0. -1.
         11   -1    0    0    0    0 -0.00000000000E+00 -0.00000000000E+00 -0.45593999997E+02  0.45594000000E+02  0.51100000000E-03 0.  1.
         23    2    1    2    0    0  0.00000000000E+00 -0.35527136788E-14  0.00000000000E+00  0.91188000000E+02  0.91188000000E+02 0.  0.
    9900012    2    3    3    0    0 -0.15642070521E+02  0.22533310298E+02 -0.33633301692E+02  0.47787269293E+02  0.19999992017E+02 0.  0.
         12    1    3    3    0    0  0.15642070521E+02 -0.22533310298E+02  0.33633301692E+02  0.43400730707E+02  0.00000000000E+00 0. -1.
         11    1    4    4    0    0 -0.64959260243E+00  0.21714228837E+01 -0.23308589077E+01  0.32511461668E+01  0.51100000000E-03 0. -1.
        -11    1    4    4    0    0 -0.90784342121E+01 -0.35306608841E+00 -0.44685677636E+01  0.10124757850E+02  0.51100000000E-03 0.  1.
        -12    1    4    4    0    0 -0.59140437070E+01  0.20714953503E+02 -0.26833875020E+02  0.34411365276E+02  0.00000000000E+00 0.  1.
</event>
<event>
 8    1  0.3776180E-010  0.9118800E+02  0.7816164E-02  0.1184000E+00
        -11   -1    0    0    0    0  0.00000000000E+00  0.00000000000E+00  0.45593999997E+02  0.45594000000E+02  0.51100000000E-03 0. -1.
         11   -1    0    0    0    0 -0.00000000000E+00 -0.00000000000E+00 -0.45593999997E+02  0.45594000000E+02  0.51100000000E-03 0.  1.
         23    2    1    2    0    0  0.00000000000E+00  0.00000000000E+00  0.71054273576E-14  0.91188000000E+02  0.91188000000E+02 0.  0.
    9900012    2    3    3    0    0 -0.22081587141E+02 -0.69858764560E+01 -0.36704555064E+02  0.47787270479E+02  0.19999997423E+02 0.  0.
         12    1    3    3    0    0  0.22081587141E+02  0.69858764560E+01  0.36704555064E+02  0.43400729521E+02  0.00000000000E+00 0. -1.
         11    1    4    4    0    0 -0.33554093222E+01 -0.32472993380E+01 -0.33993138117E+01  0.57757302016E+01  0.51100000000E-03 0. -1.
        -11    1    4    4    0    0 -0.92901238177E+01  0.66031870048E+01 -0.12304863885E+02  0.16772541687E+02  0.51100000000E-03 0.  1.
        -12    1    4    4    0    0 -0.94360540008E+01 -0.10341764123E+02 -0.21000377367E+02  0.25238998590E+02  0.00000000000E+00 0.  1.
</event>
<event>
 8    1  0.3776180E-010  0.9118800E+02  0.7816164E-02  0.1184000E+00
        -11   -1    0    0    0    0  0.00000000000E+00  0.00000000000E+00  0.45593999997E+02  0.45594000000E+02  0.51100000000E-03 0. -1.
         11   -1    0    0    0    0 -0.00000000000E+00 -0.00000000000E+00 -0.45593999997E+02  0.45594000000E+02  0.51100000000E-03 0.  1.
         23    2    1    2    0    0 -0.35527136788E-14  0.00000000000E+00  0.00000000000E+00  0.91188000000E+02  0.91188000000E+02 0.  0.
    9900012    2    3    3    0    0  0.16131673547E+02 -0.61416119337E+01  0.39820508302E+02  0.47787272241E+02  0.20000005455E+02 0.  0.
        -12    1    3    3    0    0 -0.16131673547E+02  0.61416119337E+01 -0.39820508302E+02  0.43400727759E+02  0.00000000000E+00 0.  1.
         11    1    4    4    0    0  0.85017742336E+01 -0.56228617261E+01  0.20485431907E+02  0.22881207569E+02  0.51100000000E-03 0. -1.
        -11    1    4    4    0    0  0.21692819571E+01  0.29661610129E+01  0.17897138401E+02  0.18270507890E+02  0.51100000000E-03 0.  1.
         12    1    4    4    0    0  0.54606173567E+01 -0.34849112205E+01  0.14379379940E+01  0.66355567819E+01  0.00000000000E+00 0. -1.
</event>
<event>
 8    1  0.3776180E-010  0.9118800E+02  0.7816164E-02  0.1184000E+00
        -11   -1    0    0    0    0  0.00000000000E+00  0.00000000000E+00  0.45593999997E+02  0.45594000000E+02  0.51100000000E-03 0. -1.
         11   -1    0    0    0    0 -0.00000000000E+00 -0.00000000000E+00 -0.45593999997E+02  0.45594000000E+02  0.51100000000E-03 0.  1.
         23    2    1    2    0    0  0.00000000000E+00  0.00000000000E+00  0.00000000000E+00  0.91188000000E+02  0.91188000000E+02 0.  0.
    9900012    2    3    3    0    0  0.36061374428E+02 -0.79974895385E+01  0.22786865273E+02  0.47787265058E+02  0.19999972705E+02 0.  0.
        -12    1    3    3    0    0 -0.36061374428E+02  0.79974895385E+01 -0.22786865273E+02  0.43400734942E+02  0.00000000000E+00 0.  1.
         11    1    4    4    0    0  0.34460071244E+01 -0.18546752026E+00  0.53879235610E+01  0.63983657181E+01  0.51100000000E-03 0. -1.
        -11    1    4    4    0    0 -0.13596333721E+00  0.23528967744E+01 -0.89604484883E+00  0.25214095051E+01  0.51100000000E-03 0.  1.
         12    1    4    4    0    0  0.32751330641E+02 -0.10164918793E+02  0.18294986561E+02  0.38867489835E+02  0.00000000000E+00 0. -1.
</event>
<event>
 8    1  0.3776180E-010  0.9118800E+02  0.7816164E-02  0.1184000E+00
        -11   -1    0    0    0    0  0.00000000000E+00  0.00000000000E+00  0.45593999997E+02  0.45594000000E+02  0.51100000000E-03 0. -1.
         11   -1    0    0    0    0 -0.00000000000E+00 -0.00000000000E+00 -0.45593999997E+02  0.45594000000E+02  0.51100000000E-03 0.  1.
         23    2    1    2    0    0  0.00000000000E+00  0.88817841970E-15  0.71054273576E-14  0.91188000000E+02  0.91188000000E+02 0.  0.
    9900012    2    3    3    0    0 -0.13335324114E+02  0.53617110448E+01  0.40951736689E+02  0.47787267835E+02  0.19999985369E+02 0.  0.
        -12    1    3    3    0    0  0.13335324114E+02 -0.53617110448E+01 -0.40951736689E+02  0.43400732165E+02  0.00000000000E+00 0.  1.
         11    1    4    4    0    0 -0.81613803301E+00 -0.30239383393E-02  0.93472863799E+01  0.93828488937E+01  0.51100000000E-03 0. -1.
        -11    1    4    4    0    0 -0.10736404197E+02 -0.23575893210E+01  0.82555665518E+01  0.13747108127E+02  0.51100000000E-03 0.  1.
        -12    1    4    4    0    0 -0.17827818837E+01  0.77223243041E+01  0.23348883758E+02  0.24657310815E+02  0.00000000000E+00 0.  1.
</event>
<event>
 8    1  0.3776180E-010  0.9118800E+02  0.7816164E-02  0.1184000E+00
        -11   -1    0    0    0    0  0.00000000000E+00  0.00000000000E+00  0.45593999997E+02  0.45594000000E+02  0.51100000000E-03 0. -1.
         11   -1    0    0    0    0 -0.00000000000E+00 -0.00000000000E+00 -0.45593999997E+02  0.45594000000E+02  0.51100000000E-03 0.  1.
         23    2    1    2    0    0  0.00000000000E+00 -0.88817841970E-15  0.00000000000E+00  0.91188000000E+02  0.91188000000E+02 0.  0.
    9900012    2    3    3    0    0 -0.20923221459E+02  0.71810129869E+01  0.37339992826E+02  0.47787271803E+02  0.20000003460E+02 0.  0.
        -12    1    3    3    0    0  0.20923221459E+02 -0.71810129869E+01 -0.37339992826E+02  0.43400728197E+02  0.00000000000E+00 0.  1.
         11    1    4    4    0    0  0.53743818197E+00  0.45548297588E+01  0.99079115715E+01  0.10917968030E+02  0.51100000000E-03 0. -1.
        -11    1    4    4    0    0 -0.12692156175E+02  0.73446695365E+01  0.15762942289E+02  0.21529174365E+02  0.51100000000E-03 0.  1.
        -12    1    4    4    0    0 -0.87685034662E+01 -0.47184863084E+01  0.11669138965E+02  0.15340129408E+02  0.00000000000E+00 0.  1.
</event>
<event>
 8    1  0.3776180E-010  0.9118800E+02  0.7816164E-02  0.1184000E+00
        -11   -1    0    0    0    0  0.00000000000E+00  0.00000000000E+00  0.45593999997E+02  0.45594000000E+02  0.51100000000E-03 0. -1.
         11   -1    0    0    0    0 -0.00000000000E+00 -0.00000000000E+00 -0.45593999997E+02  0.45594000000E+02  0.51100000000E-03 0.  1.
         23    2    1    2    0    0  0.00000000000E+00  0.88817841970E-15  0.00000000000E+00  0.91188000000E+02  0.91188000000E+02 0.  0.
    9900012    2    3    3    0    0  0.23097515265E+02  0.70444771081E+01 -0.36062493847E+02  0.47787270380E+02  0.19999996969E+02 0.  0.
         12    1    3    3    0    0 -0.23097515265E+02 -0.70444771081E+01  0.36062493847E+02  0.43400729620E+02  0.00000000000E+00 0. -1.
         11    1    4    4    0    0  0.95048119949E+01  0.45245585398E+00 -0.38383832572E+01  0.10260572774E+02  0.51100000000E-03 0. -1.
        -11    1    4    4    0    0  0.39915813618E+01 -0.34135889963E+01 -0.71245733719E+01  0.88512630509E+01  0.51100000000E-03 0.  1.
         12    1    4    4    0    0  0.96011219078E+01  0.10005610250E+02 -0.25099537218E+02  0.28675434555E+02  0.00000000000E+00 0. -1.
</event>
<event>
 8    1  0.3776180E-010  0.9118800E+02  0.7816164E-02  0.1184000E+00
        -11   -1    0    0    0    0  0.00000000000E+00  0.00000000000E+00  0.45593999997E+02  0.45594000000E+02  0.51100000000E-03 0. -1.
         11   -1    0    0    0    0 -0.00000000000E+00 -0.00000000000E+00 -0.45593999997E+02  0.45594000000E+02  0.51100000000E-03 0.  1.
         23    2    1    2    0    0  0.88817841970E-15  0.35527136788E-14 -0.71054273576E-14  0.91188000000E+02  0.91188000000E+02 0.  0.
    9900012    2    3    3    0    0  0.50502926564E+01  0.26171372842E+02 -0.34251673387E+02  0.47787270257E+02  0.19999996412E+02 0.  0.
         12    1    3    3    0    0 -0.50502926564E+01 -0.26171372842E+02  0.34251673387E+02  0.43400729743E+02  0.00000000000E+00 0. -1.
         11    1    4    4    0    0 -0.90636130061E+00  0.11280335949E+02 -0.46095810948E+01  0.12219480678E+02  0.51100000000E-03 0. -1.
        -11    1    4    4    0    0 -0.22131762514E+01  0.78139037760E+01 -0.81221106962E+01  0.11485814023E+02  0.51100000000E-03 0.  1.
        -12    1    4    4    0    0  0.81698302084E+01  0.70771331175E+01 -0.21519981596E+02  0.24081975556E+02  0.00000000000E+00 0.  1.
</event>
<event>
 8    1  0.3776180E-010  0.9118800E+02  0.7816164E-02  0.1184000E+00
        -11   -1    0    0    0    0  0.00000000000E+00  0.00000000000E+00  0.45593999997E+02  0.45594000000E+02  0.51100000000E-03 0. -1.
         11   -1    0    0    0    0 -0.00000000000E+00 -0.00000000000E+00 -0.45593999997E+02  0.45594000000E+02  0.51100000000E-03 0.  1.
         23    2    1    2    0    0  0.00000000000E+00 -0.35527136788E-14 -0.17763568394E-14  0.91188000000E+02  0.91188000000E+02 0.  0.
    9900012    2    3    3    0    0 -0.27912121461E+02  0.29627608181E+02 -0.15057953610E+02  0.47787266620E+02  0.19999979829E+02 0.  0.
         12    1    3    3    0    0  0.27912121461E+02 -0.29627608181E+02  0.15057953610E+02  0.43400733380E+02  0.00000000000E+00 0. -1.
         11    1    4    4    0    0 -0.11637791865E+02  0.16837087552E+02 -0.10002433000E+02  0.22781009260E+02  0.51100000000E-03 0.  1.
        -11    1    4    4    0    0 -0.89649001076E+01  0.41118625429E+01 -0.86345824323E+01  0.13108503406E+02  0.51100000000E-03 0. -1.
         12    1    4    4    0    0 -0.73094294883E+01  0.86786580862E+01  0.35790618227E+01  0.11897753954E+02  0.00000000000E+00 0. -1.
</event>
<event>
 8    1  0.3776180E-010  0.9118800E+02  0.7816164E-02  0.1184000E+00
        -11   -1    0    0    0    0  0.00000000000E+00  0.00000000000E+00  0.45593999997E+02  0.45594000000E+02  0.51100000000E-03 0.  1.
         11   -1    0    0    0    0 -0.00000000000E+00 -0.00000000000E+00 -0.45593999997E+02  0.45594000000E+02  0.51100000000E-03 0. -1.
         23    2    1    2    0    0  0.35527136788E-14  0.00000000000E+00 -0.17763568394E-14  0.91188000000E+02  0.91188000000E+02 0.  0.
    9900012    2    3    3    0    0  0.25100855410E+02  0.33380333118E+02 -0.11803551925E+02  0.47787269367E+02  0.19999992354E+02 0.  0.
         12    1    3    3    0    0 -0.25100855410E+02 -0.33380333118E+02  0.11803551925E+02  0.43400730633E+02  0.00000000000E+00 0. -1.
         11    1    4    4    0    0  0.38291449487E+01  0.61679494728E+01  0.41266552462E+01  0.83507625711E+01  0.51100000000E-03 0. -1.
        -11    1    4    4    0    0  0.87009307401E+01  0.12122811265E+02 -0.13633383588E+01  0.14984239736E+02  0.51100000000E-03 0.  1.
        -12    1    4    4    0    0  0.12570779722E+02  0.15089572380E+02 -0.14566868812E+02  0.24452267061E+02  0.00000000000E+00 0.  1.
</event>
<event>
 8    1  0.3776180E-010  0.9118800E+02  0.7816164E-02  0.1184000E+00
        -11   -1    0    0    0    0  0.00000000000E+00  0.00000000000E+00  0.45593999997E+02  0.45594000000E+02  0.51100000000E-03 0. -1.
         11   -1    0    0    0    0 -0.00000000000E+00 -0.00000000000E+00 -0.45593999997E+02  0.45594000000E+02  0.51100000000E-03 0.  1.
         23    2    1    2    0    0  0.00000000000E+00  0.00000000000E+00  0.00000000000E+00  0.91188000000E+02  0.91188000000E+02 0.  0.
    9900012    2    3    3    0    0  0.41048268695E+02 -0.10391347521E+02  0.95227578021E+01  0.47787269795E+02  0.19999994304E+02 0.  0.
        -12    1    3    3    0    0 -0.41048268695E+02  0.10391347521E+02 -0.95227578021E+01  0.43400730205E+02  0.00000000000E+00 0.  1.
         11    1    4    4    0    0  0.12423389381E+02 -0.36595058177E+01  0.61305420585E+01  0.14328856644E+02  0.51100000000E-03 0. -1.
        -11    1    4    4    0    0  0.23955746858E+02 -0.97006462169E+01  0.70940428870E+01  0.26801227384E+02  0.51100000000E-03 0.  1.
        -12    1    4    4    0    0  0.46691324562E+01  0.29688045137E+01 -0.37018271434E+01  0.66571857668E+01  0.00000000000E+00 0.  1.
</event>
<event>
 8    1  0.3776180E-010  0.9118800E+02  0.7816164E-02  0.1184000E+00
        -11   -1    0    0    0    0  0.00000000000E+00  0.00000000000E+00  0.45593999997E+02  0.45594000000E+02  0.51100000000E-03 0. -1.
         11   -1    0    0    0    0 -0.00000000000E+00 -0.00000000000E+00 -0.45593999997E+02  0.45594000000E+02  0.51100000000E-03 0.  1.
         23    2    1    2    0    0  0.00000000000E+00  0.00000000000E+00  0.00000000000E+00  0.91188000000E+02  0.91188000000E+02 0.  0.
    9900012    2    3    3    0    0 -0.70953712075E+00 -0.26161405535E+02 -0.34622260402E+02  0.47787268464E+02  0.19999988235E+02 0.  0.
         12    1    3    3    0    0  0.70953712075E+00  0.26161405535E+02  0.34622260402E+02  0.43400731536E+02  0.00000000000E+00 0. -1.
         11    1    4    4    0    0 -0.40575501865E+00  0.56343760636E+00  0.56194988373E+00  0.89324520954E+00  0.51100000000E-03 0. -1.
        -11    1    4    4    0    0 -0.12966716330E+01 -0.22622307863E+02 -0.17273131764E+02  0.28492301620E+02  0.51100000000E-03 0.  1.
        -12    1    4    4    0    0  0.99288953088E+00 -0.41025352786E+01 -0.17911078521E+02  0.18401721635E+02  0.00000000000E+00 0.  1.
</event>
<event>
 8    1  0.3776180E-010  0.9118800E+02  0.7816164E-02  0.1184000E+00
        -11   -1    0    0    0    0  0.00000000000E+00  0.00000000000E+00  0.45593999997E+02  0.45594000000E+02  0.51100000000E-03 0. -1.
         11   -1    0    0    0    0 -0.00000000000E+00 -0.00000000000E+00 -0.45593999997E+02  0.45594000000E+02  0.51100000000E-03 0.  1.
         23    2    1    2    0    0 -0.44408920985E-15  0.00000000000E+00  0.00000000000E+00  0.91188000000E+02  0.91188000000E+02 0.  0.
    9900012    2    3    3    0    0 -0.30951385504E+01  0.16803423091E+02 -0.39895969430E+02  0.47787270894E+02  0.19999999312E+02 0.  0.
         12    1    3    3    0    0  0.30951385504E+01 -0.16803423091E+02  0.39895969430E+02  0.43400729106E+02  0.00000000000E+00 0. -1.
         11    1    4    4    0    0  0.31338386957E+01  0.88004633681E+01 -0.10941665400E+02  0.14387117239E+02  0.51100000000E-03 0. -1.
        -11    1    4    4    0    0  0.22898102658E+01  0.13586648271E+01 -0.17319509634E+02  0.17522973931E+02  0.51100000000E-03 0.  1.
         12    1    4    4    0    0 -0.85187875119E+01  0.66442948957E+01 -0.11634794396E+02  0.15877179724E+02  0.00000000000E+00 0. -1.
</event>
<event>
 8    1  0.3776180E-010  0.9118800E+02  0.7816164E-02  0.1184000E+00
        -11   -1    0    0    0    0  0.00000000000E+00  0.00000000000E+00  0.45593999997E+02  0.45594000000E+02  0.51100000000E-03 0. -1.
         11   -1    0    0    0    0 -0.00000000000E+00 -0.00000000000E+00 -0.45593999997E+02  0.45594000000E+02  0.51100000000E-03 0.  1.
         23    2    1    2    0    0  0.00000000000E+00  0.00000000000E+00  0.71054273576E-14  0.91188000000E+02  0.91188000000E+02 0.  0.
    9900012    2    3    3    0    0  0.10030561774E+02 -0.13609137256E+02  0.39972521161E+02  0.47787271500E+02  0.20000002079E+02 0.  0.
        -12    1    3    3    0    0 -0.10030561774E+02  0.13609137256E+02 -0.39972521161E+02  0.43400728500E+02  0.00000000000E+00 0.  1.
         11    1    4    4    0    0 -0.27117330704E-01  0.80271767599E+00  0.85227738749E+00  0.11710969317E+01  0.51100000000E-03 0. -1.
        -11    1    4    4    0    0 -0.27052801681E+01 -0.32526566157E+01  0.22430849760E+02  0.22826329908E+02  0.51100000000E-03 0.  1.
         12    1    4    4    0    0  0.12762959272E+02 -0.11159198317E+02  0.16689394013E+02  0.23789844661E+02  0.00000000000E+00 0. -1.
</event>
<event>
 8    1  0.3776180E-010  0.9118800E+02  0.7816164E-02  0.1184000E+00
        -11   -1    0    0    0    0  0.00000000000E+00  0.00000000000E+00  0.45593999997E+02  0.45594000000E+02  0.51100000000E-03 0. -1.
         11   -1    0    0    0    0 -0.00000000000E+00 -0.00000000000E+00 -0.45593999997E+02  0.45594000000E+02  0.51100000000E-03 0.  1.
         23    2    1    2    0    0  0.00000000000E+00 -0.17763568394E-14  0.00000000000E+00  0.91188000000E+02  0.91188000000E+02 0.  0.
    9900012    2    3    3    0    0  0.19428428325E+02 -0.87001003649E+01 -0.37821528862E+02  0.47787267069E+02  0.19999981873E+02 0.  0.
         12    1    3    3    0    0 -0.19428428325E+02  0.87001003649E+01  0.37821528862E+02  0.43400732931E+02  0.00000000000E+00 0. -1.
         11    1    4    4    0    0  0.35111469243E+01 -0.17542432072E+01 -0.78331248343E+01  0.87614705892E+01  0.51100000000E-03 0.  1.
        -11    1    4    4    0    0  0.14658368133E+02  0.32998169156E+00 -0.27621491306E+02  0.31271767243E+02  0.51100000000E-03 0. -1.
         12    1    4    4    0    0  0.12589132678E+01 -0.72758388492E+01 -0.23669127214E+01  0.77540292369E+01  0.00000000000E+00 0. -1.
</event>
<event>
 8    1  0.3776180E-010  0.9118800E+02  0.7816164E-02  0.1184000E+00
        -11   -1    0    0    0    0  0.00000000000E+00  0.00000000000E+00  0.45593999997E+02  0.45594000000E+02  0.51100000000E-03 0. -1.
         11   -1    0    0    0    0 -0.00000000000E+00 -0.00000000000E+00 -0.45593999997E+02  0.45594000000E+02  0.51100000000E-03 0.  1.
         23    2    1    2    0    0 -0.35527136788E-14  0.00000000000E+00  0.71054273576E-14  0.91188000000E+02  0.91188000000E+02 0.  0.
    9900012    2    3    3    0    0  0.23152970937E+02  0.13050849033E+02 -0.34310912550E+02  0.47787269088E+02  0.19999991080E+02 0.  0.
         12    1    3    3    0    0 -0.23152970937E+02 -0.13050849033E+02  0.34310912550E+02  0.43400730912E+02  0.00000000000E+00 0. -1.
         11    1    4    4    0    0  0.30248040555E+01 -0.11941530811E+01 -0.64787412434E+00  0.33158984149E+01  0.51100000000E-03 0. -1.
        -11    1    4    4    0    0  0.17882347419E+02  0.57973320109E+01 -0.29011799593E+02  0.34569812315E+02  0.51100000000E-03 0.  1.
         12    1    4    4    0    0  0.22458194624E+01  0.84476701034E+01 -0.46512388327E+01  0.99015583577E+01  0.00000000000E+00 0. -1.
</event>
<event>
 8    1  0.3776180E-010  0.9118800E+02  0.7816164E-02  0.1184000E+00
        -11   -1    0    0    0    0  0.00000000000E+00  0.00000000000E+00  0.45593999997E+02  0.45594000000E+02  0.51100000000E-03 0. -1.
         11   -1    0    0    0    0 -0.00000000000E+00 -0.00000000000E+00 -0.45593999997E+02  0.45594000000E+02  0.51100000000E-03 0.  1.
         23    2    1    2    0    0  0.00000000000E+00  0.35527136788E-14  0.00000000000E+00  0.91188000000E+02  0.91188000000E+02 0.  0.
    9900012    2    3    3    0    0  0.12518711781E+02 -0.30608643757E+02  0.28107189518E+02  0.47787293555E+02  0.20000102634E+02 0.  0.
        -12    1    3    3    0    0 -0.12518711781E+02  0.30608643757E+02 -0.28107189518E+02  0.43400706445E+02  0.00000000000E+00 0.  1.
         11    1    4    4    0    0  0.70224620247E+01 -0.26230883069E+02  0.12764011975E+02  0.30004902957E+02  0.51100000000E-03 0. -1.
        -11    1    4    4    0    0  0.23520813516E+01 -0.19290870867E+01  0.15285444933E+01  0.34044253850E+01  0.51100000000E-03 0.  1.
         12    1    4    4    0    0  0.31441684043E+01 -0.24486736015E+01  0.13814633050E+02  0.14377965213E+02  0.00000000000E+00 0. -1.
</event>
<event>
 8    1  0.3776180E-010  0.9118800E+02  0.7816164E-02  0.1184000E+00
        -11   -1    0    0    0    0  0.00000000000E+00  0.00000000000E+00  0.45593999997E+02  0.45594000000E+02  0.51100000000E-03 0. -1.
         11   -1    0    0    0    0 -0.00000000000E+00 -0.00000000000E+00 -0.45593999997E+02  0.45594000000E+02  0.51100000000E-03 0.  1.
         23    2    1    2    0    0  0.00000000000E+00  0.00000000000E+00  0.00000000000E+00  0.91188000000E+02  0.91188000000E+02 0.  0.
    9900012    2    3    3    0    0  0.76766031892E+01  0.26094207805E+02  0.33819892685E+02  0.47787273523E+02  0.20000011302E+02 0.  0.
        -12    1    3    3    0    0 -0.76766031892E+01 -0.26094207805E+02 -0.33819892685E+02  0.43400726477E+02  0.00000000000E+00 0.  1.
         11    1    4    4    0    0 -0.13211325538E+01  0.16500839756E+00 -0.12992089853E+01  0.18602589187E+01  0.51100000000E-03 0.  1.
        -11    1    4    4    0    0  0.42333626638E+01  0.14219634713E+01  0.37208378408E+01  0.58127423868E+01  0.51100000000E-03 0. -1.
         12    1    4    4    0    0  0.47643730792E+01  0.24507235936E+02  0.31398263829E+02  0.40114272218E+02  0.00000000000E+00 0. -1.
</event>
<event>
 8    1  0.3776180E-010  0.9118800E+02  0.7816164E-02  0.1184000E+00
        -11   -1    0    0    0    0  0.00000000000E+00  0.00000000000E+00  0.45593999997E+02  0.45594000000E+02  0.51100000000E-03 0. -1.
         11   -1    0    0    0    0 -0.00000000000E+00 -0.00000000000E+00 -0.45593999997E+02  0.45594000000E+02  0.51100000000E-03 0.  1.
         23    2    1    2    0    0 -0.11102230246E-15  0.71054273576E-14  0.35527136788E-14  0.91188000000E+02  0.91188000000E+02 0.  0.
    9900012    2    3    3    0    0 -0.97217801064E+00  0.38601419294E+02  0.19814349882E+02  0.47787272324E+02  0.20000005834E+02 0.  0.
        -12    1    3    3    0    0  0.97217801064E+00 -0.38601419294E+02 -0.19814349882E+02  0.43400727676E+02  0.00000000000E+00 0.  1.
         11    1    4    4    0    0 -0.39017480853E+00  0.27450850751E+02  0.39757045314E+01  0.27740001264E+02  0.51100000000E-03 0.  1.
        -11    1    4    4    0    0 -0.21980737410E+01  0.24781407558E+01  0.29944693734E+01  0.44653730937E+01  0.51100000000E-03 0. -1.
         12    1    4    4    0    0  0.16160705389E+01  0.86724277868E+01  0.12844175977E+02  0.15581897966E+02  0.00000000000E+00 0. -1.
</event>
<event>
 8    1  0.3776180E-010  0.9118800E+02  0.7816164E-02  0.1184000E+00
        -11   -1    0    0    0    0  0.00000000000E+00  0.00000000000E+00  0.45593999997E+02  0.45594000000E+02  0.51100000000E-03 0. -1.
         11   -1    0    0    0    0 -0.00000000000E+00 -0.00000000000E+00 -0.45593999997E+02  0.45594000000E+02  0.51100000000E-03 0.  1.
         23    2    1    2    0    0 -0.11102230246E-14  0.35527136788E-14  0.00000000000E+00  0.91188000000E+02  0.91188000000E+02 0.  0.
    9900012    2    3    3    0    0 -0.97517396436E+00 -0.21545791775E+02 -0.37662329247E+02  0.47787272451E+02  0.20000006414E+02 0.  0.
         12    1    3    3    0    0  0.97517396436E+00  0.21545791775E+02  0.37662329247E+02  0.43400727549E+02  0.00000000000E+00 0. -1.
         11    1    4    4    0    0  0.70660116237E+00 -0.12534101367E+02 -0.16243422131E+02  0.20529289931E+02  0.51100000000E-03 0. -1.
        -11    1    4    4    0    0 -0.66108693339E+01 -0.89569897141E+01 -0.18314476154E+02  0.21432482244E+02  0.51100000000E-03 0.  1.
         12    1    4    4    0    0  0.49290942071E+01 -0.54700693780E-01 -0.31044309610E+01  0.58255002755E+01  0.00000000000E+00 0. -1.
</event>
<event>
 8    1  0.3776180E-010  0.9118800E+02  0.7816164E-02  0.1184000E+00
        -11   -1    0    0    0    0  0.00000000000E+00  0.00000000000E+00  0.45593999997E+02  0.45594000000E+02  0.51100000000E-03 0. -1.
         11   -1    0    0    0    0 -0.00000000000E+00 -0.00000000000E+00 -0.45593999997E+02  0.45594000000E+02  0.51100000000E-03 0.  1.
         23    2    1    2    0    0  0.00000000000E+00  0.88817841970E-15  0.00000000000E+00  0.91188000000E+02  0.91188000000E+02 0.  0.
    9900012    2    3    3    0    0 -0.33869674748E+02 -0.39597615745E+01 -0.26847510372E+02  0.47787269678E+02  0.19999993771E+02 0.  0.
         12    1    3    3    0    0  0.33869674748E+02  0.39597615745E+01  0.26847510372E+02  0.43400730322E+02  0.00000000000E+00 0. -1.
         11    1    4    4    0    0 -0.60720425972E+01 -0.41404778633E+01 -0.11729482584E+02  0.13841749174E+02  0.51100000000E-03 0.  1.
        -11    1    4    4    0    0 -0.62145023205E+01 -0.32754318919E+01 -0.86648470887E+01  0.11154733009E+02  0.51100000000E-03 0. -1.
         12    1    4    4    0    0 -0.21583129831E+02  0.34561481807E+01 -0.64531806992E+01  0.22790787496E+02  0.00000000000E+00 0. -1.
</event>
<event>
 8    1  0.3776180E-010  0.9118800E+02  0.7816164E-02  0.1184000E+00
        -11   -1    0    0    0    0  0.00000000000E+00  0.00000000000E+00  0.45593999997E+02  0.45594000000E+02  0.51100000000E-03 0. -1.
         11   -1    0    0    0    0 -0.00000000000E+00 -0.00000000000E+00 -0.45593999997E+02  0.45594000000E+02  0.51100000000E-03 0.  1.
         23    2    1    2    0    0  0.00000000000E+00  0.00000000000E+00  0.00000000000E+00  0.91188000000E+02  0.91188000000E+02 0.  0.
    9900012    2    3    3    0    0  0.23341442088E+02 -0.92061549638E+01 -0.35412523811E+02  0.47787273616E+02  0.20000011726E+02 0.  0.
         12    1    3    3    0    0 -0.23341442088E+02  0.92061549638E+01  0.35412523811E+02  0.43400726384E+02  0.00000000000E+00 0. -1.
         11    1    4    4    0    0 -0.84981106427E+00 -0.13837547393E+01 -0.73972939831E+01  0.75734347926E+01  0.51100000000E-03 0. -1.
        -11    1    4    4    0    0  0.24022223047E+01  0.64069248310E+00 -0.11062865557E+02  0.11338789771E+02  0.51100000000E-03 0.  1.
         12    1    4    4    0    0  0.21789030848E+02 -0.84630927076E+01 -0.16952364270E+02  0.28875049053E+02  0.00000000000E+00 0. -1.
</event>
<event>
 8    1  0.3776180E-010  0.9118800E+02  0.7816164E-02  0.1184000E+00
        -11   -1    0    0    0    0  0.00000000000E+00  0.00000000000E+00  0.45593999997E+02  0.45594000000E+02  0.51100000000E-03 0. -1.
         11   -1    0    0    0    0 -0.00000000000E+00 -0.00000000000E+00 -0.45593999997E+02  0.45594000000E+02  0.51100000000E-03 0.  1.
         23    2    1    2    0    0 -0.88817841970E-15  0.35527136788E-14  0.35527136788E-14  0.91188000000E+02  0.91188000000E+02 0.  0.
    9900012    2    3    3    0    0  0.47099143591E+01 -0.30600743270E+02  0.30414380087E+02  0.47787270766E+02  0.19999998730E+02 0.  0.
        -12    1    3    3    0    0 -0.47099143591E+01  0.30600743270E+02 -0.30414380087E+02  0.43400729234E+02  0.00000000000E+00 0.  1.
         11    1    4    4    0    0 -0.17160279918E+01 -0.10414602224E+02  0.11811187480E+02  0.15840228581E+02  0.51100000000E-03 0. -1.
        -11    1    4    4    0    0  0.58247950646E+01 -0.31521034219E+01  0.11925153025E+02  0.13640867584E+02  0.51100000000E-03 0.  1.
         12    1    4    4    0    0  0.60114728632E+00 -0.17034037624E+02  0.66780395827E+01  0.18306174600E+02  0.00000000000E+00 0. -1.
</event>
<event>
 8    1  0.3776180E-010  0.9118800E+02  0.7816164E-02  0.1184000E+00
        -11   -1    0    0    0    0  0.00000000000E+00  0.00000000000E+00  0.45593999997E+02  0.45594000000E+02  0.51100000000E-03 0. -1.
         11   -1    0    0    0    0 -0.00000000000E+00 -0.00000000000E+00 -0.45593999997E+02  0.45594000000E+02  0.51100000000E-03 0.  1.
         23    2    1    2    0    0  0.88817841970E-15  0.00000000000E+00 -0.35527136788E-14  0.91188000000E+02  0.91188000000E+02 0.  0.
    9900012    2    3    3    0    0 -0.65348178085E+01 -0.32445121920E+02 -0.28075495878E+02  0.47787271331E+02  0.20000001307E+02 0.  0.
         12    1    3    3    0    0  0.65348178085E+01  0.32445121920E+02  0.28075495878E+02  0.43400728669E+02  0.00000000000E+00 0. -1.
         11    1    4    4    0    0  0.27586662695E+01 -0.12146455574E+01 -0.45736632441E+01  0.54775906336E+01  0.51100000000E-03 0. -1.
        -11    1    4    4    0    0  0.21269770163E+01 -0.17319633166E+01 -0.48942680191E+01  0.56104890929E+01  0.51100000000E-03 0.  1.
        -12    1    4    4    0    0 -0.11420461094E+02 -0.29498513046E+02 -0.18607564615E+02  0.36699191605E+02  0.00000000000E+00 0.  1.
</event>
<event>
 8    1  0.3776180E-010  0.9118800E+02  0.7816164E-02  0.1184000E+00
        -11   -1    0    0    0    0  0.00000000000E+00  0.00000000000E+00  0.45593999997E+02  0.45594000000E+02  0.51100000000E-03 0. -1.
         11   -1    0    0    0    0 -0.00000000000E+00 -0.00000000000E+00 -0.45593999997E+02  0.45594000000E+02  0.51100000000E-03 0.  1.
         23    2    1    2    0    0  0.00000000000E+00  0.00000000000E+00  0.71054273576E-14  0.91188000000E+02  0.91188000000E+02 0.  0.
    9900012    2    3    3    0    0 -0.18838077051E+02  0.10733448604E+02  0.37597111154E+02  0.47787276123E+02  0.20000023156E+02 0.  0.
        -12    1    3    3    0    0  0.18838077051E+02 -0.10733448604E+02 -0.37597111154E+02  0.43400723877E+02  0.00000000000E+00 0.  1.
         11    1    4    4    0    0 -0.96594571582E+01  0.11125583382E+02  0.15148048196E+02  0.21131660668E+02  0.51100000000E-03 0. -1.
        -11    1    4    4    0    0 -0.94713239097E+01  0.15229659122E+01  0.92876240824E+01  0.13352354217E+02  0.51100000000E-03 0.  1.
        -12    1    4    4    0    0  0.29270401682E+00 -0.19151006907E+01  0.13161438876E+02  0.13303261238E+02  0.00000000000E+00 0.  1.
</event>
<event>
 8    1  0.3776180E-010  0.9118800E+02  0.7816164E-02  0.1184000E+00
        -11   -1    0    0    0    0  0.00000000000E+00  0.00000000000E+00  0.45593999997E+02  0.45594000000E+02  0.51100000000E-03 0. -1.
         11   -1    0    0    0    0 -0.00000000000E+00 -0.00000000000E+00 -0.45593999997E+02  0.45594000000E+02  0.51100000000E-03 0.  1.
         23    2    1    2    0    0 -0.44408920985E-15  0.00000000000E+00  0.71054273576E-14  0.91188000000E+02  0.91188000000E+02 0.  0.
    9900012    2    3    3    0    0  0.36527619956E+01 -0.85702766544E+01 -0.42389040575E+02  0.47787273359E+02  0.20000010551E+02 0.  0.
         12    1    3    3    0    0 -0.36527619956E+01  0.85702766544E+01  0.42389040575E+02  0.43400726641E+02  0.00000000000E+00 0. -1.
         11    1    4    4    0    0  0.49231721039E+01 -0.46913345285E+01 -0.11263569065E+02  0.13157288154E+02  0.51100000000E-03 0. -1.
        -11    1    4    4    0    0  0.60161364616E+01 -0.47466154643E+01 -0.18543303047E+02  0.20064355072E+02  0.51100000000E-03 0.  1.
         12    1    4    4    0    0 -0.72865465699E+01  0.86767333845E+00 -0.12582168463E+02  0.14565630133E+02  0.00000000000E+00 0. -1.
</event>
<event>
 8    1  0.3776180E-010  0.9118800E+02  0.7816164E-02  0.1184000E+00
        -11   -1    0    0    0    0  0.00000000000E+00  0.00000000000E+00  0.45593999997E+02  0.45594000000E+02  0.51100000000E-03 0. -1.
         11   -1    0    0    0    0 -0.00000000000E+00 -0.00000000000E+00 -0.45593999997E+02  0.45594000000E+02  0.51100000000E-03 0.  1.
         23    2    1    2    0    0  0.17763568394E-14 -0.71054273576E-14  0.35527136788E-14  0.91188000000E+02  0.91188000000E+02 0.  0.
    9900012    2    3    3    0    0 -0.15463198717E+02  0.34384156920E+02 -0.21499828252E+02  0.47787269862E+02  0.19999994609E+02 0.  0.
         12    1    3    3    0    0  0.15463198717E+02 -0.34384156920E+02  0.21499828252E+02  0.43400730138E+02  0.00000000000E+00 0. -1.
         11    1    4    4    0    0 -0.30625304743E+01  0.29355166853E+01 -0.73521503327E+01  0.84882545845E+01  0.51100000000E-03 0. -1.
        -11    1    4    4    0    0 -0.36633062524E-02  0.19015902668E+02 -0.87362157785E+01  0.20926682347E+02  0.51100000000E-03 0.  1.
         12    1    4    4    0    0 -0.12397004936E+02  0.12432737567E+02 -0.54114621408E+01  0.18372332930E+02  0.00000000000E+00 0. -1.
</event>
<event>
 8    1  0.3776180E-010  0.9118800E+02  0.7816164E-02  0.1184000E+00
        -11   -1    0    0    0    0  0.00000000000E+00  0.00000000000E+00  0.45593999997E+02  0.45594000000E+02  0.51100000000E-03 0. -1.
         11   -1    0    0    0    0 -0.00000000000E+00 -0.00000000000E+00 -0.45593999997E+02  0.45594000000E+02  0.51100000000E-03 0.  1.
         23    2    1    2    0    0  0.00000000000E+00 -0.35527136788E-14  0.00000000000E+00  0.91188000000E+02  0.91188000000E+02 0.  0.
    9900012    2    3    3    0    0  0.13063516652E+02  0.20020539654E+02  0.36223537526E+02  0.47787284036E+02  0.20000059233E+02 0.  0.
        -12    1    3    3    0    0 -0.13063516652E+02 -0.20020539654E+02 -0.36223537526E+02  0.43400715964E+02  0.00000000000E+00 0.  1.
         11    1    4    4    0    0  0.94687951469E+01  0.13272682861E+02  0.15661570906E+02  0.22607675586E+02  0.51100000000E-03 0. -1.
        -11    1    4    4    0    0  0.12033767317E+01  0.95563532666E+01  0.18729153261E+02  0.21060702397E+02  0.51100000000E-03 0.  1.
        -12    1    4    4    0    0  0.23913447730E+01 -0.28084964745E+01  0.18328133585E+01  0.41189060535E+01  0.00000000000E+00 0.  1.
</event>
<event>
 8    1  0.3776180E-010  0.9118800E+02  0.7816164E-02  0.1184000E+00
        -11   -1    0    0    0    0  0.00000000000E+00  0.00000000000E+00  0.45593999997E+02  0.45594000000E+02  0.51100000000E-03 0. -1.
         11   -1    0    0    0    0 -0.00000000000E+00 -0.00000000000E+00 -0.45593999997E+02  0.45594000000E+02  0.51100000000E-03 0.  1.
         23    2    1    2    0    0  0.00000000000E+00 -0.17763568394E-14  0.00000000000E+00  0.91188000000E+02  0.91188000000E+02 0.  0.
    9900012    2    3    3    0    0 -0.53944485518E+01 -0.11518507320E+02 -0.41495144188E+02  0.47787273309E+02  0.20000010326E+02 0.  0.
         12    1    3    3    0    0  0.53944485518E+01  0.11518507320E+02  0.41495144188E+02  0.43400726691E+02  0.00000000000E+00 0. -1.
         11    1    4    4    0    0  0.48058638564E+01 -0.91821588042E+01 -0.16359955074E+02  0.19366375448E+02  0.51100000000E-03 0. -1.
        -11    1    4    4    0    0 -0.45721566504E+00  0.12425570069E+01 -0.98866500031E+01  0.99749106575E+01  0.51100000000E-03 0.  1.
        -12    1    4    4    0    0 -0.97430967432E+01 -0.35789055228E+01 -0.15248539111E+02  0.18445987204E+02  0.00000000000E+00 0.  1.
</event>
<event>
 8    1  0.3776180E-010  0.9118800E+02  0.7816164E-02  0.1184000E+00
        -11   -1    0    0    0    0  0.00000000000E+00  0.00000000000E+00  0.45593999997E+02  0.45594000000E+02  0.51100000000E-03 0. -1.
         11   -1    0    0    0    0 -0.00000000000E+00 -0.00000000000E+00 -0.45593999997E+02  0.45594000000E+02  0.51100000000E-03 0.  1.
         23    2    1    2    0    0 -0.17763568394E-14 -0.17763568394E-14 -0.71054273576E-14  0.91188000000E+02  0.91188000000E+02 0.  0.
    9900012    2    3    3    0    0 -0.11178116303E+02 -0.97176884886E+01 -0.40795091920E+02  0.47787270993E+02  0.19999999763E+02 0.  0.
         12    1    3    3    0    0  0.11178116303E+02  0.97176884886E+01  0.40795091920E+02  0.43400729007E+02  0.00000000000E+00 0. -1.
         11    1    4    4    0    0 -0.63081052569E+01 -0.12348472873E+02 -0.30160040562E+02  0.33194954755E+02  0.51100000000E-03 0.  1.
        -11    1    4    4    0    0 -0.53841160859E+01  0.28419216694E+01 -0.11813160220E+02  0.13289694483E+02  0.51100000000E-03 0. -1.
        -12    1    4    4    0    0  0.51410503959E+00 -0.21113728541E+00  0.11781088623E+01  0.13026217550E+01  0.00000000000E+00 0.  1.
</event>
<event>
 8    1  0.3776180E-010  0.9118800E+02  0.7816164E-02  0.1184000E+00
        -11   -1    0    0    0    0  0.00000000000E+00  0.00000000000E+00  0.45593999997E+02  0.45594000000E+02  0.51100000000E-03 0. -1.
         11   -1    0    0    0    0 -0.00000000000E+00 -0.00000000000E+00 -0.45593999997E+02  0.45594000000E+02  0.51100000000E-03 0.  1.
         23    2    1    2    0    0  0.00000000000E+00 -0.88817841970E-15  0.71054273576E-14  0.91188000000E+02  0.91188000000E+02 0.  0.
    9900012    2    3    3    0    0  0.16323332474E+02  0.65592120243E+01  0.39675541370E+02  0.47787273871E+02  0.20000012889E+02 0.  0.
        -12    1    3    3    0    0 -0.16323332474E+02 -0.65592120243E+01 -0.39675541370E+02  0.43400726129E+02  0.00000000000E+00 0.  1.
         11    1    4    4    0    0  0.46227575878E+01  0.28583785988E+01  0.72627751662E+01  0.90712799155E+01  0.51100000000E-03 0. -1.
        -11    1    4    4    0    0  0.20791538404E+01  0.80065856632E+01  0.58315697379E+01  0.10121042463E+02  0.51100000000E-03 0.  1.
         12    1    4    4    0    0  0.96214210463E+01 -0.43057522377E+01  0.26581196466E+02  0.28594951493E+02  0.00000000000E+00 0. -1.
</event>
<event>
 8    1  0.3776180E-010  0.9118800E+02  0.7816164E-02  0.1184000E+00
        -11   -1    0    0    0    0  0.00000000000E+00  0.00000000000E+00  0.45593999997E+02  0.45594000000E+02  0.51100000000E-03 0. -1.
         11   -1    0    0    0    0 -0.00000000000E+00 -0.00000000000E+00 -0.45593999997E+02  0.45594000000E+02  0.51100000000E-03 0.  1.
         23    2    1    2    0    0  0.00000000000E+00  0.00000000000E+00  0.00000000000E+00  0.91188000000E+02  0.91188000000E+02 0.  0.
    9900012    2    3    3    0    0 -0.12621547835E+02  0.26882010786E+02  0.31649213674E+02  0.47787323740E+02  0.20000240258E+02 0.  0.
        -12    1    3    3    0    0  0.12621547835E+02 -0.26882010786E+02 -0.31649213674E+02  0.43400676260E+02  0.00000000000E+00 0.  1.
         11    1    4    4    0    0  0.23444982160E+01  0.45955768863E+00  0.15518257501E+01  0.28488644358E+01  0.51100000000E-03 0. -1.
        -11    1    4    4    0    0 -0.48745044720E+01  0.27247654352E+01  0.12651956250E+02  0.13829574749E+02  0.51100000000E-03 0.  1.
        -12    1    4    4    0    0 -0.10091541579E+02  0.23697687663E+02  0.17445431674E+02  0.31108884555E+02  0.00000000000E+00 0.  1.
</event>
<event>
 8    1  0.3776180E-010  0.9118800E+02  0.7816164E-02  0.1184000E+00
        -11   -1    0    0    0    0  0.00000000000E+00  0.00000000000E+00  0.45593999997E+02  0.45594000000E+02  0.51100000000E-03 0. -1.
         11   -1    0    0    0    0 -0.00000000000E+00 -0.00000000000E+00 -0.45593999997E+02  0.45594000000E+02  0.51100000000E-03 0.  1.
         23    2    1    2    0    0  0.00000000000E+00  0.00000000000E+00 -0.35527136788E-14  0.91188000000E+02  0.91188000000E+02 0.  0.
    9900012    2    3    3    0    0  0.48933026050E+01  0.32179281817E+02 -0.28708366258E+02  0.47787298602E+02  0.20000125645E+02 0.  0.
         12    1    3    3    0    0 -0.48933026050E+01 -0.32179281817E+02  0.28708366258E+02  0.43400701398E+02  0.00000000000E+00 0. -1.
         11    1    4    4    0    0 -0.16201448699E+01  0.77087398631E+01 -0.33821150236E+01  0.85725283301E+01  0.51100000000E-03 0. -1.
        -11    1    4    4    0    0 -0.13754869671E+01  0.85625123487E+01 -0.49306369224E+00  0.86862934664E+01  0.51100000000E-03 0.  1.
        -12    1    4    4    0    0  0.78889344420E+01  0.15908029605E+02 -0.24833187542E+02  0.30528476805E+02  0.00000000000E+00 0.  1.
</event>
<event>
 8    1  0.3776180E-010  0.9118800E+02  0.7816164E-02  0.1184000E+00
        -11   -1    0    0    0    0  0.00000000000E+00  0.00000000000E+00  0.45593999997E+02  0.45594000000E+02  0.51100000000E-03 0.  1.
         11   -1    0    0    0    0 -0.00000000000E+00 -0.00000000000E+00 -0.45593999997E+02  0.45594000000E+02  0.51100000000E-03 0. -1.
         23    2    1    2    0    0 -0.71054273576E-14 -0.17763568394E-14  0.17763568394E-14  0.91188000000E+02  0.91188000000E+02 0.  0.
    9900012    2    3    3    0    0  0.40833706110E+02  0.10543180868E+02 -0.10250499159E+02  0.47787274770E+02  0.20000016986E+02 0.  0.
         12    1    3    3    0    0 -0.40833706110E+02 -0.10543180868E+02  0.10250499159E+02  0.43400725230E+02  0.00000000000E+00 0. -1.
         11    1    4    4    0    0  0.33689746604E+01 -0.45863466746E+00 -0.36200389791E+01  0.49663888784E+01  0.51100000000E-03 0. -1.
        -11    1    4    4    0    0  0.37113204698E+02  0.66902667613E+01 -0.73905434376E+01  0.38428762208E+02  0.51100000000E-03 0.  1.
         12    1    4    4    0    0  0.35152675167E+00  0.43115487745E+01  0.76008325769E+00  0.43921236834E+01  0.00000000000E+00 0. -1.
</event>
<event>
 8    1  0.3776180E-010  0.9118800E+02  0.7816164E-02  0.1184000E+00
        -11   -1    0    0    0    0  0.00000000000E+00  0.00000000000E+00  0.45593999997E+02  0.45594000000E+02  0.51100000000E-03 0. -1.
         11   -1    0    0    0    0 -0.00000000000E+00 -0.00000000000E+00 -0.45593999997E+02  0.45594000000E+02  0.51100000000E-03 0.  1.
         23    2    1    2    0    0  0.44408920985E-15 -0.88817841970E-15  0.00000000000E+00  0.91188000000E+02  0.91188000000E+02 0.  0.
    9900012    2    3    3    0    0  0.38435500305E+00  0.57645423944E+01  0.43014480332E+02  0.47787271942E+02  0.20000004092E+02 0.  0.
        -12    1    3    3    0    0 -0.38435500305E+00 -0.57645423944E+01 -0.43014480332E+02  0.43400728058E+02  0.00000000000E+00 0.  1.
         11    1    4    4    0    0 -0.24605771885E+01 -0.18033097259E-02  0.60652219439E+00  0.25342282427E+01  0.51100000000E-03 0. -1.
        -11    1    4    4    0    0  0.17955168689E+01  0.48620483434E+01  0.33518626878E+01  0.61723884080E+01  0.51100000000E-03 0.  1.
         12    1    4    4    0    0  0.10494153227E+01  0.90429736072E+00  0.39056095449E+02  0.39080655291E+02  0.00000000000E+00 0. -1.
</event>
<event>
 8    1  0.3776180E-010  0.9118800E+02  0.7816164E-02  0.1184000E+00
        -11   -1    0    0    0    0  0.00000000000E+00  0.00000000000E+00  0.45593999997E+02  0.45594000000E+02  0.51100000000E-03 0. -1.
         11   -1    0    0    0    0 -0.00000000000E+00 -0.00000000000E+00 -0.45593999997E+02  0.45594000000E+02  0.51100000000E-03 0.  1.
         23    2    1    2    0    0  0.00000000000E+00  0.71054273576E-14  0.35527136788E-14  0.91188000000E+02  0.91188000000E+02 0.  0.
    9900012    2    3    3    0    0 -0.10953487503E+02  0.31640175614E+02 -0.27614192895E+02  0.47787271312E+02  0.20000001221E+02 0.  0.
         12    1    3    3    0    0  0.10953487503E+02 -0.31640175614E+02  0.27614192895E+02  0.43400728688E+02  0.00000000000E+00 0. -1.
         11    1    4    4    0    0 -0.73384569126E+01  0.26747335157E+01 -0.87906223270E+00  0.78600190781E+01  0.51100000000E-03 0. -1.
        -11    1    4    4    0    0 -0.38162699278E+01  0.28205576003E+02 -0.24489514347E+02  0.37548032532E+02  0.51100000000E-03 0.  1.
         12    1    4    4    0    0  0.20123933724E+00  0.75986609567E+00 -0.22456163159E+01  0.23792197024E+01  0.00000000000E+00 0. -1.
</event>
<event>
 8    1  0.3776180E-010  0.9118800E+02  0.7816164E-02  0.1184000E+00
        -11   -1    0    0    0    0  0.00000000000E+00  0.00000000000E+00  0.45593999997E+02  0.45594000000E+02  0.51100000000E-03 0.  1.
         11   -1    0    0    0    0 -0.00000000000E+00 -0.00000000000E+00 -0.45593999997E+02  0.45594000000E+02  0.51100000000E-03 0. -1.
         23    2    1    2    0    0  0.00000000000E+00  0.00000000000E+00  0.00000000000E+00  0.91188000000E+02  0.91188000000E+02 0.  0.
    9900012    2    3    3    0    0 -0.33015936677E+02  0.23963745173E+02 -0.14809118761E+02  0.47787272404E+02  0.20000006199E+02 0.  0.
         12    1    3    3    0    0  0.33015936677E+02 -0.23963745173E+02  0.14809118761E+02  0.43400727596E+02  0.00000000000E+00 0. -1.
         11    1    4    4    0    0  0.12965898349E+01  0.24315009237E+01 -0.35443082073E+01  0.44894835862E+01  0.51100000000E-03 0. -1.
        -11    1    4    4    0    0 -0.96388291043E+01  0.19106606740E+01 -0.54660286553E+01  0.11244337252E+02  0.51100000000E-03 0.  1.
        -12    1    4    4    0    0 -0.24673697408E+02  0.19621583576E+02 -0.57987818981E+01  0.32053451566E+02  0.00000000000E+00 0.  1.
</event>
<event>
 8    1  0.3776180E-010  0.9118800E+02  0.7816164E-02  0.1184000E+00
        -11   -1    0    0    0    0  0.00000000000E+00  0.00000000000E+00  0.45593999997E+02  0.45594000000E+02  0.51100000000E-03 0. -1.
         11   -1    0    0    0    0 -0.00000000000E+00 -0.00000000000E+00 -0.45593999997E+02  0.45594000000E+02  0.51100000000E-03 0.  1.
         23    2    1    2    0    0  0.35527136788E-14  0.35527136788E-14  0.35527136788E-14  0.91188000000E+02  0.91188000000E+02 0.  0.
    9900012    2    3    3    0    0 -0.21121250981E+02 -0.29410416700E+02 -0.23927911724E+02  0.47787253314E+02  0.19999919158E+02 0.  0.
         12    1    3    3    0    0  0.21121250981E+02  0.29410416700E+02  0.23927911724E+02  0.43400746686E+02  0.00000000000E+00 0. -1.
         11    1    4    4    0    0 -0.17734756437E+01 -0.14734600555E+02 -0.10648895894E+02  0.18266161430E+02  0.51100000000E-03 0. -1.
        -11    1    4    4    0    0 -0.56162121473E+01 -0.77709969941E+01 -0.99045822053E+01  0.13785172545E+02  0.51100000000E-03 0.  1.
         12    1    4    4    0    0 -0.13731563190E+02 -0.69048191508E+01 -0.33744336243E+01  0.15735919339E+02  0.00000000000E+00 0. -1.
</event>
<event>
 8    1  0.3776180E-010  0.9118800E+02  0.7816164E-02  0.1184000E+00
        -11   -1    0    0    0    0  0.00000000000E+00  0.00000000000E+00  0.45593999997E+02  0.45594000000E+02  0.51100000000E-03 0. -1.
         11   -1    0    0    0    0 -0.00000000000E+00 -0.00000000000E+00 -0.45593999997E+02  0.45594000000E+02  0.51100000000E-03 0.  1.
         23    2    1    2    0    0 -0.77715611724E-15  0.44408920985E-15 -0.71054273576E-14  0.91188000000E+02  0.91188000000E+02 0.  0.
    9900012    2    3    3    0    0 -0.65184688741E+00 -0.27819552180E+01  0.43306571847E+02  0.47787270232E+02  0.19999996297E+02 0.  0.
        -12    1    3    3    0    0  0.65184688741E+00  0.27819552180E+01 -0.43306571847E+02  0.43400729768E+02  0.00000000000E+00 0.  1.
         11    1    4    4    0    0  0.19059688554E+01 -0.11825265193E+01  0.49410837588E+01  0.54263611398E+01  0.51100000000E-03 0. -1.
        -11    1    4    4    0    0  0.50086285166E+01 -0.86658009167E+00  0.32127896276E+02  0.32527512048E+02  0.51100000000E-03 0.  1.
         12    1    4    4    0    0 -0.75664442594E+01 -0.73284860711E+00  0.62375918130E+01  0.98333970446E+01  0.00000000000E+00 0. -1.
</event>
<event>
 8    1  0.3776180E-010  0.9118800E+02  0.7816164E-02  0.1184000E+00
        -11   -1    0    0    0    0  0.00000000000E+00  0.00000000000E+00  0.45593999997E+02  0.45594000000E+02  0.51100000000E-03 0. -1.
         11   -1    0    0    0    0 -0.00000000000E+00 -0.00000000000E+00 -0.45593999997E+02  0.45594000000E+02  0.51100000000E-03 0.  1.
         23    2    1    2    0    0 -0.44408920985E-15  0.00000000000E+00  0.00000000000E+00  0.91188000000E+02  0.91188000000E+02 0.  0.
    9900012    2    3    3    0    0 -0.25500540921E+01 -0.58139085571E+01 -0.42933889983E+02  0.47787271692E+02  0.20000002953E+02 0.  0.
         12    1    3    3    0    0  0.25500540921E+01  0.58139085571E+01  0.42933889983E+02  0.43400728308E+02  0.00000000000E+00 0. -1.
         11    1    4    4    0    0 -0.85792033731E+00 -0.28056462264E-02  0.12402377694E+01  0.15080534349E+01  0.51100000000E-03 0. -1.
        -11    1    4    4    0    0 -0.22522255498E+00  0.36332762364E+01 -0.19130889962E+02  0.19474146257E+02  0.51100000000E-03 0.  1.
         12    1    4    4    0    0 -0.14669111998E+01 -0.94443791472E+01 -0.25043237790E+02  0.26805072001E+02  0.00000000000E+00 0. -1.
</event>
<event>
 8    1  0.3776180E-010  0.9118800E+02  0.7816164E-02  0.1184000E+00
        -11   -1    0    0    0    0  0.00000000000E+00  0.00000000000E+00  0.45593999997E+02  0.45594000000E+02  0.51100000000E-03 0. -1.
         11   -1    0    0    0    0 -0.00000000000E+00 -0.00000000000E+00 -0.45593999997E+02  0.45594000000E+02  0.51100000000E-03 0.  1.
         23    2    1    2    0    0  0.00000000000E+00  0.00000000000E+00  0.00000000000E+00  0.91188000000E+02  0.91188000000E+02 0.  0.
    9900012    2    3    3    0    0  0.20978008496E+02  0.13254602836E+02  0.35607052834E+02  0.47787267883E+02  0.19999985585E+02 0.  0.
        -12    1    3    3    0    0 -0.20978008496E+02 -0.13254602836E+02 -0.35607052834E+02  0.43400732117E+02  0.00000000000E+00 0.  1.
         11    1    4    4    0    0  0.12095571469E+02  0.71870474505E+00  0.12060813788E+02  0.17096274892E+02  0.51100000000E-03 0. -1.
        -11    1    4    4    0    0  0.42282280376E+01  0.57309412855E+01  0.16732044880E+01  0.73158194261E+01  0.51100000000E-03 0.  1.
         12    1    4    4    0    0  0.46542089888E+01  0.68049568057E+01  0.21873034558E+02  0.23375173565E+02  0.00000000000E+00 0. -1.
</event>
<event>
 8    1  0.3776180E-010  0.9118800E+02  0.7816164E-02  0.1184000E+00
        -11   -1    0    0    0    0  0.00000000000E+00  0.00000000000E+00  0.45593999997E+02  0.45594000000E+02  0.51100000000E-03 0. -1.
         11   -1    0    0    0    0 -0.00000000000E+00 -0.00000000000E+00 -0.45593999997E+02  0.45594000000E+02  0.51100000000E-03 0.  1.
         23    2    1    2    0    0  0.35527136788E-14  0.00000000000E+00  0.00000000000E+00  0.91188000000E+02  0.91188000000E+02 0.  0.
    9900012    2    3    3    0    0 -0.28039074081E+02 -0.12673147244E+02 -0.30607577989E+02  0.47787283799E+02  0.20000058152E+02 0.  0.
         12    1    3    3    0    0  0.28039074081E+02  0.12673147244E+02  0.30607577989E+02  0.43400716201E+02  0.00000000000E+00 0. -1.
         11    1    4    4    0    0  0.56759618692E-01  0.44505698060E+00 -0.63908375167E+01  0.64065670835E+01  0.51100000000E-03 0. -1.
        -11    1    4    4    0    0 -0.29324102216E+00 -0.43668736837E+01 -0.25825499855E+01  0.50818442277E+01  0.51100000000E-03 0.  1.
        -12    1    4    4    0    0 -0.27802592677E+02 -0.87513305413E+01 -0.21634190487E+02  0.36298872488E+02  0.00000000000E+00 0.  1.
</event>
<event>
 8    1  0.3776180E-010  0.9118800E+02  0.7816164E-02  0.1184000E+00
        -11   -1    0    0    0    0  0.00000000000E+00  0.00000000000E+00  0.45593999997E+02  0.45594000000E+02  0.51100000000E-03 0. -1.
         11   -1    0    0    0    0 -0.00000000000E+00 -0.00000000000E+00 -0.45593999997E+02  0.45594000000E+02  0.51100000000E-03 0.  1.
         23    2    1    2    0    0 -0.33306690739E-15  0.00000000000E+00  0.00000000000E+00  0.91188000000E+02  0.91188000000E+02 0.  0.
    9900012    2    3    3    0    0  0.28262918928E+00  0.20161694219E+02  0.38432402549E+02  0.47787270067E+02  0.19999995543E+02 0.  0.
        -12    1    3    3    0    0 -0.28262918928E+00 -0.20161694219E+02 -0.38432402549E+02  0.43400729933E+02  0.00000000000E+00 0.  1.
         11    1    4    4    0    0  0.61421068082E+01  0.49158313432E+00  0.15963724352E+02  0.17111622526E+02  0.51100000000E-03 0. -1.
        -11    1    4    4    0    0 -0.43527526341E+00  0.43451171882E+00  0.18970484950E+01  0.19942563131E+01  0.51100000000E-03 0.  1.
        -12    1    4    4    0    0 -0.54242023555E+01  0.19235599366E+02  0.20571629701E+02  0.28681391227E+02  0.00000000000E+00 0.  1.
</event>
<event>
 8    1  0.3776180E-010  0.9118800E+02  0.7816164E-02  0.1184000E+00
        -11   -1    0    0    0    0  0.00000000000E+00  0.00000000000E+00  0.45593999997E+02  0.45594000000E+02  0.51100000000E-03 0. -1.
         11   -1    0    0    0    0 -0.00000000000E+00 -0.00000000000E+00 -0.45593999997E+02  0.45594000000E+02  0.51100000000E-03 0.  1.
         23    2    1    2    0    0  0.00000000000E+00  0.44408920985E-15  0.00000000000E+00  0.91188000000E+02  0.91188000000E+02 0.  0.
    9900012    2    3    3    0    0 -0.83354593697E+01 -0.36585434591E+01 -0.42435343577E+02  0.47787271807E+02  0.20000003478E+02 0.  0.
         12    1    3    3    0    0  0.83354593697E+01  0.36585434591E+01  0.42435343577E+02  0.43400728193E+02  0.00000000000E+00 0. -1.
         11    1    4    4    0    0 -0.90251406657E+01  0.58678764827E+00 -0.18810822929E+02  0.20872099639E+02  0.51100000000E-03 0.  1.
        -11    1    4    4    0    0 -0.38619083268E+00 -0.39178046629E+01 -0.74332284787E+00  0.40063531863E+01  0.51100000000E-03 0. -1.
        -12    1    4    4    0    0  0.10758721286E+01 -0.32752644444E+00 -0.22881197800E+02  0.22908818982E+02  0.00000000000E+00 0.  1.
</event>
<event>
 8    1  0.3776180E-010  0.9118800E+02  0.7816164E-02  0.1184000E+00
        -11   -1    0    0    0    0  0.00000000000E+00  0.00000000000E+00  0.45593999997E+02  0.45594000000E+02  0.51100000000E-03 0. -1.
         11   -1    0    0    0    0 -0.00000000000E+00 -0.00000000000E+00 -0.45593999997E+02  0.45594000000E+02  0.51100000000E-03 0.  1.
         23    2    1    2    0    0 -0.17763568394E-14  0.00000000000E+00 -0.71054273576E-14  0.91188000000E+02  0.91188000000E+02 0.  0.
    9900012    2    3    3    0    0  0.10000097791E+02 -0.13614532573E+02  0.39978321521E+02  0.47787266773E+02  0.19999980525E+02 0.  0.
        -12    1    3    3    0    0 -0.10000097791E+02  0.13614532573E+02 -0.39978321521E+02  0.43400733227E+02  0.00000000000E+00 0.  1.
         11    1    4    4    0    0  0.50611560758E+01 -0.64796840609E+01  0.39754551330E+01  0.91326803365E+01  0.51100000000E-03 0.  1.
        -11    1    4    4    0    0 -0.15238890260E+01 -0.48938396263E+01  0.60441394600E+01  0.79248675777E+01  0.51100000000E-03 0. -1.
         12    1    4    4    0    0  0.64628307415E+01 -0.22410088860E+01  0.29958726928E+02  0.30729718859E+02  0.00000000000E+00 0. -1.
</event>
<event>
 8    1  0.3776180E-010  0.9118800E+02  0.7816164E-02  0.1184000E+00
        -11   -1    0    0    0    0  0.00000000000E+00  0.00000000000E+00  0.45593999997E+02  0.45594000000E+02  0.51100000000E-03 0.  1.
         11   -1    0    0    0    0 -0.00000000000E+00 -0.00000000000E+00 -0.45593999997E+02  0.45594000000E+02  0.51100000000E-03 0. -1.
         23    2    1    2    0    0  0.00000000000E+00  0.00000000000E+00  0.00000000000E+00  0.91188000000E+02  0.91188000000E+02 0.  0.
    9900012    2    3    3    0    0  0.32118628535E+02  0.20149577298E+02  0.21118994527E+02  0.47787266203E+02  0.19999977927E+02 0.  0.
        -12    1    3    3    0    0 -0.32118628535E+02 -0.20149577298E+02 -0.21118994527E+02  0.43400733797E+02  0.00000000000E+00 0.  1.
         11    1    4    4    0    0  0.25928400908E+01  0.10500149617E+01 -0.42782129829E+00  0.28299085640E+01  0.51100000000E-03 0. -1.
        -11    1    4    4    0    0  0.14981258881E+02 -0.20182968154E+00  0.11006922593E+02  0.18591159138E+02  0.51100000000E-03 0.  1.
         12    1    4    4    0    0  0.14544529564E+02  0.19301392018E+02  0.10539893232E+02  0.26366198501E+02  0.00000000000E+00 0. -1.
</event>
<event>
 8    1  0.3776180E-010  0.9118800E+02  0.7816164E-02  0.1184000E+00
        -11   -1    0    0    0    0  0.00000000000E+00  0.00000000000E+00  0.45593999997E+02  0.45594000000E+02  0.51100000000E-03 0. -1.
         11   -1    0    0    0    0 -0.00000000000E+00 -0.00000000000E+00 -0.45593999997E+02  0.45594000000E+02  0.51100000000E-03 0.  1.
         23    2    1    2    0    0  0.34000580129E-15  0.35527136788E-14  0.00000000000E+00  0.91188000000E+02  0.91188000000E+02 0.  0.
    9900012    2    3    3    0    0  0.26063432658E-01 -0.25871879260E+02  0.34846362068E+02  0.47787265385E+02  0.19999974198E+02 0.  0.
        -12    1    3    3    0    0 -0.26063432658E-01  0.25871879260E+02 -0.34846362068E+02  0.43400734615E+02  0.00000000000E+00 0.  1.
         11    1    4    4    0    0  0.71437589314E+00 -0.30032847190E+00 -0.16318158309E+01  0.18064753735E+01  0.51100000000E-03 0. -1.
        -11    1    4    4    0    0  0.10090045892E+01 -0.73631780216E+01  0.33754874833E+01  0.81626219347E+01  0.51100000000E-03 0.  1.
         12    1    4    4    0    0 -0.16973170497E+01 -0.18208372767E+02  0.33102690415E+02  0.37818168077E+02  0.00000000000E+00 0. -1.
</event>
<event>
 8    1  0.3776180E-010  0.9118800E+02  0.7816164E-02  0.1184000E+00
        -11   -1    0    0    0    0  0.00000000000E+00  0.00000000000E+00  0.45593999997E+02  0.45594000000E+02  0.51100000000E-03 0. -1.
         11   -1    0    0    0    0 -0.00000000000E+00 -0.00000000000E+00 -0.45593999997E+02  0.45594000000E+02  0.51100000000E-03 0.  1.
         23    2    1    2    0    0  0.00000000000E+00 -0.71054273576E-14  0.00000000000E+00  0.91188000000E+02  0.91188000000E+02 0.  0.
    9900012    2    3    3    0    0  0.18226824056E+01  0.39552112771E+02 -0.17774458442E+02  0.47787272256E+02  0.20000005524E+02 0.  0.
         12    1    3    3    0    0 -0.18226824056E+01 -0.39552112771E+02  0.17774458442E+02  0.43400727744E+02  0.00000000000E+00 0. -1.
         11    1    4    4    0    0 -0.24351127971E+01  0.52814271374E+01 -0.10602129201E+01  0.59116240272E+01  0.51100000000E-03 0. -1.
        -11    1    4    4    0    0  0.79835373203E+00  0.23874256170E+02 -0.19191760379E+02  0.30642146515E+02  0.51100000000E-03 0.  1.
        -12    1    4    4    0    0  0.34594414707E+01  0.10396429464E+02  0.24775148572E+01  0.11233501714E+02  0.00000000000E+00 0.  1.
</event>
<event>
 8    1  0.3776180E-010  0.9118800E+02  0.7816164E-02  0.1184000E+00
        -11   -1    0    0    0    0  0.00000000000E+00  0.00000000000E+00  0.45593999997E+02  0.45594000000E+02  0.51100000000E-03 0. -1.
         11   -1    0    0    0    0 -0.00000000000E+00 -0.00000000000E+00 -0.45593999997E+02  0.45594000000E+02  0.51100000000E-03 0.  1.
         23    2    1    2    0    0  0.00000000000E+00  0.35527136788E-14 -0.71054273576E-14  0.91188000000E+02  0.91188000000E+02 0.  0.
    9900012    2    3    3    0    0  0.14135091503E+02  0.16898815381E+02 -0.37393213602E+02  0.47787271935E+02  0.20000004060E+02 0.  0.
         12    1    3    3    0    0 -0.14135091503E+02 -0.16898815381E+02  0.37393213602E+02  0.43400728065E+02  0.00000000000E+00 0. -1.
         11    1    4    4    0    0  0.15909168703E+01 -0.15211541223E+00 -0.40256981615E+01  0.43313279182E+01  0.51100000000E-03 0.  1.
        -11    1    4    4    0    0  0.12751482864E+02  0.20125536802E+02 -0.24979337012E+02  0.34519629555E+02  0.51100000000E-03 0. -1.
         12    1    4    4    0    0 -0.20730823061E+00 -0.30746060085E+01 -0.83881784287E+01  0.89363144619E+01  0.00000000000E+00 0. -1.
</event>
<event>
 8    1  0.3776180E-010  0.9118800E+02  0.7816164E-02  0.1184000E+00
        -11   -1    0    0    0    0  0.00000000000E+00  0.00000000000E+00  0.45593999997E+02  0.45594000000E+02  0.51100000000E-03 0. -1.
         11   -1    0    0    0    0 -0.00000000000E+00 -0.00000000000E+00 -0.45593999997E+02  0.45594000000E+02  0.51100000000E-03 0.  1.
         23    2    1    2    0    0  0.17763568394E-14  0.00000000000E+00  0.00000000000E+00  0.91188000000E+02  0.91188000000E+02 0.  0.
    9900012    2    3    3    0    0  0.48423220824E+01  0.19669649971E+02  0.38383333134E+02  0.47787268720E+02  0.19999989402E+02 0.  0.
        -12    1    3    3    0    0 -0.48423220824E+01 -0.19669649971E+02 -0.38383333134E+02  0.43400731280E+02  0.00000000000E+00 0.  1.
         11    1    4    4    0    0 -0.50967905209E+01  0.51432751702E+01  0.17413526670E+02  0.18858988956E+02  0.51100000000E-03 0. -1.
        -11    1    4    4    0    0 -0.66572013157E+00  0.32080103039E+01  0.60852532710E+00  0.33323890437E+01  0.51100000000E-03 0.  1.
        -12    1    4    4    0    0  0.10604832735E+02  0.11318364497E+02  0.20361281137E+02  0.25595890720E+02  0.00000000000E+00 0.  1.
</event>
<event>
 8    1  0.3776180E-010  0.9118800E+02  0.7816164E-02  0.1184000E+00
        -11   -1    0    0    0    0  0.00000000000E+00  0.00000000000E+00  0.45593999997E+02  0.45594000000E+02  0.51100000000E-03 0. -1.
         11   -1    0    0    0    0 -0.00000000000E+00 -0.00000000000E+00 -0.45593999997E+02  0.45594000000E+02  0.51100000000E-03 0.  1.
         23    2    1    2    0    0 -0.17763568394E-14  0.00000000000E+00  0.00000000000E+00  0.91188000000E+02  0.91188000000E+02 0.  0.
    9900012    2    3    3    0    0  0.13837306053E+02 -0.39088855882E+02  0.12814583564E+02  0.47787271378E+02  0.20000001523E+02 0.  0.
        -12    1    3    3    0    0 -0.13837306053E+02  0.39088855882E+02 -0.12814583564E+02  0.43400728622E+02  0.00000000000E+00 0.  1.
         11    1    4    4    0    0  0.68566170636E+00 -0.61657342003E+01  0.28720508240E+01  0.68363064882E+01  0.51100000000E-03 0. -1.
        -11    1    4    4    0    0 -0.22983491232E+01 -0.86049026968E+01 -0.29561188216E+01  0.93843165900E+01  0.51100000000E-03 0.  1.
        -12    1    4    4    0    0  0.15449993469E+02 -0.24318218985E+02  0.12898651562E+02  0.31566648300E+02  0.00000000000E+00 0.  1.
</event>
<event>
 8    1  0.3776180E-010  0.9118800E+02  0.7816164E-02  0.1184000E+00
        -11   -1    0    0    0    0  0.00000000000E+00  0.00000000000E+00  0.45593999997E+02  0.45594000000E+02  0.51100000000E-03 0. -1.
         11   -1    0    0    0    0 -0.00000000000E+00 -0.00000000000E+00 -0.45593999997E+02  0.45594000000E+02  0.51100000000E-03 0.  1.
         23    2    1    2    0    0  0.00000000000E+00 -0.35527136788E-14  0.00000000000E+00  0.91188000000E+02  0.91188000000E+02 0.  0.
    9900012    2    3    3    0    0  0.27296541414E+02 -0.19487664001E+02  0.27545478777E+02  0.47787267029E+02  0.19999981692E+02 0.  0.
        -12    1    3    3    0    0 -0.27296541414E+02  0.19487664001E+02 -0.27545478777E+02  0.43400732971E+02  0.00000000000E+00 0.  1.
         11    1    4    4    0    0  0.12446910270E+02 -0.15814826888E+02  0.11816692890E+02  0.23338135228E+02  0.51100000000E-03 0. -1.
        -11    1    4    4    0    0 -0.13855364413E+01  0.13461043135E+00 -0.17807589038E+00  0.14034038914E+01  0.51100000000E-03 0.  1.
        -12    1    4    4    0    0  0.16235167585E+02 -0.38074475440E+01  0.15906861777E+02  0.23045727910E+02  0.00000000000E+00 0.  1.
</event>
<event>
 8    1  0.3776180E-010  0.9118800E+02  0.7816164E-02  0.1184000E+00
        -11   -1    0    0    0    0  0.00000000000E+00  0.00000000000E+00  0.45593999997E+02  0.45594000000E+02  0.51100000000E-03 0. -1.
         11   -1    0    0    0    0 -0.00000000000E+00 -0.00000000000E+00 -0.45593999997E+02  0.45594000000E+02  0.51100000000E-03 0.  1.
         23    2    1    2    0    0  0.00000000000E+00  0.00000000000E+00 -0.17763568394E-14  0.91188000000E+02  0.91188000000E+02 0.  0.
    9900012    2    3    3    0    0 -0.32298621957E+02 -0.24716011537E+02  0.15150608615E+02  0.47787272495E+02  0.20000006612E+02 0.  0.
        -12    1    3    3    0    0  0.32298621957E+02  0.24716011537E+02 -0.15150608615E+02  0.43400727505E+02  0.00000000000E+00 0.  1.
         11    1    4    4    0    0  0.23764329729E+01  0.44429069508E+00  0.60390156939E+00  0.24918919043E+01  0.51100000000E-03 0.  1.
        -11    1    4    4    0    0 -0.82080093820E+01 -0.48687571535E+01  0.30478675046E+01  0.10018268854E+02  0.51100000000E-03 0. -1.
        -12    1    4    4    0    0 -0.26467045548E+02 -0.20291545079E+02  0.11498839541E+02  0.35277111737E+02  0.00000000000E+00 0.  1.
</event>
<event>
 8    1  0.3776180E-010  0.9118800E+02  0.7816164E-02  0.1184000E+00
        -11   -1    0    0    0    0  0.00000000000E+00  0.00000000000E+00  0.45593999997E+02  0.45594000000E+02  0.51100000000E-03 0. -1.
         11   -1    0    0    0    0 -0.00000000000E+00 -0.00000000000E+00 -0.45593999997E+02  0.45594000000E+02  0.51100000000E-03 0.  1.
         23    2    1    2    0    0  0.35527136788E-14 -0.35527136788E-14  0.00000000000E+00  0.91188000000E+02  0.91188000000E+02 0.  0.
    9900012    2    3    3    0    0  0.24450818705E+02 -0.23298477026E+02 -0.27257321650E+02  0.47787272465E+02  0.20000006477E+02 0.  0.
         12    1    3    3    0    0 -0.24450818705E+02  0.23298477026E+02  0.27257321650E+02  0.43400727535E+02  0.00000000000E+00 0. -1.
         11    1    4    4    0    0  0.31092480850E+01 -0.53186622336E+01 -0.11452951644E+02  0.13004833456E+02  0.51100000000E-03 0. -1.
        -11    1    4    4    0    0  0.15335154604E+02 -0.12559047426E+02 -0.17585293164E+02  0.26497908878E+02  0.51100000000E-03 0.  1.
         12    1    4    4    0    0  0.60064160159E+01 -0.54207673664E+01  0.17809231582E+01  0.82845301311E+01  0.00000000000E+00 0. -1.
</event>
<event>
 8    1  0.3776180E-010  0.9118800E+02  0.7816164E-02  0.1184000E+00
        -11   -1    0    0    0    0  0.00000000000E+00  0.00000000000E+00  0.45593999997E+02  0.45594000000E+02  0.51100000000E-03 0.  1.
         11   -1    0    0    0    0 -0.00000000000E+00 -0.00000000000E+00 -0.45593999997E+02  0.45594000000E+02  0.51100000000E-03 0. -1.
         23    2    1    2    0    0  0.66613381478E-15  0.71054273576E-14  0.00000000000E+00  0.91188000000E+02  0.91188000000E+02 0.  0.
    9900012    2    3    3    0    0 -0.38832436671E+00 -0.41077034152E+02 -0.14005344434E+02  0.47787271858E+02  0.20000003709E+02 0.  0.
         12    1    3    3    0    0  0.38832436671E+00  0.41077034152E+02  0.14005344434E+02  0.43400728142E+02  0.00000000000E+00 0. -1.
         11    1    4    4    0    0  0.17517941579E+01 -0.16271471587E+01 -0.20557770323E+01  0.31531904661E+01  0.51100000000E-03 0. -1.
        -11    1    4    4    0    0 -0.85631643842E+01 -0.26164801107E+02 -0.38421599339E+01  0.27797244368E+02  0.51100000000E-03 0.  1.
        -12    1    4    4    0    0  0.64230458596E+01 -0.13285085887E+02 -0.81074074678E+01  0.16836837024E+02  0.00000000000E+00 0.  1.
</event>
<event>
 8    1  0.3778232E-010  0.9118800E+02  0.7816164E-02  0.1184000E+00
        -11   -1    0    0    0    0  0.00000000000E+00  0.00000000000E+00  0.45593999997E+02  0.45594000000E+02  0.51100000000E-03 0. -1.
         11   -1    0    0    0    0 -0.00000000000E+00 -0.00000000000E+00 -0.45593999997E+02  0.45594000000E+02  0.51100000000E-03 0.  1.
         23    2    1    2    0    0  0.00000000000E+00 -0.35527136788E-14  0.00000000000E+00  0.91188000000E+02  0.91188000000E+02 0.  0.
    9900012    2    3    3    0    0  0.55051112950E+01  0.20732628775E+02  0.37728972469E+02  0.47787268326E+02  0.19999987605E+02 0.  0.
        -12    1    3    3    0    0 -0.55051112950E+01 -0.20732628775E+02 -0.37728972469E+02  0.43400731674E+02  0.00000000000E+00 0.  1.
         11    1    4    4    0    0  0.19833308996E+01  0.13982035103E+02  0.20404034271E+02  0.24814421651E+02  0.51100000000E-03 0. -1.
        -11    1    4    4    0    0 -0.58827826919E+00  0.38456878339E+01  0.17509468653E+02  0.17936467852E+02  0.51100000000E-03 0.  1.
        -12    1    4    4    0    0  0.41100586646E+01  0.29049058382E+01 -0.18453045543E+00  0.50363788226E+01  0.00000000000E+00 0.  1.
</event>
<event>
 8    1  0.3776180E-010  0.9118800E+02  0.7816164E-02  0.1184000E+00
        -11   -1    0    0    0    0  0.00000000000E+00  0.00000000000E+00  0.45593999997E+02  0.45594000000E+02  0.51100000000E-03 0. -1.
         11   -1    0    0    0    0 -0.00000000000E+00 -0.00000000000E+00 -0.45593999997E+02  0.45594000000E+02  0.51100000000E-03 0.  1.
         23    2    1    2    0    0 -0.17763568394E-14  0.00000000000E+00  0.00000000000E+00  0.91188000000E+02  0.91188000000E+02 0.  0.
    9900012    2    3    3    0    0 -0.14363510188E+02  0.17326860478E+02 -0.37109192721E+02  0.47787277618E+02  0.20000029970E+02 0.  0.
         12    1    3    3    0    0  0.14363510188E+02 -0.17326860478E+02  0.37109192721E+02  0.43400722382E+02  0.00000000000E+00 0. -1.
         11    1    4    4    0    0 -0.32369901141E+01  0.21223196160E+01 -0.14635759933E+02  0.15138950249E+02  0.51100000000E-03 0. -1.
        -11    1    4    4    0    0  0.17088019112E+01  0.48665834678E+01 -0.12154336641E+02  0.13203466896E+02  0.51100000000E-03 0.  1.
         12    1    4    4    0    0 -0.12835321985E+02  0.10337957394E+02 -0.10319096146E+02  0.19444860473E+02  0.00000000000E+00 0. -1.
</event>
<event>
 8    1  0.3776180E-010  0.9118800E+02  0.7816164E-02  0.1184000E+00
        -11   -1    0    0    0    0  0.00000000000E+00  0.00000000000E+00  0.45593999997E+02  0.45594000000E+02  0.51100000000E-03 0. -1.
         11   -1    0    0    0    0 -0.00000000000E+00 -0.00000000000E+00 -0.45593999997E+02  0.45594000000E+02  0.51100000000E-03 0.  1.
         23    2    1    2    0    0  0.00000000000E+00  0.00000000000E+00  0.00000000000E+00  0.91188000000E+02  0.91188000000E+02 0.  0.
    9900012    2    3    3    0    0  0.29113037291E+01  0.31623148760E+02 -0.29582495247E+02  0.47787271297E+02  0.20000001150E+02 0.  0.
         12    1    3    3    0    0 -0.29113037291E+01 -0.31623148760E+02  0.29582495247E+02  0.43400728703E+02  0.00000000000E+00 0. -1.
         11    1    4    4    0    0 -0.29073185768E+01  0.34268978697E+01 -0.66631560978E+01  0.80370255543E+01  0.51100000000E-03 0. -1.
        -11    1    4    4    0    0  0.32864458239E+01  0.86812760830E+01  0.33301484781E+00  0.92884971730E+01  0.51100000000E-03 0.  1.
         12    1    4    4    0    0  0.25321764820E+01  0.19514974808E+02 -0.23252353997E+02  0.30461748569E+02  0.00000000000E+00 0. -1.
</event>
<event>
 8    1  0.3776180E-010  0.9118800E+02  0.7816164E-02  0.1184000E+00
        -11   -1    0    0    0    0  0.00000000000E+00  0.00000000000E+00  0.45593999997E+02  0.45594000000E+02  0.51100000000E-03 0. -1.
         11   -1    0    0    0    0 -0.00000000000E+00 -0.00000000000E+00 -0.45593999997E+02  0.45594000000E+02  0.51100000000E-03 0.  1.
         23    2    1    2    0    0 -0.35527136788E-14  0.44408920985E-15  0.00000000000E+00  0.91188000000E+02  0.91188000000E+02 0.  0.
    9900012    2    3    3    0    0  0.29783094369E+02 -0.11716291040E+01  0.31547071326E+02  0.47787272654E+02  0.20000007338E+02 0.  0.
        -12    1    3    3    0    0 -0.29783094369E+02  0.11716291040E+01 -0.31547071326E+02  0.43400727346E+02  0.00000000000E+00 0.  1.
         11    1    4    4    0    0  0.31662259122E+02 -0.30507569250E+01  0.31263734931E+02  0.44600749911E+02  0.51100000000E-03 0. -1.
        -11    1    4    4    0    0 -0.69309439519E+00  0.12268314031E+01  0.92803144881E+00  0.16872278338E+01  0.51100000000E-03 0.  1.
         12    1    4    4    0    0 -0.11860703581E+01  0.65229641799E+00 -0.64469505428E+00  0.14992949090E+01  0.00000000000E+00 0. -1.
</event>
<event>
 8    1  0.3776180E-010  0.9118800E+02  0.7816164E-02  0.1184000E+00
        -11   -1    0    0    0    0  0.00000000000E+00  0.00000000000E+00  0.45593999997E+02  0.45594000000E+02  0.51100000000E-03 0. -1.
         11   -1    0    0    0    0 -0.00000000000E+00 -0.00000000000E+00 -0.45593999997E+02  0.45594000000E+02  0.51100000000E-03 0.  1.
         23    2    1    2    0    0  0.00000000000E+00  0.00000000000E+00  0.00000000000E+00  0.91188000000E+02  0.91188000000E+02 0.  0.
    9900012    2    3    3    0    0  0.41948284547E+02 -0.30105269363E+01  0.10719209591E+02  0.47787270707E+02  0.19999998463E+02 0.  0.
        -12    1    3    3    0    0 -0.41948284547E+02  0.30105269363E+01 -0.10719209591E+02  0.43400729293E+02  0.00000000000E+00 0.  1.
         11    1    4    4    0    0  0.24418460583E+02 -0.11150322804E+01  0.68254982498E+01  0.25378966505E+02  0.51100000000E-03 0. -1.
        -11    1    4    4    0    0  0.14457230424E+02  0.17180609987E+01  0.75679227274E+01  0.16408433801E+02  0.51100000000E-03 0.  1.
        -12    1    4    4    0    0  0.30725935402E+01 -0.36135556546E+01 -0.36742113858E+01  0.59998704019E+01  0.00000000000E+00 0.  1.
</event>
<event>
 8    1  0.3776180E-010  0.9118800E+02  0.7816164E-02  0.1184000E+00
        -11   -1    0    0    0    0  0.00000000000E+00  0.00000000000E+00  0.45593999997E+02  0.45594000000E+02  0.51100000000E-03 0. -1.
         11   -1    0    0    0    0 -0.00000000000E+00 -0.00000000000E+00 -0.45593999997E+02  0.45594000000E+02  0.51100000000E-03 0.  1.
         23    2    1    2    0    0  0.00000000000E+00  0.00000000000E+00  0.00000000000E+00  0.91188000000E+02  0.91188000000E+02 0.  0.
    9900012    2    3    3    0    0 -0.19092799930E+02 -0.18881742031E+02  0.34096444273E+02  0.47787277617E+02  0.20000029969E+02 0.  0.
        -12    1    3    3    0    0  0.19092799930E+02  0.18881742031E+02 -0.34096444273E+02  0.43400722383E+02  0.00000000000E+00 0.  1.
         11    1    4    4    0    0 -0.15789218896E+02 -0.13054794724E+02  0.24195711408E+02  0.31704251283E+02  0.51100000000E-03 0. -1.
        -11    1    4    4    0    0 -0.10979438584E+01 -0.78208303801E+01  0.10409724033E+02  0.13066492385E+02  0.51100000000E-03 0.  1.
        -12    1    4    4    0    0 -0.22056371756E+01  0.19938830730E+01 -0.50899116772E+00  0.30165339494E+01  0.00000000000E+00 0.  1.
</event>
<event>
 8    1  0.3776180E-010  0.9118800E+02  0.7816164E-02  0.1184000E+00
        -11   -1    0    0    0    0  0.00000000000E+00  0.00000000000E+00  0.45593999997E+02  0.45594000000E+02  0.51100000000E-03 0. -1.
         11   -1    0    0    0    0 -0.00000000000E+00 -0.00000000000E+00 -0.45593999997E+02  0.45594000000E+02  0.51100000000E-03 0.  1.
         23    2    1    2    0    0  0.88817841970E-15  0.00000000000E+00  0.00000000000E+00  0.91188000000E+02  0.91188000000E+02 0.  0.
    9900012    2    3    3    0    0  0.42105962585E+01 -0.27424787979E+02 -0.33373267293E+02  0.47787273205E+02  0.20000009852E+02 0.  0.
         12    1    3    3    0    0 -0.42105962585E+01  0.27424787979E+02  0.33373267293E+02  0.43400726795E+02  0.00000000000E+00 0. -1.
         11    1    4    4    0    0 -0.29475615213E+01 -0.34455328803E+01 -0.36424297561E+01  0.58161078515E+01  0.51100000000E-03 0. -1.
        -11    1    4    4    0    0 -0.32256371569E+01 -0.62637854260E+01 -0.15386211441E+02  0.16922625260E+02  0.51100000000E-03 0.  1.
         12    1    4    4    0    0  0.10383794937E+02 -0.17715469672E+02 -0.14344626096E+02  0.25048540094E+02  0.00000000000E+00 0. -1.
</event>
<event>
 8    1  0.3776180E-010  0.9118800E+02  0.7816164E-02  0.1184000E+00
        -11   -1    0    0    0    0  0.00000000000E+00  0.00000000000E+00  0.45593999997E+02  0.45594000000E+02  0.51100000000E-03 0. -1.
         11   -1    0    0    0    0 -0.00000000000E+00 -0.00000000000E+00 -0.45593999997E+02  0.45594000000E+02  0.51100000000E-03 0.  1.
         23    2    1    2    0    0  0.00000000000E+00 -0.49960036108E-15  0.00000000000E+00  0.91188000000E+02  0.91188000000E+02 0.  0.
    9900012    2    3    3    0    0 -0.33770335958E+02 -0.34015268589E+00 -0.27259344598E+02  0.47787272327E+02  0.20000005849E+02 0.  0.
         12    1    3    3    0    0  0.33770335958E+02  0.34015268589E+00  0.27259344598E+02  0.43400727673E+02  0.00000000000E+00 0. -1.
         11    1    4    4    0    0 -0.41261407275E+01  0.49971276460E+00 -0.53242171524E+01  0.67544088340E+01  0.51100000000E-03 0. -1.
        -11    1    4    4    0    0 -0.17677226556E+02 -0.54421402867E+01 -0.21280035976E+02  0.28194700939E+02  0.51100000000E-03 0.  1.
         12    1    4    4    0    0 -0.11966968675E+02  0.46022748363E+01 -0.65509146944E+00  0.12838162554E+02  0.00000000000E+00 0. -1.
</event>
<event>
 8    1  0.3776180E-010  0.9118800E+02  0.7816164E-02  0.1184000E+00
        -11   -1    0    0    0    0  0.00000000000E+00  0.00000000000E+00  0.45593999997E+02  0.45594000000E+02  0.51100000000E-03 0. -1.
         11   -1    0    0    0    0 -0.00000000000E+00 -0.00000000000E+00 -0.45593999997E+02  0.45594000000E+02  0.51100000000E-03 0.  1.
         23    2    1    2    0    0  0.00000000000E+00  0.00000000000E+00  0.00000000000E+00  0.91188000000E+02  0.91188000000E+02 0.  0.
    9900012    2    3    3    0    0 -0.26849384777E+02 -0.22739049144E+02 -0.25410027312E+02  0.47787270664E+02  0.19999998266E+02 0.  0.
         12    1    3    3    0    0  0.26849384777E+02  0.22739049144E+02  0.25410027312E+02  0.43400729336E+02  0.00000000000E+00 0. -1.
         11    1    4    4    0    0 -0.91662556991E+01 -0.76444042223E+01 -0.41630241518E+01  0.12640725051E+02  0.51100000000E-03 0. -1.
        -11    1    4    4    0    0 -0.10099935739E+02 -0.15319133826E+02 -0.20516809341E+02  0.27524971006E+02  0.51100000000E-03 0.  1.
        -12    1    4    4    0    0 -0.75831933387E+01  0.22448890445E+00 -0.73019381984E+00  0.76215746073E+01  0.00000000000E+00 0.  1.
</event>
<event>
 8    1  0.3776180E-010  0.9118800E+02  0.7816164E-02  0.1184000E+00
        -11   -1    0    0    0    0  0.00000000000E+00  0.00000000000E+00  0.45593999997E+02  0.45594000000E+02  0.51100000000E-03 0. -1.
         11   -1    0    0    0    0 -0.00000000000E+00 -0.00000000000E+00 -0.45593999997E+02  0.45594000000E+02  0.51100000000E-03 0.  1.
         23    2    1    2    0    0  0.00000000000E+00  0.17763568394E-14 -0.71054273576E-14  0.91188000000E+02  0.91188000000E+02 0.  0.
    9900012    2    3    3    0    0  0.16749565921E+02  0.13032727858E+02 -0.37857939961E+02  0.47787267609E+02  0.19999984336E+02 0.  0.
         12    1    3    3    0    0 -0.16749565921E+02 -0.13032727858E+02  0.37857939961E+02  0.43400732391E+02  0.00000000000E+00 0. -1.
         11    1    4    4    0    0  0.53170586563E+00  0.68870822265E+01 -0.16876548313E+02  0.18235473560E+02  0.51100000000E-03 0. -1.
        -11    1    4    4    0    0  0.56039446533E+01 -0.98545922751E+00 -0.13705491276E+02  0.14839670378E+02  0.51100000000E-03 0.  1.
        -12    1    4    4    0    0  0.10613915402E+02  0.71311048590E+01 -0.72759003722E+01  0.14712123671E+02  0.00000000000E+00 0.  1.
</event>
<event>
 8    1  0.3776180E-010  0.9118800E+02  0.7816164E-02  0.1184000E+00
        -11   -1    0    0    0    0  0.00000000000E+00  0.00000000000E+00  0.45593999997E+02  0.45594000000E+02  0.51100000000E-03 0. -1.
         11   -1    0    0    0    0 -0.00000000000E+00 -0.00000000000E+00 -0.45593999997E+02  0.45594000000E+02  0.51100000000E-03 0.  1.
         23    2    1    2    0    0  0.00000000000E+00 -0.35527136788E-14 -0.71054273576E-14  0.91188000000E+02  0.91188000000E+02 0.  0.
    9900012    2    3    3    0    0  0.10210349273E+01 -0.18978034388E+02 -0.39018137816E+02  0.47787269820E+02  0.19999994416E+02 0.  0.
         12    1    3    3    0    0 -0.10210349273E+01  0.18978034388E+02  0.39018137816E+02  0.43400730180E+02  0.00000000000E+00 0. -1.
         11    1    4    4    0    0 -0.19012959423E+00  0.21847573667E+01 -0.10796171540E+01  0.24443582950E+01  0.51100000000E-03 0. -1.
        -11    1    4    4    0    0  0.86325654621E+00  0.14825407011E+01 -0.92210878368E+00  0.19476713442E+01  0.51100000000E-03 0.  1.
        -12    1    4    4    0    0  0.34790797531E+00 -0.22645332455E+02 -0.37016411878E+02  0.43395240181E+02  0.00000000000E+00 0.  1.
</event>
<event>
 8    1  0.3776180E-010  0.9118800E+02  0.7816164E-02  0.1184000E+00
        -11   -1    0    0    0    0  0.00000000000E+00  0.00000000000E+00  0.45593999997E+02  0.45594000000E+02  0.51100000000E-03 0.  1.
         11   -1    0    0    0    0 -0.00000000000E+00 -0.00000000000E+00 -0.45593999997E+02  0.45594000000E+02  0.51100000000E-03 0. -1.
         23    2    1    2    0    0  0.35527136788E-14  0.35527136788E-14  0.35527136788E-14  0.91188000000E+02  0.91188000000E+02 0.  0.
    9900012    2    3    3    0    0 -0.27563409788E+02  0.26072187003E+02 -0.21074205633E+02  0.47787278378E+02  0.20000033438E+02 0.  0.
         12    1    3    3    0    0  0.27563409788E+02 -0.26072187003E+02  0.21074205633E+02  0.43400721622E+02  0.00000000000E+00 0. -1.
         11    1    4    4    0    0 -0.93659509193E+01  0.30014150060E+01 -0.37360619431E+01  0.10520821630E+02  0.51100000000E-03 0. -1.
        -11    1    4    4    0    0 -0.14510663308E+02  0.14951089362E+02 -0.18997682466E+02  0.28195857179E+02  0.51100000000E-03 0.  1.
         12    1    4    4    0    0 -0.36867955607E+01  0.81196826349E+01  0.16595387762E+01  0.90705995693E+01  0.00000000000E+00 0. -1.
</event>
<event>
 8    1  0.3776180E-010  0.9118800E+02  0.7816164E-02  0.1184000E+00
        -11   -1    0    0    0    0  0.00000000000E+00  0.00000000000E+00  0.45593999997E+02  0.45594000000E+02  0.51100000000E-03 0. -1.
         11   -1    0    0    0    0 -0.00000000000E+00 -0.00000000000E+00 -0.45593999997E+02  0.45594000000E+02  0.51100000000E-03 0.  1.
         23    2    1    2    0    0  0.35527136788E-14  0.35527136788E-14  0.35527136788E-14  0.91188000000E+02  0.91188000000E+02 0.  0.
    9900012    2    3    3    0    0 -0.30108516313E+02 -0.11409646627E+02 -0.29101899411E+02  0.47787270282E+02  0.19999996523E+02 0.  0.
         12    1    3    3    0    0  0.30108516313E+02  0.11409646627E+02  0.29101899411E+02  0.43400729718E+02  0.00000000000E+00 0. -1.
         11    1    4    4    0    0 -0.13585133350E+01 -0.29938559754E+01 -0.57412691966E+00  0.33374172745E+01  0.51100000000E-03 0. -1.
        -11    1    4    4    0    0 -0.27971282786E+02 -0.11334428211E+02 -0.22290848231E+02  0.37519912562E+02  0.51100000000E-03 0.  1.
         12    1    4    4    0    0 -0.77872019223E+00  0.29186375595E+01 -0.62369242603E+01  0.69299404450E+01  0.00000000000E+00 0. -1.
</event>
<event>
 8    1  0.3776180E-010  0.9118800E+02  0.7816164E-02  0.1184000E+00
        -11   -1    0    0    0    0  0.00000000000E+00  0.00000000000E+00  0.45593999997E+02  0.45594000000E+02  0.51100000000E-03 0. -1.
         11   -1    0    0    0    0 -0.00000000000E+00 -0.00000000000E+00 -0.45593999997E+02  0.45594000000E+02  0.51100000000E-03 0.  1.
         23    2    1    2    0    0  0.88817841970E-15 -0.35527136788E-14  0.00000000000E+00  0.91188000000E+02  0.91188000000E+02 0.  0.
    9900012    2    3    3    0    0 -0.56196592112E+01 -0.27693728392E+02 -0.32940858451E+02  0.47787270544E+02  0.19999997716E+02 0.  0.
         12    1    3    3    0    0  0.56196592112E+01  0.27693728392E+02  0.32940858451E+02  0.43400729456E+02  0.00000000000E+00 0. -1.
         11    1    4    4    0    0  0.39028700408E+01 -0.32541468929E+01 -0.48526637318E+01  0.70263939621E+01  0.51100000000E-03 0. -1.
        -11    1    4    4    0    0 -0.12414843938E+01 -0.19865093790E+02 -0.16915372803E+02  0.26120740267E+02  0.51100000000E-03 0.  1.
         12    1    4    4    0    0 -0.82810448581E+01 -0.45744877090E+01 -0.11172821916E+02  0.14640136314E+02  0.00000000000E+00 0. -1.
</event>
<event>
 8    1  0.3776180E-010  0.9118800E+02  0.7816164E-02  0.1184000E+00
        -11   -1    0    0    0    0  0.00000000000E+00  0.00000000000E+00  0.45593999997E+02  0.45594000000E+02  0.51100000000E-03 0. -1.
         11   -1    0    0    0    0 -0.00000000000E+00 -0.00000000000E+00 -0.45593999997E+02  0.45594000000E+02  0.51100000000E-03 0.  1.
         23    2    1    2    0    0  0.00000000000E+00  0.00000000000E+00  0.00000000000E+00  0.91188000000E+02  0.91188000000E+02 0.  0.
    9900012    2    3    3    0    0  0.21714981424E+02 -0.24868252982E+02 -0.28171847355E+02  0.47787269499E+02  0.19999992954E+02 0.  0.
         12    1    3    3    0    0 -0.21714981424E+02  0.24868252982E+02  0.28171847355E+02  0.43400730501E+02  0.00000000000E+00 0. -1.
         11    1    4    4    0    0  0.16478893960E+00 -0.21429417294E+01  0.54658207228E+00  0.22176805164E+01  0.51100000000E-03 0. -1.
        -11    1    4    4    0    0  0.16354735142E+02 -0.53200130992E+01 -0.14712062531E+02  0.22632381340E+02  0.51100000000E-03 0.  1.
        -12    1    4    4    0    0  0.51954573428E+01 -0.17405298154E+02 -0.14006366896E+02  0.22937207643E+02  0.00000000000E+00 0.  1.
</event>
<event>
 8    1  0.3776180E-010  0.9118800E+02  0.7816164E-02  0.1184000E+00
        -11   -1    0    0    0    0  0.00000000000E+00  0.00000000000E+00  0.45593999997E+02  0.45594000000E+02  0.51100000000E-03 0. -1.
         11   -1    0    0    0    0 -0.00000000000E+00 -0.00000000000E+00 -0.45593999997E+02  0.45594000000E+02  0.51100000000E-03 0.  1.
         23    2    1    2    0    0  0.00000000000E+00 -0.17763568394E-14  0.71054273576E-14  0.91188000000E+02  0.91188000000E+02 0.  0.
    9900012    2    3    3    0    0 -0.11697355755E+02 -0.15123450777E+02 -0.38962497943E+02  0.47787272575E+02  0.20000006976E+02 0.  0.
         12    1    3    3    0    0  0.11697355755E+02  0.15123450777E+02  0.38962497943E+02  0.43400727425E+02  0.00000000000E+00 0. -1.
         11    1    4    4    0    0 -0.10462754503E+02 -0.92753460299E+01 -0.18203081946E+02  0.22953288836E+02  0.51100000000E-03 0. -1.
        -11    1    4    4    0    0 -0.17050435967E+01 -0.78855851406E+01 -0.21212016697E+02  0.22694476846E+02  0.51100000000E-03 0.  1.
         12    1    4    4    0    0  0.47044234430E+00  0.20374803935E+01  0.45260070012E+00  0.21395068934E+01  0.00000000000E+00 0. -1.
</event>
<event>
 8    1  0.3776180E-010  0.9118800E+02  0.7816164E-02  0.1184000E+00
        -11   -1    0    0    0    0  0.00000000000E+00  0.00000000000E+00  0.45593999997E+02  0.45594000000E+02  0.51100000000E-03 0. -1.
         11   -1    0    0    0    0 -0.00000000000E+00 -0.00000000000E+00 -0.45593999997E+02  0.45594000000E+02  0.51100000000E-03 0.  1.
         23    2    1    2    0    0  0.00000000000E+00  0.35527136788E-14  0.00000000000E+00  0.91188000000E+02  0.91188000000E+02 0.  0.
    9900012    2    3    3    0    0 -0.24025959277E+02  0.22211226268E+02 -0.28513820071E+02  0.47787271590E+02  0.20000002487E+02 0.  0.
         12    1    3    3    0    0  0.24025959277E+02 -0.22211226268E+02  0.28513820071E+02  0.43400728410E+02  0.00000000000E+00 0. -1.
         11    1    4    4    0    0 -0.10124313167E+02  0.71885531314E+01 -0.28742714908E+01  0.12745134370E+02  0.51100000000E-03 0. -1.
        -11    1    4    4    0    0 -0.68452450108E+01  0.14480988122E+02 -0.13309807959E+02  0.20825642473E+02  0.51100000000E-03 0.  1.
         12    1    4    4    0    0 -0.70564010983E+01  0.54168501441E+00 -0.12329740621E+02  0.14216494747E+02  0.00000000000E+00 0. -1.
</event>
<event>
 8    1  0.3776180E-010  0.9118800E+02  0.7816164E-02  0.1184000E+00
        -11   -1    0    0    0    0  0.00000000000E+00  0.00000000000E+00  0.45593999997E+02  0.45594000000E+02  0.51100000000E-03 0. -1.
         11   -1    0    0    0    0 -0.00000000000E+00 -0.00000000000E+00 -0.45593999997E+02  0.45594000000E+02  0.51100000000E-03 0.  1.
         23    2    1    2    0    0  0.00000000000E+00 -0.35527136788E-14  0.00000000000E+00  0.91188000000E+02  0.91188000000E+02 0.  0.
    9900012    2    3    3    0    0  0.32849055088E+02  0.27875603006E+02  0.52453449605E+01  0.47787270664E+02  0.19999998266E+02 0.  0.
        -12    1    3    3    0    0 -0.32849055088E+02 -0.27875603006E+02 -0.52453449605E+01  0.43400729336E+02  0.00000000000E+00 0.  1.
         11    1    4    4    0    0  0.12224482379E+02  0.17477089448E+02 -0.11253412594E+01  0.21357739071E+02  0.51100000000E-03 0. -1.
        -11    1    4    4    0    0 -0.28685684677E+00  0.36267046560E+01  0.45166161292E+00  0.36659612636E+01  0.51100000000E-03 0.  1.
        -12    1    4    4    0    0  0.20911429555E+02  0.67718089022E+01  0.59190246070E+01  0.22763570329E+02  0.00000000000E+00 0.  1.
</event>
<event>
 8    1  0.3776180E-010  0.9118800E+02  0.7816164E-02  0.1184000E+00
        -11   -1    0    0    0    0  0.00000000000E+00  0.00000000000E+00  0.45593999997E+02  0.45594000000E+02  0.51100000000E-03 0. -1.
         11   -1    0    0    0    0 -0.00000000000E+00 -0.00000000000E+00 -0.45593999997E+02  0.45594000000E+02  0.51100000000E-03 0.  1.
         23    2    1    2    0    0  0.00000000000E+00 -0.88817841970E-15  0.00000000000E+00  0.91188000000E+02  0.91188000000E+02 0.  0.
    9900012    2    3    3    0    0 -0.16445121901E+02  0.25119469856E+01 -0.40085810661E+02  0.47787261200E+02  0.19999955117E+02 0.  0.
         12    1    3    3    0    0  0.16445121901E+02 -0.25119469856E+01  0.40085810661E+02  0.43400738800E+02  0.00000000000E+00 0. -1.
         11    1    4    4    0    0 -0.12958040025E+02 -0.38930412632E+01 -0.14204510579E+02  0.19617203996E+02  0.51100000000E-03 0. -1.
        -11    1    4    4    0    0 -0.19659650377E+01 -0.91889296798E+00 -0.13733806840E+02  0.13904202005E+02  0.51100000000E-03 0.  1.
         12    1    4    4    0    0 -0.15211168386E+01  0.73238812168E+01 -0.12147493241E+02  0.14265855199E+02  0.00000000000E+00 0. -1.
</event>
<event>
 8    1  0.3776180E-010  0.9118800E+02  0.7816164E-02  0.1184000E+00
        -11   -1    0    0    0    0  0.00000000000E+00  0.00000000000E+00  0.45593999997E+02  0.45594000000E+02  0.51100000000E-03 0. -1.
         11   -1    0    0    0    0 -0.00000000000E+00 -0.00000000000E+00 -0.45593999997E+02  0.45594000000E+02  0.51100000000E-03 0.  1.
         23    2    1    2    0    0  0.35527136788E-14  0.00000000000E+00 -0.35527136788E-14  0.91188000000E+02  0.91188000000E+02 0.  0.
    9900012    2    3    3    0    0  0.16784035204E+02  0.35217098177E+02  0.19017765659E+02  0.47787271291E+02  0.20000001125E+02 0.  0.
        -12    1    3    3    0    0 -0.16784035204E+02 -0.35217098177E+02 -0.19017765659E+02  0.43400728709E+02  0.00000000000E+00 0.  1.
         11    1    4    4    0    0  0.14257689162E+02  0.19976289087E+02  0.18915925111E+02  0.30986223535E+02  0.51100000000E-03 0. -1.
        -11    1    4    4    0    0  0.41927057614E+01  0.54874274683E+01  0.23522164468E-02  0.69058415573E+01  0.51100000000E-03 0.  1.
         12    1    4    4    0    0 -0.16663597189E+01  0.97533816226E+01  0.99488331918E-01  0.98952061988E+01  0.00000000000E+00 0. -1.
</event>
<event>
 8    1  0.3776180E-010  0.9118800E+02  0.7816164E-02  0.1184000E+00
        -11   -1    0    0    0    0  0.00000000000E+00  0.00000000000E+00  0.45593999997E+02  0.45594000000E+02  0.51100000000E-03 0. -1.
         11   -1    0    0    0    0 -0.00000000000E+00 -0.00000000000E+00 -0.45593999997E+02  0.45594000000E+02  0.51100000000E-03 0.  1.
         23    2    1    2    0    0  0.00000000000E+00 -0.35527136788E-14  0.00000000000E+00  0.91188000000E+02  0.91188000000E+02 0.  0.
    9900012    2    3    3    0    0 -0.29068969945E+02  0.18856030562E+02  0.26135565918E+02  0.47787277563E+02  0.20000029719E+02 0.  0.
        -12    1    3    3    0    0  0.29068969945E+02 -0.18856030562E+02 -0.26135565918E+02  0.43400722437E+02  0.00000000000E+00 0.  1.
         11    1    4    4    0    0 -0.10020327899E+02  0.10383938295E+02  0.15228579444E+02  0.20979580021E+02  0.51100000000E-03 0. -1.
        -11    1    4    4    0    0 -0.33273158148E+01  0.64711575565E+01  0.77828362200E+01  0.10654550696E+02  0.51100000000E-03 0.  1.
        -12    1    4    4    0    0 -0.15721326231E+02  0.20009347099E+01  0.31241502540E+01  0.16153146845E+02  0.00000000000E+00 0.  1.
</event>
<event>
 8    1  0.3776180E-010  0.9118800E+02  0.7816164E-02  0.1184000E+00
        -11   -1    0    0    0    0  0.00000000000E+00  0.00000000000E+00  0.45593999997E+02  0.45594000000E+02  0.51100000000E-03 0. -1.
         11   -1    0    0    0    0 -0.00000000000E+00 -0.00000000000E+00 -0.45593999997E+02  0.45594000000E+02  0.51100000000E-03 0.  1.
         23    2    1    2    0    0  0.00000000000E+00  0.00000000000E+00  0.35527136788E-14  0.91188000000E+02  0.91188000000E+02 0.  0.
    9900012    2    3    3    0    0  0.24302012481E+02  0.22098509761E+02 -0.28367084805E+02  0.47787269078E+02  0.19999991034E+02 0.  0.
         12    1    3    3    0    0 -0.24302012481E+02 -0.22098509761E+02  0.28367084805E+02  0.43400730922E+02  0.00000000000E+00 0. -1.
         11    1    4    4    0    0  0.81711610825E+01  0.63088959834E+01 -0.14545876857E+02  0.17836831999E+02  0.51100000000E-03 0. -1.
        -11    1    4    4    0    0  0.44077833414E+01  0.94756233623E+00 -0.95500328723E+01  0.10560755489E+02  0.51100000000E-03 0.  1.
         12    1    4    4    0    0  0.11723068057E+02  0.14842051441E+02 -0.42711750751E+01  0.19389681590E+02  0.00000000000E+00 0. -1.
</event>
<event>
 8    1  0.3776180E-010  0.9118800E+02  0.7816164E-02  0.1184000E+00
        -11   -1    0    0    0    0  0.00000000000E+00  0.00000000000E+00  0.45593999997E+02  0.45594000000E+02  0.51100000000E-03 0. -1.
         11   -1    0    0    0    0 -0.00000000000E+00 -0.00000000000E+00 -0.45593999997E+02  0.45594000000E+02  0.51100000000E-03 0.  1.
         23    2    1    2    0    0  0.00000000000E+00  0.00000000000E+00  0.00000000000E+00  0.91188000000E+02  0.91188000000E+02 0.  0.
    9900012    2    3    3    0    0  0.16144723209E+02 -0.20361522999E+02 -0.34761756307E+02  0.47787269500E+02  0.19999992960E+02 0.  0.
         12    1    3    3    0    0 -0.16144723209E+02  0.20361522999E+02  0.34761756307E+02  0.43400730500E+02  0.00000000000E+00 0. -1.
         11    1    4    4    0    0  0.17816278403E+01 -0.66078577247E+01 -0.71617560856E+01  0.99059947487E+01  0.51100000000E-03 0. -1.
        -11    1    4    4    0    0  0.13535034710E+02 -0.17153168461E+02 -0.20478087561E+02  0.29946292313E+02  0.51100000000E-03 0.  1.
         12    1    4    4    0    0  0.82806065891E+00  0.33995031861E+01 -0.71219126600E+01  0.79349824388E+01  0.00000000000E+00 0. -1.
</event>
<event>
 8    1  0.3776180E-010  0.9118800E+02  0.7816164E-02  0.1184000E+00
        -11   -1    0    0    0    0  0.00000000000E+00  0.00000000000E+00  0.45593999997E+02  0.45594000000E+02  0.51100000000E-03 0. -1.
         11   -1    0    0    0    0 -0.00000000000E+00 -0.00000000000E+00 -0.45593999997E+02  0.45594000000E+02  0.51100000000E-03 0.  1.
         23    2    1    2    0    0  0.00000000000E+00  0.00000000000E+00  0.00000000000E+00  0.91188000000E+02  0.91188000000E+02 0.  0.
    9900012    2    3    3    0    0 -0.37835820270E+02 -0.15028968346E+02 -0.15040102139E+02  0.47787264322E+02  0.19999969349E+02 0.  0.
         12    1    3    3    0    0  0.37835820270E+02  0.15028968346E+02  0.15040102139E+02  0.43400735678E+02  0.00000000000E+00 0. -1.
         11    1    4    4    0    0 -0.20733405162E+01 -0.58829106348E+01 -0.32084133398E+00  0.62458240334E+01  0.51100000000E-03 0. -1.
        -11    1    4    4    0    0 -0.81729695051E+00 -0.30099947860E+01  0.27235793302E-01  0.31191000251E+01  0.51100000000E-03 0.  1.
         12    1    4    4    0    0 -0.34945182803E+02 -0.61360629256E+01 -0.14746496599E+02  0.38422340263E+02  0.00000000000E+00 0. -1.
</event>
<event>
 8    1  0.3776180E-010  0.9118800E+02  0.7816164E-02  0.1184000E+00
        -11   -1    0    0    0    0  0.00000000000E+00  0.00000000000E+00  0.45593999997E+02  0.45594000000E+02  0.51100000000E-03 0. -1.
         11   -1    0    0    0    0 -0.00000000000E+00 -0.00000000000E+00 -0.45593999997E+02  0.45594000000E+02  0.51100000000E-03 0.  1.
         23    2    1    2    0    0  0.88817841970E-15  0.35527136788E-14 -0.71054273576E-14  0.91188000000E+02  0.91188000000E+02 0.  0.
    9900012    2    3    3    0    0  0.53024555893E+01  0.21580285801E+02 -0.37280012860E+02  0.47787261189E+02  0.19999955065E+02 0.  0.
         12    1    3    3    0    0 -0.53024555893E+01 -0.21580285801E+02  0.37280012860E+02  0.43400738811E+02  0.00000000000E+00 0. -1.
         11    1    4    4    0    0  0.33261226791E+00  0.29483157771E+01 -0.12611432114E+01  0.32239229680E+01  0.51100000000E-03 0. -1.
        -11    1    4    4    0    0  0.75131941596E+01  0.19891876976E+02 -0.35897444918E+02  0.41722432911E+02  0.51100000000E-03 0.  1.
         12    1    4    4    0    0 -0.25433508382E+01 -0.12599069528E+01 -0.12142473052E+00  0.28409053101E+01  0.00000000000E+00 0. -1.
</event>
<event>
 8    1  0.3776180E-010  0.9118800E+02  0.7816164E-02  0.1184000E+00
        -11   -1    0    0    0    0  0.00000000000E+00  0.00000000000E+00  0.45593999997E+02  0.45594000000E+02  0.51100000000E-03 0. -1.
         11   -1    0    0    0    0 -0.00000000000E+00 -0.00000000000E+00 -0.45593999997E+02  0.45594000000E+02  0.51100000000E-03 0.  1.
         23    2    1    2    0    0  0.00000000000E+00  0.00000000000E+00  0.00000000000E+00  0.91188000000E+02  0.91188000000E+02 0.  0.
    9900012    2    3    3    0    0 -0.26626464786E+02  0.20577022142E+02  0.27408789854E+02  0.47787260047E+02  0.19999949857E+02 0.  0.
        -12    1    3    3    0    0  0.26626464786E+02 -0.20577022142E+02 -0.27408789854E+02  0.43400739953E+02  0.00000000000E+00 0.  1.
         11    1    4    4    0    0 -0.12717939546E+01  0.24246692241E+01  0.67313296206E+01  0.72668617319E+01  0.51100000000E-03 0. -1.
        -11    1    4    4    0    0 -0.84655360178E+01  0.55424256770E+01 -0.11426395689E+01  0.10182799610E+02  0.51100000000E-03 0.  1.
        -12    1    4    4    0    0 -0.16889134813E+02  0.12609927241E+02  0.21820099802E+02  0.30337598705E+02  0.00000000000E+00 0.  1.
</event>
<event>
 8    1  0.3776180E-010  0.9118800E+02  0.7816164E-02  0.1184000E+00
        -11   -1    0    0    0    0  0.00000000000E+00  0.00000000000E+00  0.45593999997E+02  0.45594000000E+02  0.51100000000E-03 0. -1.
         11   -1    0    0    0    0 -0.00000000000E+00 -0.00000000000E+00 -0.45593999997E+02  0.45594000000E+02  0.51100000000E-03 0.  1.
         23    2    1    2    0    0 -0.35527136788E-14 -0.35527136788E-14  0.35527136788E-14  0.91188000000E+02  0.91188000000E+02 0.  0.
    9900012    2    3    3    0    0 -0.18015397320E+02 -0.31195815911E+02  0.24205160756E+02  0.47787270995E+02  0.19999999773E+02 0.  0.
        -12    1    3    3    0    0  0.18015397320E+02  0.31195815911E+02 -0.24205160756E+02  0.43400729005E+02  0.00000000000E+00 0.  1.
         11    1    4    4    0    0 -0.12827115142E+02 -0.17336355598E+02  0.13452257574E+02  0.25417461368E+02  0.51100000000E-03 0. -1.
        -11    1    4    4    0    0 -0.20205940747E+01 -0.14604574226E+02  0.46604191818E+01  0.15462726020E+02  0.51100000000E-03 0.  1.
         12    1    4    4    0    0 -0.31676881034E+01  0.74511391292E+00  0.60924840007E+01  0.69070836076E+01  0.00000000000E+00 0. -1.
</event>
<event>
 8    1  0.3776180E-010  0.9118800E+02  0.7816164E-02  0.1184000E+00
        -11   -1    0    0    0    0  0.00000000000E+00  0.00000000000E+00  0.45593999997E+02  0.45594000000E+02  0.51100000000E-03 0. -1.
         11   -1    0    0    0    0 -0.00000000000E+00 -0.00000000000E+00 -0.45593999997E+02  0.45594000000E+02  0.51100000000E-03 0.  1.
         23    2    1    2    0    0 -0.17763568394E-14  0.00000000000E+00  0.35527136788E-14  0.91188000000E+02  0.91188000000E+02 0.  0.
    9900012    2    3    3    0    0 -0.42278828917E+01 -0.37913802309E+02  0.20695210104E+02  0.47787272811E+02  0.20000008054E+02 0.  0.
        -12    1    3    3    0    0  0.42278828917E+01  0.37913802309E+02 -0.20695210104E+02  0.43400727189E+02  0.00000000000E+00 0.  1.
         11    1    4    4    0    0 -0.35615287475E+01 -0.91609842113E+01  0.86379703553E+01  0.13085207330E+02  0.51100000000E-03 0. -1.
        -11    1    4    4    0    0 -0.47460321739E+01 -0.23372548991E+02  0.39883179193E+01  0.24180726784E+02  0.51100000000E-03 0.  1.
         12    1    4    4    0    0  0.40796780297E+01 -0.53802691073E+01  0.80689218297E+01  0.10521338697E+02  0.00000000000E+00 0. -1.
</event>
<event>
 8    1  0.3776180E-010  0.9118800E+02  0.7816164E-02  0.1184000E+00
        -11   -1    0    0    0    0  0.00000000000E+00  0.00000000000E+00  0.45593999997E+02  0.45594000000E+02  0.51100000000E-03 0. -1.
         11   -1    0    0    0    0 -0.00000000000E+00 -0.00000000000E+00 -0.45593999997E+02  0.45594000000E+02  0.51100000000E-03 0.  1.
         23    2    1    2    0    0  0.00000000000E+00  0.35527136788E-14  0.00000000000E+00  0.91188000000E+02  0.91188000000E+02 0.  0.
    9900012    2    3    3    0    0 -0.70737436865E+01  0.18972290683E+02 -0.38387983401E+02  0.47787274970E+02  0.20000017898E+02 0.  0.
         12    1    3    3    0    0  0.70737436865E+01 -0.18972290683E+02  0.38387983401E+02  0.43400725030E+02  0.00000000000E+00 0. -1.
         11    1    4    4    0    0 -0.34533797476E+01  0.20130577096E+02 -0.30322973727E+02  0.36560206534E+02  0.51100000000E-03 0. -1.
        -11    1    4    4    0    0 -0.11211189589E+01  0.23091014354E+01 -0.59034457193E+01  0.64373541755E+01  0.51100000000E-03 0.  1.
         12    1    4    4    0    0 -0.24992449800E+01 -0.34673878487E+01 -0.21615639553E+01  0.47897142604E+01  0.00000000000E+00 0. -1.
</event>
<event>
 8    1  0.3776180E-010  0.9118800E+02  0.7816164E-02  0.1184000E+00
        -11   -1    0    0    0    0  0.00000000000E+00  0.00000000000E+00  0.45593999997E+02  0.45594000000E+02  0.51100000000E-03 0. -1.
         11   -1    0    0    0    0 -0.00000000000E+00 -0.00000000000E+00 -0.45593999997E+02  0.45594000000E+02  0.51100000000E-03 0.  1.
         23    2    1    2    0    0  0.00000000000E+00  0.00000000000E+00  0.35527136788E-14  0.91188000000E+02  0.91188000000E+02 0.  0.
    9900012    2    3    3    0    0  0.32069623324E+02 -0.17253054569E+02 -0.23611323275E+02  0.47787271678E+02  0.20000002888E+02 0.  0.
         12    1    3    3    0    0 -0.32069623324E+02  0.17253054569E+02  0.23611323275E+02  0.43400728322E+02  0.00000000000E+00 0. -1.
         11    1    4    4    0    0 -0.30073164210E+00  0.21089309503E+01 -0.50961935314E+00  0.21903747213E+01  0.51100000000E-03 0. -1.
        -11    1    4    4    0    0  0.46690512634E+00 -0.29954533120E+01 -0.38456313145E+01  0.48968991627E+01  0.51100000000E-03 0.  1.
        -12    1    4    4    0    0  0.31903449840E+02 -0.16366532207E+02 -0.19256072607E+02  0.40699997794E+02  0.00000000000E+00 0.  1.
</event>
<event>
 8    1  0.3776180E-010  0.9118800E+02  0.7816164E-02  0.1184000E+00
        -11   -1    0    0    0    0  0.00000000000E+00  0.00000000000E+00  0.45593999997E+02  0.45594000000E+02  0.51100000000E-03 0. -1.
         11   -1    0    0    0    0 -0.00000000000E+00 -0.00000000000E+00 -0.45593999997E+02  0.45594000000E+02  0.51100000000E-03 0.  1.
         23    2    1    2    0    0  0.00000000000E+00  0.35527136788E-14  0.00000000000E+00  0.91188000000E+02  0.91188000000E+02 0.  0.
    9900012    2    3    3    0    0  0.33860598594E+02 -0.21835217557E+02 -0.16134017214E+02  0.47787269886E+02  0.19999994720E+02 0.  0.
         12    1    3    3    0    0 -0.33860598594E+02  0.21835217557E+02  0.16134017214E+02  0.43400730114E+02  0.00000000000E+00 0. -1.
         11    1    4    4    0    0  0.16967598177E+02 -0.13241394716E+02 -0.93919727733E+01  0.23482825102E+02  0.51100000000E-03 0. -1.
        -11    1    4    4    0    0  0.14644458718E+02 -0.49711791024E+01 -0.10441037611E+02  0.18659797948E+02  0.51100000000E-03 0.  1.
         12    1    4    4    0    0  0.22485416995E+01 -0.36226437387E+01  0.36989931704E+01  0.56446468363E+01  0.00000000000E+00 0. -1.
</event>
<event>
 8    1  0.3776180E-010  0.9118800E+02  0.7816164E-02  0.1184000E+00
        -11   -1    0    0    0    0  0.00000000000E+00  0.00000000000E+00  0.45593999997E+02  0.45594000000E+02  0.51100000000E-03 0. -1.
         11   -1    0    0    0    0 -0.00000000000E+00 -0.00000000000E+00 -0.45593999997E+02  0.45594000000E+02  0.51100000000E-03 0.  1.
         23    2    1    2    0    0 -0.35527136788E-14  0.00000000000E+00  0.35527136788E-14  0.91188000000E+02  0.91188000000E+02 0.  0.
    9900012    2    3    3    0    0 -0.23806045168E+02 -0.31973179838E+02 -0.17164248714E+02  0.47787269023E+02  0.19999990782E+02 0.  0.
         12    1    3    3    0    0  0.23806045168E+02  0.31973179838E+02  0.17164248714E+02  0.43400730977E+02  0.00000000000E+00 0. -1.
         11    1    4    4    0    0 -0.51461742476E+01 -0.15464641495E+02 -0.10595502688E+02  0.19439725395E+02  0.51100000000E-03 0. -1.
        -11    1    4    4    0    0 -0.52586594629E+01 -0.10995185928E+02  0.55405736601E+00  0.12200598049E+02  0.51100000000E-03 0.  1.
        -12    1    4    4    0    0 -0.13401211457E+02 -0.55133524157E+01 -0.71228033914E+01  0.16146945579E+02  0.00000000000E+00 0.  1.
</event>
<event>
 8    1  0.3776180E-010  0.9118800E+02  0.7816164E-02  0.1184000E+00
        -11   -1    0    0    0    0  0.00000000000E+00  0.00000000000E+00  0.45593999997E+02  0.45594000000E+02  0.51100000000E-03 0. -1.
         11   -1    0    0    0    0 -0.00000000000E+00 -0.00000000000E+00 -0.45593999997E+02  0.45594000000E+02  0.51100000000E-03 0.  1.
         23    2    1    2    0    0  0.00000000000E+00  0.00000000000E+00  0.00000000000E+00  0.91188000000E+02  0.91188000000E+02 0.  0.
    9900012    2    3    3    0    0 -0.22192051467E+02 -0.12706392779E+02 -0.35066844470E+02  0.47787272508E+02  0.20000006673E+02 0.  0.
         12    1    3    3    0    0  0.22192051467E+02  0.12706392779E+02  0.35066844470E+02  0.43400727492E+02  0.00000000000E+00 0. -1.
         11    1    4    4    0    0  0.20537182562E+01 -0.19851240315E+01  0.74106929812E+00  0.29508744571E+01  0.51100000000E-03 0. -1.
        -11    1    4    4    0    0 -0.95954357757E+01 -0.63750862299E+01 -0.17996828265E+02  0.21368199270E+02  0.51100000000E-03 0.  1.
         12    1    4    4    0    0 -0.14650333947E+02 -0.43461825174E+01 -0.17811085503E+02  0.23468198781E+02  0.00000000000E+00 0. -1.
</event>
<event>
 8    1  0.3776180E-010  0.9118800E+02  0.7816164E-02  0.1184000E+00
        -11   -1    0    0    0    0  0.00000000000E+00  0.00000000000E+00  0.45593999997E+02  0.45594000000E+02  0.51100000000E-03 0. -1.
         11   -1    0    0    0    0 -0.00000000000E+00 -0.00000000000E+00 -0.45593999997E+02  0.45594000000E+02  0.51100000000E-03 0.  1.
         23    2    1    2    0    0 -0.35527136788E-14  0.17763568394E-14  0.35527136788E-14  0.91188000000E+02  0.91188000000E+02 0.  0.
    9900012    2    3    3    0    0 -0.27138563614E+02  0.15319198908E+02 -0.30206695456E+02  0.47787263364E+02  0.19999964981E+02 0.  0.
         12    1    3    3    0    0  0.27138563614E+02 -0.15319198908E+02  0.30206695456E+02  0.43400736636E+02  0.00000000000E+00 0. -1.
         11    1    4    4    0    0 -0.14889563340E+02  0.36074739719E+01 -0.18877725447E+02  0.24312167391E+02  0.51100000000E-03 0. -1.
        -11    1    4    4    0    0 -0.10400510202E+02  0.82326056721E+01 -0.13542276305E+02  0.18956256392E+02  0.51100000000E-03 0.  1.
         12    1    4    4    0    0 -0.18484900713E+01  0.34791192638E+01  0.22133062964E+01  0.45188395808E+01  0.00000000000E+00 0. -1.
</event>
<event>
 8    1  0.3776180E-010  0.9118800E+02  0.7816164E-02  0.1184000E+00
        -11   -1    0    0    0    0  0.00000000000E+00  0.00000000000E+00  0.45593999997E+02  0.45594000000E+02  0.51100000000E-03 0. -1.
         11   -1    0    0    0    0 -0.00000000000E+00 -0.00000000000E+00 -0.45593999997E+02  0.45594000000E+02  0.51100000000E-03 0.  1.
         23    2    1    2    0    0  0.35527136788E-14  0.88817841970E-15  0.00000000000E+00  0.91188000000E+02  0.91188000000E+02 0.  0.
    9900012    2    3    3    0    0 -0.21263836160E+02 -0.75640248816E+01 -0.37070986554E+02  0.47787271380E+02  0.20000001532E+02 0.  0.
         12    1    3    3    0    0  0.21263836160E+02  0.75640248816E+01  0.37070986554E+02  0.43400728620E+02  0.00000000000E+00 0. -1.
         11    1    4    4    0    0 -0.67877940363E+01 -0.31093648876E+01 -0.19437768054E+02  0.20822322758E+02  0.51100000000E-03 0.  1.
        -11    1    4    4    0    0  0.22136556010E+01  0.14929666836E+01 -0.26370778647E+01  0.37527857072E+01  0.51100000000E-03 0. -1.
         12    1    4    4    0    0 -0.16689697724E+02 -0.59476266776E+01 -0.14996140636E+02  0.23212162915E+02  0.00000000000E+00 0. -1.
</event>
<event>
 8    1  0.3776180E-010  0.9118800E+02  0.7816164E-02  0.1184000E+00
        -11   -1    0    0    0    0  0.00000000000E+00  0.00000000000E+00  0.45593999997E+02  0.45594000000E+02  0.51100000000E-03 0. -1.
         11   -1    0    0    0    0 -0.00000000000E+00 -0.00000000000E+00 -0.45593999997E+02  0.45594000000E+02  0.51100000000E-03 0.  1.
         23    2    1    2    0    0  0.00000000000E+00  0.00000000000E+00 -0.71054273576E-14  0.91188000000E+02  0.91188000000E+02 0.  0.
    9900012    2    3    3    0    0  0.33290205318E+01 -0.25057535096E+02  0.35279750724E+02  0.47787271274E+02  0.20000001048E+02 0.  0.
        -12    1    3    3    0    0 -0.33290205318E+01  0.25057535096E+02 -0.35279750724E+02  0.43400728726E+02  0.00000000000E+00 0.  1.
         11    1    4    4    0    0  0.10630001488E+00 -0.19889386237E+02  0.30311511366E+02  0.36254471533E+02  0.51100000000E-03 0. -1.
        -11    1    4    4    0    0  0.57888698418E+00 -0.38606616675E+01  0.69556227855E+01  0.79762464384E+01  0.51100000000E-03 0.  1.
        -12    1    4    4    0    0  0.26438335327E+01 -0.13074871914E+01 -0.19873834281E+01  0.35565533026E+01  0.00000000000E+00 0.  1.
</event>
<event>
 8    1  0.3776180E-010  0.9118800E+02  0.7816164E-02  0.1184000E+00
        -11   -1    0    0    0    0  0.00000000000E+00  0.00000000000E+00  0.45593999997E+02  0.45594000000E+02  0.51100000000E-03 0. -1.
         11   -1    0    0    0    0 -0.00000000000E+00 -0.00000000000E+00 -0.45593999997E+02  0.45594000000E+02  0.51100000000E-03 0.  1.
         23    2    1    2    0    0  0.26645352591E-14  0.44408920985E-15 -0.71054273576E-14  0.91188000000E+02  0.91188000000E+02 0.  0.
    9900012    2    3    3    0    0 -0.74960789380E+01 -0.38003370073E+01  0.42579213815E+02  0.47787271782E+02  0.20000003361E+02 0.  0.
        -12    1    3    3    0    0  0.74960789380E+01  0.38003370073E+01 -0.42579213815E+02  0.43400728218E+02  0.00000000000E+00 0.  1.
         11    1    4    4    0    0  0.81636408351E+00  0.27723620701E+01  0.48129897698E+01  0.56140281928E+01  0.51100000000E-03 0.  1.
        -11    1    4    4    0    0 -0.52957237799E+01 -0.31595576519E+01  0.37052843650E+02  0.37562490834E+02  0.51100000000E-03 0. -1.
        -12    1    4    4    0    0 -0.30167192416E+01 -0.34131414255E+01  0.71338039538E+00  0.46107527543E+01  0.00000000000E+00 0.  1.
</event>
<event>
 8    1  0.3776180E-010  0.9118800E+02  0.7816164E-02  0.1184000E+00
        -11   -1    0    0    0    0  0.00000000000E+00  0.00000000000E+00  0.45593999997E+02  0.45594000000E+02  0.51100000000E-03 0.  1.
         11   -1    0    0    0    0 -0.00000000000E+00 -0.00000000000E+00 -0.45593999997E+02  0.45594000000E+02  0.51100000000E-03 0. -1.
         23    2    1    2    0    0  0.71054273576E-14  0.35527136788E-14 -0.35527136788E-14  0.91188000000E+02  0.91188000000E+02 0.  0.
    9900012    2    3    3    0    0  0.28387391284E+02  0.26272187148E+02 -0.19686295984E+02  0.47787285132E+02  0.20000064231E+02 0.  0.
         12    1    3    3    0    0 -0.28387391284E+02 -0.26272187148E+02  0.19686295984E+02  0.43400714868E+02  0.00000000000E+00 0. -1.
         11    1    4    4    0    0  0.62727160687E+01  0.11635999853E+02 -0.61049872273E+01  0.14560711822E+02  0.51100000000E-03 0. -1.
        -11    1    4    4    0    0  0.94680719087E+01  0.14758523839E+02 -0.94673311218E+01  0.19927086350E+02  0.51100000000E-03 0.  1.
         12    1    4    4    0    0  0.12646603307E+02 -0.12233654304E+00 -0.41139776349E+01  0.13299486960E+02  0.00000000000E+00 0. -1.
</event>
<event>
 8    1  0.3776180E-010  0.9118800E+02  0.7816164E-02  0.1184000E+00
        -11   -1    0    0    0    0  0.00000000000E+00  0.00000000000E+00  0.45593999997E+02  0.45594000000E+02  0.51100000000E-03 0. -1.
         11   -1    0    0    0    0 -0.00000000000E+00 -0.00000000000E+00 -0.45593999997E+02  0.45594000000E+02  0.51100000000E-03 0.  1.
         23    2    1    2    0    0  0.00000000000E+00  0.00000000000E+00  0.35527136788E-14  0.91188000000E+02  0.91188000000E+02 0.  0.
    9900012    2    3    3    0    0 -0.30680842168E+02 -0.20802442211E+02 -0.22573600804E+02  0.47787272687E+02  0.20000007488E+02 0.  0.
         12    1    3    3    0    0  0.30680842168E+02  0.20802442211E+02  0.22573600804E+02  0.43400727313E+02  0.00000000000E+00 0. -1.
         11    1    4    4    0    0 -0.26058638420E+01  0.29564544576E+00  0.13488034216E-02  0.26225816809E+01  0.51100000000E-03 0. -1.
        -11    1    4    4    0    0 -0.15694330998E+02 -0.16811722342E+02 -0.22337279174E+02  0.32060880754E+02  0.51100000000E-03 0.  1.
        -12    1    4    4    0    0 -0.12380647328E+02 -0.42863653146E+01 -0.23767043285E+00  0.13103810251E+02  0.00000000000E+00 0.  1.
</event>
<event>
 8    1  0.3776180E-010  0.9118800E+02  0.7816164E-02  0.1184000E+00
        -11   -1    0    0    0    0  0.00000000000E+00  0.00000000000E+00  0.45593999997E+02  0.45594000000E+02  0.51100000000E-03 0. -1.
         11   -1    0    0    0    0 -0.00000000000E+00 -0.00000000000E+00 -0.45593999997E+02  0.45594000000E+02  0.51100000000E-03 0.  1.
         23    2    1    2    0    0 -0.17763568394E-14 -0.71054273576E-14  0.00000000000E+00  0.91188000000E+02  0.91188000000E+02 0.  0.
    9900012    2    3    3    0    0  0.51122546813E+01  0.35758995647E+02 -0.24057938352E+02  0.47787247526E+02  0.19999892769E+02 0.  0.
         12    1    3    3    0    0 -0.51122546813E+01 -0.35758995647E+02  0.24057938352E+02  0.43400752474E+02  0.00000000000E+00 0. -1.
         11    1    4    4    0    0  0.31212604251E+01  0.26273650594E+01 -0.37176524228E+01  0.55196244070E+01  0.51100000000E-03 0. -1.
        -11    1    4    4    0    0  0.33314267221E+01  0.10812205143E+02 -0.15830331135E+02  0.19457686608E+02  0.51100000000E-03 0.  1.
        -12    1    4    4    0    0 -0.13404324659E+01  0.22319425444E+02 -0.45099547947E+01  0.22809936510E+02  0.00000000000E+00 0.  1.
</event>
