<event>
 7    1  0.2983653E-010  0.4778727E+02  0.7816164E-02  0.1312668E+00
        -11   -1    0    0    0    0  0.00000000000E+00  0.00000000000E+00  0.45593999997E+02  0.45594000000E+02  0.51100000000E-03 0.  1.
         11   -1    0    0    0    0 -0.00000000000E+00 -0.00000000000E+00 -0.45593999997E+02  0.45594000000E+02  0.51100000000E-03 0. -1.
    9900012    2    1    2    0    0 -0.37409031506E+02 -0.16129507750E+02 -0.14967517586E+02  0.47787271421E+02  0.20000001719E+02 0.  0.
        -12    1    1    2    0    0  0.37409031506E+02  0.16129507750E+02  0.14967517586E+02  0.43400728579E+02  0.00000000000E+00 0.  1.
         11    1    3    3    0    0 -0.24211545382E+01  0.40756466858E+01 -0.21489322635E+01  0.52048818757E+01  0.51100000000E-03 0. -1.
        -11    1    3    3    0    0 -0.14804896906E+02 -0.10831241404E+02 -0.53309270463E+01  0.19102867486E+02  0.51100000000E-03 0.  1.
         12    1    3    3    0    0 -0.20182980062E+02 -0.93739130318E+01 -0.74876582759E+01  0.23479522060E+02  0.00000000000E+00 0. -1.
</event>
<event>
 7    1  0.2983653E-010  0.4778726E+02  0.7816164E-02  0.1312668E+00
        -11   -1    0    0    0    0  0.00000000000E+00  0.00000000000E+00  0.45593999997E+02  0.45594000000E+02  0.51100000000E-03 0.  1.
         11   -1    0    0    0    0 -0.00000000000E+00 -0.00000000000E+00 -0.45593999997E+02  0.45594000000E+02  0.51100000000E-03 0. -1.
    9900012    2    1    2    0    0  0.10661990625E+02  0.26981081224E+02 -0.32279514165E+02  0.47787264720E+02  0.19999971166E+02 0.  0.
        -12    1    1    2    0    0 -0.10661990625E+02 -0.26981081224E+02  0.32279514165E+02  0.43400735280E+02  0.00000000000E+00 0.  1.
         11    1    3    3    0    0  0.29531014557E+01  0.12394299221E+02 -0.11141478843E+02  0.16925484113E+02  0.51100000000E-03 0.  1.
        -11    1    3    3    0    0  0.12063019352E+02  0.13127734005E+02 -0.17725360807E+02  0.25140450513E+02  0.51100000000E-03 0. -1.
        -12    1    3    3    0    0 -0.43541301826E+01  0.14590479980E+01 -0.34126745157E+01  0.57213300951E+01  0.00000000000E+00 0.  1.
</event>
<event>
 7    1  0.2983653E-010  0.4778727E+02  0.7816164E-02  0.1312668E+00
        -11   -1    0    0    0    0  0.00000000000E+00  0.00000000000E+00  0.45593999997E+02  0.45594000000E+02  0.51100000000E-03 0.  1.
         11   -1    0    0    0    0 -0.00000000000E+00 -0.00000000000E+00 -0.45593999997E+02  0.45594000000E+02  0.51100000000E-03 0. -1.
    9900012    2    1    2    0    0  0.29284438510E+02  0.92615171675E+01 -0.30663811286E+02  0.47787270033E+02  0.19999995391E+02 0.  0.
        -12    1    1    2    0    0 -0.29284438510E+02 -0.92615171675E+01  0.30663811286E+02  0.43400729967E+02  0.00000000000E+00 0.  1.
         11    1    3    3    0    0  0.99061715648E+01  0.71354146456E+01 -0.14796621873E+02  0.19182971520E+02  0.51100000000E-03 0. -1.
        -11    1    3    3    0    0  0.73745738028E+01  0.12250207249E+01 -0.14723509224E+02  0.16512623616E+02  0.51100000000E-03 0.  1.
        -12    1    3    3    0    0  0.12003693142E+02  0.90108179705E+00 -0.11436801889E+01  0.12091674898E+02  0.00000000000E+00 0.  1.
</event>
<event>
 7    1  0.2983653E-010  0.4778727E+02  0.7816164E-02  0.1312668E+00
        -11   -1    0    0    0    0  0.00000000000E+00  0.00000000000E+00  0.45593999997E+02  0.45594000000E+02  0.51100000000E-03 0. -1.
         11   -1    0    0    0    0 -0.00000000000E+00 -0.00000000000E+00 -0.45593999997E+02  0.45594000000E+02  0.51100000000E-03 0.  1.
    9900012    2    1    2    0    0 -0.36638555331E+02 -0.22855552156E+02 -0.43432056481E+01  0.47787269172E+02  0.19999991464E+02 0.  0.
        -12    1    1    2    0    0  0.36638555331E+02  0.22855552156E+02  0.43432056481E+01  0.43400730828E+02  0.00000000000E+00 0.  1.
         11    1    3    3    0    0  0.96510898825E+00 -0.27448058150E+01 -0.37630051772E+01  0.47566377354E+01  0.51100000000E-03 0.  1.
        -11    1    3    3    0    0 -0.33925428452E+02 -0.19600081879E+02 -0.14850738374E+01  0.39208460182E+02  0.51100000000E-03 0. -1.
        -12    1    3    3    0    0 -0.36782358675E+01 -0.51066446181E+00  0.90487336647E+00  0.38221712545E+01  0.00000000000E+00 0.  1.
</event>
<event>
 7    1  0.2983653E-010  0.4778728E+02  0.7816164E-02  0.1312668E+00
        -11   -1    0    0    0    0  0.00000000000E+00  0.00000000000E+00  0.45593999997E+02  0.45594000000E+02  0.51100000000E-03 0.  1.
         11   -1    0    0    0    0 -0.00000000000E+00 -0.00000000000E+00 -0.45593999997E+02  0.45594000000E+02  0.51100000000E-03 0. -1.
    9900012    2    1    2    0    0  0.24829506790E+02  0.68135498065E+01 -0.34938430559E+02  0.47787276523E+02  0.20000024981E+02 0.  0.
        -12    1    1    2    0    0 -0.24829506790E+02 -0.68135498065E+01  0.34938430559E+02  0.43400723477E+02  0.00000000000E+00 0.  1.
         11    1    3    3    0    0  0.85791146957E+01  0.10457357562E+02 -0.15106697907E+02  0.20277323740E+02  0.51100000000E-03 0. -1.
        -11    1    3    3    0    0  0.10938504077E+02 -0.21407528696E+01 -0.60909725692E+01  0.12701718049E+02  0.51100000000E-03 0.  1.
         12    1    3    3    0    0  0.53118880169E+01 -0.15030548863E+01 -0.13740760083E+02  0.14808234734E+02  0.00000000000E+00 0. -1.
</event>
<event>
 7    1  0.2983653E-010  0.4778727E+02  0.7816164E-02  0.1312668E+00
        -11   -1    0    0    0    0  0.00000000000E+00  0.00000000000E+00  0.45593999997E+02  0.45594000000E+02  0.51100000000E-03 0. -1.
         11   -1    0    0    0    0 -0.00000000000E+00 -0.00000000000E+00 -0.45593999997E+02  0.45594000000E+02  0.51100000000E-03 0.  1.
    9900012    2    1    2    0    0  0.38971562641E+01 -0.20580773457E+02  0.38011412270E+02  0.47787268142E+02  0.19999986768E+02 0.  0.
        -12    1    1    2    0    0 -0.38971562641E+01  0.20580773457E+02 -0.38011412270E+02  0.43400731858E+02  0.00000000000E+00 0.  1.
         11    1    3    3    0    0  0.59766195504E+01 -0.12332749407E+02  0.23918094723E+02  0.27566137644E+02  0.51100000000E-03 0. -1.
        -11    1    3    3    0    0 -0.35408351158E+01  0.20400993957E+01  0.34763941383E+01  0.53651500750E+01  0.51100000000E-03 0.  1.
         12    1    3    3    0    0  0.14613718294E+01 -0.10288123446E+02  0.10616923409E+02  0.14855980423E+02  0.00000000000E+00 0. -1.
</event>
<event>
 7    1  0.2983653E-010  0.4778727E+02  0.7816164E-02  0.1312668E+00
        -11   -1    0    0    0    0  0.00000000000E+00  0.00000000000E+00  0.45593999997E+02  0.45594000000E+02  0.51100000000E-03 0. -1.
         11   -1    0    0    0    0 -0.00000000000E+00 -0.00000000000E+00 -0.45593999997E+02  0.45594000000E+02  0.51100000000E-03 0.  1.
    9900012    2    1    2    0    0  0.36908088704E+02 -0.11991860571E+02  0.19432221478E+02  0.47787274623E+02  0.20000016314E+02 0.  0.
        -12    1    1    2    0    0 -0.36908088704E+02  0.11991860571E+02 -0.19432221478E+02  0.43400725377E+02  0.00000000000E+00 0.  1.
         11    1    3    3    0    0  0.90097671392E+01  0.60724060591E+00  0.62643448896E+01  0.10990298550E+02  0.51100000000E-03 0. -1.
        -11    1    3    3    0    0 -0.10666390300E+01 -0.29704586682E+01  0.36471439879E+01  0.48231735455E+01  0.51100000000E-03 0.  1.
        -12    1    3    3    0    0  0.28964960595E+02 -0.96286425086E+01  0.95207326002E+01  0.31973802527E+02  0.00000000000E+00 0.  1.
</event>
<event>
 7    1  0.2983653E-010  0.4778727E+02  0.7816164E-02  0.1312668E+00
        -11   -1    0    0    0    0  0.00000000000E+00  0.00000000000E+00  0.45593999997E+02  0.45594000000E+02  0.51100000000E-03 0.  1.
         11   -1    0    0    0    0 -0.00000000000E+00 -0.00000000000E+00 -0.45593999997E+02  0.45594000000E+02  0.51100000000E-03 0. -1.
    9900012    2    1    2    0    0  0.21802167104E+02 -0.34589728536E+02 -0.14554703133E+02  0.47787271966E+02  0.20000004201E+02 0.  0.
        -12    1    1    2    0    0 -0.21802167104E+02  0.34589728536E+02  0.14554703133E+02  0.43400728034E+02  0.00000000000E+00 0.  1.
         11    1    3    3    0    0 -0.10422883659E+01  0.14018453230E+01 -0.98390559013E+00  0.20048954633E+01  0.51100000000E-03 0. -1.
        -11    1    3    3    0    0  0.14913047799E+01  0.16966105542E+00  0.34794855013E+00  0.15407281639E+01  0.51100000000E-03 0.  1.
         12    1    3    3    0    0  0.21353150690E+02 -0.36161234914E+02 -0.13918746093E+02  0.44241648339E+02  0.00000000000E+00 0. -1.
</event>
<event>
 7    1  0.2983653E-010  0.4778728E+02  0.7816164E-02  0.1312668E+00
        -11   -1    0    0    0    0  0.00000000000E+00  0.00000000000E+00  0.45593999997E+02  0.45594000000E+02  0.51100000000E-03 0.  1.
         11   -1    0    0    0    0 -0.00000000000E+00 -0.00000000000E+00 -0.45593999997E+02  0.45594000000E+02  0.51100000000E-03 0. -1.
    9900012    2    1    2    0    0 -0.47457392500E+00 -0.22885496671E+02 -0.36873455425E+02  0.47787275429E+02  0.20000019992E+02 0.  0.
        -12    1    1    2    0    0  0.47457392500E+00  0.22885496671E+02  0.36873455425E+02  0.43400724571E+02  0.00000000000E+00 0.  1.
         11    1    3    3    0    0  0.65695159597E+01 -0.15959841036E+02 -0.21598490563E+02  0.27647239658E+02  0.51100000000E-03 0. -1.
        -11    1    3    3    0    0 -0.37497165981E+00  0.44703894646E-01  0.10843310181E+01  0.11482056444E+01  0.51100000000E-03 0.  1.
         12    1    3    3    0    0 -0.66691182249E+01 -0.69703595291E+01 -0.16359295880E+02  0.18991830127E+02  0.00000000000E+00 0. -1.
</event>
<event>
 7    1  0.2983653E-010  0.4778727E+02  0.7816164E-02  0.1312668E+00
        -11   -1    0    0    0    0  0.00000000000E+00  0.00000000000E+00  0.45593999997E+02  0.45594000000E+02  0.51100000000E-03 0.  1.
         11   -1    0    0    0    0 -0.00000000000E+00 -0.00000000000E+00 -0.45593999997E+02  0.45594000000E+02  0.51100000000E-03 0. -1.
    9900012    2    1    2    0    0  0.20645701361E+02  0.10306081903E+01 -0.38161710647E+02  0.47787270773E+02  0.19999998761E+02 0.  0.
        -12    1    1    2    0    0 -0.20645701361E+02 -0.10306081903E+01  0.38161710647E+02  0.43400729227E+02  0.00000000000E+00 0.  1.
         11    1    3    3    0    0  0.16837950615E+02  0.79755523889E+01 -0.26940638319E+02  0.32755518774E+02  0.51100000000E-03 0. -1.
        -11    1    3    3    0    0 -0.82729058155E+00 -0.37412214915E+01 -0.22658821724E+01  0.44514458589E+01  0.51100000000E-03 0.  1.
         12    1    3    3    0    0  0.46350413276E+01 -0.32037227071E+01 -0.89551901559E+01  0.10580306140E+02  0.00000000000E+00 0. -1.
</event>
<event>
 7    1  0.2983653E-010  0.4778727E+02  0.7816164E-02  0.1312668E+00
        -11   -1    0    0    0    0  0.00000000000E+00  0.00000000000E+00  0.45593999997E+02  0.45594000000E+02  0.51100000000E-03 0. -1.
         11   -1    0    0    0    0 -0.00000000000E+00 -0.00000000000E+00 -0.45593999997E+02  0.45594000000E+02  0.51100000000E-03 0.  1.
    9900012    2    1    2    0    0  0.10076289126E+02  0.25176277417E+02  0.33885785628E+02  0.47787274030E+02  0.20000013613E+02 0.  0.
        -12    1    1    2    0    0 -0.10076289126E+02 -0.25176277417E+02 -0.33885785628E+02  0.43400725970E+02  0.00000000000E+00 0.  1.
         11    1    3    3    0    0  0.38801004517E+01  0.14769959933E+02  0.84324721634E+01  0.17444583199E+02  0.51100000000E-03 0. -1.
        -11    1    3    3    0    0  0.62136455647E+01  0.90558985924E+01  0.26466244193E+02  0.28654507018E+02  0.51100000000E-03 0.  1.
         12    1    3    3    0    0 -0.17456889960E-01  0.13504188910E+01 -0.10129307287E+01  0.16881838127E+01  0.00000000000E+00 0. -1.
</event>
<event>
 7    1  0.2983653E-010  0.4778727E+02  0.7816164E-02  0.1312668E+00
        -11   -1    0    0    0    0  0.00000000000E+00  0.00000000000E+00  0.45593999997E+02  0.45594000000E+02  0.51100000000E-03 0. -1.
         11   -1    0    0    0    0 -0.00000000000E+00 -0.00000000000E+00 -0.45593999997E+02  0.45594000000E+02  0.51100000000E-03 0.  1.
    9900012    2    1    2    0    0 -0.15185556731E+00  0.43063059987E+02  0.54012080250E+01  0.47787271392E+02  0.20000001583E+02 0.  0.
        -12    1    1    2    0    0  0.15185556731E+00 -0.43063059987E+02 -0.54012080250E+01  0.43400728608E+02  0.00000000000E+00 0.  1.
         11    1    3    3    0    0  0.56660340649E+01  0.28658590851E+02  0.32044032682E+00  0.29215089489E+02  0.51100000000E-03 0. -1.
        -11    1    3    3    0    0 -0.71352699230E+01  0.10687640859E+02  0.64748467755E+01  0.14389627689E+02  0.51100000000E-03 0.  1.
        -12    1    3    3    0    0  0.13173802908E+01  0.37168282774E+01 -0.13940790774E+01  0.41825542134E+01  0.00000000000E+00 0.  1.
</event>
<event>
 7    1  0.2983653E-010  0.4778727E+02  0.7816164E-02  0.1312668E+00
        -11   -1    0    0    0    0  0.00000000000E+00  0.00000000000E+00  0.45593999997E+02  0.45594000000E+02  0.51100000000E-03 0.  1.
         11   -1    0    0    0    0 -0.00000000000E+00 -0.00000000000E+00 -0.45593999997E+02  0.45594000000E+02  0.51100000000E-03 0. -1.
    9900012    2    1    2    0    0  0.34827468058E+02 -0.93568568050E+01 -0.24147881100E+02  0.47787268875E+02  0.19999990108E+02 0.  0.
        -12    1    1    2    0    0 -0.34827468058E+02  0.93568568050E+01  0.24147881100E+02  0.43400731125E+02  0.00000000000E+00 0.  1.
         11    1    3    3    0    0  0.72299536712E+01  0.43046830375E+01 -0.54567608163E+01  0.10028896500E+02  0.51100000000E-03 0. -1.
        -11    1    3    3    0    0  0.25053849351E+02 -0.15099558950E+02 -0.18903522022E+02  0.34828654766E+02  0.51100000000E-03 0.  1.
        -12    1    3    3    0    0  0.25436650357E+01  0.14380191071E+01  0.21240173766E+00  0.29297176083E+01  0.00000000000E+00 0.  1.
</event>
<event>
 7    1  0.4447299E-010  0.4778727E+02  0.7816164E-02  0.1312668E+00
        -11   -1    0    0    0    0  0.00000000000E+00  0.00000000000E+00  0.45593999997E+02  0.45594000000E+02  0.51100000000E-03 0. -1.
         11   -1    0    0    0    0 -0.00000000000E+00 -0.00000000000E+00 -0.45593999997E+02  0.45594000000E+02  0.51100000000E-03 0.  1.
    9900012    2    1    2    0    0 -0.34949368697E+02  0.36157838080E+01  0.25477264032E+02  0.47787271349E+02  0.20000001387E+02 0.  0.
        -12    1    1    2    0    0  0.34949368697E+02 -0.36157838080E+01 -0.25477264032E+02  0.43400728651E+02  0.00000000000E+00 0.  1.
         11    1    3    3    0    0 -0.15668102827E+02  0.32745924262E+01  0.17347909088E+02  0.23604286724E+02  0.51100000000E-03 0. -1.
        -11    1    3    3    0    0 -0.51639834691E+01 -0.54481690609E+01  0.30317266241E+01  0.80957172610E+01  0.51100000000E-03 0.  1.
        -12    1    3    3    0    0 -0.14117282402E+02  0.57893604427E+01  0.50976283198E+01  0.16087267364E+02  0.00000000000E+00 0.  1.
</event>
<event>
 7    1  0.2983653E-010  0.4778727E+02  0.7816164E-02  0.1312668E+00
        -11   -1    0    0    0    0  0.00000000000E+00  0.00000000000E+00  0.45593999997E+02  0.45594000000E+02  0.51100000000E-03 0.  1.
         11   -1    0    0    0    0 -0.00000000000E+00 -0.00000000000E+00 -0.45593999997E+02  0.45594000000E+02  0.51100000000E-03 0. -1.
    9900012    2    1    2    0    0 -0.40027975997E+02  0.11088523099E+02 -0.12586861869E+02  0.47787270759E+02  0.19999998697E+02 0.  0.
        -12    1    1    2    0    0  0.40027975997E+02 -0.11088523099E+02  0.12586861869E+02  0.43400729241E+02  0.00000000000E+00 0.  1.
         11    1    3    3    0    0 -0.37658011242E+01  0.51959184450E+01  0.10726644335E+01  0.65061075800E+01  0.51100000000E-03 0. -1.
        -11    1    3    3    0    0 -0.23182569028E+02 -0.81794238446E+00 -0.12942025437E+02  0.26563067577E+02  0.51100000000E-03 0.  1.
         12    1    3    3    0    0 -0.13079605845E+02  0.67105470389E+01 -0.71750086641E+00  0.14718095601E+02  0.00000000000E+00 0. -1.
</event>
<event>
 7    1  0.2983653E-010  0.4778727E+02  0.7816164E-02  0.1312668E+00
        -11   -1    0    0    0    0  0.00000000000E+00  0.00000000000E+00  0.45593999997E+02  0.45594000000E+02  0.51100000000E-03 0.  1.
         11   -1    0    0    0    0 -0.00000000000E+00 -0.00000000000E+00 -0.45593999997E+02  0.45594000000E+02  0.51100000000E-03 0. -1.
    9900012    2    1    2    0    0 -0.14918737460E+02  0.13252796310E+02 -0.38541120035E+02  0.47787271078E+02  0.20000000154E+02 0.  0.
        -12    1    1    2    0    0  0.14918737460E+02 -0.13252796310E+02  0.38541120035E+02  0.43400728922E+02  0.00000000000E+00 0.  1.
         11    1    3    3    0    0 -0.53831236862E+01  0.12778148625E+02 -0.26455554150E+02  0.29868971334E+02  0.51100000000E-03 0. -1.
        -11    1    3    3    0    0 -0.39618194219E+01 -0.43164983640E+01 -0.58511060704E+01  0.82803148349E+01  0.51100000000E-03 0.  1.
        -12    1    3    3    0    0 -0.55737943518E+01  0.47911460485E+01 -0.62344598137E+01  0.96379849088E+01  0.00000000000E+00 0.  1.
</event>
<event>
 7    1  0.2983653E-010  0.4778727E+02  0.7816164E-02  0.1312668E+00
        -11   -1    0    0    0    0  0.00000000000E+00  0.00000000000E+00  0.45593999997E+02  0.45594000000E+02  0.51100000000E-03 0.  1.
         11   -1    0    0    0    0 -0.00000000000E+00 -0.00000000000E+00 -0.45593999997E+02  0.45594000000E+02  0.51100000000E-03 0. -1.
    9900012    2    1    2    0    0 -0.10322190746E+02  0.22065546531E+02 -0.35919179143E+02  0.47787269640E+02  0.19999993594E+02 0.  0.
        -12    1    1    2    0    0  0.10322190746E+02 -0.22065546531E+02  0.35919179143E+02  0.43400730360E+02  0.00000000000E+00 0.  1.
         11    1    3    3    0    0 -0.11876359165E+02  0.80431021046E+01 -0.12333544781E+02  0.18917074975E+02  0.51100000000E-03 0.  1.
        -11    1    3    3    0    0  0.74791998918E+00 -0.49628344949E+00 -0.59292988760E+01  0.59968547585E+01  0.51100000000E-03 0. -1.
         12    1    3    3    0    0  0.80624842989E+00  0.14518727876E+02 -0.17656335486E+02  0.22873339906E+02  0.00000000000E+00 0. -1.
</event>
<event>
 7    1  0.2983653E-010  0.4778727E+02  0.7816164E-02  0.1312668E+00
        -11   -1    0    0    0    0  0.00000000000E+00  0.00000000000E+00  0.45593999997E+02  0.45594000000E+02  0.51100000000E-03 0. -1.
         11   -1    0    0    0    0 -0.00000000000E+00 -0.00000000000E+00 -0.45593999997E+02  0.45594000000E+02  0.51100000000E-03 0.  1.
    9900012    2    1    2    0    0  0.39728266822E+02  0.34092950602E+01  0.17136647566E+02  0.47787272273E+02  0.20000005601E+02 0.  0.
        -12    1    1    2    0    0 -0.39728266822E+02 -0.34092950602E+01 -0.17136647566E+02  0.43400727727E+02  0.00000000000E+00 0.  1.
         11    1    3    3    0    0  0.55675923712E+01 -0.37365964457E+01  0.45557938161E+01  0.81065094440E+01  0.51100000000E-03 0. -1.
        -11    1    3    3    0    0  0.16798220498E+02  0.10504160860E+02  0.83350271246E+01  0.21493959261E+02  0.51100000000E-03 0.  1.
        -12    1    3    3    0    0  0.17362453952E+02 -0.33582693539E+01  0.42458266249E+01  0.18186803568E+02  0.00000000000E+00 0.  1.
</event>
<event>
 7    1  0.2983653E-010  0.4778727E+02  0.7816164E-02  0.1312668E+00
        -11   -1    0    0    0    0  0.00000000000E+00  0.00000000000E+00  0.45593999997E+02  0.45594000000E+02  0.51100000000E-03 0.  1.
         11   -1    0    0    0    0 -0.00000000000E+00 -0.00000000000E+00 -0.45593999997E+02  0.45594000000E+02  0.51100000000E-03 0. -1.
    9900012    2    1    2    0    0 -0.37541150135E+02 -0.21114979665E+02  0.53332029322E+01  0.47787269900E+02  0.19999994783E+02 0.  0.
        -12    1    1    2    0    0  0.37541150135E+02  0.21114979665E+02 -0.53332029322E+01  0.43400730100E+02  0.00000000000E+00 0.  1.
         11    1    3    3    0    0 -0.21144028401E+02 -0.48634079656E+01 -0.21921169620E+01  0.21806605675E+02  0.51100000000E-03 0. -1.
        -11    1    3    3    0    0 -0.12467396542E+02 -0.16075501966E+02  0.82998598895E+01  0.21971468190E+02  0.51100000000E-03 0.  1.
        -12    1    3    3    0    0 -0.39297251923E+01 -0.17606973340E+00 -0.77453999533E+00  0.40091960344E+01  0.00000000000E+00 0.  1.
</event>
<event>
 7    1  0.2983653E-010  0.4778732E+02  0.7816164E-02  0.1312668E+00
        -11   -1    0    0    0    0  0.00000000000E+00  0.00000000000E+00  0.45593999997E+02  0.45594000000E+02  0.51100000000E-03 0.  1.
         11   -1    0    0    0    0 -0.00000000000E+00 -0.00000000000E+00 -0.45593999997E+02  0.45594000000E+02  0.51100000000E-03 0. -1.
    9900012    2    1    2    0    0 -0.11374951737E+02  0.57121153167E+01 -0.41492178964E+02  0.47787323697E+02  0.20000240061E+02 0.  0.
        -12    1    1    2    0    0  0.11374951737E+02 -0.57121153167E+01  0.41492178964E+02  0.43400676303E+02  0.00000000000E+00 0.  1.
         11    1    3    3    0    0 -0.87986583862E+01  0.61764274183E+01 -0.17187454676E+02  0.20272475023E+02  0.51100000000E-03 0. -1.
        -11    1    3    3    0    0  0.19867787399E+01 -0.55003904309E+01 -0.13983868148E+02  0.15157511448E+02  0.51100000000E-03 0.  1.
        -12    1    3    3    0    0 -0.45630720912E+01  0.50360783293E+01 -0.10320856140E+02  0.12357337226E+02  0.00000000000E+00 0.  1.
</event>
<event>
 7    1  0.2983653E-010  0.4778727E+02  0.7816164E-02  0.1312668E+00
        -11   -1    0    0    0    0  0.00000000000E+00  0.00000000000E+00  0.45593999997E+02  0.45594000000E+02  0.51100000000E-03 0. -1.
         11   -1    0    0    0    0 -0.00000000000E+00 -0.00000000000E+00 -0.45593999997E+02  0.45594000000E+02  0.51100000000E-03 0.  1.
    9900012    2    1    2    0    0 -0.69968741392E+01 -0.41607014327E+02 -0.10174643393E+02  0.47787271237E+02  0.20000000879E+02 0.  0.
        -12    1    1    2    0    0  0.69968741392E+01  0.41607014327E+02  0.10174643393E+02  0.43400728763E+02  0.00000000000E+00 0.  1.
         11    1    3    3    0    0 -0.10234511919E+02 -0.28894981639E+02 -0.64032671652E+01  0.31315603599E+02  0.51100000000E-03 0. -1.
        -11    1    3    3    0    0  0.46907207660E+01 -0.36065300873E+01 -0.41758640934E+01  0.72420826951E+01  0.51100000000E-03 0.  1.
        -12    1    3    3    0    0 -0.14530829863E+01 -0.91055026015E+01  0.40448786595E+00  0.92295849433E+01  0.00000000000E+00 0.  1.
</event>
<event>
 7    1  0.2983653E-010  0.4778726E+02  0.7816164E-02  0.1312668E+00
        -11   -1    0    0    0    0  0.00000000000E+00  0.00000000000E+00  0.45593999997E+02  0.45594000000E+02  0.51100000000E-03 0.  1.
         11   -1    0    0    0    0 -0.00000000000E+00 -0.00000000000E+00 -0.45593999997E+02  0.45594000000E+02  0.51100000000E-03 0. -1.
    9900012    2    1    2    0    0  0.38710317586E+01 -0.31670805634E+02 -0.29421067135E+02  0.47787262590E+02  0.19999961454E+02 0.  0.
        -12    1    1    2    0    0 -0.38710317586E+01  0.31670805634E+02  0.29421067135E+02  0.43400737410E+02  0.00000000000E+00 0.  1.
         11    1    3    3    0    0  0.49049396174E+01 -0.10069450521E+02 -0.23652693372E+01  0.11447565931E+02  0.51100000000E-03 0. -1.
        -11    1    3    3    0    0 -0.56751376315E+01 -0.82694737901E+01 -0.12993913728E+02  0.16414419824E+02  0.51100000000E-03 0.  1.
        -12    1    3    3    0    0  0.46412297727E+01 -0.13331881322E+02 -0.14061884069E+02  0.19925276835E+02  0.00000000000E+00 0.  1.
</event>
<event>
 7    1  0.2983653E-010  0.4778727E+02  0.7816164E-02  0.1312668E+00
        -11   -1    0    0    0    0  0.00000000000E+00  0.00000000000E+00  0.45593999997E+02  0.45594000000E+02  0.51100000000E-03 0.  1.
         11   -1    0    0    0    0 -0.00000000000E+00 -0.00000000000E+00 -0.45593999997E+02  0.45594000000E+02  0.51100000000E-03 0. -1.
    9900012    2    1    2    0    0 -0.99957676313E+01 -0.33343101004E+02 -0.25921911626E+02  0.47787271234E+02  0.20000000863E+02 0.  0.
        -12    1    1    2    0    0  0.99957676313E+01  0.33343101004E+02  0.25921911626E+02  0.43400728766E+02  0.00000000000E+00 0.  1.
         11    1    3    3    0    0  0.28019245579E+01 -0.13934831197E+02 -0.17904378453E+02  0.22860382101E+02  0.51100000000E-03 0. -1.
        -11    1    3    3    0    0 -0.89356342902E+01 -0.16215600595E+02 -0.71190001488E+01  0.19836114192E+02  0.51100000000E-03 0.  1.
         12    1    3    3    0    0 -0.38620578990E+01 -0.31926692115E+01 -0.89853302322E+00  0.50907749414E+01  0.00000000000E+00 0. -1.
</event>
<event>
 7    1  0.2983653E-010  0.4778727E+02  0.7816164E-02  0.1312668E+00
        -11   -1    0    0    0    0  0.00000000000E+00  0.00000000000E+00  0.45593999997E+02  0.45594000000E+02  0.51100000000E-03 0.  1.
         11   -1    0    0    0    0 -0.00000000000E+00 -0.00000000000E+00 -0.45593999997E+02  0.45594000000E+02  0.51100000000E-03 0. -1.
    9900012    2    1    2    0    0  0.86260523356E+01 -0.19368100740E+02 -0.37869394358E+02  0.47787272653E+02  0.20000007336E+02 0.  0.
        -12    1    1    2    0    0 -0.86260523356E+01  0.19368100740E+02  0.37869394358E+02  0.43400727347E+02  0.00000000000E+00 0.  1.
         11    1    3    3    0    0 -0.58246968128E+00 -0.16454672058E+02 -0.19521095340E+02  0.25537593210E+02  0.51100000000E-03 0. -1.
        -11    1    3    3    0    0  0.31433643338E+01 -0.41583571012E+01 -0.38369257320E+01  0.64726094004E+01  0.51100000000E-03 0.  1.
         12    1    3    3    0    0  0.60651576831E+01  0.12449284185E+01 -0.14511373286E+02  0.15777070043E+02  0.00000000000E+00 0. -1.
</event>
<event>
 7    1  0.2983653E-010  0.4778729E+02  0.7816164E-02  0.1312668E+00
        -11   -1    0    0    0    0  0.00000000000E+00  0.00000000000E+00  0.45593999997E+02  0.45594000000E+02  0.51100000000E-03 0. -1.
         11   -1    0    0    0    0 -0.00000000000E+00 -0.00000000000E+00 -0.45593999997E+02  0.45594000000E+02  0.51100000000E-03 0.  1.
    9900012    2    1    2    0    0 -0.31108273129E+02 -0.15133510797E+02  0.26208285732E+02  0.47787285178E+02  0.20000064438E+02 0.  0.
        -12    1    1    2    0    0  0.31108273129E+02  0.15133510797E+02 -0.26208285732E+02  0.43400714822E+02  0.00000000000E+00 0.  1.
         11    1    3    3    0    0 -0.81214886044E+00 -0.41736990644E+01  0.55428277654E+01  0.69858635508E+01  0.51100000000E-03 0. -1.
        -11    1    3    3    0    0 -0.29921724600E+02 -0.12253638831E+02  0.16254421919E+02  0.36189328535E+02  0.51100000000E-03 0.  1.
        -12    1    3    3    0    0 -0.37439966825E+00  0.12938270986E+01  0.44110360473E+01  0.46120930913E+01  0.00000000000E+00 0.  1.
</event>
<event>
 7    1  0.2983653E-010  0.4778727E+02  0.7816164E-02  0.1312668E+00
        -11   -1    0    0    0    0  0.00000000000E+00  0.00000000000E+00  0.45593999997E+02  0.45594000000E+02  0.51100000000E-03 0.  1.
         11   -1    0    0    0    0 -0.00000000000E+00 -0.00000000000E+00 -0.45593999997E+02  0.45594000000E+02  0.51100000000E-03 0. -1.
    9900012    2    1    2    0    0  0.16646432459E+02 -0.30483868297E+02 -0.26024093671E+02  0.47787269690E+02  0.19999993827E+02 0.  0.
        -12    1    1    2    0    0 -0.16646432459E+02  0.30483868297E+02  0.26024093671E+02  0.43400730310E+02  0.00000000000E+00 0.  1.
         11    1    3    3    0    0  0.63711500539E+01 -0.10280463637E+02 -0.17056917914E+02  0.20909756923E+02  0.51100000000E-03 0. -1.
        -11    1    3    3    0    0  0.72214967410E+01 -0.57828299339E+01  0.65472270181E+00  0.92746859408E+01  0.51100000000E-03 0.  1.
        -12    1    3    3    0    0  0.30537856643E+01 -0.14420574726E+02 -0.96218984595E+01  0.17602826827E+02  0.00000000000E+00 0.  1.
</event>
<event>
 7    1  0.2983653E-010  0.4778727E+02  0.7816164E-02  0.1312668E+00
        -11   -1    0    0    0    0  0.00000000000E+00  0.00000000000E+00  0.45593999997E+02  0.45594000000E+02  0.51100000000E-03 0.  1.
         11   -1    0    0    0    0 -0.00000000000E+00 -0.00000000000E+00 -0.45593999997E+02  0.45594000000E+02  0.51100000000E-03 0. -1.
    9900012    2    1    2    0    0  0.94899688814E+00  0.35767893166E+01 -0.43242683410E+02  0.47787266303E+02  0.19999978382E+02 0.  0.
        -12    1    1    2    0    0 -0.94899688814E+00 -0.35767893166E+01  0.43242683410E+02  0.43400733697E+02  0.00000000000E+00 0.  1.
         11    1    3    3    0    0 -0.70478234383E+01  0.11789507649E+01 -0.21944293989E+02  0.23078426703E+02  0.51100000000E-03 0.  1.
        -11    1    3    3    0    0  0.80695078078E+01  0.17321829657E+01 -0.22142927275E+02  0.23631052508E+02  0.51100000000E-03 0. -1.
        -12    1    3    3    0    0 -0.72687481372E-01  0.66565558603E+00  0.84453785397E+00  0.10777870921E+01  0.00000000000E+00 0.  1.
</event>
<event>
 7    1  0.2983653E-010  0.4778727E+02  0.7816164E-02  0.1312668E+00
        -11   -1    0    0    0    0  0.00000000000E+00  0.00000000000E+00  0.45593999997E+02  0.45594000000E+02  0.51100000000E-03 0.  1.
         11   -1    0    0    0    0 -0.00000000000E+00 -0.00000000000E+00 -0.45593999997E+02  0.45594000000E+02  0.51100000000E-03 0. -1.
    9900012    2    1    2    0    0  0.37301658400E+01 -0.19311954275E+02 -0.38687950135E+02  0.47787271886E+02  0.20000003838E+02 0.  0.
        -12    1    1    2    0    0 -0.37301658400E+01  0.19311954275E+02  0.38687950135E+02  0.43400728114E+02  0.00000000000E+00 0.  1.
         11    1    3    3    0    0  0.66806246895E+01 -0.78781432309E+01 -0.18363332340E+02  0.21069121052E+02  0.51100000000E-03 0. -1.
        -11    1    3    3    0    0 -0.50169610912E+01  0.43490055960E+00 -0.40088532582E+01  0.64366094952E+01  0.51100000000E-03 0.  1.
        -12    1    3    3    0    0  0.20665022418E+01 -0.11868711604E+02 -0.16315764537E+02  0.20281541339E+02  0.00000000000E+00 0.  1.
</event>
<event>
 7    1  0.2983653E-010  0.4778727E+02  0.7816164E-02  0.1312668E+00
        -11   -1    0    0    0    0  0.00000000000E+00  0.00000000000E+00  0.45593999997E+02  0.45594000000E+02  0.51100000000E-03 0.  1.
         11   -1    0    0    0    0 -0.00000000000E+00 -0.00000000000E+00 -0.45593999997E+02  0.45594000000E+02  0.51100000000E-03 0. -1.
    9900012    2    1    2    0    0 -0.38311127005E+02 -0.13032909026E+02  0.15685163143E+02  0.47787268291E+02  0.19999987446E+02 0.  0.
        -12    1    1    2    0    0  0.38311127005E+02  0.13032909026E+02 -0.15685163143E+02  0.43400731709E+02  0.00000000000E+00 0.  1.
         11    1    3    3    0    0  0.19614585220E+00  0.83701490761E-01 -0.13996083875E+01  0.14157623509E+01  0.51100000000E-03 0. -1.
        -11    1    3    3    0    0 -0.38789047277E+01  0.15589171438E+01 -0.14730880269E+01  0.44323936134E+01  0.51100000000E-03 0.  1.
         12    1    3    3    0    0 -0.34628368129E+02 -0.14675527660E+02  0.18557859557E+02  0.41939112327E+02  0.00000000000E+00 0. -1.
</event>
<event>
 7    1  0.2983653E-010  0.4778727E+02  0.7816164E-02  0.1312668E+00
        -11   -1    0    0    0    0  0.00000000000E+00  0.00000000000E+00  0.45593999997E+02  0.45594000000E+02  0.51100000000E-03 0.  1.
         11   -1    0    0    0    0 -0.00000000000E+00 -0.00000000000E+00 -0.45593999997E+02  0.45594000000E+02  0.51100000000E-03 0. -1.
    9900012    2    1    2    0    0 -0.82010508042E+01  0.42147120320E+02 -0.63234841704E+01  0.47787269159E+02  0.19999991401E+02 0.  0.
        -12    1    1    2    0    0  0.82010508042E+01 -0.42147120320E+02  0.63234841704E+01  0.43400730841E+02  0.00000000000E+00 0.  1.
         11    1    3    3    0    0 -0.73692518464E+01  0.17711610820E+02  0.29785839066E+01  0.19413371500E+02  0.51100000000E-03 0. -1.
        -11    1    3    3    0    0  0.35429316362E+01  0.22590408399E+01 -0.14808933072E+01  0.44551852199E+01  0.51100000000E-03 0.  1.
         12    1    3    3    0    0 -0.43747305940E+01  0.22176468659E+02 -0.78211747699E+01  0.23918712439E+02  0.00000000000E+00 0. -1.
</event>
<event>
 7    1  0.2983653E-010  0.4778727E+02  0.7816164E-02  0.1312668E+00
        -11   -1    0    0    0    0  0.00000000000E+00  0.00000000000E+00  0.45593999997E+02  0.45594000000E+02  0.51100000000E-03 0. -1.
         11   -1    0    0    0    0 -0.00000000000E+00 -0.00000000000E+00 -0.45593999997E+02  0.45594000000E+02  0.51100000000E-03 0.  1.
    9900012    2    1    2    0    0 -0.29001407899E+02  0.30596242441E+02 -0.10315599379E+02  0.47787270718E+02  0.19999998513E+02 0.  0.
        -12    1    1    2    0    0  0.29001407899E+02 -0.30596242441E+02  0.10315599379E+02  0.43400729282E+02  0.00000000000E+00 0.  1.
         11    1    3    3    0    0 -0.11628896019E+02  0.15550437148E+02 -0.28866114842E+01  0.19631093811E+02  0.51100000000E-03 0. -1.
        -11    1    3    3    0    0 -0.70817348155E+01  0.25166087884E+01 -0.91620581753E+01  0.11850215106E+02  0.51100000000E-03 0.  1.
        -12    1    3    3    0    0 -0.10290777065E+02  0.12529196505E+02  0.17330702809E+01  0.16305961801E+02  0.00000000000E+00 0.  1.
</event>
<event>
 7    1  0.2983653E-010  0.4778727E+02  0.7816164E-02  0.1312668E+00
        -11   -1    0    0    0    0  0.00000000000E+00  0.00000000000E+00  0.45593999997E+02  0.45594000000E+02  0.51100000000E-03 0. -1.
         11   -1    0    0    0    0 -0.00000000000E+00 -0.00000000000E+00 -0.45593999997E+02  0.45594000000E+02  0.51100000000E-03 0.  1.
    9900012    2    1    2    0    0  0.19047893138E+02  0.19284611335E+02  0.33895499517E+02  0.47787270112E+02  0.19999995747E+02 0.  0.
        -12    1    1    2    0    0 -0.19047893138E+02 -0.19284611335E+02 -0.33895499517E+02  0.43400729888E+02  0.00000000000E+00 0.  1.
         11    1    3    3    0    0  0.14962012436E+01  0.65108648263E+01  0.90977849683E+01  0.11287146253E+02  0.51100000000E-03 0. -1.
        -11    1    3    3    0    0  0.15609911474E+02  0.16379895411E+02  0.20072317948E+02  0.30246789217E+02  0.51100000000E-03 0.  1.
        -12    1    3    3    0    0  0.19417804199E+01 -0.36061489017E+01  0.47253966007E+01  0.62533346411E+01  0.00000000000E+00 0.  1.
</event>
<event>
 7    1  0.2983653E-010  0.4778727E+02  0.7816164E-02  0.1312668E+00
        -11   -1    0    0    0    0  0.00000000000E+00  0.00000000000E+00  0.45593999997E+02  0.45594000000E+02  0.51100000000E-03 0.  1.
         11   -1    0    0    0    0 -0.00000000000E+00 -0.00000000000E+00 -0.45593999997E+02  0.45594000000E+02  0.51100000000E-03 0. -1.
    9900012    2    1    2    0    0 -0.11656512482E+02  0.38086408773E+02 -0.17238757006E+02  0.47787267753E+02  0.19999984992E+02 0.  0.
        -12    1    1    2    0    0  0.11656512482E+02 -0.38086408773E+02  0.17238757006E+02  0.43400732247E+02  0.00000000000E+00 0.  1.
         11    1    3    3    0    0 -0.91840256113E+01  0.12611326950E+02 -0.11551061175E+02  0.19411823933E+02  0.51100000000E-03 0. -1.
        -11    1    3    3    0    0 -0.51636286469E+01  0.23700634911E+02 -0.35683933841E+01  0.24517679083E+02  0.51100000000E-03 0.  1.
         12    1    3    3    0    0  0.26911417766E+01  0.17744469123E+01 -0.21193024474E+01  0.38577647375E+01  0.00000000000E+00 0. -1.
</event>
<event>
 7    1  0.2983653E-010  0.4778727E+02  0.7816164E-02  0.1312668E+00
        -11   -1    0    0    0    0  0.00000000000E+00  0.00000000000E+00  0.45593999997E+02  0.45594000000E+02  0.51100000000E-03 0. -1.
         11   -1    0    0    0    0 -0.00000000000E+00 -0.00000000000E+00 -0.45593999997E+02  0.45594000000E+02  0.51100000000E-03 0.  1.
    9900012    2    1    2    0    0 -0.10064800953E+02 -0.22848330385E+02  0.35500383643E+02  0.47787266614E+02  0.19999979801E+02 0.  0.
        -12    1    1    2    0    0  0.10064800953E+02  0.22848330385E+02 -0.35500383643E+02  0.43400733386E+02  0.00000000000E+00 0.  1.
         11    1    3    3    0    0 -0.59994898046E+01 -0.22151168837E+02  0.23470384225E+02  0.32825707833E+02  0.51100000000E-03 0. -1.
        -11    1    3    3    0    0 -0.65561015258E+00  0.26825550300E+01  0.10086203402E+01  0.29399390152E+01  0.51100000000E-03 0.  1.
         12    1    3    3    0    0 -0.34097009958E+01 -0.33797165774E+01  0.11021379078E+02  0.12021619766E+02  0.00000000000E+00 0. -1.
</event>
<event>
 7    1  0.2983653E-010  0.4778727E+02  0.7816164E-02  0.1312668E+00
        -11   -1    0    0    0    0  0.00000000000E+00  0.00000000000E+00  0.45593999997E+02  0.45594000000E+02  0.51100000000E-03 0.  1.
         11   -1    0    0    0    0 -0.00000000000E+00 -0.00000000000E+00 -0.45593999997E+02  0.45594000000E+02  0.51100000000E-03 0. -1.
    9900012    2    1    2    0    0  0.40139733417E+02 -0.88610666578E+01 -0.13925033231E+02  0.47787271301E+02  0.20000001170E+02 0.  0.
        -12    1    1    2    0    0 -0.40139733417E+02  0.88610666578E+01  0.13925033231E+02  0.43400728699E+02  0.00000000000E+00 0.  1.
         11    1    3    3    0    0  0.15462585582E+02 -0.23586924676E+01 -0.15491876710E+02  0.22014841069E+02  0.51100000000E-03 0. -1.
        -11    1    3    3    0    0  0.86932588838E+01 -0.27258009662E+01  0.20618754378E+01  0.93409887866E+01  0.51100000000E-03 0.  1.
         12    1    3    3    0    0  0.15983888952E+02 -0.37765732240E+01 -0.49503195832E+00  0.16431441446E+02  0.00000000000E+00 0. -1.
</event>
<event>
 7    1  0.2983653E-010  0.4778727E+02  0.7816164E-02  0.1312668E+00
        -11   -1    0    0    0    0  0.00000000000E+00  0.00000000000E+00  0.45593999997E+02  0.45594000000E+02  0.51100000000E-03 0. -1.
         11   -1    0    0    0    0 -0.00000000000E+00 -0.00000000000E+00 -0.45593999997E+02  0.45594000000E+02  0.51100000000E-03 0.  1.
    9900012    2    1    2    0    0 -0.35051570935E+02 -0.23874297243E+02  0.92210958538E+01  0.47787270713E+02  0.19999998490E+02 0.  0.
        -12    1    1    2    0    0  0.35051570935E+02  0.23874297243E+02 -0.92210958538E+01  0.43400729287E+02  0.00000000000E+00 0.  1.
         11    1    3    3    0    0 -0.80740142690E+01 -0.91923639884E+01  0.44235304932E+01  0.13009876417E+02  0.51100000000E-03 0. -1.
        -11    1    3    3    0    0 -0.23670594014E+01  0.56946454998E+00  0.52865046937E+01  0.58201711505E+01  0.51100000000E-03 0.  1.
        -12    1    3    3    0    0 -0.24610497265E+02 -0.15251397804E+02 -0.48893933309E+00  0.28957223145E+02  0.00000000000E+00 0.  1.
</event>
<event>
 7    1  0.2983653E-010  0.4778727E+02  0.7816164E-02  0.1312668E+00
        -11   -1    0    0    0    0  0.00000000000E+00  0.00000000000E+00  0.45593999997E+02  0.45594000000E+02  0.51100000000E-03 0.  1.
         11   -1    0    0    0    0 -0.00000000000E+00 -0.00000000000E+00 -0.45593999997E+02  0.45594000000E+02  0.51100000000E-03 0. -1.
    9900012    2    1    2    0    0 -0.37143833310E+01  0.28589834546E+02 -0.32441453756E+02  0.47787271841E+02  0.20000003634E+02 0.  0.
        -12    1    1    2    0    0  0.37143833310E+01 -0.28589834546E+02  0.32441453756E+02  0.43400728159E+02  0.00000000000E+00 0.  1.
         11    1    3    3    0    0  0.19291539101E+01  0.21120078411E+02 -0.14791983212E+02  0.25856954857E+02  0.51100000000E-03 0. -1.
        -11    1    3    3    0    0 -0.71900102129E+01  0.75537118806E+01 -0.11224696111E+02  0.15321508185E+02  0.51100000000E-03 0.  1.
         12    1    3    3    0    0  0.15464729718E+01 -0.83955745449E-01 -0.64247744333E+01  0.66088087987E+01  0.00000000000E+00 0. -1.
</event>
<event>
 7    1  0.2983653E-010  0.4778727E+02  0.7816164E-02  0.1312668E+00
        -11   -1    0    0    0    0  0.00000000000E+00  0.00000000000E+00  0.45593999997E+02  0.45594000000E+02  0.51100000000E-03 0.  1.
         11   -1    0    0    0    0 -0.00000000000E+00 -0.00000000000E+00 -0.45593999997E+02  0.45594000000E+02  0.51100000000E-03 0. -1.
    9900012    2    1    2    0    0 -0.24386983558E+02 -0.23743648917E+02 -0.26928374890E+02  0.47787271836E+02  0.20000003609E+02 0.  0.
        -12    1    1    2    0    0  0.24386983558E+02  0.23743648917E+02  0.26928374890E+02  0.43400728164E+02  0.00000000000E+00 0.  1.
         11    1    3    3    0    0 -0.28789882414E+01 -0.28916769204E+01 -0.44160138352E+01  0.60126156671E+01  0.51100000000E-03 0. -1.
        -11    1    3    3    0    0 -0.12834548271E+02 -0.21497779218E+02 -0.11003014560E+02  0.27348610025E+02  0.51100000000E-03 0.  1.
        -12    1    3    3    0    0 -0.86734470457E+01  0.64580722097E+00 -0.11509346495E+02  0.14426046144E+02  0.00000000000E+00 0.  1.
</event>
<event>
 7    1  0.2983653E-010  0.4778727E+02  0.7816164E-02  0.1312668E+00
        -11   -1    0    0    0    0  0.00000000000E+00  0.00000000000E+00  0.45593999997E+02  0.45594000000E+02  0.51100000000E-03 0.  1.
         11   -1    0    0    0    0 -0.00000000000E+00 -0.00000000000E+00 -0.45593999997E+02  0.45594000000E+02  0.51100000000E-03 0. -1.
    9900012    2    1    2    0    0  0.24208732078E+02  0.35975778390E+02 -0.18178132712E+01  0.47787265159E+02  0.19999973167E+02 0.  0.
        -12    1    1    2    0    0 -0.24208732078E+02 -0.35975778390E+02  0.18178132712E+01  0.43400734841E+02  0.00000000000E+00 0.  1.
         11    1    3    3    0    0  0.14446134643E+01  0.37461625662E+01 -0.22728355690E+01  0.46137212550E+01  0.51100000000E-03 0. -1.
        -11    1    3    3    0    0 -0.12591902612E+01  0.35335706962E+01 -0.40014054941E+01  0.54847906221E+01  0.51100000000E-03 0.  1.
         12    1    3    3    0    0  0.24023308875E+02  0.28696045128E+02  0.44564277919E+01  0.37688753282E+02  0.00000000000E+00 0. -1.
</event>
<event>
 7    1  0.2983653E-010  0.4778727E+02  0.7816164E-02  0.1312668E+00
        -11   -1    0    0    0    0  0.00000000000E+00  0.00000000000E+00  0.45593999997E+02  0.45594000000E+02  0.51100000000E-03 0. -1.
         11   -1    0    0    0    0 -0.00000000000E+00 -0.00000000000E+00 -0.45593999997E+02  0.45594000000E+02  0.51100000000E-03 0.  1.
    9900012    2    1    2    0    0 -0.27416874896E+02 -0.22690678659E+02  0.24840927162E+02  0.47787267410E+02  0.19999983427E+02 0.  0.
        -12    1    1    2    0    0  0.27416874896E+02  0.22690678659E+02 -0.24840927162E+02  0.43400732590E+02  0.00000000000E+00 0.  1.
         11    1    3    3    0    0 -0.75400196105E+01 -0.78534599409E+01  0.12228503972E+02  0.16372691850E+02  0.51100000000E-03 0. -1.
        -11    1    3    3    0    0 -0.62014250953E+01 -0.14736035496E+01 -0.26958627659E+01  0.69207555185E+01  0.51100000000E-03 0.  1.
        -12    1    3    3    0    0 -0.13675430191E+02 -0.13363615169E+02  0.15308285956E+02  0.24493820041E+02  0.00000000000E+00 0.  1.
</event>
<event>
 7    1  0.2983653E-010  0.4778726E+02  0.7816164E-02  0.1312668E+00
        -11   -1    0    0    0    0  0.00000000000E+00  0.00000000000E+00  0.45593999997E+02  0.45594000000E+02  0.51100000000E-03 0. -1.
         11   -1    0    0    0    0 -0.00000000000E+00 -0.00000000000E+00 -0.45593999997E+02  0.45594000000E+02  0.51100000000E-03 0.  1.
    9900012    2    1    2    0    0 -0.25150697272E+02 -0.34901606490E+01  0.35197798961E+02  0.47787264450E+02  0.19999969932E+02 0.  0.
        -12    1    1    2    0    0  0.25150697272E+02  0.34901606490E+01 -0.35197798961E+02  0.43400735550E+02  0.00000000000E+00 0.  1.
         11    1    3    3    0    0 -0.13716518055E+02 -0.47114168843E+01  0.77930166038E+01  0.16464246860E+02  0.51100000000E-03 0. -1.
        -11    1    3    3    0    0 -0.97786521090E+01  0.11084707737E+01  0.27905304722E+02  0.29589808658E+02  0.51100000000E-03 0.  1.
         12    1    3    3    0    0 -0.16555271081E+01  0.11278546169E+00 -0.50052236451E+00  0.17332089324E+01  0.00000000000E+00 0. -1.
</event>
<event>
 7    1  0.2983653E-010  0.4778727E+02  0.7816164E-02  0.1312668E+00
        -11   -1    0    0    0    0  0.00000000000E+00  0.00000000000E+00  0.45593999997E+02  0.45594000000E+02  0.51100000000E-03 0.  1.
         11   -1    0    0    0    0 -0.00000000000E+00 -0.00000000000E+00 -0.45593999997E+02  0.45594000000E+02  0.51100000000E-03 0. -1.
    9900012    2    1    2    0    0  0.85365957946E+01 -0.41199625934E+02 -0.10646155853E+02  0.47787270982E+02  0.19999999716E+02 0.  0.
        -12    1    1    2    0    0 -0.85365957946E+01  0.41199625934E+02  0.10646155853E+02  0.43400729018E+02  0.00000000000E+00 0.  1.
         11    1    3    3    0    0  0.52425526374E+01 -0.28777932455E+02  0.78078565376E+00  0.29261978420E+02  0.51100000000E-03 0. -1.
        -11    1    3    3    0    0 -0.54238834814E+00  0.47696653488E+00 -0.19127931325E+01  0.20446173296E+01  0.51100000000E-03 0.  1.
         12    1    3    3    0    0  0.38364315053E+01 -0.12898660013E+02 -0.95141483743E+01  0.16480675233E+02  0.00000000000E+00 0. -1.
</event>
<event>
 7    1  0.2983653E-010  0.4778726E+02  0.7816164E-02  0.1312668E+00
        -11   -1    0    0    0    0  0.00000000000E+00  0.00000000000E+00  0.45593999997E+02  0.45594000000E+02  0.51100000000E-03 0. -1.
         11   -1    0    0    0    0 -0.00000000000E+00 -0.00000000000E+00 -0.45593999997E+02  0.45594000000E+02  0.51100000000E-03 0.  1.
    9900012    2    1    2    0    0  0.24396831951E+02  0.87878523283E+00  0.35883786712E+02  0.47787264736E+02  0.19999971235E+02 0.  0.
        -12    1    1    2    0    0 -0.24396831951E+02 -0.87878523283E+00 -0.35883786712E+02  0.43400735264E+02  0.00000000000E+00 0.  1.
         11    1    3    3    0    0  0.63756816088E+01 -0.75581504686E+01  0.14362391992E+02  0.17437122999E+02  0.51100000000E-03 0. -1.
        -11    1    3    3    0    0 -0.52767845259E+00  0.81457214731E+00  0.26141870253E+01  0.27885383980E+01  0.51100000000E-03 0.  1.
         12    1    3    3    0    0  0.18548828795E+02  0.76223635542E+01  0.18907207694E+02  0.27561603339E+02  0.00000000000E+00 0. -1.
</event>
<event>
 7    1  0.2983653E-010  0.4778727E+02  0.7816164E-02  0.1312668E+00
        -11   -1    0    0    0    0  0.00000000000E+00  0.00000000000E+00  0.45593999997E+02  0.45594000000E+02  0.51100000000E-03 0. -1.
         11   -1    0    0    0    0 -0.00000000000E+00 -0.00000000000E+00 -0.45593999997E+02  0.45594000000E+02  0.51100000000E-03 0.  1.
    9900012    2    1    2    0    0  0.13159977126E+02 -0.11831461847E+01  0.41340517389E+02  0.47787271770E+02  0.20000003309E+02 0.  0.
        -12    1    1    2    0    0 -0.13159977126E+02  0.11831461847E+01 -0.41340517389E+02  0.43400728230E+02  0.00000000000E+00 0.  1.
         11    1    3    3    0    0  0.13209347714E+02 -0.27024444594E+01  0.27147122832E+02  0.30310993904E+02  0.51100000000E-03 0. -1.
        -11    1    3    3    0    0 -0.24610357163E+01  0.43047415453E+01  0.32486079618E+01  0.59279803069E+01  0.51100000000E-03 0.  1.
        -12    1    3    3    0    0  0.24116651281E+01 -0.27854432706E+01  0.10944786596E+02  0.11548297560E+02  0.00000000000E+00 0.  1.
</event>
<event>
 7    1  0.2983653E-010  0.4778727E+02  0.7816164E-02  0.1312668E+00
        -11   -1    0    0    0    0  0.00000000000E+00  0.00000000000E+00  0.45593999997E+02  0.45594000000E+02  0.51100000000E-03 0.  1.
         11   -1    0    0    0    0 -0.00000000000E+00 -0.00000000000E+00 -0.45593999997E+02  0.45594000000E+02  0.51100000000E-03 0. -1.
    9900012    2    1    2    0    0  0.17751294258E+02 -0.39529429728E+02  0.24369665460E+01  0.47787273411E+02  0.20000010791E+02 0.  0.
        -12    1    1    2    0    0 -0.17751294258E+02  0.39529429728E+02 -0.24369665460E+01  0.43400726589E+02  0.00000000000E+00 0.  1.
         11    1    3    3    0    0  0.14702370724E+01 -0.14209085642E+02  0.42903694131E+01  0.14915327076E+02  0.51100000000E-03 0. -1.
        -11    1    3    3    0    0  0.17909120533E+02 -0.19071427593E+02 -0.29286526478E+01  0.26325519089E+02  0.51100000000E-03 0.  1.
        -12    1    3    3    0    0 -0.16280633469E+01 -0.62489164933E+01  0.10752497807E+01  0.65464272464E+01  0.00000000000E+00 0.  1.
</event>
<event>
 7    1  0.2983653E-010  0.4778728E+02  0.7816164E-02  0.1312668E+00
        -11   -1    0    0    0    0  0.00000000000E+00  0.00000000000E+00  0.45593999997E+02  0.45594000000E+02  0.51100000000E-03 0. -1.
         11   -1    0    0    0    0 -0.00000000000E+00 -0.00000000000E+00 -0.45593999997E+02  0.45594000000E+02  0.51100000000E-03 0.  1.
    9900012    2    1    2    0    0  0.11956523371E+02 -0.36349193869E+02  0.20479268656E+02  0.47787276611E+02  0.20000025379E+02 0.  0.
        -12    1    1    2    0    0 -0.11956523371E+02  0.36349193869E+02 -0.20479268656E+02  0.43400723389E+02  0.00000000000E+00 0.  1.
         11    1    3    3    0    0  0.71673908441E+01 -0.16225680292E+01  0.41955817594E+01  0.84620993307E+01  0.51100000000E-03 0.  1.
        -11    1    3    3    0    0  0.66076321452E-01 -0.24341609835E+02  0.12000118828E+02  0.27138923847E+02  0.51100000000E-03 0. -1.
        -12    1    3    3    0    0  0.47230562052E+01 -0.10385016005E+02  0.42835680682E+01  0.12186253433E+02  0.00000000000E+00 0.  1.
</event>
<event>
 7    1  0.2983653E-010  0.4778727E+02  0.7816164E-02  0.1312668E+00
        -11   -1    0    0    0    0  0.00000000000E+00  0.00000000000E+00  0.45593999997E+02  0.45594000000E+02  0.51100000000E-03 0.  1.
         11   -1    0    0    0    0 -0.00000000000E+00 -0.00000000000E+00 -0.45593999997E+02  0.45594000000E+02  0.51100000000E-03 0. -1.
    9900012    2    1    2    0    0  0.11141755560E+02 -0.70841948403E+01 -0.41343662366E+02  0.47787274760E+02  0.20000016942E+02 0.  0.
        -12    1    1    2    0    0 -0.11141755560E+02  0.70841948403E+01  0.41343662366E+02  0.43400725240E+02  0.00000000000E+00 0.  1.
         11    1    3    3    0    0  0.16762838940E+02 -0.62261889745E+01 -0.27687131239E+02  0.32959603077E+02  0.51100000000E-03 0. -1.
        -11    1    3    3    0    0 -0.38016850312E+01 -0.56510224747E+00 -0.10376097972E+02  0.11065060280E+02  0.51100000000E-03 0.  1.
         12    1    3    3    0    0 -0.18193983490E+01 -0.29290361830E+00 -0.32804331556E+01  0.37626114030E+01  0.00000000000E+00 0. -1.
</event>
<event>
 7    1  0.2983653E-010  0.4778727E+02  0.7816164E-02  0.1312668E+00
        -11   -1    0    0    0    0  0.00000000000E+00  0.00000000000E+00  0.45593999997E+02  0.45594000000E+02  0.51100000000E-03 0. -1.
         11   -1    0    0    0    0 -0.00000000000E+00 -0.00000000000E+00 -0.45593999997E+02  0.45594000000E+02  0.51100000000E-03 0.  1.
    9900012    2    1    2    0    0 -0.15871227741E+02 -0.12151045041E+02  0.38523753895E+02  0.47787269825E+02  0.19999994441E+02 0.  0.
        -12    1    1    2    0    0  0.15871227741E+02  0.12151045041E+02 -0.38523753895E+02  0.43400730175E+02  0.00000000000E+00 0.  1.
         11    1    3    3    0    0 -0.13941466991E+02 -0.11556495684E+02  0.34797155571E+02  0.39227020413E+02  0.51100000000E-03 0. -1.
        -11    1    3    3    0    0  0.88389684219E-01 -0.30483112956E+01 -0.68317611144E+00  0.31251790911E+01  0.51100000000E-03 0.  1.
        -12    1    3    3    0    0 -0.20181504340E+01  0.24537619394E+01  0.44097744353E+01  0.54350703215E+01  0.00000000000E+00 0.  1.
</event>
<event>
 7    1  0.3213920E-010  0.4778727E+02  0.7816164E-02  0.1312668E+00
        -11   -1    0    0    0    0  0.00000000000E+00  0.00000000000E+00  0.45593999997E+02  0.45594000000E+02  0.51100000000E-03 0. -1.
         11   -1    0    0    0    0 -0.00000000000E+00 -0.00000000000E+00 -0.45593999997E+02  0.45594000000E+02  0.51100000000E-03 0.  1.
    9900012    2    1    2    0    0  0.13612881512E+02  0.19993449028E+02  0.36035743163E+02  0.47787270370E+02  0.19999996927E+02 0.  0.
        -12    1    1    2    0    0 -0.13612881512E+02 -0.19993449028E+02 -0.36035743163E+02  0.43400729630E+02  0.00000000000E+00 0.  1.
         11    1    3    3    0    0  0.71014710751E+01  0.14345324227E+02  0.23700305635E+02  0.28599365484E+02  0.51100000000E-03 0. -1.
        -11    1    3    3    0    0  0.79442485364E+01 -0.44240868551E-01  0.37433205926E+01  0.87821120115E+01  0.51100000000E-03 0.  1.
        -12    1    3    3    0    0 -0.14328380996E+01  0.56923656696E+01  0.85921169352E+01  0.10405792875E+02  0.00000000000E+00 0.  1.
</event>
<event>
 7    1  0.2983653E-010  0.4778727E+02  0.7816164E-02  0.1312668E+00
        -11   -1    0    0    0    0  0.00000000000E+00  0.00000000000E+00  0.45593999997E+02  0.45594000000E+02  0.51100000000E-03 0.  1.
         11   -1    0    0    0    0 -0.00000000000E+00 -0.00000000000E+00 -0.45593999997E+02  0.45594000000E+02  0.51100000000E-03 0. -1.
    9900012    2    1    2    0    0 -0.32273551799E+00  0.80130933183E+01 -0.42653366710E+02  0.47787268273E+02  0.19999987365E+02 0.  0.
        -12    1    1    2    0    0  0.32273551799E+00 -0.80130933183E+01  0.42653366710E+02  0.43400731727E+02  0.00000000000E+00 0.  1.
         11    1    3    3    0    0 -0.38011177231E+01  0.75813697620E+01 -0.52565947352E+01  0.99778480588E+01  0.51100000000E-03 0. -1.
        -11    1    3    3    0    0  0.10358168042E+01 -0.17525045224E+01 -0.20273213637E+02  0.20375165765E+02  0.51100000000E-03 0.  1.
         12    1    3    3    0    0  0.24425654009E+01  0.21842280787E+01 -0.17123558338E+02  0.17434254449E+02  0.00000000000E+00 0. -1.
</event>
<event>
 7    1  0.2983653E-010  0.4778727E+02  0.7816164E-02  0.1312668E+00
        -11   -1    0    0    0    0  0.00000000000E+00  0.00000000000E+00  0.45593999997E+02  0.45594000000E+02  0.51100000000E-03 0. -1.
         11   -1    0    0    0    0 -0.00000000000E+00 -0.00000000000E+00 -0.45593999997E+02  0.45594000000E+02  0.51100000000E-03 0.  1.
    9900012    2    1    2    0    0 -0.22553544982E+02 -0.34131097586E+02  0.14492381739E+02  0.47787270258E+02  0.19999996412E+02 0.  0.
        -12    1    1    2    0    0  0.22553544982E+02  0.34131097586E+02 -0.14492381739E+02  0.43400729742E+02  0.00000000000E+00 0.  1.
         11    1    3    3    0    0 -0.29926424128E+01 -0.17217900507E+01  0.81507978763E+01  0.88518910901E+01  0.51100000000E-03 0. -1.
        -11    1    3    3    0    0 -0.42506482411E+01 -0.89230135100E+01 -0.10559378416E+01  0.99399791527E+01  0.51100000000E-03 0.  1.
         12    1    3    3    0    0 -0.15310254328E+02 -0.23486294026E+02  0.73975217041E+01  0.28995400015E+02  0.00000000000E+00 0. -1.
</event>
<event>
 7    1  0.2983653E-010  0.4778727E+02  0.7816164E-02  0.1312668E+00
        -11   -1    0    0    0    0  0.00000000000E+00  0.00000000000E+00  0.45593999997E+02  0.45594000000E+02  0.51100000000E-03 0.  1.
         11   -1    0    0    0    0 -0.00000000000E+00 -0.00000000000E+00 -0.45593999997E+02  0.45594000000E+02  0.51100000000E-03 0. -1.
    9900012    2    1    2    0    0 -0.29055886204E+02  0.26771668732E+02 -0.17962644321E+02  0.47787270044E+02  0.19999995436E+02 0.  0.
        -12    1    1    2    0    0  0.29055886204E+02 -0.26771668732E+02  0.17962644321E+02  0.43400729956E+02  0.00000000000E+00 0.  1.
         11    1    3    3    0    0 -0.25439624643E+02  0.23357327099E+02 -0.20843085651E+02  0.40338238073E+02  0.51100000000E-03 0. -1.
        -11    1    3    3    0    0 -0.14209532335E+01 -0.66279760860E+00  0.22980043015E+01  0.27819476617E+01  0.51100000000E-03 0.  1.
         12    1    3    3    0    0 -0.21953083274E+01  0.40771392417E+01  0.58243702870E+00  0.46670843083E+01  0.00000000000E+00 0. -1.
</event>
<event>
 7    1  0.2983653E-010  0.4778726E+02  0.7816164E-02  0.1312668E+00
        -11   -1    0    0    0    0  0.00000000000E+00  0.00000000000E+00  0.45593999997E+02  0.45594000000E+02  0.51100000000E-03 0.  1.
         11   -1    0    0    0    0 -0.00000000000E+00 -0.00000000000E+00 -0.45593999997E+02  0.45594000000E+02  0.51100000000E-03 0. -1.
    9900012    2    1    2    0    0 -0.27265265260E+02 -0.26666927555E+01 -0.33661816331E+02  0.47787264768E+02  0.19999971385E+02 0.  0.
        -12    1    1    2    0    0  0.27265265260E+02  0.26666927555E+01  0.33661816331E+02  0.43400735232E+02  0.00000000000E+00 0.  1.
         11    1    3    3    0    0 -0.30251230425E+01 -0.70316695005E+01 -0.57594918285E+01  0.95795350498E+01  0.51100000000E-03 0. -1.
        -11    1    3    3    0    0 -0.34743656776E+01  0.25831077315E+00 -0.40655989347E+00  0.35075964028E+01  0.51100000000E-03 0.  1.
         12    1    3    3    0    0 -0.20765776540E+02  0.41066659719E+01 -0.27495764609E+02  0.34700133316E+02  0.00000000000E+00 0. -1.
</event>
<event>
 7    1  0.2983653E-010  0.4778727E+02  0.7816164E-02  0.1312668E+00
        -11   -1    0    0    0    0  0.00000000000E+00  0.00000000000E+00  0.45593999997E+02  0.45594000000E+02  0.51100000000E-03 0. -1.
         11   -1    0    0    0    0 -0.00000000000E+00 -0.00000000000E+00 -0.45593999997E+02  0.45594000000E+02  0.51100000000E-03 0.  1.
    9900012    2    1    2    0    0  0.23434239302E+02 -0.11857938157E+02  0.34552118004E+02  0.47787272730E+02  0.20000007685E+02 0.  0.
        -12    1    1    2    0    0 -0.23434239302E+02  0.11857938157E+02 -0.34552118004E+02  0.43400727270E+02  0.00000000000E+00 0.  1.
         11    1    3    3    0    0 -0.13792764253E+01 -0.47427161536E+01  0.72545383860E+01  0.87763367885E+01  0.51100000000E-03 0. -1.
        -11    1    3    3    0    0  0.15031429277E+01 -0.21222622738E+01  0.77738146034E+01  0.81972940395E+01  0.51100000000E-03 0.  1.
         12    1    3    3    0    0  0.23310372800E+02 -0.49929597300E+01  0.19523765014E+02  0.30813641902E+02  0.00000000000E+00 0. -1.
</event>
<event>
 7    1  0.2983653E-010  0.4778727E+02  0.7816164E-02  0.1312668E+00
        -11   -1    0    0    0    0  0.00000000000E+00  0.00000000000E+00  0.45593999997E+02  0.45594000000E+02  0.51100000000E-03 0. -1.
         11   -1    0    0    0    0 -0.00000000000E+00 -0.00000000000E+00 -0.45593999997E+02  0.45594000000E+02  0.51100000000E-03 0.  1.
    9900012    2    1    2    0    0 -0.12080601336E+02 -0.10244973086E+01  0.41672926116E+02  0.47787270807E+02  0.19999998920E+02 0.  0.
        -12    1    1    2    0    0  0.12080601336E+02  0.10244973086E+01 -0.41672926116E+02  0.43400729193E+02  0.00000000000E+00 0.  1.
         11    1    3    3    0    0  0.98258903931E+00 -0.17292794279E+01  0.24331230720E+02  0.24412387781E+02  0.51100000000E-03 0. -1.
        -11    1    3    3    0    0 -0.14839566296E+01 -0.30380572575E+01  0.26371474765E+01  0.42879442921E+01  0.51100000000E-03 0.  1.
         12    1    3    3    0    0 -0.11579233745E+02  0.37428393768E+01  0.14704547919E+02  0.19086938734E+02  0.00000000000E+00 0. -1.
</event>
<event>
 7    1  0.2983653E-010  0.4778727E+02  0.7816164E-02  0.1312668E+00
        -11   -1    0    0    0    0  0.00000000000E+00  0.00000000000E+00  0.45593999997E+02  0.45594000000E+02  0.51100000000E-03 0.  1.
         11   -1    0    0    0    0 -0.00000000000E+00 -0.00000000000E+00 -0.45593999997E+02  0.45594000000E+02  0.51100000000E-03 0. -1.
    9900012    2    1    2    0    0  0.30965945347E+02 -0.24731198952E+02 -0.17694661702E+02  0.47787273905E+02  0.20000013041E+02 0.  0.
        -12    1    1    2    0    0 -0.30965945347E+02  0.24731198952E+02  0.17694661702E+02  0.43400726095E+02  0.00000000000E+00 0.  1.
         11    1    3    3    0    0  0.16174371079E+02 -0.17870070909E+02 -0.13651709968E+02  0.27700521646E+02  0.51100000000E-03 0. -1.
        -11    1    3    3    0    0  0.13758252665E+02 -0.29260714534E+01  0.38796816457E+00  0.14071315862E+02  0.51100000000E-03 0.  1.
        -12    1    3    3    0    0  0.10333216031E+01 -0.39350565890E+01 -0.44309198985E+01  0.60154363966E+01  0.00000000000E+00 0.  1.
</event>
<event>
 7    1  0.2983653E-010  0.4778727E+02  0.7816164E-02  0.1312668E+00
        -11   -1    0    0    0    0  0.00000000000E+00  0.00000000000E+00  0.45593999997E+02  0.45594000000E+02  0.51100000000E-03 0.  1.
         11   -1    0    0    0    0 -0.00000000000E+00 -0.00000000000E+00 -0.45593999997E+02  0.45594000000E+02  0.51100000000E-03 0. -1.
    9900012    2    1    2    0    0 -0.17048495589E+02  0.39563659432E+02 -0.52620686560E+01  0.47787265950E+02  0.19999976774E+02 0.  0.
        -12    1    1    2    0    0  0.17048495589E+02 -0.39563659432E+02  0.52620686560E+01  0.43400734050E+02  0.00000000000E+00 0.  1.
         11    1    3    3    0    0 -0.84153233966E+01  0.31913553187E+01  0.16644604984E+01  0.91527507150E+01  0.51100000000E-03 0. -1.
        -11    1    3    3    0    0 -0.60516265809E+01  0.23121058633E+02 -0.10849470376E+01  0.23924519785E+02  0.51100000000E-03 0.  1.
        -12    1    3    3    0    0 -0.25815456110E+01  0.13251245481E+02 -0.58415821168E+01  0.14709995451E+02  0.00000000000E+00 0.  1.
</event>
<event>
 7    1  0.2997524E-010  0.4778726E+02  0.7816164E-02  0.1312668E+00
        -11   -1    0    0    0    0  0.00000000000E+00  0.00000000000E+00  0.45593999997E+02  0.45594000000E+02  0.51100000000E-03 0. -1.
         11   -1    0    0    0    0 -0.00000000000E+00 -0.00000000000E+00 -0.45593999997E+02  0.45594000000E+02  0.51100000000E-03 0.  1.
    9900012    2    1    2    0    0 -0.30609474479E+02 -0.15432341756E+02  0.26618172865E+02  0.47787260068E+02  0.19999949954E+02 0.  0.
        -12    1    1    2    0    0  0.30609474479E+02  0.15432341756E+02 -0.26618172865E+02  0.43400739932E+02  0.00000000000E+00 0.  1.
         11    1    3    3    0    0 -0.43554101860E+01 -0.42568505072E+01  0.37093251338E+01  0.71308812455E+01  0.51100000000E-03 0. -1.
        -11    1    3    3    0    0 -0.13512894451E+02 -0.12193517499E+02  0.54130711253E+01  0.18988984299E+02  0.51100000000E-03 0.  1.
        -12    1    3    3    0    0 -0.12741169842E+02  0.10180262500E+01  0.17495776606E+02  0.21667394523E+02  0.00000000000E+00 0.  1.
</event>
<event>
 7    1  0.2983653E-010  0.4778727E+02  0.7816164E-02  0.1312668E+00
        -11   -1    0    0    0    0  0.00000000000E+00  0.00000000000E+00  0.45593999997E+02  0.45594000000E+02  0.51100000000E-03 0. -1.
         11   -1    0    0    0    0 -0.00000000000E+00 -0.00000000000E+00 -0.45593999997E+02  0.45594000000E+02  0.51100000000E-03 0.  1.
    9900012    2    1    2    0    0  0.22634209013E+02 -0.36194392629E+02 -0.78282889653E+01  0.47787267477E+02  0.19999983736E+02 0.  0.
        -12    1    1    2    0    0 -0.22634209013E+02  0.36194392629E+02  0.78282889653E+01  0.43400732523E+02  0.00000000000E+00 0.  1.
         11    1    3    3    0    0  0.42263441358E+00  0.21896404720E+01 -0.63793463117E+00  0.23195055721E+01  0.51100000000E-03 0. -1.
        -11    1    3    3    0    0  0.10521922690E+02 -0.18588205464E+02 -0.69999320039E+01  0.22477350551E+02  0.51100000000E-03 0.  1.
         12    1    3    3    0    0  0.11689651909E+02 -0.19795827636E+02 -0.19042233018E+00  0.22990411354E+02  0.00000000000E+00 0. -1.
</event>
<event>
 7    1  0.2983653E-010  0.4778727E+02  0.7816164E-02  0.1312668E+00
        -11   -1    0    0    0    0  0.00000000000E+00  0.00000000000E+00  0.45593999997E+02  0.45594000000E+02  0.51100000000E-03 0.  1.
         11   -1    0    0    0    0 -0.00000000000E+00 -0.00000000000E+00 -0.45593999997E+02  0.45594000000E+02  0.51100000000E-03 0. -1.
    9900012    2    1    2    0    0  0.10992328952E+02  0.41985610655E+02 -0.20133569788E-01  0.47787271859E+02  0.20000003713E+02 0.  0.
        -12    1    1    2    0    0 -0.10992328952E+02 -0.41985610655E+02  0.20133569788E-01  0.43400728141E+02  0.00000000000E+00 0.  1.
         11    1    3    3    0    0  0.93169658751E+00  0.21796404073E+02 -0.13799701089E+01  0.21859908664E+02  0.51100000000E-03 0. -1.
        -11    1    3    3    0    0  0.53709665191E+01  0.73735090682E+00 -0.17087177714E+01  0.56842487975E+01  0.51100000000E-03 0.  1.
        -12    1    3    3    0    0  0.46896658456E+01  0.19451855675E+02  0.30685543105E+01  0.20243114398E+02  0.00000000000E+00 0.  1.
</event>
<event>
 7    1  0.2983653E-010  0.4778728E+02  0.7816164E-02  0.1312668E+00
        -11   -1    0    0    0    0  0.00000000000E+00  0.00000000000E+00  0.45593999997E+02  0.45594000000E+02  0.51100000000E-03 0.  1.
         11   -1    0    0    0    0 -0.00000000000E+00 -0.00000000000E+00 -0.45593999997E+02  0.45594000000E+02  0.51100000000E-03 0. -1.
    9900012    2    1    2    0    0 -0.13810917966E+01 -0.28871689190E+01 -0.43282548923E+02  0.47787283413E+02  0.20000056395E+02 0.  0.
        -12    1    1    2    0    0  0.13810917966E+01  0.28871689190E+01  0.43282548923E+02  0.43400716587E+02  0.00000000000E+00 0.  1.
         11    1    3    3    0    0 -0.26074062658E+01 -0.64278767392E+01 -0.83463651529E+01  0.10852556304E+02  0.51100000000E-03 0. -1.
        -11    1    3    3    0    0  0.39030269738E+01  0.37098022693E+01 -0.33425546474E+02  0.33856512073E+02  0.51100000000E-03 0.  1.
        -12    1    3    3    0    0 -0.26767125047E+01 -0.16909444904E+00 -0.15106372968E+01  0.30782150360E+01  0.00000000000E+00 0.  1.
</event>
<event>
 7    1  0.2983653E-010  0.4778727E+02  0.7816164E-02  0.1312668E+00
        -11   -1    0    0    0    0  0.00000000000E+00  0.00000000000E+00  0.45593999997E+02  0.45594000000E+02  0.51100000000E-03 0.  1.
         11   -1    0    0    0    0 -0.00000000000E+00 -0.00000000000E+00 -0.45593999997E+02  0.45594000000E+02  0.51100000000E-03 0. -1.
    9900012    2    1    2    0    0  0.35755070716E+02  0.62507087787E+01 -0.23793417899E+02  0.47787272155E+02  0.20000005063E+02 0.  0.
        -12    1    1    2    0    0 -0.35755070716E+02 -0.62507087787E+01  0.23793417899E+02  0.43400727845E+02  0.00000000000E+00 0.  1.
         11    1    3    3    0    0  0.90141883780E+01  0.43168614954E+00 -0.16745872583E+02  0.19022780919E+02  0.51100000000E-03 0. -1.
        -11    1    3    3    0    0  0.26694418392E+02  0.53226260742E+01 -0.73325375100E+01  0.28190218662E+02  0.51100000000E-03 0.  1.
        -12    1    3    3    0    0  0.46463945721E-01  0.49639655504E+00  0.28499219425E+00  0.57427257368E+00  0.00000000000E+00 0.  1.
</event>
<event>
 7    1  0.2983653E-010  0.4778727E+02  0.7816164E-02  0.1312668E+00
        -11   -1    0    0    0    0  0.00000000000E+00  0.00000000000E+00  0.45593999997E+02  0.45594000000E+02  0.51100000000E-03 0. -1.
         11   -1    0    0    0    0 -0.00000000000E+00 -0.00000000000E+00 -0.45593999997E+02  0.45594000000E+02  0.51100000000E-03 0.  1.
    9900012    2    1    2    0    0  0.10662807168E+02 -0.39907846011E+02  0.13315095169E+02  0.47787269715E+02  0.19999993937E+02 0.  0.
        -12    1    1    2    0    0 -0.10662807168E+02  0.39907846011E+02 -0.13315095169E+02  0.43400730285E+02  0.00000000000E+00 0.  1.
         11    1    3    3    0    0  0.52051614743E+01 -0.25672087511E+02  0.12398586445E+01  0.26223787539E+02  0.51100000000E-03 0. -1.
        -11    1    3    3    0    0  0.36151243048E+01 -0.22018848266E+01 -0.24899194362E+00  0.42402143551E+01  0.51100000000E-03 0.  1.
         12    1    3    3    0    0  0.18425213888E+01 -0.12033873673E+02  0.12324228468E+02  0.17323267820E+02  0.00000000000E+00 0. -1.
</event>
<event>
 7    1  0.2983653E-010  0.4778727E+02  0.7816164E-02  0.1312668E+00
        -11   -1    0    0    0    0  0.00000000000E+00  0.00000000000E+00  0.45593999997E+02  0.45594000000E+02  0.51100000000E-03 0.  1.
         11   -1    0    0    0    0 -0.00000000000E+00 -0.00000000000E+00 -0.45593999997E+02  0.45594000000E+02  0.51100000000E-03 0. -1.
    9900012    2    1    2    0    0  0.20967486055E+02 -0.37877836967E+02 -0.30425654699E+01  0.47787271787E+02  0.20000003387E+02 0.  0.
        -12    1    1    2    0    0 -0.20967486055E+02  0.37877836967E+02  0.30425654699E+01  0.43400728213E+02  0.00000000000E+00 0.  1.
         11    1    3    3    0    0  0.61834909007E+01 -0.14005123009E+02  0.89204878624E-01  0.15309702413E+02  0.51100000000E-03 0. -1.
        -11    1    3    3    0    0  0.42215087089E+01 -0.34498882032E+00  0.38878563933E+01  0.57493982869E+01  0.51100000000E-03 0.  1.
        -12    1    3    3    0    0  0.10562486445E+02 -0.23527725138E+02 -0.70196267419E+01  0.26728171087E+02  0.00000000000E+00 0.  1.
</event>
<event>
 7    1  0.2983653E-010  0.4778727E+02  0.7816164E-02  0.1312668E+00
        -11   -1    0    0    0    0  0.00000000000E+00  0.00000000000E+00  0.45593999997E+02  0.45594000000E+02  0.51100000000E-03 0.  1.
         11   -1    0    0    0    0 -0.00000000000E+00 -0.00000000000E+00 -0.45593999997E+02  0.45594000000E+02  0.51100000000E-03 0. -1.
    9900012    2    1    2    0    0 -0.51901899128E+00  0.14996981264E+02 -0.40724002969E+02  0.47787271370E+02  0.20000001486E+02 0.  0.
        -12    1    1    2    0    0  0.51901899128E+00 -0.14996981264E+02  0.40724002969E+02  0.43400728630E+02  0.00000000000E+00 0.  1.
         11    1    3    3    0    0 -0.85016107408E+00  0.87207660276E+01 -0.72178553704E+01  0.11352179102E+02  0.51100000000E-03 0. -1.
        -11    1    3    3    0    0  0.48479961844E+01  0.56661924613E+01 -0.29296378212E+02  0.30230557068E+02  0.51100000000E-03 0.  1.
        -12    1    3    3    0    0 -0.45168541016E+01  0.61002277472E+00 -0.42097693867E+01  0.62045352001E+01  0.00000000000E+00 0.  1.
</event>
<event>
 7    1  0.2983653E-010  0.4778727E+02  0.7816164E-02  0.1312668E+00
        -11   -1    0    0    0    0  0.00000000000E+00  0.00000000000E+00  0.45593999997E+02  0.45594000000E+02  0.51100000000E-03 0.  1.
         11   -1    0    0    0    0 -0.00000000000E+00 -0.00000000000E+00 -0.45593999997E+02  0.45594000000E+02  0.51100000000E-03 0. -1.
    9900012    2    1    2    0    0 -0.11370038993E+02 -0.58913776537E+01 -0.41468509345E+02  0.47787269769E+02  0.19999994183E+02 0.  0.
        -12    1    1    2    0    0  0.11370038993E+02  0.58913776537E+01  0.41468509345E+02  0.43400730231E+02  0.00000000000E+00 0.  1.
         11    1    3    3    0    0 -0.71083872146E+00 -0.17365884408E+01 -0.24378104757E+02  0.24450215192E+02  0.51100000000E-03 0. -1.
        -11    1    3    3    0    0  0.23280047955E+01 -0.45591471897E+00 -0.29329388813E+01  0.37722135811E+01  0.51100000000E-03 0.  1.
         12    1    3    3    0    0 -0.12987205067E+02 -0.36988744939E+01 -0.14157465706E+02  0.19564840996E+02  0.00000000000E+00 0. -1.
</event>
<event>
 7    1  0.2983653E-010  0.4778727E+02  0.7816164E-02  0.1312668E+00
        -11   -1    0    0    0    0  0.00000000000E+00  0.00000000000E+00  0.45593999997E+02  0.45594000000E+02  0.51100000000E-03 0.  1.
         11   -1    0    0    0    0 -0.00000000000E+00 -0.00000000000E+00 -0.45593999997E+02  0.45594000000E+02  0.51100000000E-03 0. -1.
    9900012    2    1    2    0    0  0.62258831692E+01 -0.10383847969E+02 -0.41677784216E+02  0.47787267091E+02  0.19999981974E+02 0.  0.
        -12    1    1    2    0    0 -0.62258831692E+01  0.10383847969E+02  0.41677784216E+02  0.43400732909E+02  0.00000000000E+00 0.  1.
         11    1    3    3    0    0  0.15837341376E+01 -0.24986703985E+01 -0.28874982530E+02  0.29026129332E+02  0.51100000000E-03 0. -1.
        -11    1    3    3    0    0  0.26369486732E+01  0.38900382807E+00  0.73843998010E+00  0.27658843340E+01  0.51100000000E-03 0.  1.
         12    1    3    3    0    0  0.20052003583E+01 -0.82741813982E+01 -0.13541241666E+02  0.15995253425E+02  0.00000000000E+00 0. -1.
</event>
<event>
 7    1  0.2983653E-010  0.4778727E+02  0.7816164E-02  0.1312668E+00
        -11   -1    0    0    0    0  0.00000000000E+00  0.00000000000E+00  0.45593999997E+02  0.45594000000E+02  0.51100000000E-03 0.  1.
         11   -1    0    0    0    0 -0.00000000000E+00 -0.00000000000E+00 -0.45593999997E+02  0.45594000000E+02  0.51100000000E-03 0. -1.
    9900012    2    1    2    0    0  0.27414715033E+02 -0.17859700933E+02  0.28514696471E+02  0.47787269216E+02  0.19999991664E+02 0.  0.
        -12    1    1    2    0    0 -0.27414715033E+02  0.17859700933E+02 -0.28514696471E+02  0.43400730784E+02  0.00000000000E+00 0.  1.
         11    1    3    3    0    0  0.22140045376E+02 -0.64278877788E+01  0.16749444020E+02  0.28496372151E+02  0.51100000000E-03 0. -1.
        -11    1    3    3    0    0  0.10418218345E+01 -0.57598574769E+00  0.63169832515E+01  0.64281747003E+01  0.51100000000E-03 0.  1.
         12    1    3    3    0    0  0.42328478225E+01 -0.10855827406E+02  0.54482691996E+01  0.12862722365E+02  0.00000000000E+00 0. -1.
</event>
<event>
 7    1  0.2983653E-010  0.4778727E+02  0.7816164E-02  0.1312668E+00
        -11   -1    0    0    0    0  0.00000000000E+00  0.00000000000E+00  0.45593999997E+02  0.45594000000E+02  0.51100000000E-03 0.  1.
         11   -1    0    0    0    0 -0.00000000000E+00 -0.00000000000E+00 -0.45593999997E+02  0.45594000000E+02  0.51100000000E-03 0. -1.
    9900012    2    1    2    0    0 -0.15873178041E+02  0.51274700681E+01 -0.40067124071E+02  0.47787272336E+02  0.20000005890E+02 0.  0.
        -12    1    1    2    0    0  0.15873178041E+02 -0.51274700681E+01  0.40067124071E+02  0.43400727664E+02  0.00000000000E+00 0.  1.
         11    1    3    3    0    0 -0.24243292645E+01  0.45700530550E+01 -0.25866994734E+02  0.26379237558E+02  0.51100000000E-03 0. -1.
        -11    1    3    3    0    0 -0.86803754096E+01  0.45375650308E+01 -0.91310435690E+01  0.13390831587E+02  0.51100000000E-03 0.  1.
         12    1    3    3    0    0 -0.47684733668E+01 -0.39801480176E+01 -0.50690857681E+01  0.80172031917E+01  0.00000000000E+00 0. -1.
</event>
<event>
 7    1  0.2983653E-010  0.4778727E+02  0.7816164E-02  0.1312668E+00
        -11   -1    0    0    0    0  0.00000000000E+00  0.00000000000E+00  0.45593999997E+02  0.45594000000E+02  0.51100000000E-03 0.  1.
         11   -1    0    0    0    0 -0.00000000000E+00 -0.00000000000E+00 -0.45593999997E+02  0.45594000000E+02  0.51100000000E-03 0. -1.
    9900012    2    1    2    0    0  0.14092561287E+02  0.14240873182E+02 -0.38499622719E+02  0.47787266111E+02  0.19999977507E+02 0.  0.
        -12    1    1    2    0    0 -0.14092561287E+02 -0.14240873182E+02  0.38499622719E+02  0.43400733889E+02  0.00000000000E+00 0.  1.
         11    1    3    3    0    0  0.15253557236E+02  0.44146748631E+01 -0.28999731329E+02  0.33062740055E+02  0.51100000000E-03 0. -1.
        -11    1    3    3    0    0 -0.36407783670E+00  0.45302742108E+01 -0.96139989123E+00  0.46454523039E+01  0.51100000000E-03 0.  1.
         12    1    3    3    0    0 -0.79691811273E+00  0.52959241078E+01 -0.85384914984E+01  0.10079073752E+02  0.00000000000E+00 0. -1.
</event>
<event>
 7    1  0.2983653E-010  0.4778727E+02  0.7816164E-02  0.1312668E+00
        -11   -1    0    0    0    0  0.00000000000E+00  0.00000000000E+00  0.45593999997E+02  0.45594000000E+02  0.51100000000E-03 0.  1.
         11   -1    0    0    0    0 -0.00000000000E+00 -0.00000000000E+00 -0.45593999997E+02  0.45594000000E+02  0.51100000000E-03 0. -1.
    9900012    2    1    2    0    0  0.15722739462E+02  0.37552530233E+02 -0.15040816092E+02  0.47787271759E+02  0.20000003260E+02 0.  0.
        -12    1    1    2    0    0 -0.15722739462E+02 -0.37552530233E+02  0.15040816092E+02  0.43400728241E+02  0.00000000000E+00 0.  1.
         11    1    3    3    0    0  0.89897093854E+01  0.18491573919E+02 -0.99912458773E+01  0.22859968838E+02  0.51100000000E-03 0. -1.
        -11    1    3    3    0    0  0.12438166453E+01  0.15970734449E+02  0.11869913481E+01  0.16063013024E+02  0.51100000000E-03 0.  1.
        -12    1    3    3    0    0  0.54892134313E+01  0.30902218659E+01 -0.62365615623E+01  0.88642898979E+01  0.00000000000E+00 0.  1.
</event>
<event>
 7    1  0.2983653E-010  0.4778727E+02  0.7816164E-02  0.1312668E+00
        -11   -1    0    0    0    0  0.00000000000E+00  0.00000000000E+00  0.45593999997E+02  0.45594000000E+02  0.51100000000E-03 0.  1.
         11   -1    0    0    0    0 -0.00000000000E+00 -0.00000000000E+00 -0.45593999997E+02  0.45594000000E+02  0.51100000000E-03 0. -1.
    9900012    2    1    2    0    0 -0.32643946911E+01  0.40168647649E+02 -0.16107357548E+02  0.47787268511E+02  0.19999988448E+02 0.  0.
        -12    1    1    2    0    0  0.32643946911E+01 -0.40168647649E+02  0.16107357548E+02  0.43400731489E+02  0.00000000000E+00 0.  1.
         11    1    3    3    0    0 -0.29068114652E+01  0.14559765513E+02 -0.29474887572E+01  0.15136842964E+02  0.51100000000E-03 0. -1.
        -11    1    3    3    0    0  0.26520421774E+01  0.15442680324E+02  0.10496757384E+00  0.15669100860E+02  0.51100000000E-03 0.  1.
        -12    1    3    3    0    0 -0.30096254034E+01  0.10166201811E+02 -0.13264836364E+02  0.16981324686E+02  0.00000000000E+00 0.  1.
</event>
<event>
 7    1  0.2983653E-010  0.4778727E+02  0.7816164E-02  0.1312668E+00
        -11   -1    0    0    0    0  0.00000000000E+00  0.00000000000E+00  0.45593999997E+02  0.45594000000E+02  0.51100000000E-03 0.  1.
         11   -1    0    0    0    0 -0.00000000000E+00 -0.00000000000E+00 -0.45593999997E+02  0.45594000000E+02  0.51100000000E-03 0. -1.
    9900012    2    1    2    0    0 -0.17477227279E+02  0.39279763279E+02  0.59388382595E+01  0.47787273318E+02  0.20000010366E+02 0.  0.
        -12    1    1    2    0    0  0.17477227279E+02 -0.39279763279E+02 -0.59388382595E+01  0.43400726682E+02  0.00000000000E+00 0.  1.
         11    1    3    3    0    0 -0.12269811680E+02  0.26153619095E+02 -0.37645159263E+01  0.29132999345E+02  0.51100000000E-03 0. -1.
        -11    1    3    3    0    0  0.22988684413E+00  0.81831695003E+01  0.71675497147E+01  0.10880757336E+02  0.51100000000E-03 0.  1.
         12    1    3    3    0    0 -0.54373024429E+01  0.49429746843E+01  0.25358044712E+01  0.77735166367E+01  0.00000000000E+00 0. -1.
</event>
<event>
 7    1  0.2983653E-010  0.4778727E+02  0.7816164E-02  0.1312668E+00
        -11   -1    0    0    0    0  0.00000000000E+00  0.00000000000E+00  0.45593999997E+02  0.45594000000E+02  0.51100000000E-03 0. -1.
         11   -1    0    0    0    0 -0.00000000000E+00 -0.00000000000E+00 -0.45593999997E+02  0.45594000000E+02  0.51100000000E-03 0.  1.
    9900012    2    1    2    0    0  0.23047357200E+01  0.23609214179E+02  0.36344410304E+02  0.47787274647E+02  0.20000016424E+02 0.  0.
        -12    1    1    2    0    0 -0.23047357200E+01 -0.23609214179E+02 -0.36344410304E+02  0.43400725353E+02  0.00000000000E+00 0.  1.
         11    1    3    3    0    0  0.54520513564E+01  0.13455767161E+02  0.23737511695E+02  0.27825384016E+02  0.51100000000E-03 0. -1.
        -11    1    3    3    0    0 -0.42709176927E+01  0.67391422166E+01  0.12827628359E+01  0.80809811600E+01  0.51100000000E-03 0.  1.
         12    1    3    3    0    0  0.11236020562E+01  0.34143048010E+01  0.11324135773E+02  0.11880909471E+02  0.00000000000E+00 0. -1.
</event>
<event>
 7    1  0.3034218E-010  0.4778727E+02  0.7816164E-02  0.1312668E+00
        -11   -1    0    0    0    0  0.00000000000E+00  0.00000000000E+00  0.45593999997E+02  0.45594000000E+02  0.51100000000E-03 0. -1.
         11   -1    0    0    0    0 -0.00000000000E+00 -0.00000000000E+00 -0.45593999997E+02  0.45594000000E+02  0.51100000000E-03 0.  1.
    9900012    2    1    2    0    0  0.11398771966E+02  0.39892361837E+02  0.12739337126E+02  0.47787271369E+02  0.20000001482E+02 0.  0.
        -12    1    1    2    0    0 -0.11398771966E+02 -0.39892361837E+02 -0.12739337126E+02  0.43400728631E+02  0.00000000000E+00 0.  1.
         11    1    3    3    0    0  0.10686173233E+02  0.27068374937E+02  0.13107826178E+02  0.31917179190E+02  0.51100000000E-03 0. -1.
        -11    1    3    3    0    0  0.14931586928E+01  0.72376181680E+01 -0.47001851288E+01  0.87581036836E+01  0.51100000000E-03 0.  1.
        -12    1    3    3    0    0 -0.78055995968E+00  0.55863687324E+01  0.43316960766E+01  0.71119884958E+01  0.00000000000E+00 0.  1.
</event>
<event>
 7    1  0.2983653E-010  0.4778727E+02  0.7816164E-02  0.1312668E+00
        -11   -1    0    0    0    0  0.00000000000E+00  0.00000000000E+00  0.45593999997E+02  0.45594000000E+02  0.51100000000E-03 0.  1.
         11   -1    0    0    0    0 -0.00000000000E+00 -0.00000000000E+00 -0.45593999997E+02  0.45594000000E+02  0.51100000000E-03 0. -1.
    9900012    2    1    2    0    0  0.19979731358E+02  0.38516003322E+02 -0.97524078752E+00  0.47787271071E+02  0.20000000120E+02 0.  0.
        -12    1    1    2    0    0 -0.19979731358E+02 -0.38516003322E+02  0.97524078752E+00  0.43400728929E+02  0.00000000000E+00 0.  1.
         11    1    3    3    0    0  0.35876341911E+01  0.90313815547E+01 -0.86438287574E+01  0.13005873586E+02  0.51100000000E-03 0. -1.
        -11    1    3    3    0    0  0.16292129283E+02  0.28204186798E+02  0.69328687853E+01  0.33301265732E+02  0.51100000000E-03 0.  1.
         12    1    3    3    0    0  0.99967883319E-01  0.12804349691E+01  0.73571918459E+00  0.14801317531E+01  0.00000000000E+00 0. -1.
</event>
<event>
 7    1  0.2983653E-010  0.4778727E+02  0.7816164E-02  0.1312668E+00
        -11   -1    0    0    0    0  0.00000000000E+00  0.00000000000E+00  0.45593999997E+02  0.45594000000E+02  0.51100000000E-03 0.  1.
         11   -1    0    0    0    0 -0.00000000000E+00 -0.00000000000E+00 -0.45593999997E+02  0.45594000000E+02  0.51100000000E-03 0. -1.
    9900012    2    1    2    0    0  0.16448005949E+02 -0.38974197272E+02 -0.97004201619E+01  0.47787273002E+02  0.20000008925E+02 0.  0.
        -12    1    1    2    0    0 -0.16448005949E+02  0.38974197272E+02  0.97004201619E+01  0.43400726998E+02  0.00000000000E+00 0.  1.
         11    1    3    3    0    0  0.55027428113E+01 -0.13965467835E+01  0.32188519043E+01  0.65262185995E+01  0.51100000000E-03 0. -1.
        -11    1    3    3    0    0  0.84881309680E+01 -0.29211721735E+02 -0.91909085242E+01  0.31778071902E+02  0.51100000000E-03 0.  1.
         12    1    3    3    0    0  0.24571321695E+01 -0.83659287535E+01 -0.37283635420E+01  0.94829825007E+01  0.00000000000E+00 0. -1.
</event>
<event>
 7    1  0.2983653E-010  0.4778727E+02  0.7816164E-02  0.1312668E+00
        -11   -1    0    0    0    0  0.00000000000E+00  0.00000000000E+00  0.45593999997E+02  0.45594000000E+02  0.51100000000E-03 0. -1.
         11   -1    0    0    0    0 -0.00000000000E+00 -0.00000000000E+00 -0.45593999997E+02  0.45594000000E+02  0.51100000000E-03 0.  1.
    9900012    2    1    2    0    0 -0.18666846864E+02  0.34455268404E+02  0.18654936680E+02  0.47787270108E+02  0.19999995732E+02 0.  0.
        -12    1    1    2    0    0  0.18666846864E+02 -0.34455268404E+02 -0.18654936680E+02  0.43400729892E+02  0.00000000000E+00 0.  1.
         11    1    3    3    0    0 -0.59949604003E+01  0.19742218836E+02  0.16422745985E+01  0.20697628388E+02  0.51100000000E-03 0. -1.
        -11    1    3    3    0    0 -0.43961726866E+01  0.95744430870E+00  0.64829178258E+01  0.78912139555E+01  0.51100000000E-03 0.  1.
         12    1    3    3    0    0 -0.82757137767E+01  0.13755605259E+02  0.10529744255E+02  0.19198427765E+02  0.00000000000E+00 0. -1.
</event>
<event>
 7    1  0.2983653E-010  0.4778727E+02  0.7816164E-02  0.1312668E+00
        -11   -1    0    0    0    0  0.00000000000E+00  0.00000000000E+00  0.45593999997E+02  0.45594000000E+02  0.51100000000E-03 0.  1.
         11   -1    0    0    0    0 -0.00000000000E+00 -0.00000000000E+00 -0.45593999997E+02  0.45594000000E+02  0.51100000000E-03 0. -1.
    9900012    2    1    2    0    0  0.14626563942E+02 -0.34727060102E+02 -0.21534109187E+02  0.47787274954E+02  0.20000017824E+02 0.  0.
        -12    1    1    2    0    0 -0.14626563942E+02  0.34727060102E+02  0.21534109187E+02  0.43400725046E+02  0.00000000000E+00 0.  1.
         11    1    3    3    0    0  0.28872727368E+01 -0.11772469111E+02 -0.62336348572E+01  0.13630318288E+02  0.51100000000E-03 0. -1.
        -11    1    3    3    0    0  0.13148436192E+02 -0.18770048625E+02 -0.57384301317E+01  0.23624683708E+02  0.51100000000E-03 0.  1.
        -12    1    3    3    0    0 -0.14091449870E+01 -0.41845423655E+01 -0.95620441983E+01  0.10532272958E+02  0.00000000000E+00 0.  1.
</event>
<event>
 7    1  0.2983653E-010  0.4778727E+02  0.7816164E-02  0.1312668E+00
        -11   -1    0    0    0    0  0.00000000000E+00  0.00000000000E+00  0.45593999997E+02  0.45594000000E+02  0.51100000000E-03 0.  1.
         11   -1    0    0    0    0 -0.00000000000E+00 -0.00000000000E+00 -0.45593999997E+02  0.45594000000E+02  0.51100000000E-03 0. -1.
    9900012    2    1    2    0    0  0.32015218968E+02  0.27955834009E+02 -0.87818102816E+01  0.47787273134E+02  0.20000009526E+02 0.  0.
        -12    1    1    2    0    0 -0.32015218968E+02 -0.27955834009E+02  0.87818102816E+01  0.43400726866E+02  0.00000000000E+00 0.  1.
         11    1    3    3    0    0  0.20205270737E+02  0.12125132191E+02 -0.12260951079E+02  0.26563183504E+02  0.51100000000E-03 0. -1.
        -11    1    3    3    0    0  0.83907284217E+01  0.13505728057E+02  0.12587549611E+00  0.15900467248E+02  0.51100000000E-03 0.  1.
         12    1    3    3    0    0  0.34192198091E+01  0.23249737611E+01  0.33532653014E+01  0.53236223827E+01  0.00000000000E+00 0. -1.
</event>
<event>
 7    1  0.2983653E-010  0.4778727E+02  0.7816164E-02  0.1312668E+00
        -11   -1    0    0    0    0  0.00000000000E+00  0.00000000000E+00  0.45593999997E+02  0.45594000000E+02  0.51100000000E-03 0. -1.
         11   -1    0    0    0    0 -0.00000000000E+00 -0.00000000000E+00 -0.45593999997E+02  0.45594000000E+02  0.51100000000E-03 0.  1.
    9900012    2    1    2    0    0  0.33195225656E+02 -0.18648779080E+02  0.20830824997E+02  0.47787271462E+02  0.20000001905E+02 0.  0.
        -12    1    1    2    0    0 -0.33195225656E+02  0.18648779080E+02 -0.20830824997E+02  0.43400728538E+02  0.00000000000E+00 0.  1.
         11    1    3    3    0    0  0.19167137024E+02 -0.13770123226E+02  0.97960196948E+01  0.25553031864E+02  0.51100000000E-03 0. -1.
        -11    1    3    3    0    0  0.93886920519E+01 -0.29709286937E+01  0.13447706365E+02  0.16667776171E+02  0.51100000000E-03 0.  1.
        -12    1    3    3    0    0  0.46393965806E+01 -0.19077271609E+01 -0.24129010620E+01  0.55664634273E+01  0.00000000000E+00 0.  1.
</event>
<event>
 7    1  0.2983653E-010  0.4778727E+02  0.7816164E-02  0.1312668E+00
        -11   -1    0    0    0    0  0.00000000000E+00  0.00000000000E+00  0.45593999997E+02  0.45594000000E+02  0.51100000000E-03 0. -1.
         11   -1    0    0    0    0 -0.00000000000E+00 -0.00000000000E+00 -0.45593999997E+02  0.45594000000E+02  0.51100000000E-03 0.  1.
    9900012    2    1    2    0    0  0.38073575923E+02 -0.19221697793E+02  0.80344604662E+01  0.47787269538E+02  0.19999993134E+02 0.  0.
        -12    1    1    2    0    0 -0.38073575923E+02  0.19221697793E+02 -0.80344604662E+01  0.43400730462E+02  0.00000000000E+00 0.  1.
         11    1    3    3    0    0  0.88467219595E+01 -0.16519196043E+01  0.84877839331E+01  0.12370764090E+02  0.51100000000E-03 0. -1.
        -11    1    3    3    0    0  0.91871444563E+01 -0.10711835155E+02 -0.16145940058E+01  0.14204011747E+02  0.51100000000E-03 0.  1.
         12    1    3    3    0    0  0.20039709507E+02 -0.68579430343E+01  0.11612705390E+01  0.21212493702E+02  0.00000000000E+00 0. -1.
</event>
<event>
 7    1  0.2983653E-010  0.4778723E+02  0.7816164E-02  0.1312668E+00
        -11   -1    0    0    0    0  0.00000000000E+00  0.00000000000E+00  0.45593999997E+02  0.45594000000E+02  0.51100000000E-03 0. -1.
         11   -1    0    0    0    0 -0.00000000000E+00 -0.00000000000E+00 -0.45593999997E+02  0.45594000000E+02  0.51100000000E-03 0.  1.
    9900012    2    1    2    0    0  0.42040980146E+02  0.44814523882E+01  0.98030426115E+01  0.47787227293E+02  0.19999800518E+02 0.  0.
        -12    1    1    2    0    0 -0.42040980146E+02 -0.44814523882E+01 -0.98030426115E+01  0.43400772707E+02  0.00000000000E+00 0.  1.
         11    1    3    3    0    0  0.36136076408E+02  0.22384195860E+01  0.98271584840E+01  0.37515324663E+02  0.51100000000E-03 0. -1.
        -11    1    3    3    0    0 -0.65228067365E-01 -0.25436773491E+01  0.53221590195E+00  0.25995775012E+01  0.51100000000E-03 0.  1.
        -12    1    3    3    0    0  0.59701318048E+01  0.47867101513E+01 -0.55633177445E+00  0.76723251289E+01  0.00000000000E+00 0.  1.
</event>
<event>
 7    1  0.2983653E-010  0.4778725E+02  0.7816164E-02  0.1312668E+00
        -11   -1    0    0    0    0  0.00000000000E+00  0.00000000000E+00  0.45593999997E+02  0.45594000000E+02  0.51100000000E-03 0. -1.
         11   -1    0    0    0    0 -0.00000000000E+00 -0.00000000000E+00 -0.45593999997E+02  0.45594000000E+02  0.51100000000E-03 0.  1.
    9900012    2    1    2    0    0 -0.40731775721E+02  0.12920357791E+02  0.75902431394E+01  0.47787251277E+02  0.19999909871E+02 0.  0.
        -12    1    1    2    0    0  0.40731775721E+02 -0.12920357791E+02 -0.75902431394E+01  0.43400748723E+02  0.00000000000E+00 0.  1.
         11    1    3    3    0    0 -0.15188240294E+02 -0.24895685208E+01 -0.17526519886E+01  0.15490396506E+02  0.51100000000E-03 0. -1.
        -11    1    3    3    0    0 -0.65416368949E+00 -0.28363299074E-03  0.20168253426E+01  0.21202629404E+01  0.51100000000E-03 0.  1.
         12    1    3    3    0    0 -0.24889371737E+02  0.15410209944E+02  0.73260697855E+01  0.30176591831E+02  0.00000000000E+00 0. -1.
</event>
<event>
 7    1  0.2983653E-010  0.4778727E+02  0.7816164E-02  0.1312668E+00
        -11   -1    0    0    0    0  0.00000000000E+00  0.00000000000E+00  0.45593999997E+02  0.45594000000E+02  0.51100000000E-03 0.  1.
         11   -1    0    0    0    0 -0.00000000000E+00 -0.00000000000E+00 -0.45593999997E+02  0.45594000000E+02  0.51100000000E-03 0. -1.
    9900012    2    1    2    0    0 -0.21360275096E+02  0.15045647595E+02 -0.34655307362E+02  0.47787271987E+02  0.20000004297E+02 0.  0.
        -12    1    1    2    0    0  0.21360275096E+02 -0.15045647595E+02  0.34655307362E+02  0.43400728013E+02  0.00000000000E+00 0.  1.
         11    1    3    3    0    0 -0.45329012189E+01  0.50413234858E+01 -0.11869509151E+02  0.13669212988E+02  0.51100000000E-03 0. -1.
        -11    1    3    3    0    0 -0.63600298879E+01  0.12813610314E+02 -0.10563413278E+02  0.17782696359E+02  0.51100000000E-03 0.  1.
        -12    1    3    3    0    0 -0.10467343989E+02 -0.28092862041E+01 -0.12222384933E+02  0.16335362640E+02  0.00000000000E+00 0.  1.
</event>
<event>
 7    1  0.2983653E-010  0.4778729E+02  0.7816164E-02  0.1312668E+00
        -11   -1    0    0    0    0  0.00000000000E+00  0.00000000000E+00  0.45593999997E+02  0.45594000000E+02  0.51100000000E-03 0.  1.
         11   -1    0    0    0    0 -0.00000000000E+00 -0.00000000000E+00 -0.45593999997E+02  0.45594000000E+02  0.51100000000E-03 0. -1.
    9900012    2    1    2    0    0 -0.28253541221E+02  0.28449067553E+02 -0.16613526799E+02  0.47787293683E+02  0.20000103217E+02 0.  0.
        -12    1    1    2    0    0  0.28253541221E+02 -0.28449067553E+02  0.16613526799E+02  0.43400706317E+02  0.00000000000E+00 0.  1.
         11    1    3    3    0    0 -0.19676379004E+02  0.91134416127E+01 -0.14314735339E+02  0.25983193738E+02  0.51100000000E-03 0. -1.
        -11    1    3    3    0    0 -0.11242002060E+01  0.81720076208E+01 -0.54184137989E+00  0.82667482724E+01  0.51100000000E-03 0.  1.
         12    1    3    3    0    0 -0.74529620106E+01  0.11163618319E+02 -0.17569500802E+01  0.13537351672E+02  0.00000000000E+00 0. -1.
</event>
<event>
 7    1  0.2983653E-010  0.4778727E+02  0.7816164E-02  0.1312668E+00
        -11   -1    0    0    0    0  0.00000000000E+00  0.00000000000E+00  0.45593999997E+02  0.45594000000E+02  0.51100000000E-03 0.  1.
         11   -1    0    0    0    0 -0.00000000000E+00 -0.00000000000E+00 -0.45593999997E+02  0.45594000000E+02  0.51100000000E-03 0. -1.
    9900012    2    1    2    0    0  0.25534968706E+02  0.27468105835E+02 -0.21842429718E+02  0.47787271885E+02  0.20000003831E+02 0.  0.
        -12    1    1    2    0    0 -0.25534968706E+02 -0.27468105835E+02  0.21842429718E+02  0.43400728115E+02  0.00000000000E+00 0.  1.
         11    1    3    3    0    0  0.17789893569E+02  0.85487420368E+01 -0.97667649054E+01  0.22021603043E+02  0.51100000000E-03 0. -1.
        -11    1    3    3    0    0 -0.20843706526E+01  0.14660552946E+01 -0.24767498326E+01  0.35536191606E+01  0.51100000000E-03 0.  1.
        -12    1    3    3    0    0  0.98294457895E+01  0.17453308503E+02 -0.95989149800E+01  0.22212049681E+02  0.00000000000E+00 0.  1.
</event>
<event>
 7    1  0.2983653E-010  0.4778725E+02  0.7816164E-02  0.1312668E+00
        -11   -1    0    0    0    0  0.00000000000E+00  0.00000000000E+00  0.45593999997E+02  0.45594000000E+02  0.51100000000E-03 0.  1.
         11   -1    0    0    0    0 -0.00000000000E+00 -0.00000000000E+00 -0.45593999997E+02  0.45594000000E+02  0.51100000000E-03 0. -1.
    9900012    2    1    2    0    0  0.82059419651E+01 -0.39681928918E+02  0.15544514075E+02  0.47787252495E+02  0.19999915425E+02 0.  0.
        -12    1    1    2    0    0 -0.82059419651E+01  0.39681928918E+02 -0.15544514075E+02  0.43400747505E+02  0.00000000000E+00 0.  1.
         11    1    3    3    0    0  0.11991495460E+02 -0.30123473781E+02  0.94321180435E+01  0.33766617940E+02  0.51100000000E-03 0. -1.
        -11    1    3    3    0    0 -0.21479877196E+01  0.13940974440E+00  0.30242405504E+01  0.37120503078E+01  0.51100000000E-03 0.  1.
        -12    1    3    3    0    0 -0.16375657754E+01 -0.96978648807E+01  0.30881554812E+01  0.10308584248E+02  0.00000000000E+00 0.  1.
</event>
<event>
 7    1  0.2983653E-010  0.4778727E+02  0.7816164E-02  0.1312668E+00
        -11   -1    0    0    0    0  0.00000000000E+00  0.00000000000E+00  0.45593999997E+02  0.45594000000E+02  0.51100000000E-03 0.  1.
         11   -1    0    0    0    0 -0.00000000000E+00 -0.00000000000E+00 -0.45593999997E+02  0.45594000000E+02  0.51100000000E-03 0. -1.
    9900012    2    1    2    0    0  0.18665734741E+02  0.72339921631E+01 -0.38508218382E+02  0.47787272138E+02  0.20000004984E+02 0.  0.
        -12    1    1    2    0    0 -0.18665734741E+02 -0.72339921631E+01  0.38508218382E+02  0.43400727862E+02  0.00000000000E+00 0.  1.
         11    1    3    3    0    0  0.89962182200E+01  0.82519303722E+01 -0.27078537266E+02  0.29703088692E+02  0.51100000000E-03 0. -1.
        -11    1    3    3    0    0  0.27662142852E+01 -0.51855017653E+01 -0.39153567544E+01  0.70619677715E+01  0.51100000000E-03 0.  1.
        -12    1    3    3    0    0  0.69033022355E+01  0.41675635563E+01 -0.75143243620E+01  0.11022215674E+02  0.00000000000E+00 0.  1.
</event>
<event>
 7    1  0.2983653E-010  0.4778727E+02  0.7816164E-02  0.1312668E+00
        -11   -1    0    0    0    0  0.00000000000E+00  0.00000000000E+00  0.45593999997E+02  0.45594000000E+02  0.51100000000E-03 0.  1.
         11   -1    0    0    0    0 -0.00000000000E+00 -0.00000000000E+00 -0.45593999997E+02  0.45594000000E+02  0.51100000000E-03 0. -1.
    9900012    2    1    2    0    0  0.18649849121E+02 -0.27031212597E+02 -0.28374635594E+02  0.47787271068E+02  0.20000000107E+02 0.  0.
        -12    1    1    2    0    0 -0.18649849121E+02  0.27031212597E+02  0.28374635594E+02  0.43400728932E+02  0.00000000000E+00 0.  1.
         11    1    3    3    0    0  0.71604484960E+01 -0.13327209224E+02 -0.16546125257E+02  0.22420097895E+02  0.51100000000E-03 0. -1.
        -11    1    3    3    0    0  0.12959783498E+02 -0.72880996942E+01 -0.45396035083E+01  0.15546073001E+02  0.51100000000E-03 0.  1.
        -12    1    3    3    0    0 -0.14703828734E+01 -0.64159036791E+01 -0.72889068293E+01  0.98211001716E+01  0.00000000000E+00 0.  1.
</event>
<event>
 7    1  0.2983653E-010  0.4778727E+02  0.7816164E-02  0.1312668E+00
        -11   -1    0    0    0    0  0.00000000000E+00  0.00000000000E+00  0.45593999997E+02  0.45594000000E+02  0.51100000000E-03 0. -1.
         11   -1    0    0    0    0 -0.00000000000E+00 -0.00000000000E+00 -0.45593999997E+02  0.45594000000E+02  0.51100000000E-03 0.  1.
    9900012    2    1    2    0    0  0.95639215568E+01  0.39964228312E+02 -0.13964781591E+02  0.47787271147E+02  0.20000000467E+02 0.  0.
        -12    1    1    2    0    0 -0.95639215568E+01 -0.39964228312E+02  0.13964781591E+02  0.43400728853E+02  0.00000000000E+00 0.  1.
         11    1    3    3    0    0  0.59376576529E+00  0.32063471844E+02 -0.11641442497E+02  0.34116593736E+02  0.51100000000E-03 0. -1.
        -11    1    3    3    0    0  0.71561725915E+01  0.54013277380E+01 -0.43615905505E+01  0.99703871482E+01  0.51100000000E-03 0.  1.
         12    1    3    3    0    0  0.18139831999E+01  0.24994287297E+01  0.20382514571E+01  0.37002902625E+01  0.00000000000E+00 0. -1.
</event>
<event>
 7    1  0.2983653E-010  0.4778727E+02  0.7816164E-02  0.1312668E+00
        -11   -1    0    0    0    0  0.00000000000E+00  0.00000000000E+00  0.45593999997E+02  0.45594000000E+02  0.51100000000E-03 0.  1.
         11   -1    0    0    0    0 -0.00000000000E+00 -0.00000000000E+00 -0.45593999997E+02  0.45594000000E+02  0.51100000000E-03 0. -1.
    9900012    2    1    2    0    0  0.32343983135E+02 -0.10925708689E+02 -0.26797738722E+02  0.47787272403E+02  0.20000006192E+02 0.  0.
        -12    1    1    2    0    0 -0.32343983135E+02  0.10925708689E+02  0.26797738722E+02  0.43400727597E+02  0.00000000000E+00 0.  1.
         11    1    3    3    0    0  0.80794963815E+01  0.28490998836E+01 -0.14008761720E+01  0.86809035380E+01  0.51100000000E-03 0.  1.
        -11    1    3    3    0    0  0.12009792051E+02 -0.11619183869E+02 -0.10668937492E+02  0.19825911489E+02  0.51100000000E-03 0. -1.
        -12    1    3    3    0    0  0.12254694702E+02 -0.21556247035E+01 -0.14727925057E+02  0.19280457375E+02  0.00000000000E+00 0.  1.
</event>
<event>
 7    1  0.2983653E-010  0.4778727E+02  0.7816164E-02  0.1312668E+00
        -11   -1    0    0    0    0  0.00000000000E+00  0.00000000000E+00  0.45593999997E+02  0.45594000000E+02  0.51100000000E-03 0.  1.
         11   -1    0    0    0    0 -0.00000000000E+00 -0.00000000000E+00 -0.45593999997E+02  0.45594000000E+02  0.51100000000E-03 0. -1.
    9900012    2    1    2    0    0 -0.93994059364E+01  0.52133875222E+01 -0.42048724798E+02  0.47787268456E+02  0.19999988197E+02 0.  0.
        -12    1    1    2    0    0  0.93994059364E+01 -0.52133875222E+01  0.42048724798E+02  0.43400731544E+02  0.00000000000E+00 0.  1.
         11    1    3    3    0    0 -0.10967717627E+02 -0.18545483674E+01 -0.11129710902E+02  0.15735331094E+02  0.51100000000E-03 0.  1.
        -11    1    3    3    0    0  0.15762714031E+01  0.62036268975E+01 -0.18002461788E+02  0.19106497557E+02  0.51100000000E-03 0. -1.
         12    1    3    3    0    0 -0.79597126661E-02  0.86430899200E+00 -0.12916552108E+02  0.12945439805E+02  0.00000000000E+00 0. -1.
</event>
<event>
 7    1  0.2983653E-010  0.4778727E+02  0.7816164E-02  0.1312668E+00
        -11   -1    0    0    0    0  0.00000000000E+00  0.00000000000E+00  0.45593999997E+02  0.45594000000E+02  0.51100000000E-03 0.  1.
         11   -1    0    0    0    0 -0.00000000000E+00 -0.00000000000E+00 -0.45593999997E+02  0.45594000000E+02  0.51100000000E-03 0. -1.
    9900012    2    1    2    0    0 -0.22509686043E+02 -0.17749132909E+02 -0.32586892347E+02  0.47787271462E+02  0.20000001904E+02 0.  0.
        -12    1    1    2    0    0  0.22509686043E+02  0.17749132909E+02  0.32586892347E+02  0.43400728538E+02  0.00000000000E+00 0.  1.
         11    1    3    3    0    0 -0.74007681216E+01 -0.10678453769E+01 -0.39000816102E+01  0.84334037829E+01  0.51100000000E-03 0. -1.
        -11    1    3    3    0    0  0.96655284844E+00 -0.75788686383E+01 -0.13181347232E+02  0.15235530492E+02  0.51100000000E-03 0.  1.
        -12    1    3    3    0    0 -0.16075470770E+02 -0.91024188941E+01 -0.15505463505E+02  0.24118337188E+02  0.00000000000E+00 0.  1.
</event>
<event>
 7    1  0.2983653E-010  0.4778726E+02  0.7816164E-02  0.1312668E+00
        -11   -1    0    0    0    0  0.00000000000E+00  0.00000000000E+00  0.45593999997E+02  0.45594000000E+02  0.51100000000E-03 0. -1.
         11   -1    0    0    0    0 -0.00000000000E+00 -0.00000000000E+00 -0.45593999997E+02  0.45594000000E+02  0.51100000000E-03 0.  1.
    9900012    2    1    2    0    0 -0.33782420114E+02 -0.15516429057E+02  0.22396711531E+02  0.47787260757E+02  0.19999953094E+02 0.  0.
        -12    1    1    2    0    0  0.33782420114E+02  0.15516429057E+02 -0.22396711531E+02  0.43400739243E+02  0.00000000000E+00 0.  1.
         11    1    3    3    0    0 -0.21951318365E+02 -0.11414703157E+02  0.49184194528E+01  0.25225912795E+02  0.51100000000E-03 0. -1.
        -11    1    3    3    0    0 -0.79098179241E+01  0.84360409805E+00  0.96899181882E+01  0.12536801914E+02  0.51100000000E-03 0.  1.
        -12    1    3    3    0    0 -0.39212838246E+01 -0.49453299977E+01  0.77883738905E+01  0.10024546048E+02  0.00000000000E+00 0.  1.
</event>
<event>
 7    1  0.2983653E-010  0.4778727E+02  0.7816164E-02  0.1312668E+00
        -11   -1    0    0    0    0  0.00000000000E+00  0.00000000000E+00  0.45593999997E+02  0.45594000000E+02  0.51100000000E-03 0.  1.
         11   -1    0    0    0    0 -0.00000000000E+00 -0.00000000000E+00 -0.45593999997E+02  0.45594000000E+02  0.51100000000E-03 0. -1.
    9900012    2    1    2    0    0 -0.39802307864E+02 -0.16778238424E+02 -0.42296951306E+01  0.47787270550E+02  0.19999997745E+02 0.  0.
        -12    1    1    2    0    0  0.39802307864E+02  0.16778238424E+02  0.42296951306E+01  0.43400729450E+02  0.00000000000E+00 0.  1.
         11    1    3    3    0    0  0.22041855257E+00 -0.49059913035E+01 -0.84744167702E+00  0.49835221145E+01  0.51100000000E-03 0. -1.
        -11    1    3    3    0    0 -0.26321061513E+02 -0.35964592418E+01 -0.70928100161E+00  0.26575098834E+02  0.51100000000E-03 0.  1.
        -12    1    3    3    0    0 -0.13701664903E+02 -0.82757878791E+01 -0.26729724520E+01  0.16228649601E+02  0.00000000000E+00 0.  1.
</event>
<event>
 7    1  0.3448648E-010  0.4778726E+02  0.7816164E-02  0.1312668E+00
        -11   -1    0    0    0    0  0.00000000000E+00  0.00000000000E+00  0.45593999997E+02  0.45594000000E+02  0.51100000000E-03 0. -1.
         11   -1    0    0    0    0 -0.00000000000E+00 -0.00000000000E+00 -0.45593999997E+02  0.45594000000E+02  0.51100000000E-03 0.  1.
    9900012    2    1    2    0    0  0.41600219207E+02  0.12343250500E+02 -0.83071628970E+00  0.47787260829E+02  0.19999953425E+02 0.  0.
        -12    1    1    2    0    0 -0.41600219207E+02 -0.12343250500E+02  0.83071628970E+00  0.43400739171E+02  0.00000000000E+00 0.  1.
         11    1    3    3    0    0  0.10453061042E+02  0.19201296088E+01  0.15298673460E+00  0.10629053959E+02  0.51100000000E-03 0. -1.
        -11    1    3    3    0    0  0.26060392291E+02  0.14542243440E+02  0.21114649467E+01  0.29917873840E+02  0.51100000000E-03 0.  1.
        -12    1    3    3    0    0  0.50867658743E+01 -0.41191225480E+01 -0.30951679710E+01  0.72403330306E+01  0.00000000000E+00 0.  1.
</event>
<event>
 7    1  0.2983653E-010  0.4778726E+02  0.7816164E-02  0.1312668E+00
        -11   -1    0    0    0    0  0.00000000000E+00  0.00000000000E+00  0.45593999997E+02  0.45594000000E+02  0.51100000000E-03 0. -1.
         11   -1    0    0    0    0 -0.00000000000E+00 -0.00000000000E+00 -0.45593999997E+02  0.45594000000E+02  0.51100000000E-03 0.  1.
    9900012    2    1    2    0    0  0.31416045579E+02  0.27001762319E+02  0.12944548618E+02  0.47787257759E+02  0.19999939425E+02 0.  0.
        -12    1    1    2    0    0 -0.31416045579E+02 -0.27001762319E+02 -0.12944548618E+02  0.43400742241E+02  0.00000000000E+00 0.  1.
         11    1    3    3    0    0  0.16200796642E+02  0.21901535265E+02  0.84485801078E+01  0.28522299432E+02  0.51100000000E-03 0. -1.
        -11    1    3    3    0    0  0.12186646638E+02 -0.33639404857E+00  0.46282860603E+01  0.13040266460E+02  0.51100000000E-03 0.  1.
        -12    1    3    3    0    0  0.30286022993E+01  0.54366211022E+01 -0.13231754978E+00  0.62246918663E+01  0.00000000000E+00 0.  1.
</event>
<event>
 7    1  0.2983653E-010  0.4778727E+02  0.7816164E-02  0.1312668E+00
        -11   -1    0    0    0    0  0.00000000000E+00  0.00000000000E+00  0.45593999997E+02  0.45594000000E+02  0.51100000000E-03 0.  1.
         11   -1    0    0    0    0 -0.00000000000E+00 -0.00000000000E+00 -0.45593999997E+02  0.45594000000E+02  0.51100000000E-03 0. -1.
    9900012    2    1    2    0    0  0.27388784270E+02 -0.11664292516E+02 -0.31581989612E+02  0.47787270841E+02  0.19999999074E+02 0.  0.
        -12    1    1    2    0    0 -0.27388784270E+02  0.11664292516E+02  0.31581989612E+02  0.43400729159E+02  0.00000000000E+00 0.  1.
         11    1    3    3    0    0  0.58421748808E+00 -0.43363634001E+01 -0.83040042857E+01  0.93862583093E+01  0.51100000000E-03 0. -1.
        -11    1    3    3    0    0  0.19159219611E+02  0.93132735173E+00 -0.16184857603E+02  0.25097662892E+02  0.51100000000E-03 0.  1.
        -12    1    3    3    0    0  0.76453471709E+01 -0.82592564675E+01 -0.70931277229E+01  0.13303349640E+02  0.00000000000E+00 0.  1.
</event>
<event>
 7    1  0.3611617E-010  0.4778725E+02  0.7816164E-02  0.1312668E+00
        -11   -1    0    0    0    0  0.00000000000E+00  0.00000000000E+00  0.45593999997E+02  0.45594000000E+02  0.51100000000E-03 0. -1.
         11   -1    0    0    0    0 -0.00000000000E+00 -0.00000000000E+00 -0.45593999997E+02  0.45594000000E+02  0.51100000000E-03 0.  1.
    9900012    2    1    2    0    0 -0.29338740680E+02 -0.58995909798E+01  0.31433394776E+02  0.47787249021E+02  0.19999899584E+02 0.  0.
        -12    1    1    2    0    0  0.29338740680E+02  0.58995909798E+01 -0.31433394776E+02  0.43400750979E+02  0.00000000000E+00 0.  1.
         11    1    3    3    0    0 -0.38310362027E+01 -0.13511304551E+00  0.12209423469E+02  0.12797074495E+02  0.51100000000E-03 0. -1.
        -11    1    3    3    0    0 -0.14325960824E+02 -0.97792168172E+01  0.10958653278E+02  0.20517268752E+02  0.51100000000E-03 0.  1.
        -12    1    3    3    0    0 -0.11181743653E+02  0.40147388830E+01  0.82653180284E+01  0.14472905774E+02  0.00000000000E+00 0.  1.
</event>
<event>
 7    1  0.2983653E-010  0.4778728E+02  0.7816164E-02  0.1312668E+00
        -11   -1    0    0    0    0  0.00000000000E+00  0.00000000000E+00  0.45593999997E+02  0.45594000000E+02  0.51100000000E-03 0.  1.
         11   -1    0    0    0    0 -0.00000000000E+00 -0.00000000000E+00 -0.45593999997E+02  0.45594000000E+02  0.51100000000E-03 0. -1.
    9900012    2    1    2    0    0  0.14454089154E+01  0.15247253135E+02 -0.40608556435E+02  0.47787276610E+02  0.20000025375E+02 0.  0.
        -12    1    1    2    0    0 -0.14454089154E+01 -0.15247253135E+02  0.40608556435E+02  0.43400723390E+02  0.00000000000E+00 0.  1.
         11    1    3    3    0    0 -0.68752350961E+01  0.84053395178E+01 -0.20568003558E+02  0.23258576067E+02  0.51100000000E-03 0.  1.
        -11    1    3    3    0    0 -0.17507937121E+01  0.15468848256E+01 -0.61118489887E+01  0.65431513514E+01  0.51100000000E-03 0. -1.
         12    1    3    3    0    0  0.10071437724E+02  0.52950287915E+01 -0.13928703888E+02  0.17985549191E+02  0.00000000000E+00 0. -1.
</event>
<event>
 7    1  0.2983653E-010  0.4778727E+02  0.7816164E-02  0.1312668E+00
        -11   -1    0    0    0    0  0.00000000000E+00  0.00000000000E+00  0.45593999997E+02  0.45594000000E+02  0.51100000000E-03 0.  1.
         11   -1    0    0    0    0 -0.00000000000E+00 -0.00000000000E+00 -0.45593999997E+02  0.45594000000E+02  0.51100000000E-03 0. -1.
    9900012    2    1    2    0    0 -0.13629262313E+02 -0.40211965662E+02  0.89924721798E+01  0.47787268099E+02  0.19999986572E+02 0.  0.
        -12    1    1    2    0    0  0.13629262313E+02  0.40211965662E+02 -0.89924721798E+01  0.43400731901E+02  0.00000000000E+00 0.  1.
         11    1    3    3    0    0 -0.36292429940E+01 -0.31866096138E+02  0.49693046072E+01  0.32454791269E+02  0.51100000000E-03 0. -1.
        -11    1    3    3    0    0 -0.51028412918E+01 -0.49985749847E+01  0.57328524096E+01  0.91591668910E+01  0.51100000000E-03 0.  1.
         12    1    3    3    0    0 -0.48971780275E+01 -0.33472945397E+01 -0.17096848370E+01  0.61733099396E+01  0.00000000000E+00 0. -1.
</event>
<event>
 7    1  0.2983653E-010  0.4778726E+02  0.7816164E-02  0.1312668E+00
        -11   -1    0    0    0    0  0.00000000000E+00  0.00000000000E+00  0.45593999997E+02  0.45594000000E+02  0.51100000000E-03 0.  1.
         11   -1    0    0    0    0 -0.00000000000E+00 -0.00000000000E+00 -0.45593999997E+02  0.45594000000E+02  0.51100000000E-03 0. -1.
    9900012    2    1    2    0    0 -0.38590632756E+02 -0.32262775509E+01 -0.19595360177E+02  0.47787263327E+02  0.19999964813E+02 0.  0.
        -12    1    1    2    0    0  0.38590632756E+02  0.32262775509E+01  0.19595360177E+02  0.43400736673E+02  0.00000000000E+00 0.  1.
         11    1    3    3    0    0 -0.35009193715E+02 -0.24436460931E+01 -0.23010987223E+02  0.41965707239E+02  0.51100000000E-03 0. -1.
        -11    1    3    3    0    0 -0.36413255832E+01 -0.91661722774E+00  0.17382088703E+01  0.41377299915E+01  0.51100000000E-03 0.  1.
         12    1    3    3    0    0  0.59886543008E-01  0.13398576995E+00  0.16774181763E+01  0.16838260964E+01  0.00000000000E+00 0. -1.
</event>
<event>
 7    1  0.2983653E-010  0.4778727E+02  0.7816164E-02  0.1312668E+00
        -11   -1    0    0    0    0  0.00000000000E+00  0.00000000000E+00  0.45593999997E+02  0.45594000000E+02  0.51100000000E-03 0.  1.
         11   -1    0    0    0    0 -0.00000000000E+00 -0.00000000000E+00 -0.45593999997E+02  0.45594000000E+02  0.51100000000E-03 0. -1.
    9900012    2    1    2    0    0 -0.38664633912E+02  0.11571584641E+02 -0.15961449489E+02  0.47787270093E+02  0.19999995664E+02 0.  0.
        -12    1    1    2    0    0  0.38664633912E+02 -0.11571584641E+02  0.15961449489E+02  0.43400729907E+02  0.00000000000E+00 0.  1.
         11    1    3    3    0    0 -0.16813707936E+02 -0.19220915541E+01 -0.87015102441E+01  0.19029227291E+02  0.51100000000E-03 0. -1.
        -11    1    3    3    0    0 -0.70428985105E+01  0.41039196943E+00 -0.54514099552E+01  0.89156442144E+01  0.51100000000E-03 0.  1.
         12    1    3    3    0    0 -0.14808027466E+02  0.13083284225E+02 -0.18085292899E+01  0.19842398588E+02  0.00000000000E+00 0. -1.
</event>
<event>
 7    1  0.2983653E-010  0.4778727E+02  0.7816164E-02  0.1312668E+00
        -11   -1    0    0    0    0  0.00000000000E+00  0.00000000000E+00  0.45593999997E+02  0.45594000000E+02  0.51100000000E-03 0. -1.
         11   -1    0    0    0    0 -0.00000000000E+00 -0.00000000000E+00 -0.45593999997E+02  0.45594000000E+02  0.51100000000E-03 0.  1.
    9900012    2    1    2    0    0  0.21998812566E+01  0.24235703601E+02  0.35936252825E+02  0.47787273351E+02  0.20000010517E+02 0.  0.
        -12    1    1    2    0    0 -0.21998812566E+01 -0.24235703601E+02 -0.35936252825E+02  0.43400726649E+02  0.00000000000E+00 0.  1.
         11    1    3    3    0    0 -0.15211867677E+01  0.90977296481E+01  0.19781260649E+02  0.21826153282E+02  0.51100000000E-03 0. -1.
        -11    1    3    3    0    0  0.56206444683E+01  0.14947184164E+02  0.85373898064E+01  0.18107925990E+02  0.51100000000E-03 0.  1.
        -12    1    3    3    0    0 -0.18995764440E+01  0.19078978871E+00  0.76176023688E+01  0.78531940801E+01  0.00000000000E+00 0.  1.
</event>
<event>
 7    1  0.2983653E-010  0.4778727E+02  0.7816164E-02  0.1312668E+00
        -11   -1    0    0    0    0  0.00000000000E+00  0.00000000000E+00  0.45593999997E+02  0.45594000000E+02  0.51100000000E-03 0.  1.
         11   -1    0    0    0    0 -0.00000000000E+00 -0.00000000000E+00 -0.45593999997E+02  0.45594000000E+02  0.51100000000E-03 0. -1.
    9900012    2    1    2    0    0  0.19032351663E+02  0.21544383362E+02 -0.32515108552E+02  0.47787272490E+02  0.20000006590E+02 0.  0.
        -12    1    1    2    0    0 -0.19032351663E+02 -0.21544383362E+02  0.32515108552E+02  0.43400727510E+02  0.00000000000E+00 0.  1.
         11    1    3    3    0    0  0.17616135960E+02  0.92880175768E+01 -0.13431795643E+02  0.24021004374E+02  0.51100000000E-03 0. -1.
        -11    1    3    3    0    0  0.14335055397E+01  0.57594147765E+00 -0.19361697779E+00  0.15569632344E+01  0.51100000000E-03 0.  1.
         12    1    3    3    0    0 -0.17289836990E-01  0.11680424307E+02 -0.18889695931E+02  0.22209304881E+02  0.00000000000E+00 0. -1.
</event>
<event>
 7    1  0.2983653E-010  0.4778727E+02  0.7816164E-02  0.1312668E+00
        -11   -1    0    0    0    0  0.00000000000E+00  0.00000000000E+00  0.45593999997E+02  0.45594000000E+02  0.51100000000E-03 0. -1.
         11   -1    0    0    0    0 -0.00000000000E+00 -0.00000000000E+00 -0.45593999997E+02  0.45594000000E+02  0.51100000000E-03 0.  1.
    9900012    2    1    2    0    0 -0.30034280747E+02 -0.29913977532E+02  0.93123170218E+01  0.47787270512E+02  0.19999997570E+02 0.  0.
        -12    1    1    2    0    0  0.30034280747E+02  0.29913977532E+02 -0.93123170218E+01  0.43400729488E+02  0.00000000000E+00 0.  1.
         11    1    3    3    0    0 -0.18125956575E+02 -0.19132510752E+02  0.76249145476E+01  0.27436154825E+02  0.51100000000E-03 0. -1.
        -11    1    3    3    0    0  0.22159322605E+01 -0.17899231246E+01 -0.16303975504E+01  0.32821299499E+01  0.51100000000E-03 0.  1.
        -12    1    3    3    0    0 -0.14124256433E+02 -0.89915436557E+01  0.33178000246E+01  0.17068985737E+02  0.00000000000E+00 0.  1.
</event>
<event>
 7    1  0.2983653E-010  0.4778727E+02  0.7816164E-02  0.1312668E+00
        -11   -1    0    0    0    0  0.00000000000E+00  0.00000000000E+00  0.45593999997E+02  0.45594000000E+02  0.51100000000E-03 0.  1.
         11   -1    0    0    0    0 -0.00000000000E+00 -0.00000000000E+00 -0.45593999997E+02  0.45594000000E+02  0.51100000000E-03 0. -1.
    9900012    2    1    2    0    0 -0.11267054101E+02 -0.18779459694E+02 -0.37470107299E+02  0.47787267800E+02  0.19999985206E+02 0.  0.
        -12    1    1    2    0    0  0.11267054101E+02  0.18779459694E+02  0.37470107299E+02  0.43400732200E+02  0.00000000000E+00 0.  1.
         11    1    3    3    0    0 -0.98020729001E+01 -0.74697480949E+01 -0.11663469528E+02  0.16968037348E+02  0.51100000000E-03 0. -1.
        -11    1    3    3    0    0  0.40546545463E+01 -0.10220962966E+02 -0.19344178396E+02  0.22250967294E+02  0.51100000000E-03 0.  1.
        -12    1    3    3    0    0 -0.55196357471E+01 -0.10887486333E+01 -0.64624593752E+01  0.85682631579E+01  0.00000000000E+00 0.  1.
</event>
<event>
 7    1  0.2983653E-010  0.4778728E+02  0.7816164E-02  0.1312668E+00
        -11   -1    0    0    0    0  0.00000000000E+00  0.00000000000E+00  0.45593999997E+02  0.45594000000E+02  0.51100000000E-03 0.  1.
         11   -1    0    0    0    0 -0.00000000000E+00 -0.00000000000E+00 -0.45593999997E+02  0.45594000000E+02  0.51100000000E-03 0. -1.
    9900012    2    1    2    0    0 -0.54075829266E+01 -0.15773683901E+02 -0.40069584122E+02  0.47787278478E+02  0.20000033892E+02 0.  0.
        -12    1    1    2    0    0  0.54075829266E+01  0.15773683901E+02  0.40069584122E+02  0.43400721522E+02  0.00000000000E+00 0.  1.
         11    1    3    3    0    0  0.45610556621E+01 -0.79150501546E-02 -0.15993833333E+02  0.16631476072E+02  0.51100000000E-03 0. -1.
        -11    1    3    3    0    0 -0.51638699010E+01 -0.68603475349E+01 -0.61176072108E+01  0.10543009006E+02  0.51100000000E-03 0.  1.
         12    1    3    3    0    0 -0.48047686877E+01 -0.89054213159E+01 -0.17958143578E+02  0.20612793400E+02  0.00000000000E+00 0. -1.
</event>
<event>
 7    1  0.2983653E-010  0.4778727E+02  0.7816164E-02  0.1312668E+00
        -11   -1    0    0    0    0  0.00000000000E+00  0.00000000000E+00  0.45593999997E+02  0.45594000000E+02  0.51100000000E-03 0.  1.
         11   -1    0    0    0    0 -0.00000000000E+00 -0.00000000000E+00 -0.45593999997E+02  0.45594000000E+02  0.51100000000E-03 0. -1.
    9900012    2    1    2    0    0  0.17989288344E+01  0.98854340995E+00 -0.43352162815E+02  0.47787269778E+02  0.19999994227E+02 0.  0.
        -12    1    1    2    0    0 -0.17989288344E+01 -0.98854340995E+00  0.43352162815E+02  0.43400730222E+02  0.00000000000E+00 0.  1.
         11    1    3    3    0    0  0.12001128168E+01  0.28798548838E+01 -0.37015015293E+02  0.37146267543E+02  0.51100000000E-03 0. -1.
        -11    1    3    3    0    0  0.43513940737E+01 -0.20110501329E+01 -0.35738189581E+01  0.59792253034E+01  0.51100000000E-03 0.  1.
         12    1    3    3    0    0 -0.37525780562E+01  0.11973865908E+00 -0.27633285639E+01  0.46617769323E+01  0.00000000000E+00 0. -1.
</event>
<event>
 7    1  0.2983653E-010  0.4778728E+02  0.7816164E-02  0.1312668E+00
        -11   -1    0    0    0    0  0.00000000000E+00  0.00000000000E+00  0.45593999997E+02  0.45594000000E+02  0.51100000000E-03 0.  1.
         11   -1    0    0    0    0 -0.00000000000E+00 -0.00000000000E+00 -0.45593999997E+02  0.45594000000E+02  0.51100000000E-03 0. -1.
    9900012    2    1    2    0    0 -0.34260520422E+02  0.21622737457E+02 -0.15565888248E+02  0.47787275217E+02  0.20000019026E+02 0.  0.
        -12    1    1    2    0    0  0.34260520422E+02 -0.21622737457E+02  0.15565888248E+02  0.43400724783E+02  0.00000000000E+00 0.  1.
         11    1    3    3    0    0 -0.12018563161E+02  0.57619778806E+01 -0.96198306839E+01  0.16437377899E+02  0.51100000000E-03 0. -1.
        -11    1    3    3    0    0 -0.70340590318E+01  0.80175091797E+01  0.41929064804E+01  0.11460318709E+02  0.51100000000E-03 0.  1.
        -12    1    3    3    0    0 -0.15207898229E+02  0.78432503966E+01 -0.10138964045E+02  0.19889578609E+02  0.00000000000E+00 0.  1.
</event>
<event>
 7    1  0.2983653E-010  0.4778728E+02  0.7816164E-02  0.1312668E+00
        -11   -1    0    0    0    0  0.00000000000E+00  0.00000000000E+00  0.45593999997E+02  0.45594000000E+02  0.51100000000E-03 0.  1.
         11   -1    0    0    0    0 -0.00000000000E+00 -0.00000000000E+00 -0.45593999997E+02  0.45594000000E+02  0.51100000000E-03 0. -1.
    9900012    2    1    2    0    0 -0.34823273185E+02  0.25702966974E+02 -0.32124135147E+01  0.47787280337E+02  0.20000042370E+02 0.  0.
        -12    1    1    2    0    0  0.34823273185E+02 -0.25702966974E+02  0.32124135147E+01  0.43400719663E+02  0.00000000000E+00 0.  1.
         11    1    3    3    0    0 -0.81247849680E+01  0.13294791435E+02  0.42721953951E+01  0.16155966819E+02  0.51100000000E-03 0. -1.
        -11    1    3    3    0    0 -0.59634171932E+01 -0.88760167329E+00 -0.23450922764E+01  0.64691297248E+01  0.51100000000E-03 0.  1.
         12    1    3    3    0    0 -0.20735071024E+02  0.13295777212E+02 -0.51395166334E+01  0.25162183794E+02  0.00000000000E+00 0. -1.
</event>
<event>
 7    1  0.2983653E-010  0.4778728E+02  0.7816164E-02  0.1312668E+00
        -11   -1    0    0    0    0  0.00000000000E+00  0.00000000000E+00  0.45593999997E+02  0.45594000000E+02  0.51100000000E-03 0.  1.
         11   -1    0    0    0    0 -0.00000000000E+00 -0.00000000000E+00 -0.45593999997E+02  0.45594000000E+02  0.51100000000E-03 0. -1.
    9900012    2    1    2    0    0 -0.36173862183E+02 -0.19647981942E+02  0.13748840680E+02  0.47787284342E+02  0.20000060627E+02 0.  0.
        -12    1    1    2    0    0  0.36173862183E+02  0.19647981942E+02 -0.13748840680E+02  0.43400715658E+02  0.00000000000E+00 0.  1.
         11    1    3    3    0    0 -0.65705119749E+00 -0.47553219630E+01  0.52297976334E+00  0.48289037412E+01  0.51100000000E-03 0. -1.
        -11    1    3    3    0    0 -0.33372020829E+02 -0.93500684913E+01  0.94689087213E+01  0.35927368226E+02  0.51100000000E-03 0.  1.
        -12    1    3    3    0    0 -0.21447901565E+01 -0.55425914878E+01  0.37569521955E+01  0.70310123748E+01  0.00000000000E+00 0.  1.
</event>
<event>
 7    1  0.2983653E-010  0.4778727E+02  0.7816164E-02  0.1312668E+00
        -11   -1    0    0    0    0  0.00000000000E+00  0.00000000000E+00  0.45593999997E+02  0.45594000000E+02  0.51100000000E-03 0.  1.
         11   -1    0    0    0    0 -0.00000000000E+00 -0.00000000000E+00 -0.45593999997E+02  0.45594000000E+02  0.51100000000E-03 0. -1.
    9900012    2    1    2    0    0 -0.18689451764E+01 -0.62414632718E+00 -0.43355978712E+02  0.47787269537E+02  0.19999993125E+02 0.  0.
        -12    1    1    2    0    0  0.18689451764E+01  0.62414632718E+00  0.43355978712E+02  0.43400730463E+02  0.00000000000E+00 0.  1.
         11    1    3    3    0    0  0.96218276771E-01  0.72840785186E+01 -0.81958208301E+01  0.10965333427E+02  0.51100000000E-03 0.  1.
        -11    1    3    3    0    0  0.20893294309E+01 -0.57454474751E+01 -0.23674664729E+02  0.24451282471E+02  0.51100000000E-03 0. -1.
        -12    1    3    3    0    0 -0.40544928841E+01 -0.21627773706E+01 -0.11485493152E+02  0.12370653639E+02  0.00000000000E+00 0.  1.
</event>
<event>
 7    1  0.2983653E-010  0.4778727E+02  0.7816164E-02  0.1312668E+00
        -11   -1    0    0    0    0  0.00000000000E+00  0.00000000000E+00  0.45593999997E+02  0.45594000000E+02  0.51100000000E-03 0. -1.
         11   -1    0    0    0    0 -0.00000000000E+00 -0.00000000000E+00 -0.45593999997E+02  0.45594000000E+02  0.51100000000E-03 0.  1.
    9900012    2    1    2    0    0 -0.39281020567E+02  0.15775599145E+02  0.95789107312E+01  0.47787266873E+02  0.19999980979E+02 0.  0.
        -12    1    1    2    0    0  0.39281020567E+02 -0.15775599145E+02 -0.95789107312E+01  0.43400733127E+02  0.00000000000E+00 0.  1.
         11    1    3    3    0    0 -0.35661152563E+02  0.13292045178E+02  0.79217562327E+01  0.38873519126E+02  0.51100000000E-03 0. -1.
        -11    1    3    3    0    0 -0.21315347128E+01  0.14446497172E+01  0.47066397436E+01  0.53649707338E+01  0.51100000000E-03 0.  1.
         12    1    3    3    0    0 -0.14883332912E+01  0.10389042499E+01 -0.30494852451E+01  0.35487770127E+01  0.00000000000E+00 0. -1.
</event>
<event>
 7    1  0.2983653E-010  0.4778727E+02  0.7816164E-02  0.1312668E+00
        -11   -1    0    0    0    0  0.00000000000E+00  0.00000000000E+00  0.45593999997E+02  0.45594000000E+02  0.51100000000E-03 0. -1.
         11   -1    0    0    0    0 -0.00000000000E+00 -0.00000000000E+00 -0.45593999997E+02  0.45594000000E+02  0.51100000000E-03 0.  1.
    9900012    2    1    2    0    0 -0.23124731199E+02  0.31374065419E+02  0.19092878859E+02  0.47787271929E+02  0.20000004034E+02 0.  0.
        -12    1    1    2    0    0  0.23124731199E+02 -0.31374065419E+02 -0.19092878859E+02  0.43400728071E+02  0.00000000000E+00 0.  1.
         11    1    3    3    0    0 -0.14571547646E+02  0.16925034974E+02  0.16100316855E+02  0.27531927153E+02  0.51100000000E-03 0. -1.
        -11    1    3    3    0    0 -0.59816286581E+00  0.78549611712E+00 -0.31441890145E+01  0.32955618314E+01  0.51100000000E-03 0.  1.
        -12    1    3    3    0    0 -0.79550206869E+01  0.13663534328E+02  0.61367510186E+01  0.16959782945E+02  0.00000000000E+00 0.  1.
</event>
<event>
 7    1  0.2983653E-010  0.4778727E+02  0.7816164E-02  0.1312668E+00
        -11   -1    0    0    0    0  0.00000000000E+00  0.00000000000E+00  0.45593999997E+02  0.45594000000E+02  0.51100000000E-03 0.  1.
         11   -1    0    0    0    0 -0.00000000000E+00 -0.00000000000E+00 -0.45593999997E+02  0.45594000000E+02  0.51100000000E-03 0. -1.
    9900012    2    1    2    0    0 -0.13055694095E+02  0.39156956468E+02 -0.13412863679E+02  0.47787270741E+02  0.19999998615E+02 0.  0.
        -12    1    1    2    0    0  0.13055694095E+02 -0.39156956468E+02  0.13412863679E+02  0.43400729259E+02  0.00000000000E+00 0.  1.
         11    1    3    3    0    0 -0.28404245556E+01  0.17791241898E+02 -0.15345229621E+02  0.23665848227E+02  0.51100000000E-03 0. -1.
        -11    1    3    3    0    0 -0.46576729518E+01  0.14368393361E+02  0.14154880379E+01  0.15170637816E+02  0.51100000000E-03 0.  1.
         12    1    3    3    0    0 -0.55575965872E+01  0.69973212093E+01  0.51687790367E+00  0.89507846974E+01  0.00000000000E+00 0. -1.
</event>
<event>
 7    1  0.2983653E-010  0.4778727E+02  0.7816164E-02  0.1312668E+00
        -11   -1    0    0    0    0  0.00000000000E+00  0.00000000000E+00  0.45593999997E+02  0.45594000000E+02  0.51100000000E-03 0. -1.
         11   -1    0    0    0    0 -0.00000000000E+00 -0.00000000000E+00 -0.45593999997E+02  0.45594000000E+02  0.51100000000E-03 0.  1.
    9900012    2    1    2    0    0 -0.35731646942E+02 -0.19290245143E+02  0.15321850683E+02  0.47787271213E+02  0.20000000770E+02 0.  0.
        -12    1    1    2    0    0  0.35731646942E+02  0.19290245143E+02 -0.15321850683E+02  0.43400728787E+02  0.00000000000E+00 0.  1.
         11    1    3    3    0    0 -0.17631485958E+02 -0.36473829832E+01  0.54104757339E+01  0.18800158181E+02  0.51100000000E-03 0. -1.
        -11    1    3    3    0    0 -0.19582767989E+01 -0.65646941172E+01 -0.17900540776E+01  0.70805614704E+01  0.51100000000E-03 0.  1.
        -12    1    3    3    0    0 -0.16141884185E+02 -0.90781680426E+01  0.11701429027E+02  0.21906551562E+02  0.00000000000E+00 0.  1.
</event>
<event>
 7    1  0.2983653E-010  0.4778727E+02  0.7816164E-02  0.1312668E+00
        -11   -1    0    0    0    0  0.00000000000E+00  0.00000000000E+00  0.45593999997E+02  0.45594000000E+02  0.51100000000E-03 0.  1.
         11   -1    0    0    0    0 -0.00000000000E+00 -0.00000000000E+00 -0.45593999997E+02  0.45594000000E+02  0.51100000000E-03 0. -1.
    9900012    2    1    2    0    0 -0.20775857251E+02 -0.15981423894E+02 -0.34591635591E+02  0.47787269510E+02  0.19999993005E+02 0.  0.
        -12    1    1    2    0    0  0.20775857251E+02  0.15981423894E+02  0.34591635591E+02  0.43400730490E+02  0.00000000000E+00 0.  1.
         11    1    3    3    0    0 -0.26578485435E+00 -0.62597256130E+01 -0.48853647121E+01  0.79449100039E+01  0.51100000000E-03 0. -1.
        -11    1    3    3    0    0 -0.20983459894E+02 -0.11762176144E+02 -0.25014193234E+02  0.34703951362E+02  0.51100000000E-03 0.  1.
        -12    1    3    3    0    0  0.47338749707E+00  0.20404778627E+01 -0.46920776448E+01  0.51384081441E+01  0.00000000000E+00 0.  1.
</event>
<event>
 7    1  0.2983653E-010  0.4778727E+02  0.7816164E-02  0.1312668E+00
        -11   -1    0    0    0    0  0.00000000000E+00  0.00000000000E+00  0.45593999997E+02  0.45594000000E+02  0.51100000000E-03 0. -1.
         11   -1    0    0    0    0 -0.00000000000E+00 -0.00000000000E+00 -0.45593999997E+02  0.45594000000E+02  0.51100000000E-03 0.  1.
    9900012    2    1    2    0    0 -0.70092044132E+01  0.22502488860E+02  0.36443548512E+02  0.47787272131E+02  0.20000004955E+02 0.  0.
        -12    1    1    2    0    0  0.70092044132E+01 -0.22502488860E+02 -0.36443548512E+02  0.43400727869E+02  0.00000000000E+00 0.  1.
         11    1    3    3    0    0 -0.10485607380E+02  0.12744103660E+02  0.27956438043E+02  0.32464173615E+02  0.51100000000E-03 0. -1.
        -11    1    3    3    0    0  0.14216088002E+01 -0.83668790368E+00  0.95928109404E-01  0.16523379474E+01  0.51100000000E-03 0.  1.
        -12    1    3    3    0    0  0.20547941663E+01  0.10595073104E+02  0.83911823598E+01  0.13670760569E+02  0.00000000000E+00 0.  1.
</event>
<event>
 7    1  0.2983653E-010  0.4778727E+02  0.7816164E-02  0.1312668E+00
        -11   -1    0    0    0    0  0.00000000000E+00  0.00000000000E+00  0.45593999997E+02  0.45594000000E+02  0.51100000000E-03 0.  1.
         11   -1    0    0    0    0 -0.00000000000E+00 -0.00000000000E+00 -0.45593999997E+02  0.45594000000E+02  0.51100000000E-03 0. -1.
    9900012    2    1    2    0    0  0.26341356844E+02  0.23792840876E+02 -0.24973130099E+02  0.47787267468E+02  0.19999983694E+02 0.  0.
        -12    1    1    2    0    0 -0.26341356844E+02 -0.23792840876E+02  0.24973130099E+02  0.43400732532E+02  0.00000000000E+00 0.  1.
         11    1    3    3    0    0  0.12749668650E+02  0.76121465777E+01 -0.85969383887E+01  0.17158268448E+02  0.51100000000E-03 0. -1.
        -11    1    3    3    0    0  0.11883667989E+02  0.14370255845E+02 -0.19267815017E+02  0.26813700112E+02  0.51100000000E-03 0.  1.
        -12    1    3    3    0    0  0.17080202053E+01  0.18104384530E+01  0.28916233061E+01  0.38152989081E+01  0.00000000000E+00 0.  1.
</event>
<event>
 7    1  0.2983653E-010  0.4778726E+02  0.7816164E-02  0.1312668E+00
        -11   -1    0    0    0    0  0.00000000000E+00  0.00000000000E+00  0.45593999997E+02  0.45594000000E+02  0.51100000000E-03 0. -1.
         11   -1    0    0    0    0 -0.00000000000E+00 -0.00000000000E+00 -0.45593999997E+02  0.45594000000E+02  0.51100000000E-03 0.  1.
    9900012    2    1    2    0    0  0.19236236481E+02  0.15858438398E+02  0.35526063192E+02  0.47787262353E+02  0.19999960374E+02 0.  0.
        -12    1    1    2    0    0 -0.19236236481E+02 -0.15858438398E+02 -0.35526063192E+02  0.43400737647E+02  0.00000000000E+00 0.  1.
         11    1    3    3    0    0 -0.28998307928E+01  0.43053217236E+01  0.37877124296E+01  0.64258524322E+01  0.51100000000E-03 0. -1.
        -11    1    3    3    0    0  0.91305180192E+01  0.60481713169E+01  0.73845216926E+01  0.13209008156E+02  0.51100000000E-03 0.  1.
         12    1    3    3    0    0  0.13005549255E+02  0.55049453578E+01  0.24353829069E+02  0.28152401765E+02  0.00000000000E+00 0. -1.
</event>
<event>
 7    1  0.2983653E-010  0.4778729E+02  0.7816164E-02  0.1312668E+00
        -11   -1    0    0    0    0  0.00000000000E+00  0.00000000000E+00  0.45593999997E+02  0.45594000000E+02  0.51100000000E-03 0.  1.
         11   -1    0    0    0    0 -0.00000000000E+00 -0.00000000000E+00 -0.45593999997E+02  0.45594000000E+02  0.51100000000E-03 0. -1.
    9900012    2    1    2    0    0 -0.81645836158E+01  0.75996335636E+01 -0.41942902978E+02  0.47787286110E+02  0.20000068692E+02 0.  0.
        -12    1    1    2    0    0  0.81645836158E+01 -0.75996335636E+01  0.41942902978E+02  0.43400713890E+02  0.00000000000E+00 0.  1.
         11    1    3    3    0    0 -0.58459722799E+01  0.15816504142E+00 -0.43897753546E+01  0.73123550244E+01  0.51100000000E-03 0. -1.
        -11    1    3    3    0    0  0.78908721412E+00  0.95662113863E+01 -0.16508383206E+02  0.19096119377E+02  0.51100000000E-03 0.  1.
        -12    1    3    3    0    0 -0.31076985499E+01 -0.21247428641E+01 -0.21044744417E+02  0.21378811709E+02  0.00000000000E+00 0.  1.
</event>
<event>
 7    1  0.2983653E-010  0.4778727E+02  0.7816164E-02  0.1312668E+00
        -11   -1    0    0    0    0  0.00000000000E+00  0.00000000000E+00  0.45593999997E+02  0.45594000000E+02  0.51100000000E-03 0. -1.
         11   -1    0    0    0    0 -0.00000000000E+00 -0.00000000000E+00 -0.45593999997E+02  0.45594000000E+02  0.51100000000E-03 0.  1.
    9900012    2    1    2    0    0 -0.15607890252E+02 -0.29276731506E+02  0.27980171879E+02  0.47787271156E+02  0.20000000509E+02 0.  0.
        -12    1    1    2    0    0  0.15607890252E+02  0.29276731506E+02 -0.27980171879E+02  0.43400728844E+02  0.00000000000E+00 0.  1.
         11    1    3    3    0    0 -0.41380923441E+01 -0.18259022895E+02  0.22160681321E+02  0.29010541570E+02  0.51100000000E-03 0. -1.
        -11    1    3    3    0    0 -0.21664200709E+01  0.12140857759E+01  0.74409005474E+00  0.25924988844E+01  0.51100000000E-03 0.  1.
         12    1    3    3    0    0 -0.93033778375E+01 -0.12231794388E+02  0.50754005026E+01  0.16184230701E+02  0.00000000000E+00 0. -1.
</event>
<event>
 7    1  0.2983653E-010  0.4778727E+02  0.7816164E-02  0.1312668E+00
        -11   -1    0    0    0    0  0.00000000000E+00  0.00000000000E+00  0.45593999997E+02  0.45594000000E+02  0.51100000000E-03 0.  1.
         11   -1    0    0    0    0 -0.00000000000E+00 -0.00000000000E+00 -0.45593999997E+02  0.45594000000E+02  0.51100000000E-03 0. -1.
    9900012    2    1    2    0    0 -0.22200536026E+02 -0.21783068130E+01 -0.37229211535E+02  0.47787274062E+02  0.20000013757E+02 0.  0.
        -12    1    1    2    0    0  0.22200536026E+02  0.21783068130E+01  0.37229211535E+02  0.43400725938E+02  0.00000000000E+00 0.  1.
         11    1    3    3    0    0 -0.45142696861E+01  0.23519396524E+01 -0.90869118133E+01  0.10415479705E+02  0.51100000000E-03 0. -1.
        -11    1    3    3    0    0 -0.12564774739E+02  0.35445352852E+01 -0.86508703138E+01  0.15661253209E+02  0.51100000000E-03 0.  1.
        -12    1    3    3    0    0 -0.51214916011E+01 -0.80747817507E+01 -0.19491429408E+02  0.21710541148E+02  0.00000000000E+00 0.  1.
</event>
<event>
 7    1  0.2983653E-010  0.4778727E+02  0.7816164E-02  0.1312668E+00
        -11   -1    0    0    0    0  0.00000000000E+00  0.00000000000E+00  0.45593999997E+02  0.45594000000E+02  0.51100000000E-03 0.  1.
         11   -1    0    0    0    0 -0.00000000000E+00 -0.00000000000E+00 -0.45593999997E+02  0.45594000000E+02  0.51100000000E-03 0. -1.
    9900012    2    1    2    0    0 -0.21264526527E+02  0.36001707553E+02 -0.11632715086E+02  0.47787273100E+02  0.20000009374E+02 0.  0.
        -12    1    1    2    0    0  0.21264526527E+02 -0.36001707553E+02  0.11632715086E+02  0.43400726900E+02  0.00000000000E+00 0.  1.
         11    1    3    3    0    0 -0.29037501403E+01  0.59965330952E+01 -0.21423480449E+00  0.66660386176E+01  0.51100000000E-03 0. -1.
        -11    1    3    3    0    0  0.37952958548E+00  0.15584697738E+02 -0.68953207347E+01  0.17046181232E+02  0.51100000000E-03 0.  1.
        -12    1    3    3    0    0 -0.18740305972E+02  0.14420476720E+02 -0.45231595466E+01  0.24075053251E+02  0.00000000000E+00 0.  1.
</event>
<event>
 7    1  0.2983653E-010  0.4778727E+02  0.7816164E-02  0.1312668E+00
        -11   -1    0    0    0    0  0.00000000000E+00  0.00000000000E+00  0.45593999997E+02  0.45594000000E+02  0.51100000000E-03 0. -1.
         11   -1    0    0    0    0 -0.00000000000E+00 -0.00000000000E+00 -0.45593999997E+02  0.45594000000E+02  0.51100000000E-03 0.  1.
    9900012    2    1    2    0    0 -0.41280510353E+02  0.13331543984E+02  0.13463746257E+01  0.47787270460E+02  0.19999997335E+02 0.  0.
        -12    1    1    2    0    0  0.41280510353E+02 -0.13331543984E+02 -0.13463746257E+01  0.43400729540E+02  0.00000000000E+00 0.  1.
         11    1    3    3    0    0 -0.33031039857E+02  0.11248598777E+02 -0.20344835187E+01  0.34953107043E+02  0.51100000000E-03 0. -1.
        -11    1    3    3    0    0 -0.63864139074E+01 -0.20063019332E+01  0.46665977187E+01  0.81601877780E+01  0.51100000000E-03 0.  1.
         12    1    3    3    0    0 -0.18630565879E+01  0.40892471399E+01 -0.12857395743E+01  0.46739756390E+01  0.00000000000E+00 0. -1.
</event>
<event>
 7    1  0.2983653E-010  0.4778727E+02  0.7816164E-02  0.1312668E+00
        -11   -1    0    0    0    0  0.00000000000E+00  0.00000000000E+00  0.45593999997E+02  0.45594000000E+02  0.51100000000E-03 0.  1.
         11   -1    0    0    0    0 -0.00000000000E+00 -0.00000000000E+00 -0.45593999997E+02  0.45594000000E+02  0.51100000000E-03 0. -1.
    9900012    2    1    2    0    0  0.22396865219E+02 -0.53544515141E+01 -0.36787686219E+02  0.47787267518E+02  0.19999983922E+02 0.  0.
        -12    1    1    2    0    0 -0.22396865219E+02  0.53544515141E+01  0.36787686219E+02  0.43400732482E+02  0.00000000000E+00 0.  1.
         11    1    3    3    0    0  0.14112464014E+02 -0.11717904210E+01 -0.34469257049E+02  0.37264787872E+02  0.51100000000E-03 0. -1.
        -11    1    3    3    0    0  0.71169560155E+01 -0.24666556897E+01 -0.33037674479E+01  0.82249822388E+01  0.51100000000E-03 0.  1.
         12    1    3    3    0    0  0.11674451888E+01 -0.17160054033E+01  0.98533827856E+00  0.22974974072E+01  0.00000000000E+00 0. -1.
</event>
<event>
 7    1  0.6141322E-010  0.4778726E+02  0.7816164E-02  0.1312668E+00
        -11   -1    0    0    0    0  0.00000000000E+00  0.00000000000E+00  0.45593999997E+02  0.45594000000E+02  0.51100000000E-03 0. -1.
         11   -1    0    0    0    0 -0.00000000000E+00 -0.00000000000E+00 -0.45593999997E+02  0.45594000000E+02  0.51100000000E-03 0.  1.
    9900012    2    1    2    0    0 -0.39159542245E+02  0.12054721106E+02  0.14312157108E+02  0.47787263936E+02  0.19999967589E+02 0.  0.
        -12    1    1    2    0    0  0.39159542245E+02 -0.12054721106E+02 -0.14312157108E+02  0.43400736064E+02  0.00000000000E+00 0.  1.
         11    1    3    3    0    0 -0.90575313562E+01  0.23794035431E+01  0.43629480138E+01  0.10331299585E+02  0.51100000000E-03 0. -1.
        -11    1    3    3    0    0 -0.16379479221E+02  0.47336491800E+01  0.14281591565E+02  0.22240922463E+02  0.51100000000E-03 0.  1.
        -12    1    3    3    0    0 -0.13722531668E+02  0.49416683825E+01 -0.43323824698E+01  0.15215041888E+02  0.00000000000E+00 0.  1.
</event>
<event>
 7    1  0.2983653E-010  0.4778727E+02  0.7816164E-02  0.1312668E+00
        -11   -1    0    0    0    0  0.00000000000E+00  0.00000000000E+00  0.45593999997E+02  0.45594000000E+02  0.51100000000E-03 0. -1.
         11   -1    0    0    0    0 -0.00000000000E+00 -0.00000000000E+00 -0.45593999997E+02  0.45594000000E+02  0.51100000000E-03 0.  1.
    9900012    2    1    2    0    0  0.13089476426E+02 -0.35874532677E+02 -0.20622965247E+02  0.47787272086E+02  0.20000004749E+02 0.  0.
        -12    1    1    2    0    0 -0.13089476426E+02  0.35874532677E+02  0.20622965247E+02  0.43400727914E+02  0.00000000000E+00 0.  1.
         11    1    3    3    0    0  0.40044616823E+01 -0.14602498377E+02 -0.84109036795E+01  0.17320853708E+02  0.51100000000E-03 0. -1.
        -11    1    3    3    0    0  0.77329655301E+01 -0.20553559649E+02 -0.42615345809E+01  0.22369806601E+02  0.51100000000E-03 0.  1.
        -12    1    3    3    0    0  0.13520492139E+01 -0.71847465130E+00 -0.79505269868E+01  0.80966117771E+01  0.00000000000E+00 0.  1.
</event>
<event>
 7    1  0.2983653E-010  0.4778727E+02  0.7816164E-02  0.1312668E+00
        -11   -1    0    0    0    0  0.00000000000E+00  0.00000000000E+00  0.45593999997E+02  0.45594000000E+02  0.51100000000E-03 0.  1.
         11   -1    0    0    0    0 -0.00000000000E+00 -0.00000000000E+00 -0.45593999997E+02  0.45594000000E+02  0.51100000000E-03 0. -1.
    9900012    2    1    2    0    0 -0.18998717159E+02 -0.47430186690E+01 -0.38732101867E+02  0.47787271955E+02  0.20000004152E+02 0.  0.
        -12    1    1    2    0    0  0.18998717159E+02  0.47430186690E+01  0.38732101867E+02  0.43400728045E+02  0.00000000000E+00 0.  1.
         11    1    3    3    0    0 -0.73285127320E+01 -0.30159400288E+01 -0.44473756440E+01  0.90874717881E+01  0.51100000000E-03 0. -1.
        -11    1    3    3    0    0  0.14616607544E+01 -0.26412721465E+01 -0.14996093574E+01  0.33706971384E+01  0.51100000000E-03 0.  1.
        -12    1    3    3    0    0 -0.13131865182E+02  0.91419350634E+00 -0.32785116866E+02  0.35329103029E+02  0.00000000000E+00 0.  1.
</event>
<event>
 7    1  0.2983653E-010  0.4778726E+02  0.7816164E-02  0.1312668E+00
        -11   -1    0    0    0    0  0.00000000000E+00  0.00000000000E+00  0.45593999997E+02  0.45594000000E+02  0.51100000000E-03 0.  1.
         11   -1    0    0    0    0 -0.00000000000E+00 -0.00000000000E+00 -0.45593999997E+02  0.45594000000E+02  0.51100000000E-03 0. -1.
    9900012    2    1    2    0    0 -0.30832765298E+02  0.18041160950E+02 -0.24647127558E+02  0.47787264970E+02  0.19999972302E+02 0.  0.
        -12    1    1    2    0    0  0.30832765298E+02 -0.18041160950E+02  0.24647127558E+02  0.43400735030E+02  0.00000000000E+00 0.  1.
         11    1    3    3    0    0 -0.12916534902E+02 -0.17691230761E+01 -0.83865701947E+01  0.15501652500E+02  0.51100000000E-03 0. -1.
        -11    1    3    3    0    0 -0.31292172962E+01  0.14199185267E+00 -0.29808036836E+01  0.43240436439E+01  0.51100000000E-03 0.  1.
         12    1    3    3    0    0 -0.14787013099E+02  0.19668292173E+02 -0.13279753680E+02  0.27961568826E+02  0.00000000000E+00 0. -1.
</event>
<event>
 7    1  0.2983653E-010  0.4778727E+02  0.7816164E-02  0.1312668E+00
        -11   -1    0    0    0    0  0.00000000000E+00  0.00000000000E+00  0.45593999997E+02  0.45594000000E+02  0.51100000000E-03 0.  1.
         11   -1    0    0    0    0 -0.00000000000E+00 -0.00000000000E+00 -0.45593999997E+02  0.45594000000E+02  0.51100000000E-03 0. -1.
    9900012    2    1    2    0    0  0.62794346656E+01  0.32983397773E+02 -0.27500681006E+02  0.47787270926E+02  0.19999999459E+02 0.  0.
        -12    1    1    2    0    0 -0.62794346656E+01 -0.32983397773E+02  0.27500681006E+02  0.43400729074E+02  0.00000000000E+00 0.  1.
         11    1    3    3    0    0  0.14395112904E+00  0.57019130235E+01 -0.39303987244E+01  0.69268007369E+01  0.51100000000E-03 0. -1.
        -11    1    3    3    0    0 -0.44034446440E+01  0.89346346336E+01 -0.15057140647E+02  0.18053683987E+02  0.51100000000E-03 0.  1.
        -12    1    3    3    0    0  0.10538928181E+02  0.18346850116E+02 -0.85131416341E+01  0.22806786202E+02  0.00000000000E+00 0.  1.
</event>
<event>
 7    1  0.2983653E-010  0.4778727E+02  0.7816164E-02  0.1312668E+00
        -11   -1    0    0    0    0  0.00000000000E+00  0.00000000000E+00  0.45593999997E+02  0.45594000000E+02  0.51100000000E-03 0.  1.
         11   -1    0    0    0    0 -0.00000000000E+00 -0.00000000000E+00 -0.45593999997E+02  0.45594000000E+02  0.51100000000E-03 0. -1.
    9900012    2    1    2    0    0  0.83008848456E+01 -0.41180650485E+02  0.10902866643E+02  0.47787272303E+02  0.20000005738E+02 0.  0.
        -12    1    1    2    0    0 -0.83008848456E+01  0.41180650485E+02 -0.10902866643E+02  0.43400727697E+02  0.00000000000E+00 0.  1.
         11    1    3    3    0    0 -0.24643465955E+01 -0.28673294293E+02  0.28173085496E+01  0.28916570293E+02  0.51100000000E-03 0. -1.
        -11    1    3    3    0    0  0.58569583559E+01 -0.62835120741E+01  0.65372100238E+01  0.10794517142E+02  0.51100000000E-03 0.  1.
         12    1    3    3    0    0  0.49082730851E+01 -0.62238441178E+01  0.15483480695E+01  0.80761848682E+01  0.00000000000E+00 0. -1.
</event>
<event>
 7    1  0.2983653E-010  0.4778727E+02  0.7816164E-02  0.1312668E+00
        -11   -1    0    0    0    0  0.00000000000E+00  0.00000000000E+00  0.45593999997E+02  0.45594000000E+02  0.51100000000E-03 0.  1.
         11   -1    0    0    0    0 -0.00000000000E+00 -0.00000000000E+00 -0.45593999997E+02  0.45594000000E+02  0.51100000000E-03 0. -1.
    9900012    2    1    2    0    0  0.16851490345E+02  0.26121497244E+02 -0.30287256375E+02  0.47787271391E+02  0.20000001579E+02 0.  0.
        -12    1    1    2    0    0 -0.16851490345E+02 -0.26121497244E+02  0.30287256375E+02  0.43400728609E+02  0.00000000000E+00 0.  1.
         11    1    3    3    0    0  0.32602850527E+01  0.62272047630E+01 -0.92247048622E+01  0.11597530679E+02  0.51100000000E-03 0. -1.
        -11    1    3    3    0    0  0.48760113512E+00  0.76088203407E+01 -0.15685004680E+02  0.17439933312E+02  0.51100000000E-03 0.  1.
        -12    1    3    3    0    0  0.13103604158E+02  0.12285472140E+02 -0.53775468326E+01  0.18749807400E+02  0.00000000000E+00 0.  1.
</event>
<event>
 7    1  0.2983653E-010  0.4778727E+02  0.7816164E-02  0.1312668E+00
        -11   -1    0    0    0    0  0.00000000000E+00  0.00000000000E+00  0.45593999997E+02  0.45594000000E+02  0.51100000000E-03 0.  1.
         11   -1    0    0    0    0 -0.00000000000E+00 -0.00000000000E+00 -0.45593999997E+02  0.45594000000E+02  0.51100000000E-03 0. -1.
    9900012    2    1    2    0    0 -0.40084943979E+01 -0.42491527684E+02 -0.78756221310E+01  0.47787269866E+02  0.19999994627E+02 0.  0.
        -12    1    1    2    0    0  0.40084943979E+01  0.42491527684E+02  0.78756221310E+01  0.43400730134E+02  0.00000000000E+00 0.  1.
         11    1    3    3    0    0  0.44773002934E+00 -0.24188555092E+02  0.16551442333E+01  0.24249250758E+02  0.51100000000E-03 0. -1.
        -11    1    3    3    0    0  0.96527761413E+00 -0.29499712609E+01  0.19043867679E+01  0.36415354640E+01  0.51100000000E-03 0.  1.
         12    1    3    3    0    0 -0.54215020414E+01 -0.15353001330E+02 -0.11435153132E+02  0.19896483644E+02  0.00000000000E+00 0. -1.
</event>
<event>
 7    1  0.2983653E-010  0.4778727E+02  0.7816164E-02  0.1312668E+00
        -11   -1    0    0    0    0  0.00000000000E+00  0.00000000000E+00  0.45593999997E+02  0.45594000000E+02  0.51100000000E-03 0.  1.
         11   -1    0    0    0    0 -0.00000000000E+00 -0.00000000000E+00 -0.45593999997E+02  0.45594000000E+02  0.51100000000E-03 0. -1.
    9900012    2    1    2    0    0 -0.39054342656E+02  0.13175528371E+02 -0.13593658507E+02  0.47787265216E+02  0.19999973427E+02 0.  0.
        -12    1    1    2    0    0  0.39054342656E+02 -0.13175528371E+02  0.13593658507E+02  0.43400734784E+02  0.00000000000E+00 0.  1.
         11    1    3    3    0    0 -0.13543303711E+02  0.37820596910E+01 -0.10216142760E+01  0.14098537049E+02  0.51100000000E-03 0. -1.
        -11    1    3    3    0    0 -0.14786736015E+02  0.12128925540E+02 -0.36439342456E+01  0.19468863700E+02  0.51100000000E-03 0.  1.
        -12    1    3    3    0    0 -0.10724302930E+02 -0.27354568597E+01 -0.89281099851E+01  0.14219864467E+02  0.00000000000E+00 0.  1.
</event>
<event>
 7    1  0.4808418E-010  0.4778727E+02  0.7816164E-02  0.1312668E+00
        -11   -1    0    0    0    0  0.00000000000E+00  0.00000000000E+00  0.45593999997E+02  0.45594000000E+02  0.51100000000E-03 0. -1.
         11   -1    0    0    0    0 -0.00000000000E+00 -0.00000000000E+00 -0.45593999997E+02  0.45594000000E+02  0.51100000000E-03 0.  1.
    9900012    2    1    2    0    0 -0.29467171899E+02  0.54595138147E+01  0.31392719958E+02  0.47787269854E+02  0.19999994574E+02 0.  0.
        -12    1    1    2    0    0  0.29467171899E+02 -0.54595138147E+01 -0.31392719958E+02  0.43400730146E+02  0.00000000000E+00 0.  1.
         11    1    3    3    0    0 -0.54485430954E+01 -0.45172272101E+00  0.82027259087E+01  0.98577577508E+01  0.51100000000E-03 0. -1.
        -11    1    3    3    0    0 -0.14474963437E+02 -0.51801252713E+01  0.12330842690E+02  0.19708068044E+02  0.51100000000E-03 0.  1.
        -12    1    3    3    0    0 -0.95436653671E+01  0.11091361807E+02  0.10859151359E+02  0.18221444059E+02  0.00000000000E+00 0.  1.
</event>
<event>
 7    1  0.2983653E-010  0.4778722E+02  0.7816164E-02  0.1312668E+00
        -11   -1    0    0    0    0  0.00000000000E+00  0.00000000000E+00  0.45593999997E+02  0.45594000000E+02  0.51100000000E-03 0.  1.
         11   -1    0    0    0    0 -0.00000000000E+00 -0.00000000000E+00 -0.45593999997E+02  0.45594000000E+02  0.51100000000E-03 0. -1.
    9900012    2    1    2    0    0  0.25482097277E+02  0.34912923416E+02  0.39214837297E+01  0.47787221923E+02  0.19999776032E+02 0.  0.
        -12    1    1    2    0    0 -0.25482097277E+02 -0.34912923416E+02 -0.39214837297E+01  0.43400778077E+02  0.00000000000E+00 0.  1.
         11    1    3    3    0    0  0.49034178272E+00  0.12105604257E+02 -0.30271655560E+00  0.12119312153E+02  0.51100000000E-03 0. -1.
        -11    1    3    3    0    0  0.40349451602E+00  0.42102772797E+01  0.22123939694E+01  0.47732515053E+01  0.51100000000E-03 0.  1.
         12    1    3    3    0    0  0.24588260978E+02  0.18597041879E+02  0.20118063158E+01  0.30894658264E+02  0.00000000000E+00 0. -1.
</event>
<event>
 7    1  0.2983653E-010  0.4778727E+02  0.7816164E-02  0.1312668E+00
        -11   -1    0    0    0    0  0.00000000000E+00  0.00000000000E+00  0.45593999997E+02  0.45594000000E+02  0.51100000000E-03 0. -1.
         11   -1    0    0    0    0 -0.00000000000E+00 -0.00000000000E+00 -0.45593999997E+02  0.45594000000E+02  0.51100000000E-03 0.  1.
    9900012    2    1    2    0    0  0.79236025361E+01 -0.33790452616E+02 -0.26058497931E+02  0.47787268675E+02  0.19999989198E+02 0.  0.
        -12    1    1    2    0    0 -0.79236025361E+01  0.33790452616E+02  0.26058497931E+02  0.43400731325E+02  0.00000000000E+00 0.  1.
         11    1    3    3    0    0  0.39569301592E+00 -0.36154732878E+00  0.11327893750E+01  0.12531964982E+01  0.51100000000E-03 0. -1.
        -11    1    3    3    0    0 -0.49562100712E+01 -0.10439662176E+02 -0.94085357840E+01  0.14902050546E+02  0.51100000000E-03 0.  1.
        -12    1    3    3    0    0  0.12484119591E+02 -0.22989243111E+02 -0.17782751522E+02  0.31632021631E+02  0.00000000000E+00 0.  1.
</event>
<event>
 7    1  0.2983653E-010  0.4778727E+02  0.7816164E-02  0.1312668E+00
        -11   -1    0    0    0    0  0.00000000000E+00  0.00000000000E+00  0.45593999997E+02  0.45594000000E+02  0.51100000000E-03 0.  1.
         11   -1    0    0    0    0 -0.00000000000E+00 -0.00000000000E+00 -0.45593999997E+02  0.45594000000E+02  0.51100000000E-03 0. -1.
    9900012    2    1    2    0    0 -0.18837423055E+02 -0.38900535845E+02  0.39399917305E+01  0.47787265775E+02  0.19999975977E+02 0.  0.
        -12    1    1    2    0    0  0.18837423055E+02  0.38900535845E+02 -0.39399917305E+01  0.43400734225E+02  0.00000000000E+00 0.  1.
         11    1    3    3    0    0 -0.28581661253E+01 -0.26022785710E+02  0.54346360081E+01  0.26737422436E+02  0.51100000000E-03 0. -1.
        -11    1    3    3    0    0 -0.14550967604E+02 -0.13064487595E+02 -0.14419563767E+01  0.19608435246E+02  0.51100000000E-03 0.  1.
         12    1    3    3    0    0 -0.14282893261E+01  0.18673746040E+00 -0.52687900917E-01  0.14414080939E+01  0.00000000000E+00 0. -1.
</event>
<event>
 7    1  0.2983653E-010  0.4778727E+02  0.7816164E-02  0.1312668E+00
        -11   -1    0    0    0    0  0.00000000000E+00  0.00000000000E+00  0.45593999997E+02  0.45594000000E+02  0.51100000000E-03 0.  1.
         11   -1    0    0    0    0 -0.00000000000E+00 -0.00000000000E+00 -0.45593999997E+02  0.45594000000E+02  0.51100000000E-03 0. -1.
    9900012    2    1    2    0    0  0.33949111194E+02 -0.12461206286E+02 -0.23995818274E+02  0.47787272960E+02  0.20000008734E+02 0.  0.
        -12    1    1    2    0    0 -0.33949111194E+02  0.12461206286E+02  0.23995818274E+02  0.43400727040E+02  0.00000000000E+00 0.  1.
         11    1    3    3    0    0  0.16576936343E+02  0.20979203255E+01 -0.49809277667E+01  0.17435760089E+02  0.51100000000E-03 0. -1.
        -11    1    3    3    0    0  0.86148878412E+01 -0.81816090966E+01 -0.14148609124E+02  0.18475339248E+02  0.51100000000E-03 0.  1.
         12    1    3    3    0    0  0.87572870099E+01 -0.63775175148E+01 -0.48662813839E+01  0.11876173623E+02  0.00000000000E+00 0. -1.
</event>
<event>
 7    1  0.2983653E-010  0.4778727E+02  0.7816164E-02  0.1312668E+00
        -11   -1    0    0    0    0  0.00000000000E+00  0.00000000000E+00  0.45593999997E+02  0.45594000000E+02  0.51100000000E-03 0.  1.
         11   -1    0    0    0    0 -0.00000000000E+00 -0.00000000000E+00 -0.45593999997E+02  0.45594000000E+02  0.51100000000E-03 0. -1.
    9900012    2    1    2    0    0 -0.28318929301E+02  0.32789050134E+02  0.25573590984E+01  0.47787266700E+02  0.19999980190E+02 0.  0.
        -12    1    1    2    0    0  0.28318929301E+02 -0.32789050134E+02 -0.25573590984E+01  0.43400733300E+02  0.00000000000E+00 0.  1.
         11    1    3    3    0    0 -0.19933405872E+02  0.15868149427E+02  0.77075664962E+01  0.26618516439E+02  0.51100000000E-03 0. -1.
        -11    1    3    3    0    0 -0.90440894581E+00  0.48252739042E+01  0.19381024591E+01  0.52780171650E+01  0.51100000000E-03 0.  1.
         12    1    3    3    0    0 -0.74811144833E+01  0.12095626803E+02 -0.70883098568E+01  0.15890733095E+02  0.00000000000E+00 0. -1.
</event>
<event>
 7    1  0.2983653E-010  0.4778727E+02  0.7816164E-02  0.1312668E+00
        -11   -1    0    0    0    0  0.00000000000E+00  0.00000000000E+00  0.45593999997E+02  0.45594000000E+02  0.51100000000E-03 0.  1.
         11   -1    0    0    0    0 -0.00000000000E+00 -0.00000000000E+00 -0.45593999997E+02  0.45594000000E+02  0.51100000000E-03 0. -1.
    9900012    2    1    2    0    0 -0.32377259312E+02 -0.28008098834E+02 -0.71332336432E+01  0.47787267943E+02  0.19999985862E+02 0.  0.
        -12    1    1    2    0    0  0.32377259312E+02  0.28008098834E+02  0.71332336432E+01  0.43400732057E+02  0.00000000000E+00 0.  1.
         11    1    3    3    0    0  0.45783729664E+00 -0.60071977604E+01 -0.10914481662E+01  0.61226872599E+01  0.51100000000E-03 0.  1.
        -11    1    3    3    0    0 -0.27349630563E+02 -0.16077876004E+02 -0.91427949788E+01  0.33016527513E+02  0.51100000000E-03 0. -1.
        -12    1    3    3    0    0 -0.54854660455E+01 -0.59230250693E+01  0.31010095018E+01  0.86480531704E+01  0.00000000000E+00 0.  1.
</event>
<event>
 7    1  0.2983653E-010  0.4778726E+02  0.7816164E-02  0.1312668E+00
        -11   -1    0    0    0    0  0.00000000000E+00  0.00000000000E+00  0.45593999997E+02  0.45594000000E+02  0.51100000000E-03 0.  1.
         11   -1    0    0    0    0 -0.00000000000E+00 -0.00000000000E+00 -0.45593999997E+02  0.45594000000E+02  0.51100000000E-03 0. -1.
    9900012    2    1    2    0    0 -0.17832964840E+02 -0.98702413743E+01 -0.38316937921E+02  0.47787262317E+02  0.19999960208E+02 0.  0.
        -12    1    1    2    0    0  0.17832964840E+02  0.98702413743E+01  0.38316937921E+02  0.43400737683E+02  0.00000000000E+00 0.  1.
         11    1    3    3    0    0 -0.78216359458E+01  0.34056990689E+01 -0.12691086809E+02  0.15291842913E+02  0.51100000000E-03 0. -1.
        -11    1    3    3    0    0  0.92102548952E+00 -0.68838852727E+01 -0.12206501501E+02  0.14044032311E+02  0.51100000000E-03 0.  1.
        -12    1    3    3    0    0 -0.10932354384E+02 -0.63920551704E+01 -0.13419349611E+02  0.18451387093E+02  0.00000000000E+00 0.  1.
</event>
<event>
 7    1  0.2983653E-010  0.4778727E+02  0.7816164E-02  0.1312668E+00
        -11   -1    0    0    0    0  0.00000000000E+00  0.00000000000E+00  0.45593999997E+02  0.45594000000E+02  0.51100000000E-03 0.  1.
         11   -1    0    0    0    0 -0.00000000000E+00 -0.00000000000E+00 -0.45593999997E+02  0.45594000000E+02  0.51100000000E-03 0. -1.
    9900012    2    1    2    0    0 -0.13644959619E+02 -0.40762544206E+02 -0.59877698291E+01  0.47787270505E+02  0.19999997542E+02 0.  0.
        -12    1    1    2    0    0  0.13644959619E+02  0.40762544206E+02  0.59877698291E+01  0.43400729495E+02  0.00000000000E+00 0.  1.
         11    1    3    3    0    0 -0.53224601935E+00 -0.13585246761E+02 -0.79610638535E+00  0.13618957413E+02  0.51100000000E-03 0. -1.
        -11    1    3    3    0    0 -0.61076407848E+01 -0.20378447509E+02 -0.97413010440E+01  0.23398233804E+02  0.51100000000E-03 0.  1.
        -12    1    3    3    0    0 -0.70050728144E+01 -0.67988499358E+01  0.45496376003E+01  0.10770079288E+02  0.00000000000E+00 0.  1.
</event>
<event>
 7    1  0.2983653E-010  0.4778727E+02  0.7816164E-02  0.1312668E+00
        -11   -1    0    0    0    0  0.00000000000E+00  0.00000000000E+00  0.45593999997E+02  0.45594000000E+02  0.51100000000E-03 0.  1.
         11   -1    0    0    0    0 -0.00000000000E+00 -0.00000000000E+00 -0.45593999997E+02  0.45594000000E+02  0.51100000000E-03 0. -1.
    9900012    2    1    2    0    0  0.87401003249E+01  0.35051971730E+02 -0.24053971126E+02  0.47787267255E+02  0.19999982723E+02 0.  0.
        -12    1    1    2    0    0 -0.87401003249E+01 -0.35051971730E+02  0.24053971126E+02  0.43400732745E+02  0.00000000000E+00 0.  1.
         11    1    3    3    0    0 -0.13737556437E+01  0.21821332808E+01 -0.39848203783E+01  0.47463358427E+01  0.51100000000E-03 0. -1.
        -11    1    3    3    0    0 -0.42419958636E+01  0.42789340497E+01 -0.40673430244E+01  0.72696000611E+01  0.51100000000E-03 0.  1.
        -12    1    3    3    0    0  0.14355851832E+02  0.28590904400E+02 -0.16001807723E+02  0.35771331351E+02  0.00000000000E+00 0.  1.
</event>
<event>
 7    1  0.2983653E-010  0.4778722E+02  0.7816164E-02  0.1312668E+00
        -11   -1    0    0    0    0  0.00000000000E+00  0.00000000000E+00  0.45593999997E+02  0.45594000000E+02  0.51100000000E-03 0.  1.
         11   -1    0    0    0    0 -0.00000000000E+00 -0.00000000000E+00 -0.45593999997E+02  0.45594000000E+02  0.51100000000E-03 0. -1.
    9900012    2    1    2    0    0  0.55966679948E+01 -0.38647321725E+02  0.18939096417E+02  0.47787221871E+02  0.19999775797E+02 0.  0.
        -12    1    1    2    0    0 -0.55966679948E+01  0.38647321725E+02 -0.18939096417E+02  0.43400778129E+02  0.00000000000E+00 0.  1.
         11    1    3    3    0    0  0.85186702164E+01 -0.12466785481E+02  0.88594656662E+01  0.17506530628E+02  0.51100000000E-03 0. -1.
        -11    1    3    3    0    0 -0.49642807215E+01 -0.15421491812E+02  0.10526711405E+02  0.19320407502E+02  0.51100000000E-03 0.  1.
        -12    1    3    3    0    0  0.20422784999E+01 -0.10759044433E+02 -0.44708065430E+00  0.10960283741E+02  0.00000000000E+00 0.  1.
</event>
<event>
 7    1  0.2983653E-010  0.4778727E+02  0.7816164E-02  0.1312668E+00
        -11   -1    0    0    0    0  0.00000000000E+00  0.00000000000E+00  0.45593999997E+02  0.45594000000E+02  0.51100000000E-03 0.  1.
         11   -1    0    0    0    0 -0.00000000000E+00 -0.00000000000E+00 -0.45593999997E+02  0.45594000000E+02  0.51100000000E-03 0. -1.
    9900012    2    1    2    0    0 -0.27145306616E+00 -0.38412262477E+02 -0.20200194643E+02  0.47787268912E+02  0.19999990277E+02 0.  0.
        -12    1    1    2    0    0  0.27145306616E+00  0.38412262477E+02  0.20200194643E+02  0.43400731088E+02  0.00000000000E+00 0.  1.
         11    1    3    3    0    0 -0.51404116257E+01 -0.32052815418E+02 -0.18415214702E+02  0.37321936454E+02  0.51100000000E-03 0. -1.
        -11    1    3    3    0    0  0.41902354651E+01 -0.47325010836E+01 -0.41158784855E+01  0.75428837806E+01  0.51100000000E-03 0.  1.
         12    1    3    3    0    0  0.67872309449E+00 -0.16269459757E+01  0.23308985448E+01  0.29224486775E+01  0.00000000000E+00 0. -1.
</event>
<event>
 7    1  0.2983653E-010  0.4778727E+02  0.7816164E-02  0.1312668E+00
        -11   -1    0    0    0    0  0.00000000000E+00  0.00000000000E+00  0.45593999997E+02  0.45594000000E+02  0.51100000000E-03 0. -1.
         11   -1    0    0    0    0 -0.00000000000E+00 -0.00000000000E+00 -0.45593999997E+02  0.45594000000E+02  0.51100000000E-03 0.  1.
    9900012    2    1    2    0    0  0.15785410902E+02 -0.40387384629E+02 -0.18174323494E+01  0.47787273107E+02  0.20000009403E+02 0.  0.
        -12    1    1    2    0    0 -0.15785410902E+02  0.40387384629E+02  0.18174323494E+01  0.43400726893E+02  0.00000000000E+00 0.  1.
         11    1    3    3    0    0  0.10674928082E+02 -0.11580789905E+02 -0.58740878191E+01  0.16809928387E+02  0.51100000000E-03 0.  1.
        -11    1    3    3    0    0  0.65114983923E+00  0.58205365996E+00 -0.32339922514E+00  0.93132695448E+00  0.51100000000E-03 0. -1.
         12    1    3    3    0    0  0.44593329806E+01 -0.29388648384E+02  0.43800546948E+01  0.30046017766E+02  0.00000000000E+00 0. -1.
</event>
<event>
 7    1  0.2983653E-010  0.4778726E+02  0.7816164E-02  0.1312668E+00
        -11   -1    0    0    0    0  0.00000000000E+00  0.00000000000E+00  0.45593999997E+02  0.45594000000E+02  0.51100000000E-03 0.  1.
         11   -1    0    0    0    0 -0.00000000000E+00 -0.00000000000E+00 -0.45593999997E+02  0.45594000000E+02  0.51100000000E-03 0. -1.
    9900012    2    1    2    0    0 -0.24133395041E+02  0.27886739393E+02 -0.22880841956E+02  0.47787263615E+02  0.19999966125E+02 0.  0.
        -12    1    1    2    0    0  0.24133395041E+02 -0.27886739393E+02  0.22880841956E+02  0.43400736385E+02  0.00000000000E+00 0.  1.
         11    1    3    3    0    0 -0.10780156603E+02  0.20798952715E+02 -0.80021046113E+01  0.24755643576E+02  0.51100000000E-03 0. -1.
        -11    1    3    3    0    0 -0.42471121446E+01  0.51999849711E+01 -0.11143413484E+02  0.13009745179E+02  0.51100000000E-03 0.  1.
        -12    1    3    3    0    0 -0.91061262937E+01  0.18878017072E+01 -0.37353238605E+01  0.10021874860E+02  0.00000000000E+00 0.  1.
</event>
<event>
 7    1  0.2983653E-010  0.4778727E+02  0.7816164E-02  0.1312668E+00
        -11   -1    0    0    0    0  0.00000000000E+00  0.00000000000E+00  0.45593999997E+02  0.45594000000E+02  0.51100000000E-03 0.  1.
         11   -1    0    0    0    0 -0.00000000000E+00 -0.00000000000E+00 -0.45593999997E+02  0.45594000000E+02  0.51100000000E-03 0. -1.
    9900012    2    1    2    0    0  0.22268816297E+02 -0.37219180151E+02 -0.15670307962E+01  0.47787272634E+02  0.20000007248E+02 0.  0.
        -12    1    1    2    0    0 -0.22268816297E+02  0.37219180151E+02  0.15670307962E+01  0.43400727366E+02  0.00000000000E+00 0.  1.
         11    1    3    3    0    0  0.18473922384E+02 -0.18060476155E+02 -0.76814871223E+00  0.25846792062E+02  0.51100000000E-03 0. -1.
        -11    1    3    3    0    0  0.42711967905E+01 -0.19799356466E+02 -0.21526237030E+01  0.20368883808E+02  0.51100000000E-03 0.  1.
         12    1    3    3    0    0 -0.47630287710E+00  0.64065247054E+00  0.13537416190E+01  0.15715967644E+01  0.00000000000E+00 0. -1.
</event>
<event>
 7    1  0.2983653E-010  0.4778727E+02  0.7816164E-02  0.1312668E+00
        -11   -1    0    0    0    0  0.00000000000E+00  0.00000000000E+00  0.45593999997E+02  0.45594000000E+02  0.51100000000E-03 0.  1.
         11   -1    0    0    0    0 -0.00000000000E+00 -0.00000000000E+00 -0.45593999997E+02  0.45594000000E+02  0.51100000000E-03 0. -1.
    9900012    2    1    2    0    0  0.13261348694E+02  0.48725522621E+01 -0.41036788723E+02  0.47787272317E+02  0.20000005803E+02 0.  0.
        -12    1    1    2    0    0 -0.13261348694E+02 -0.48725522621E+01  0.41036788723E+02  0.43400727683E+02  0.00000000000E+00 0.  1.
         11    1    3    3    0    0 -0.14065508899E+01  0.78849289198E+00 -0.38547891292E+01  0.41784573634E+01  0.51100000000E-03 0. -1.
        -11    1    3    3    0    0 -0.17248563500E+01 -0.28281358463E+01 -0.12999378202E+01  0.35585559418E+01  0.51100000000E-03 0.  1.
        -12    1    3    3    0    0  0.16392755934E+02  0.69121952165E+01 -0.35882061773E+02  0.40050259012E+02  0.00000000000E+00 0.  1.
</event>
<event>
 7    1  0.2983653E-010  0.4778727E+02  0.7816164E-02  0.1312668E+00
        -11   -1    0    0    0    0  0.00000000000E+00  0.00000000000E+00  0.45593999997E+02  0.45594000000E+02  0.51100000000E-03 0. -1.
         11   -1    0    0    0    0 -0.00000000000E+00 -0.00000000000E+00 -0.45593999997E+02  0.45594000000E+02  0.51100000000E-03 0.  1.
    9900012    2    1    2    0    0  0.30761997255E+02  0.17124610064E+02  0.25378543181E+02  0.47787271908E+02  0.20000003935E+02 0.  0.
        -12    1    1    2    0    0 -0.30761997255E+02 -0.17124610064E+02 -0.25378543181E+02  0.43400728092E+02  0.00000000000E+00 0.  1.
         11    1    3    3    0    0  0.21816305340E+02  0.17590135169E+02  0.11687862535E+02  0.30363961614E+02  0.51100000000E-03 0. -1.
        -11    1    3    3    0    0  0.14763913694E+01  0.99605904174E+00  0.72109602758E+01  0.74276384841E+01  0.51100000000E-03 0.  1.
         12    1    3    3    0    0  0.74693005460E+01 -0.14615841471E+01  0.64797203695E+01  0.99956718100E+01  0.00000000000E+00 0. -1.
</event>
<event>
 7    1  0.2983653E-010  0.4778727E+02  0.7816164E-02  0.1312668E+00
        -11   -1    0    0    0    0  0.00000000000E+00  0.00000000000E+00  0.45593999997E+02  0.45594000000E+02  0.51100000000E-03 0.  1.
         11   -1    0    0    0    0 -0.00000000000E+00 -0.00000000000E+00 -0.45593999997E+02  0.45594000000E+02  0.51100000000E-03 0. -1.
    9900012    2    1    2    0    0 -0.75682746082E+01 -0.34160324330E+02 -0.25679115057E+02  0.47787268566E+02  0.19999988700E+02 0.  0.
        -12    1    1    2    0    0  0.75682746082E+01  0.34160324330E+02  0.25679115057E+02  0.43400731434E+02  0.00000000000E+00 0.  1.
         11    1    3    3    0    0 -0.77223930040E+01 -0.24107871902E+02 -0.14492811006E+02  0.29169614541E+02  0.51100000000E-03 0. -1.
        -11    1    3    3    0    0  0.41244273593E+01 -0.46522183387E+01 -0.10052492661E+02  0.11819756574E+02  0.51100000000E-03 0.  1.
        -12    1    3    3    0    0 -0.39703089635E+01 -0.54002340889E+01 -0.11338113904E+01  0.67978974507E+01  0.00000000000E+00 0.  1.
</event>
<event>
 7    1  0.2983653E-010  0.4778727E+02  0.7816164E-02  0.1312668E+00
        -11   -1    0    0    0    0  0.00000000000E+00  0.00000000000E+00  0.45593999997E+02  0.45594000000E+02  0.51100000000E-03 0.  1.
         11   -1    0    0    0    0 -0.00000000000E+00 -0.00000000000E+00 -0.45593999997E+02  0.45594000000E+02  0.51100000000E-03 0. -1.
    9900012    2    1    2    0    0  0.18338735464E+01 -0.28442473935E+01 -0.43268587055E+02  0.47787268887E+02  0.19999990163E+02 0.  0.
        -12    1    1    2    0    0 -0.18338735464E+01  0.28442473935E+01  0.43268587055E+02  0.43400731113E+02  0.00000000000E+00 0.  1.
         11    1    3    3    0    0 -0.20366173506E+01 -0.15025337911E+01 -0.19835125300E+02  0.19995939936E+02  0.51100000000E-03 0. -1.
        -11    1    3    3    0    0 -0.44596736118E+01 -0.36924982290E+01 -0.60610882840E+01  0.83821252283E+01  0.51100000000E-03 0.  1.
        -12    1    3    3    0    0  0.83301645088E+01  0.23507846266E+01 -0.17372373471E+02  0.19409203722E+02  0.00000000000E+00 0.  1.
</event>
<event>
 7    1  0.2983653E-010  0.4778727E+02  0.7816164E-02  0.1312668E+00
        -11   -1    0    0    0    0  0.00000000000E+00  0.00000000000E+00  0.45593999997E+02  0.45594000000E+02  0.51100000000E-03 0. -1.
         11   -1    0    0    0    0 -0.00000000000E+00 -0.00000000000E+00 -0.45593999997E+02  0.45594000000E+02  0.51100000000E-03 0.  1.
    9900012    2    1    2    0    0  0.17786001344E+01 -0.41433936448E+02  0.12794099463E+02  0.47787268565E+02  0.19999988696E+02 0.  0.
        -12    1    1    2    0    0 -0.17786001344E+01  0.41433936448E+02 -0.12794099463E+02  0.43400731435E+02  0.00000000000E+00 0.  1.
         11    1    3    3    0    0 -0.52288703560E+01 -0.49077576186E+01 -0.59105387698E+00  0.71955899682E+01  0.51100000000E-03 0.  1.
        -11    1    3    3    0    0  0.35228275673E+01 -0.29320743729E+02  0.69921982736E+01  0.30348099839E+02  0.51100000000E-03 0. -1.
        -12    1    3    3    0    0  0.34846429231E+01 -0.72054351007E+01  0.63929550661E+01  0.10243578758E+02  0.00000000000E+00 0.  1.
</event>
<event>
 7    1  0.2983653E-010  0.4778727E+02  0.7816164E-02  0.1312668E+00
        -11   -1    0    0    0    0  0.00000000000E+00  0.00000000000E+00  0.45593999997E+02  0.45594000000E+02  0.51100000000E-03 0.  1.
         11   -1    0    0    0    0 -0.00000000000E+00 -0.00000000000E+00 -0.45593999997E+02  0.45594000000E+02  0.51100000000E-03 0. -1.
    9900012    2    1    2    0    0 -0.27724793438E+02 -0.17155442521E+02 -0.28646985291E+02  0.47787272523E+02  0.20000006743E+02 0.  0.
        -12    1    1    2    0    0  0.27724793438E+02  0.17155442521E+02  0.28646985291E+02  0.43400727477E+02  0.00000000000E+00 0.  1.
         11    1    3    3    0    0 -0.17636085328E+01  0.12890229504E+01 -0.27637265556E+01  0.35227943396E+01  0.51100000000E-03 0. -1.
        -11    1    3    3    0    0 -0.30612561879E+01 -0.67350350618E+01  0.50504427351E+00  0.74153257994E+01  0.51100000000E-03 0.  1.
        -12    1    3    3    0    0 -0.22899928717E+02 -0.11709430409E+02 -0.26388303009E+02  0.36849152384E+02  0.00000000000E+00 0.  1.
</event>
<event>
 7    1  0.2983653E-010  0.4778727E+02  0.7816164E-02  0.1312668E+00
        -11   -1    0    0    0    0  0.00000000000E+00  0.00000000000E+00  0.45593999997E+02  0.45594000000E+02  0.51100000000E-03 0.  1.
         11   -1    0    0    0    0 -0.00000000000E+00 -0.00000000000E+00 -0.45593999997E+02  0.45594000000E+02  0.51100000000E-03 0. -1.
    9900012    2    1    2    0    0  0.10576503657E+02  0.29031222117E+02 -0.30478669077E+02  0.47787267795E+02  0.19999985184E+02 0.  0.
        -12    1    1    2    0    0 -0.10576503657E+02 -0.29031222117E+02  0.30478669077E+02  0.43400732205E+02  0.00000000000E+00 0.  1.
         11    1    3    3    0    0  0.12194053730E+02  0.80518356615E+01 -0.12248544677E+02  0.19067088159E+02  0.51100000000E-03 0. -1.
        -11    1    3    3    0    0 -0.41747233843E+01  0.10455378504E+02 -0.78993817773E+01  0.13752944693E+02  0.51100000000E-03 0.  1.
         12    1    3    3    0    0  0.25571733113E+01  0.10524007951E+02 -0.10330742622E+02  0.14967234943E+02  0.00000000000E+00 0. -1.
</event>
<event>
 7    1  0.2983653E-010  0.4778727E+02  0.7816164E-02  0.1312668E+00
        -11   -1    0    0    0    0  0.00000000000E+00  0.00000000000E+00  0.45593999997E+02  0.45594000000E+02  0.51100000000E-03 0.  1.
         11   -1    0    0    0    0 -0.00000000000E+00 -0.00000000000E+00 -0.45593999997E+02  0.45594000000E+02  0.51100000000E-03 0. -1.
    9900012    2    1    2    0    0  0.35739660028E+01  0.54439167412E+01 -0.42909370009E+02  0.47787268473E+02  0.19999988278E+02 0.  0.
        -12    1    1    2    0    0 -0.35739660028E+01 -0.54439167412E+01  0.42909370009E+02  0.43400731527E+02  0.00000000000E+00 0.  1.
         11    1    3    3    0    0  0.45633587466E+01 -0.50397848940E+01 -0.28730524592E+02  0.29524002412E+02  0.51100000000E-03 0. -1.
        -11    1    3    3    0    0 -0.28601619044E+01  0.68443462255E+01 -0.90098886864E+01  0.11670633906E+02  0.51100000000E-03 0.  1.
        -12    1    3    3    0    0  0.18707691607E+01  0.36393554097E+01 -0.51689567305E+01  0.65926321551E+01  0.00000000000E+00 0.  1.
</event>
<event>
 7    1  0.2983653E-010  0.4778727E+02  0.7816164E-02  0.1312668E+00
        -11   -1    0    0    0    0  0.00000000000E+00  0.00000000000E+00  0.45593999997E+02  0.45594000000E+02  0.51100000000E-03 0. -1.
         11   -1    0    0    0    0 -0.00000000000E+00 -0.00000000000E+00 -0.45593999997E+02  0.45594000000E+02  0.51100000000E-03 0.  1.
    9900012    2    1    2    0    0  0.22501659746E+02  0.36214563354E+02  0.81119677108E+01  0.47787270624E+02  0.19999998084E+02 0.  0.
        -12    1    1    2    0    0 -0.22501659746E+02 -0.36214563354E+02 -0.81119677108E+01  0.43400729376E+02  0.00000000000E+00 0.  1.
         11    1    3    3    0    0  0.19350390206E+01  0.26008091230E+00  0.98150061498E+00  0.21852601242E+01  0.51100000000E-03 0. -1.
        -11    1    3    3    0    0 -0.88613909230E+00  0.75783640238E+01  0.65004697095E+01  0.10023619629E+02  0.51100000000E-03 0.  1.
        -12    1    3    3    0    0  0.21452759818E+02  0.28376118418E+02  0.62999738628E+00  0.35578390871E+02  0.00000000000E+00 0.  1.
</event>
<event>
 7    1  0.2983653E-010  0.4778727E+02  0.7816164E-02  0.1312668E+00
        -11   -1    0    0    0    0  0.00000000000E+00  0.00000000000E+00  0.45593999997E+02  0.45594000000E+02  0.51100000000E-03 0.  1.
         11   -1    0    0    0    0 -0.00000000000E+00 -0.00000000000E+00 -0.45593999997E+02  0.45594000000E+02  0.51100000000E-03 0. -1.
    9900012    2    1    2    0    0 -0.19984868567E+02  0.56282752305E+01 -0.38112346226E+02  0.47787269723E+02  0.19999993977E+02 0.  0.
        -12    1    1    2    0    0  0.19984868567E+02 -0.56282752305E+01  0.38112346226E+02  0.43400730277E+02  0.00000000000E+00 0.  1.
         11    1    3    3    0    0 -0.19249887813E+02  0.11478884520E+01 -0.37544879491E+02  0.42207745793E+02  0.51100000000E-03 0. -1.
        -11    1    3    3    0    0 -0.13170718509E+01  0.46545321757E+01 -0.14492533376E+00  0.48394577846E+01  0.51100000000E-03 0.  1.
         12    1    3    3    0    0  0.58209109671E+00 -0.17414539718E+00 -0.42254140101E+00  0.74006614555E+00  0.00000000000E+00 0. -1.
</event>
<event>
 7    1  0.2983653E-010  0.4778727E+02  0.7816164E-02  0.1312668E+00
        -11   -1    0    0    0    0  0.00000000000E+00  0.00000000000E+00  0.45593999997E+02  0.45594000000E+02  0.51100000000E-03 0. -1.
         11   -1    0    0    0    0 -0.00000000000E+00 -0.00000000000E+00 -0.45593999997E+02  0.45594000000E+02  0.51100000000E-03 0.  1.
    9900012    2    1    2    0    0 -0.59830116889E+01  0.10832127060E+02  0.41599179795E+02  0.47787272297E+02  0.20000005713E+02 0.  0.
        -12    1    1    2    0    0  0.59830116889E+01 -0.10832127060E+02 -0.41599179795E+02  0.43400727703E+02  0.00000000000E+00 0.  1.
         11    1    3    3    0    0 -0.27695302182E+01  0.90855117181E+01  0.12274466167E+02  0.15520288037E+02  0.51100000000E-03 0. -1.
        -11    1    3    3    0    0  0.25009325177E+01 -0.40890304000E+01  0.69026008182E+01  0.84036141859E+01  0.51100000000E-03 0.  1.
        -12    1    3    3    0    0 -0.57144139883E+01  0.58356457419E+01  0.22422112810E+02  0.23863370075E+02  0.00000000000E+00 0.  1.
</event>
<event>
 7    1  0.2983653E-010  0.4778726E+02  0.7816164E-02  0.1312668E+00
        -11   -1    0    0    0    0  0.00000000000E+00  0.00000000000E+00  0.45593999997E+02  0.45594000000E+02  0.51100000000E-03 0.  1.
         11   -1    0    0    0    0 -0.00000000000E+00 -0.00000000000E+00 -0.45593999997E+02  0.45594000000E+02  0.51100000000E-03 0. -1.
    9900012    2    1    2    0    0 -0.41016461136E+02  0.31181584620E+01  0.13840189073E+02  0.47787264639E+02  0.19999970795E+02 0.  0.
        -12    1    1    2    0    0  0.41016461136E+02 -0.31181584620E+01 -0.13840189073E+02  0.43400735361E+02  0.00000000000E+00 0.  1.
         11    1    3    3    0    0 -0.29727720955E+02  0.41056917746E+01  0.10642146942E+02  0.31841001711E+02  0.51100000000E-03 0. -1.
        -11    1    3    3    0    0 -0.24926175442E+01 -0.14719942696E+01  0.60332697931E+01  0.66918049889E+01  0.51100000000E-03 0.  1.
         12    1    3    3    0    0 -0.87961226362E+01  0.48446095707E+00 -0.28352276628E+01  0.92544579393E+01  0.00000000000E+00 0. -1.
</event>
<event>
 7    1  0.2983653E-010  0.4778726E+02  0.7816164E-02  0.1312668E+00
        -11   -1    0    0    0    0  0.00000000000E+00  0.00000000000E+00  0.45593999997E+02  0.45594000000E+02  0.51100000000E-03 0.  1.
         11   -1    0    0    0    0 -0.00000000000E+00 -0.00000000000E+00 -0.45593999997E+02  0.45594000000E+02  0.51100000000E-03 0. -1.
    9900012    2    1    2    0    0  0.29293643230E+02 -0.24320073600E+02 -0.20833633554E+02  0.47787264976E+02  0.19999972331E+02 0.  0.
        -12    1    1    2    0    0 -0.29293643230E+02  0.24320073600E+02  0.20833633554E+02  0.43400735024E+02  0.00000000000E+00 0.  1.
         11    1    3    3    0    0  0.22487793199E+02 -0.94184386086E+01 -0.15277478625E+02  0.28771673260E+02  0.51100000000E-03 0. -1.
        -11    1    3    3    0    0  0.19643998183E+01 -0.48798904663E+01  0.19288328783E+01  0.56029094355E+01  0.51100000000E-03 0.  1.
         12    1    3    3    0    0  0.48414502129E+01 -0.10021744525E+02 -0.74849878073E+01  0.13412682281E+02  0.00000000000E+00 0. -1.
</event>
<event>
 7    1  0.2983653E-010  0.4778727E+02  0.7816164E-02  0.1312668E+00
        -11   -1    0    0    0    0  0.00000000000E+00  0.00000000000E+00  0.45593999997E+02  0.45594000000E+02  0.51100000000E-03 0.  1.
         11   -1    0    0    0    0 -0.00000000000E+00 -0.00000000000E+00 -0.45593999997E+02  0.45594000000E+02  0.51100000000E-03 0. -1.
    9900012    2    1    2    0    0  0.40770580413E+02 -0.21602107480E+01 -0.14721291497E+02  0.47787272345E+02  0.20000005928E+02 0.  0.
        -12    1    1    2    0    0 -0.40770580413E+02  0.21602107480E+01  0.14721291497E+02  0.43400727655E+02  0.00000000000E+00 0.  1.
         11    1    3    3    0    0  0.72404701153E+00  0.25328430701E+01 -0.27252684996E+01  0.37903333295E+01  0.51100000000E-03 0.  1.
        -11    1    3    3    0    0  0.21830527656E+02 -0.77974451464E+01 -0.27793489315E+01  0.23347309680E+02  0.51100000000E-03 0. -1.
         12    1    3    3    0    0  0.18216005746E+02  0.31043913283E+01 -0.92166740662E+01  0.20649629335E+02  0.00000000000E+00 0. -1.
</event>
<event>
 7    1  0.2983653E-010  0.4778730E+02  0.7816164E-02  0.1312668E+00
        -11   -1    0    0    0    0  0.00000000000E+00  0.00000000000E+00  0.45593999997E+02  0.45594000000E+02  0.51100000000E-03 0.  1.
         11   -1    0    0    0    0 -0.00000000000E+00 -0.00000000000E+00 -0.45593999997E+02  0.45594000000E+02  0.51100000000E-03 0. -1.
    9900012    2    1    2    0    0 -0.43159809999E+02  0.49713406705E+00 -0.45392532899E+01  0.47787295376E+02  0.20000110939E+02 0.  0.
        -12    1    1    2    0    0  0.43159809999E+02 -0.49713406705E+00  0.45392532899E+01  0.43400704624E+02  0.00000000000E+00 0.  1.
         11    1    3    3    0    0 -0.30660117602E+02 -0.49011164682E+01  0.21172430494E+01  0.31121479277E+02  0.51100000000E-03 0. -1.
        -11    1    3    3    0    0 -0.95021287764E+01  0.42146474493E+01 -0.80571171309E+01  0.13151837937E+02  0.51100000000E-03 0.  1.
        -12    1    3    3    0    0 -0.29975636201E+01  0.11836030859E+01  0.14006207917E+01  0.35139781621E+01  0.00000000000E+00 0.  1.
</event>
<event>
 7    1  0.2983653E-010  0.4778727E+02  0.7816164E-02  0.1312668E+00
        -11   -1    0    0    0    0  0.00000000000E+00  0.00000000000E+00  0.45593999997E+02  0.45594000000E+02  0.51100000000E-03 0.  1.
         11   -1    0    0    0    0 -0.00000000000E+00 -0.00000000000E+00 -0.45593999997E+02  0.45594000000E+02  0.51100000000E-03 0. -1.
    9900012    2    1    2    0    0 -0.26105153740E+02 -0.34346764081E+02 -0.47375141677E+01  0.47787270799E+02  0.19999998882E+02 0.  0.
        -12    1    1    2    0    0  0.26105153740E+02  0.34346764081E+02  0.47375141677E+01  0.43400729201E+02  0.00000000000E+00 0.  1.
         11    1    3    3    0    0 -0.17823606774E+02 -0.22208039181E+02 -0.32106003813E+00  0.28477728886E+02  0.51100000000E-03 0. -1.
        -11    1    3    3    0    0 -0.36688583618E+01  0.14557275394E+01 -0.28503091234E+01  0.48686678577E+01  0.51100000000E-03 0.  1.
         12    1    3    3    0    0 -0.46126886042E+01 -0.13594452440E+02 -0.15661450062E+01  0.14440874055E+02  0.00000000000E+00 0. -1.
</event>
<event>
 7    1  0.3222530E-010  0.4778725E+02  0.7816164E-02  0.1312668E+00
        -11   -1    0    0    0    0  0.00000000000E+00  0.00000000000E+00  0.45593999997E+02  0.45594000000E+02  0.51100000000E-03 0.  1.
         11   -1    0    0    0    0 -0.00000000000E+00 -0.00000000000E+00 -0.45593999997E+02  0.45594000000E+02  0.51100000000E-03 0. -1.
    9900012    2    1    2    0    0 -0.42447088358E+02  0.62116329995E+01  0.65791845331E+01  0.47787246969E+02  0.19999890228E+02 0.  0.
        -12    1    1    2    0    0  0.42447088358E+02 -0.62116329995E+01 -0.65791845331E+01  0.43400753031E+02  0.00000000000E+00 0.  1.
         11    1    3    3    0    0 -0.26542388522E+02 -0.16285560494E+01  0.24761201328E+01  0.26707335218E+02  0.51100000000E-03 0. -1.
        -11    1    3    3    0    0 -0.11504643736E+02  0.10282504998E+02  0.17644003298E+01  0.15530609947E+02  0.51100000000E-03 0.  1.
        -12    1    3    3    0    0 -0.44000560996E+01 -0.24423159496E+01  0.23386640706E+01  0.55493018041E+01  0.00000000000E+00 0.  1.
</event>
<event>
 7    1  0.2983653E-010  0.4778728E+02  0.7816164E-02  0.1312668E+00
        -11   -1    0    0    0    0  0.00000000000E+00  0.00000000000E+00  0.45593999997E+02  0.45594000000E+02  0.51100000000E-03 0.  1.
         11   -1    0    0    0    0 -0.00000000000E+00 -0.00000000000E+00 -0.45593999997E+02  0.45594000000E+02  0.51100000000E-03 0. -1.
    9900012    2    1    2    0    0  0.11545748813E+02  0.21231963076E+02 -0.36048887518E+02  0.47787275777E+02  0.20000021580E+02 0.  0.
        -12    1    1    2    0    0 -0.11545748813E+02 -0.21231963076E+02  0.36048887518E+02  0.43400724223E+02  0.00000000000E+00 0.  1.
         11    1    3    3    0    0  0.14032437008E+00  0.43169235907E+01 -0.14583254047E+00  0.43216649115E+01  0.51100000000E-03 0. -1.
        -11    1    3    3    0    0  0.14551515826E+02  0.14340337718E+02 -0.30235688584E+02  0.36490940836E+02  0.51100000000E-03 0.  1.
        -12    1    3    3    0    0 -0.31460913828E+01  0.25747017678E+01 -0.56673663936E+01  0.69746700295E+01  0.00000000000E+00 0.  1.
</event>
<event>
 7    1  0.2983653E-010  0.4778727E+02  0.7816164E-02  0.1312668E+00
        -11   -1    0    0    0    0  0.00000000000E+00  0.00000000000E+00  0.45593999997E+02  0.45594000000E+02  0.51100000000E-03 0.  1.
         11   -1    0    0    0    0 -0.00000000000E+00 -0.00000000000E+00 -0.45593999997E+02  0.45594000000E+02  0.51100000000E-03 0. -1.
    9900012    2    1    2    0    0 -0.27080903586E+02 -0.88357792974E+00 -0.33903795666E+02  0.47787269482E+02  0.19999992876E+02 0.  0.
        -12    1    1    2    0    0  0.27080903586E+02  0.88357792974E+00  0.33903795666E+02  0.43400730518E+02  0.00000000000E+00 0.  1.
         11    1    3    3    0    0 -0.60785402615E+01 -0.57653915411E+01 -0.17009056173E+02  0.18960389856E+02  0.51100000000E-03 0. -1.
        -11    1    3    3    0    0 -0.73822255455E+01  0.38130718636E+01 -0.11387765323E+02  0.14096736160E+02  0.51100000000E-03 0.  1.
         12    1    3    3    0    0 -0.13620137779E+02  0.10687417478E+01 -0.55069741697E+01  0.14730143466E+02  0.00000000000E+00 0. -1.
</event>
<event>
 7    1  0.2983653E-010  0.4778727E+02  0.7816164E-02  0.1312668E+00
        -11   -1    0    0    0    0  0.00000000000E+00  0.00000000000E+00  0.45593999997E+02  0.45594000000E+02  0.51100000000E-03 0. -1.
         11   -1    0    0    0    0 -0.00000000000E+00 -0.00000000000E+00 -0.45593999997E+02  0.45594000000E+02  0.51100000000E-03 0.  1.
    9900012    2    1    2    0    0 -0.14850089882E+02 -0.32320888921E+02  0.24868826371E+02  0.47787267803E+02  0.19999985221E+02 0.  0.
        -12    1    1    2    0    0  0.14850089882E+02  0.32320888921E+02 -0.24868826371E+02  0.43400732197E+02  0.00000000000E+00 0.  1.
         11    1    3    3    0    0 -0.31002474620E+01  0.30852537715E+00  0.60261661245E+01  0.67839074769E+01  0.51100000000E-03 0. -1.
        -11    1    3    3    0    0 -0.33061157786E+01 -0.20978682622E+02  0.69804712956E+01  0.22355368614E+02  0.51100000000E-03 0.  1.
         12    1    3    3    0    0 -0.84437266412E+01 -0.11650731676E+02  0.11862188951E+02  0.18647991712E+02  0.00000000000E+00 0. -1.
</event>
<event>
 7    1  0.2983653E-010  0.4778727E+02  0.7816164E-02  0.1312668E+00
        -11   -1    0    0    0    0  0.00000000000E+00  0.00000000000E+00  0.45593999997E+02  0.45594000000E+02  0.51100000000E-03 0.  1.
         11   -1    0    0    0    0 -0.00000000000E+00 -0.00000000000E+00 -0.45593999997E+02  0.45594000000E+02  0.51100000000E-03 0. -1.
    9900012    2    1    2    0    0  0.42432214551E+02  0.91106856214E+01 -0.35457111456E+00  0.47787272530E+02  0.20000006774E+02 0.  0.
        -12    1    1    2    0    0 -0.42432214551E+02 -0.91106856214E+01  0.35457111456E+00  0.43400727470E+02  0.00000000000E+00 0.  1.
         11    1    3    3    0    0  0.93579196653E+01  0.97968199944E+01  0.35320599942E+01  0.14000849636E+02  0.51100000000E-03 0. -1.
        -11    1    3    3    0    0  0.24902910580E+01 -0.30855324908E+00 -0.18778811981E+01  0.31341973002E+01  0.51100000000E-03 0.  1.
         12    1    3    3    0    0  0.30584003828E+02 -0.37758112395E+00 -0.20087499106E+01  0.30652225594E+02  0.00000000000E+00 0. -1.
</event>
<event>
 7    1  0.3244163E-010  0.4778726E+02  0.7816164E-02  0.1312668E+00
        -11   -1    0    0    0    0  0.00000000000E+00  0.00000000000E+00  0.45593999997E+02  0.45594000000E+02  0.51100000000E-03 0. -1.
         11   -1    0    0    0    0 -0.00000000000E+00 -0.00000000000E+00 -0.45593999997E+02  0.45594000000E+02  0.51100000000E-03 0.  1.
    9900012    2    1    2    0    0 -0.87010585481E+01 -0.17993084037E+02  0.38524859032E+02  0.47787259725E+02  0.19999948388E+02 0.  0.
        -12    1    1    2    0    0  0.87010585481E+01  0.17993084037E+02 -0.38524859032E+02  0.43400740275E+02  0.00000000000E+00 0.  1.
         11    1    3    3    0    0  0.25781499226E+01 -0.11476115173E+02  0.18618991861E+02  0.22023054617E+02  0.51100000000E-03 0. -1.
        -11    1    3    3    0    0 -0.53922498014E+01  0.12078524579E+00  0.14265022840E+02  0.15250633556E+02  0.51100000000E-03 0.  1.
        -12    1    3    3    0    0 -0.58869586692E+01 -0.66377541094E+01  0.56408443318E+01  0.10513571551E+02  0.00000000000E+00 0.  1.
</event>
<event>
 7    1  0.2983653E-010  0.4778728E+02  0.7816164E-02  0.1312668E+00
        -11   -1    0    0    0    0  0.00000000000E+00  0.00000000000E+00  0.45593999997E+02  0.45594000000E+02  0.51100000000E-03 0. -1.
         11   -1    0    0    0    0 -0.00000000000E+00 -0.00000000000E+00 -0.45593999997E+02  0.45594000000E+02  0.51100000000E-03 0.  1.
    9900012    2    1    2    0    0  0.38530641381E+01  0.41987658529E+02  0.10286553578E+02  0.47787277005E+02  0.20000027176E+02 0.  0.
        -12    1    1    2    0    0 -0.38530641381E+01 -0.41987658529E+02 -0.10286553578E+02  0.43400722995E+02  0.00000000000E+00 0.  1.
         11    1    3    3    0    0  0.50023662354E-01  0.28828720209E+02 -0.63645887103E+00  0.28835788378E+02  0.51100000000E-03 0. -1.
        -11    1    3    3    0    0  0.31972562524E+01  0.10214117513E+02  0.11689198116E+02  0.15848911538E+02  0.51100000000E-03 0.  1.
         12    1    3    3    0    0  0.60578422339E+00  0.29448208072E+01 -0.76618566651E+00  0.31025770881E+01  0.00000000000E+00 0. -1.
</event>
<event>
 7    1  0.2983653E-010  0.4778727E+02  0.7816164E-02  0.1312668E+00
        -11   -1    0    0    0    0  0.00000000000E+00  0.00000000000E+00  0.45593999997E+02  0.45594000000E+02  0.51100000000E-03 0.  1.
         11   -1    0    0    0    0 -0.00000000000E+00 -0.00000000000E+00 -0.45593999997E+02  0.45594000000E+02  0.51100000000E-03 0. -1.
    9900012    2    1    2    0    0  0.24981661631E+02  0.27132254431E+02 -0.22877511910E+02  0.47787271901E+02  0.20000003903E+02 0.  0.
        -12    1    1    2    0    0 -0.24981661631E+02 -0.27132254431E+02  0.22877511910E+02  0.43400728099E+02  0.00000000000E+00 0.  1.
         11    1    3    3    0    0  0.91208522758E+01  0.23635716996E+02 -0.13499770813E+02  0.28706808886E+02  0.51100000000E-03 0.  1.
        -11    1    3    3    0    0  0.13223025695E+02  0.16423642762E+01 -0.68424826287E+01  0.14978829652E+02  0.51100000000E-03 0. -1.
         12    1    3    3    0    0  0.26377836601E+01  0.18541731589E+01 -0.25352584692E+01  0.41016333632E+01  0.00000000000E+00 0. -1.
</event>
<event>
 7    1  0.2983653E-010  0.4778724E+02  0.7816164E-02  0.1312668E+00
        -11   -1    0    0    0    0  0.00000000000E+00  0.00000000000E+00  0.45593999997E+02  0.45594000000E+02  0.51100000000E-03 0. -1.
         11   -1    0    0    0    0 -0.00000000000E+00 -0.00000000000E+00 -0.45593999997E+02  0.45594000000E+02  0.51100000000E-03 0.  1.
    9900012    2    1    2    0    0  0.35670136972E+02 -0.19268471727E+02  0.15491723167E+02  0.47787237784E+02  0.19999848350E+02 0.  0.
        -12    1    1    2    0    0 -0.35670136972E+02  0.19268471727E+02 -0.15491723167E+02  0.43400762216E+02  0.00000000000E+00 0.  1.
         11    1    3    3    0    0  0.85586154299E+01 -0.10503316148E+02  0.33895401911E+01  0.13966335638E+02  0.51100000000E-03 0. -1.
        -11    1    3    3    0    0  0.26084692466E+02 -0.80340771306E+01  0.14650904784E+02  0.30977517454E+02  0.51100000000E-03 0.  1.
        -12    1    3    3    0    0  0.10268290761E+01 -0.73107844766E+00 -0.25487218078E+01  0.28433846911E+01  0.00000000000E+00 0.  1.
</event>
<event>
 7    1  0.2983653E-010  0.4778727E+02  0.7816164E-02  0.1312668E+00
        -11   -1    0    0    0    0  0.00000000000E+00  0.00000000000E+00  0.45593999997E+02  0.45594000000E+02  0.51100000000E-03 0.  1.
         11   -1    0    0    0    0 -0.00000000000E+00 -0.00000000000E+00 -0.45593999997E+02  0.45594000000E+02  0.51100000000E-03 0. -1.
    9900012    2    1    2    0    0  0.32010907976E+02 -0.18907221935E+02 -0.22392897119E+02  0.47787272908E+02  0.20000008495E+02 0.  0.
        -12    1    1    2    0    0 -0.32010907976E+02  0.18907221935E+02  0.22392897119E+02  0.43400727092E+02  0.00000000000E+00 0.  1.
         11    1    3    3    0    0  0.13257602605E+02 -0.16903567396E+01 -0.16908496544E+02  0.21552693298E+02  0.51100000000E-03 0.  1.
        -11    1    3    3    0    0  0.13136485739E+02 -0.10819585165E+02 -0.48583914890E+01  0.17698436339E+02  0.51100000000E-03 0. -1.
        -12    1    3    3    0    0  0.56168196318E+01 -0.63972800308E+01 -0.62600908594E+00  0.85361432711E+01  0.00000000000E+00 0.  1.
</event>
<event>
 7    1  0.2983653E-010  0.4778727E+02  0.7816164E-02  0.1312668E+00
        -11   -1    0    0    0    0  0.00000000000E+00  0.00000000000E+00  0.45593999997E+02  0.45594000000E+02  0.51100000000E-03 0. -1.
         11   -1    0    0    0    0 -0.00000000000E+00 -0.00000000000E+00 -0.45593999997E+02  0.45594000000E+02  0.51100000000E-03 0.  1.
    9900012    2    1    2    0    0 -0.39976433954E+02  0.15207098014E+02  0.73656006262E+01  0.47787272192E+02  0.20000005233E+02 0.  0.
        -12    1    1    2    0    0  0.39976433954E+02 -0.15207098014E+02 -0.73656006262E+01  0.43400727808E+02  0.00000000000E+00 0.  1.
         11    1    3    3    0    0 -0.20889359161E+02  0.15845917428E+02  0.10155695737E+02  0.28117549350E+02  0.51100000000E-03 0. -1.
        -11    1    3    3    0    0 -0.16834189114E+02 -0.14486383025E+01 -0.15332079101E+01  0.16965824554E+02  0.51100000000E-03 0.  1.
         12    1    3    3    0    0 -0.22528856793E+01  0.80981888802E+00 -0.12568872008E+01  0.27038982879E+01  0.00000000000E+00 0. -1.
</event>
<event>
 7    1  0.2983653E-010  0.4778727E+02  0.7816164E-02  0.1312668E+00
        -11   -1    0    0    0    0  0.00000000000E+00  0.00000000000E+00  0.45593999997E+02  0.45594000000E+02  0.51100000000E-03 0.  1.
         11   -1    0    0    0    0 -0.00000000000E+00 -0.00000000000E+00 -0.45593999997E+02  0.45594000000E+02  0.51100000000E-03 0. -1.
    9900012    2    1    2    0    0 -0.43083543322E+00 -0.42367244066E+02  0.94050000671E+01  0.47787274025E+02  0.20000013589E+02 0.  0.
        -12    1    1    2    0    0  0.43083543322E+00  0.42367244066E+02 -0.94050000671E+01  0.43400725975E+02  0.00000000000E+00 0.  1.
         11    1    3    3    0    0  0.11899223422E+01 -0.33704400748E+02  0.35766924279E+01  0.33914528951E+02  0.51100000000E-03 0. -1.
        -11    1    3    3    0    0  0.88816207440E+00 -0.25257293059E+00  0.49692150066E+01  0.50542776930E+01  0.51100000000E-03 0.  1.
        -12    1    3    3    0    0 -0.25089198498E+01 -0.84102703869E+01  0.85909263263E+00  0.88184673807E+01  0.00000000000E+00 0.  1.
</event>
<event>
 7    1  0.2983653E-010  0.4778727E+02  0.7816164E-02  0.1312668E+00
        -11   -1    0    0    0    0  0.00000000000E+00  0.00000000000E+00  0.45593999997E+02  0.45594000000E+02  0.51100000000E-03 0.  1.
         11   -1    0    0    0    0 -0.00000000000E+00 -0.00000000000E+00 -0.45593999997E+02  0.45594000000E+02  0.51100000000E-03 0. -1.
    9900012    2    1    2    0    0  0.13655874416E+02 -0.37266388201E+02 -0.17560080080E+02  0.47787274107E+02  0.20000013963E+02 0.  0.
        -12    1    1    2    0    0 -0.13655874416E+02  0.37266388201E+02  0.17560080080E+02  0.43400725893E+02  0.00000000000E+00 0.  1.
         11    1    3    3    0    0 -0.25688815444E+01 -0.22844803596E+01 -0.47843749794E+01  0.58913705626E+01  0.51100000000E-03 0.  1.
        -11    1    3    3    0    0 -0.46217372880E+00 -0.85401688113E+01 -0.38550177573E+01  0.93813245361E+01  0.51100000000E-03 0. -1.
         12    1    3    3    0    0  0.16686929689E+02 -0.26441739030E+02 -0.89206873436E+01  0.32514579008E+02  0.00000000000E+00 0. -1.
</event>
<event>
 7    1  0.2983653E-010  0.4778727E+02  0.7816164E-02  0.1312668E+00
        -11   -1    0    0    0    0  0.00000000000E+00  0.00000000000E+00  0.45593999997E+02  0.45594000000E+02  0.51100000000E-03 0.  1.
         11   -1    0    0    0    0 -0.00000000000E+00 -0.00000000000E+00 -0.45593999997E+02  0.45594000000E+02  0.51100000000E-03 0. -1.
    9900012    2    1    2    0    0  0.31720796225E+02  0.11000285987E+02 -0.27502873973E+02  0.47787270954E+02  0.19999999586E+02 0.  0.
        -12    1    1    2    0    0 -0.31720796225E+02 -0.11000285987E+02  0.27502873973E+02  0.43400729046E+02  0.00000000000E+00 0.  1.
         11    1    3    3    0    0  0.88255272016E+01  0.94560239525E+01 -0.38269031027E+01  0.13488940173E+02  0.51100000000E-03 0. -1.
        -11    1    3    3    0    0  0.20829301610E+02 -0.22533330278E-01 -0.23891576273E+02  0.31696493976E+02  0.51100000000E-03 0.  1.
        -12    1    3    3    0    0  0.20659674132E+01  0.15667953645E+01  0.21560540201E+00  0.26018368043E+01  0.00000000000E+00 0.  1.
</event>
<event>
 7    1  0.2983653E-010  0.4778727E+02  0.7816164E-02  0.1312668E+00
        -11   -1    0    0    0    0  0.00000000000E+00  0.00000000000E+00  0.45593999997E+02  0.45594000000E+02  0.51100000000E-03 0. -1.
         11   -1    0    0    0    0 -0.00000000000E+00 -0.00000000000E+00 -0.45593999997E+02  0.45594000000E+02  0.51100000000E-03 0.  1.
    9900012    2    1    2    0    0 -0.11717876462E+02 -0.31192979345E+02  0.27808503350E+02  0.47787269042E+02  0.19999990868E+02 0.  0.
        -12    1    1    2    0    0  0.11717876462E+02  0.31192979345E+02 -0.27808503350E+02  0.43400730958E+02  0.00000000000E+00 0.  1.
         11    1    3    3    0    0  0.45651087502E+01 -0.88420887368E+01  0.10795526516E+02  0.14682170962E+02  0.51100000000E-03 0. -1.
        -11    1    3    3    0    0 -0.13336823779E+02 -0.19233442049E+02  0.16800254186E+02  0.28810496395E+02  0.51100000000E-03 0.  1.
         12    1    3    3    0    0 -0.29461614325E+01 -0.31174485595E+01  0.21272264813E+00  0.42946016850E+01  0.00000000000E+00 0. -1.
</event>
<event>
 7    1  0.2983653E-010  0.4778727E+02  0.7816164E-02  0.1312668E+00
        -11   -1    0    0    0    0  0.00000000000E+00  0.00000000000E+00  0.45593999997E+02  0.45594000000E+02  0.51100000000E-03 0.  1.
         11   -1    0    0    0    0 -0.00000000000E+00 -0.00000000000E+00 -0.45593999997E+02  0.45594000000E+02  0.51100000000E-03 0. -1.
    9900012    2    1    2    0    0  0.35175073745E+02 -0.62247842260E+01 -0.24649337857E+02  0.47787267191E+02  0.19999982428E+02 0.  0.
        -12    1    1    2    0    0 -0.35175073745E+02  0.62247842260E+01  0.24649337857E+02  0.43400732809E+02  0.00000000000E+00 0.  1.
         11    1    3    3    0    0  0.19513183004E+02 -0.46709948848E+01 -0.13481566664E+02  0.24173025134E+02  0.51100000000E-03 0. -1.
        -11    1    3    3    0    0  0.43504027094E+01  0.21954626967E+01 -0.10620439946E+02  0.11685024822E+02  0.51100000000E-03 0.  1.
        -12    1    3    3    0    0  0.11311488031E+02 -0.37492520379E+01 -0.54733124721E+00  0.11929217234E+02  0.00000000000E+00 0.  1.
</event>
<event>
 7    1  0.2983653E-010  0.4778727E+02  0.7816164E-02  0.1312668E+00
        -11   -1    0    0    0    0  0.00000000000E+00  0.00000000000E+00  0.45593999997E+02  0.45594000000E+02  0.51100000000E-03 0.  1.
         11   -1    0    0    0    0 -0.00000000000E+00 -0.00000000000E+00 -0.45593999997E+02  0.45594000000E+02  0.51100000000E-03 0. -1.
    9900012    2    1    2    0    0 -0.24417195763E+02  0.69476870667E+01 -0.35201610951E+02  0.47787271688E+02  0.20000002933E+02 0.  0.
        -12    1    1    2    0    0  0.24417195763E+02 -0.69476870667E+01  0.35201610951E+02  0.43400728312E+02  0.00000000000E+00 0.  1.
         11    1    3    3    0    0 -0.22997391319E+01  0.88985057177E+01 -0.75910663563E+01  0.11920423347E+02  0.51100000000E-03 0. -1.
        -11    1    3    3    0    0 -0.22459279667E+02 -0.19711670108E+01 -0.27282439188E+02  0.35392601357E+02  0.51100000000E-03 0.  1.
        -12    1    3    3    0    0  0.34182303555E+00  0.20348359861E-01 -0.32810540675E+00  0.47424698346E+00  0.00000000000E+00 0.  1.
</event>
<event>
 7    1  0.2983653E-010  0.4778727E+02  0.7816164E-02  0.1312668E+00
        -11   -1    0    0    0    0  0.00000000000E+00  0.00000000000E+00  0.45593999997E+02  0.45594000000E+02  0.51100000000E-03 0.  1.
         11   -1    0    0    0    0 -0.00000000000E+00 -0.00000000000E+00 -0.45593999997E+02  0.45594000000E+02  0.51100000000E-03 0. -1.
    9900012    2    1    2    0    0 -0.18447156565E+02 -0.27494794594E+02 -0.28059971788E+02  0.47787270377E+02  0.19999996957E+02 0.  0.
        -12    1    1    2    0    0  0.18447156565E+02  0.27494794594E+02  0.28059971788E+02  0.43400729623E+02  0.00000000000E+00 0.  1.
         11    1    3    3    0    0 -0.13716116357E+02 -0.16071085161E+02 -0.72617382802E+01  0.22341541336E+02  0.51100000000E-03 0.  1.
        -11    1    3    3    0    0  0.14529308466E+01 -0.54887495037E+01 -0.11337312638E+02  0.12679591369E+02  0.51100000000E-03 0. -1.
         12    1    3    3    0    0 -0.61839710548E+01 -0.59349599293E+01 -0.94609208691E+01  0.12766137672E+02  0.00000000000E+00 0. -1.
</event>
<event>
 7    1  0.2983653E-010  0.4778727E+02  0.7816164E-02  0.1312668E+00
        -11   -1    0    0    0    0  0.00000000000E+00  0.00000000000E+00  0.45593999997E+02  0.45594000000E+02  0.51100000000E-03 0.  1.
         11   -1    0    0    0    0 -0.00000000000E+00 -0.00000000000E+00 -0.45593999997E+02  0.45594000000E+02  0.51100000000E-03 0. -1.
    9900012    2    1    2    0    0  0.51657081000E+01 -0.27597073322E+01 -0.43003753232E+02  0.47787270550E+02  0.19999997745E+02 0.  0.
        -12    1    1    2    0    0 -0.51657081000E+01  0.27597073322E+01  0.43003753232E+02  0.43400729450E+02  0.00000000000E+00 0.  1.
         11    1    3    3    0    0  0.51217388227E+01 -0.18553665389E+01 -0.20816120941E+02  0.21517097500E+02  0.51100000000E-03 0. -1.
        -11    1    3    3    0    0 -0.79755105381E+00 -0.70882910791E+01 -0.77038227915E+01  0.10498992522E+02  0.51100000000E-03 0.  1.
        -12    1    3    3    0    0  0.84152033103E+00  0.61839502858E+01 -0.14483809500E+02  0.15771180528E+02  0.00000000000E+00 0.  1.
</event>
<event>
 7    1  0.2983653E-010  0.4778727E+02  0.7816164E-02  0.1312668E+00
        -11   -1    0    0    0    0  0.00000000000E+00  0.00000000000E+00  0.45593999997E+02  0.45594000000E+02  0.51100000000E-03 0.  1.
         11   -1    0    0    0    0 -0.00000000000E+00 -0.00000000000E+00 -0.45593999997E+02  0.45594000000E+02  0.51100000000E-03 0. -1.
    9900012    2    1    2    0    0  0.19675675772E+01 -0.25867156436E+02 -0.34794283650E+02  0.47787270986E+02  0.19999999732E+02 0.  0.
        -12    1    1    2    0    0 -0.19675675772E+01  0.25867156436E+02  0.34794283650E+02  0.43400729014E+02  0.00000000000E+00 0.  1.
         11    1    3    3    0    0  0.68313142899E+00 -0.20920422759E+01 -0.16712085552E+02  0.16856367141E+02  0.51100000000E-03 0.  1.
        -11    1    3    3    0    0  0.45947318422E+00 -0.12873975507E+02 -0.48454962592E+01  0.13763327913E+02  0.51100000000E-03 0. -1.
        -12    1    3    3    0    0  0.82496296398E+00 -0.10901138652E+02 -0.13236701839E+02  0.17167575932E+02  0.00000000000E+00 0.  1.
</event>
<event>
 7    1  0.2983653E-010  0.4778728E+02  0.7816164E-02  0.1312668E+00
        -11   -1    0    0    0    0  0.00000000000E+00  0.00000000000E+00  0.45593999997E+02  0.45594000000E+02  0.51100000000E-03 0.  1.
         11   -1    0    0    0    0 -0.00000000000E+00 -0.00000000000E+00 -0.45593999997E+02  0.45594000000E+02  0.51100000000E-03 0. -1.
    9900012    2    1    2    0    0 -0.32248718580E+01 -0.17978280601E+02 -0.39370087485E+02  0.47787283872E+02  0.20000058486E+02 0.  0.
        -12    1    1    2    0    0  0.32248718580E+01  0.17978280601E+02  0.39370087485E+02  0.43400716128E+02  0.00000000000E+00 0.  1.
         11    1    3    3    0    0 -0.60653358292E+01 -0.17116325683E+02 -0.18097973017E+02  0.25637736468E+02  0.51100000000E-03 0. -1.
        -11    1    3    3    0    0  0.12517259555E+01 -0.32782865420E+00 -0.20008954966E+02  0.20050749826E+02  0.51100000000E-03 0.  1.
         12    1    3    3    0    0  0.15887380157E+01 -0.53412626414E+00 -0.12631595014E+01  0.20987975783E+01  0.00000000000E+00 0. -1.
</event>
<event>
 7    1  0.2983653E-010  0.4778727E+02  0.7816164E-02  0.1312668E+00
        -11   -1    0    0    0    0  0.00000000000E+00  0.00000000000E+00  0.45593999997E+02  0.45594000000E+02  0.51100000000E-03 0. -1.
         11   -1    0    0    0    0 -0.00000000000E+00 -0.00000000000E+00 -0.45593999997E+02  0.45594000000E+02  0.51100000000E-03 0.  1.
    9900012    2    1    2    0    0  0.12640879268E+02  0.34975221808E+02  0.22373316663E+02  0.47787271115E+02  0.20000000323E+02 0.  0.
        -12    1    1    2    0    0 -0.12640879268E+02 -0.34975221808E+02 -0.22373316663E+02  0.43400728885E+02  0.00000000000E+00 0.  1.
         11    1    3    3    0    0  0.11407892341E+02  0.91783695061E+01  0.84051884596E+01  0.16882821676E+02  0.51100000000E-03 0. -1.
        -11    1    3    3    0    0  0.25541585100E+01  0.27271967954E+01 -0.29729333415E+00  0.37482944978E+01  0.51100000000E-03 0.  1.
         12    1    3    3    0    0 -0.13211715824E+01  0.23069655507E+02  0.14265421537E+02  0.27156154941E+02  0.00000000000E+00 0. -1.
</event>
<event>
 7    1  0.2983653E-010  0.4778727E+02  0.7816164E-02  0.1312668E+00
        -11   -1    0    0    0    0  0.00000000000E+00  0.00000000000E+00  0.45593999997E+02  0.45594000000E+02  0.51100000000E-03 0. -1.
         11   -1    0    0    0    0 -0.00000000000E+00 -0.00000000000E+00 -0.45593999997E+02  0.45594000000E+02  0.51100000000E-03 0.  1.
    9900012    2    1    2    0    0  0.15624497480E+02 -0.36003827880E+02  0.18526268541E+02  0.47787272246E+02  0.20000005477E+02 0.  0.
        -12    1    1    2    0    0 -0.15624497480E+02  0.36003827880E+02 -0.18526268541E+02  0.43400727754E+02  0.00000000000E+00 0.  1.
         11    1    3    3    0    0  0.32318591176E+01 -0.18883724948E+02  0.10311592087E+02  0.21757042834E+02  0.51100000000E-03 0. -1.
        -11    1    3    3    0    0  0.45418855964E+01  0.65869704125E+00  0.41224504878E+01  0.61690521839E+01  0.51100000000E-03 0.  1.
        -12    1    3    3    0    0  0.78507527661E+01 -0.17778799974E+02  0.40922259662E+01  0.19861177228E+02  0.00000000000E+00 0.  1.
</event>
<event>
 7    1  0.2983653E-010  0.4778727E+02  0.7816164E-02  0.1312668E+00
        -11   -1    0    0    0    0  0.00000000000E+00  0.00000000000E+00  0.45593999997E+02  0.45594000000E+02  0.51100000000E-03 0. -1.
         11   -1    0    0    0    0 -0.00000000000E+00 -0.00000000000E+00 -0.45593999997E+02  0.45594000000E+02  0.51100000000E-03 0.  1.
    9900012    2    1    2    0    0  0.17684117488E+02  0.18220875888E+02  0.35197943877E+02  0.47787267487E+02  0.19999983781E+02 0.  0.
        -12    1    1    2    0    0 -0.17684117488E+02 -0.18220875888E+02 -0.35197943877E+02  0.43400732513E+02  0.00000000000E+00 0.  1.
         11    1    3    3    0    0  0.11655566428E+02  0.17261170460E+02  0.31665282208E+02  0.37901059774E+02  0.51100000000E-03 0. -1.
        -11    1    3    3    0    0  0.73578917263E+01  0.52476369235E+00  0.16810684102E+01  0.75657080864E+01  0.51100000000E-03 0.  1.
         12    1    3    3    0    0 -0.13293406668E+01  0.43494173616E+00  0.18515932590E+01  0.23204996270E+01  0.00000000000E+00 0. -1.
</event>
<event>
 7    1  0.2983653E-010  0.4778726E+02  0.7816164E-02  0.1312668E+00
        -11   -1    0    0    0    0  0.00000000000E+00  0.00000000000E+00  0.45593999997E+02  0.45594000000E+02  0.51100000000E-03 0.  1.
         11   -1    0    0    0    0 -0.00000000000E+00 -0.00000000000E+00 -0.45593999997E+02  0.45594000000E+02  0.51100000000E-03 0. -1.
    9900012    2    1    2    0    0 -0.11860527153E+02  0.15120586523E+02 -0.38914262789E+02  0.47787261647E+02  0.19999957153E+02 0.  0.
        -12    1    1    2    0    0  0.11860527153E+02 -0.15120586523E+02  0.38914262789E+02  0.43400738353E+02  0.00000000000E+00 0.  1.
         11    1    3    3    0    0 -0.20303020243E+01  0.14687593333E+02 -0.27595310540E+02  0.31326485412E+02  0.51100000000E-03 0. -1.
        -11    1    3    3    0    0 -0.73271242503E+01  0.14917464910E+01 -0.36425634077E+01  0.83174711189E+01  0.51100000000E-03 0.  1.
        -12    1    3    3    0    0 -0.25031008789E+01 -0.10587533012E+01 -0.76763888420E+01  0.81433051162E+01  0.00000000000E+00 0.  1.
</event>
<event>
 7    1  0.3035564E-010  0.4778727E+02  0.7816164E-02  0.1312668E+00
        -11   -1    0    0    0    0  0.00000000000E+00  0.00000000000E+00  0.45593999997E+02  0.45594000000E+02  0.51100000000E-03 0. -1.
         11   -1    0    0    0    0 -0.00000000000E+00 -0.00000000000E+00 -0.45593999997E+02  0.45594000000E+02  0.51100000000E-03 0.  1.
    9900012    2    1    2    0    0 -0.12499582362E+02 -0.33691066542E+02  0.24337132759E+02  0.47787267807E+02  0.19999985238E+02 0.  0.
        -12    1    1    2    0    0  0.12499582362E+02  0.33691066542E+02 -0.24337132759E+02  0.43400732193E+02  0.00000000000E+00 0.  1.
         11    1    3    3    0    0 -0.68406190742E+01 -0.23235678919E+02  0.16502909520E+02  0.29309330716E+02  0.51100000000E-03 0. -1.
        -11    1    3    3    0    0 -0.54316274317E+01 -0.51991177848E-01  0.56649113617E+01  0.78483438149E+01  0.51100000000E-03 0.  1.
        -12    1    3    3    0    0 -0.22733585656E+00 -0.10403396445E+02  0.21693118778E+01  0.10629593276E+02  0.00000000000E+00 0.  1.
</event>
<event>
 7    1  0.2983653E-010  0.4778728E+02  0.7816164E-02  0.1312668E+00
        -11   -1    0    0    0    0  0.00000000000E+00  0.00000000000E+00  0.45593999997E+02  0.45594000000E+02  0.51100000000E-03 0. -1.
         11   -1    0    0    0    0 -0.00000000000E+00 -0.00000000000E+00 -0.45593999997E+02  0.45594000000E+02  0.51100000000E-03 0.  1.
    9900012    2    1    2    0    0  0.41955082616E+02 -0.68086786170E+01 -0.87769684105E+01  0.47787282998E+02  0.20000054500E+02 0.  0.
        -12    1    1    2    0    0 -0.41955082616E+02  0.68086786170E+01  0.87769684105E+01  0.43400717002E+02  0.00000000000E+00 0.  1.
         11    1    3    3    0    0  0.52354599092E+01 -0.37220828275E+01 -0.72922324837E+01  0.97180551497E+01  0.51100000000E-03 0. -1.
        -11    1    3    3    0    0  0.22778037971E+01  0.12996146323E+01  0.18202567574E+01  0.31922912233E+01  0.51100000000E-03 0.  1.
         12    1    3    3    0    0  0.34441818910E+02 -0.43862104218E+01 -0.33049926842E+01  0.34876936625E+02  0.00000000000E+00 0. -1.
</event>
<event>
 7    1  0.2983653E-010  0.4778727E+02  0.7816164E-02  0.1312668E+00
        -11   -1    0    0    0    0  0.00000000000E+00  0.00000000000E+00  0.45593999997E+02  0.45594000000E+02  0.51100000000E-03 0. -1.
         11   -1    0    0    0    0 -0.00000000000E+00 -0.00000000000E+00 -0.45593999997E+02  0.45594000000E+02  0.51100000000E-03 0.  1.
    9900012    2    1    2    0    0 -0.33759022354E+02 -0.27133950532E+02  0.27750141671E+01  0.47787267686E+02  0.19999984689E+02 0.  0.
        -12    1    1    2    0    0  0.33759022354E+02  0.27133950532E+02 -0.27750141671E+01  0.43400732314E+02  0.00000000000E+00 0.  1.
         11    1    3    3    0    0 -0.27638816120E+02 -0.17801599574E+02 -0.20482467686E+01  0.32939283827E+02  0.51100000000E-03 0.  1.
        -11    1    3    3    0    0 -0.63627319559E+01 -0.50531136623E+01 -0.34649322768E+00  0.81325502424E+01  0.51100000000E-03 0. -1.
         12    1    3    3    0    0  0.24252572258E+00 -0.42792372953E+01  0.51697541634E+01  0.67154336171E+01  0.00000000000E+00 0. -1.
</event>
<event>
 7    1  0.2983653E-010  0.4778727E+02  0.7816164E-02  0.1312668E+00
        -11   -1    0    0    0    0  0.00000000000E+00  0.00000000000E+00  0.45593999997E+02  0.45594000000E+02  0.51100000000E-03 0.  1.
         11   -1    0    0    0    0 -0.00000000000E+00 -0.00000000000E+00 -0.45593999997E+02  0.45594000000E+02  0.51100000000E-03 0. -1.
    9900012    2    1    2    0    0 -0.35663580263E+02 -0.24683785447E+02  0.15630355501E+01  0.47787270728E+02  0.19999998558E+02 0.  0.
        -12    1    1    2    0    0  0.35663580263E+02  0.24683785447E+02 -0.15630355501E+01  0.43400729272E+02  0.00000000000E+00 0.  1.
         11    1    3    3    0    0 -0.23381438550E+02 -0.20459182994E+02  0.93325772472E+01  0.32440204003E+02  0.51100000000E-03 0. -1.
        -11    1    3    3    0    0 -0.28255407749E+01 -0.20821383342E+00 -0.84242007907E+00  0.29557918603E+01  0.51100000000E-03 0.  1.
         12    1    3    3    0    0 -0.94566009387E+01 -0.40163886199E+01 -0.69271216181E+01  0.12391274865E+02  0.00000000000E+00 0. -1.
</event>
<event>
 7    1  0.2983653E-010  0.4778727E+02  0.7816164E-02  0.1312668E+00
        -11   -1    0    0    0    0  0.00000000000E+00  0.00000000000E+00  0.45593999997E+02  0.45594000000E+02  0.51100000000E-03 0.  1.
         11   -1    0    0    0    0 -0.00000000000E+00 -0.00000000000E+00 -0.45593999997E+02  0.45594000000E+02  0.51100000000E-03 0. -1.
    9900012    2    1    2    0    0  0.39653448609E+02  0.13413570722E+02 -0.11458768721E+02  0.47787271358E+02  0.20000001429E+02 0.  0.
        -12    1    1    2    0    0 -0.39653448609E+02 -0.13413570722E+02  0.11458768721E+02  0.43400728642E+02  0.00000000000E+00 0.  1.
         11    1    3    3    0    0  0.33808203184E+02  0.14940015796E+02 -0.91682622886E+01  0.38082222994E+02  0.51100000000E-03 0. -1.
        -11    1    3    3    0    0  0.69115740754E+01 -0.49326537681E+00  0.54675459863E-01  0.69293691343E+01  0.51100000000E-03 0.  1.
         12    1    3    3    0    0 -0.10663286504E+01 -0.10331796978E+01 -0.23451818920E+01  0.27756792295E+01  0.00000000000E+00 0. -1.
</event>
<event>
 7    1  0.2983653E-010  0.4778727E+02  0.7816164E-02  0.1312668E+00
        -11   -1    0    0    0    0  0.00000000000E+00  0.00000000000E+00  0.45593999997E+02  0.45594000000E+02  0.51100000000E-03 0. -1.
         11   -1    0    0    0    0 -0.00000000000E+00 -0.00000000000E+00 -0.45593999997E+02  0.45594000000E+02  0.51100000000E-03 0.  1.
    9900012    2    1    2    0    0 -0.34724418751E+02 -0.24002181825E+02  0.10086294933E+02  0.47787270335E+02  0.19999996768E+02 0.  0.
        -12    1    1    2    0    0  0.34724418751E+02  0.24002181825E+02 -0.10086294933E+02  0.43400729665E+02  0.00000000000E+00 0.  1.
         11    1    3    3    0    0 -0.44306534444E+01 -0.67137067766E+01  0.72641581057E+01  0.10838475071E+02  0.51100000000E-03 0. -1.
        -11    1    3    3    0    0 -0.16172766204E+02 -0.14498800598E+02 -0.18919441863E+01  0.21802592473E+02  0.51100000000E-03 0.  1.
        -12    1    3    3    0    0 -0.14120999102E+02 -0.27896744500E+01  0.47140810137E+01  0.15146202791E+02  0.00000000000E+00 0.  1.
</event>
<event>
 7    1  0.2983653E-010  0.4778727E+02  0.7816164E-02  0.1312668E+00
        -11   -1    0    0    0    0  0.00000000000E+00  0.00000000000E+00  0.45593999997E+02  0.45594000000E+02  0.51100000000E-03 0.  1.
         11   -1    0    0    0    0 -0.00000000000E+00 -0.00000000000E+00 -0.45593999997E+02  0.45594000000E+02  0.51100000000E-03 0. -1.
    9900012    2    1    2    0    0  0.21731109959E+02  0.36976885458E+02 -0.66401905032E+01  0.47787270419E+02  0.19999997149E+02 0.  0.
        -12    1    1    2    0    0 -0.21731109959E+02 -0.36976885458E+02  0.66401905032E+01  0.43400729581E+02  0.00000000000E+00 0.  1.
         11    1    3    3    0    0  0.22360533775E+02  0.36243845538E+02 -0.90274360835E+01  0.43532796976E+02  0.51100000000E-03 0. -1.
        -11    1    3    3    0    0 -0.14668114951E+01 -0.30318788210E+00  0.25032544150E+01  0.29171461707E+01  0.51100000000E-03 0.  1.
        -12    1    3    3    0    0  0.83738767925E+00  0.10362278023E+01 -0.11600883471E+00  0.13373272724E+01  0.00000000000E+00 0.  1.
</event>
<event>
 7    1  0.2983653E-010  0.4778725E+02  0.7816164E-02  0.1312668E+00
        -11   -1    0    0    0    0  0.00000000000E+00  0.00000000000E+00  0.45593999997E+02  0.45594000000E+02  0.51100000000E-03 0.  1.
         11   -1    0    0    0    0 -0.00000000000E+00 -0.00000000000E+00 -0.45593999997E+02  0.45594000000E+02  0.51100000000E-03 0. -1.
    9900012    2    1    2    0    0  0.15294587971E+02 -0.39109073467E+02 -0.10962693689E+02  0.47787254597E+02  0.19999925007E+02 0.  0.
        -12    1    1    2    0    0 -0.15294587971E+02  0.39109073467E+02  0.10962693689E+02  0.43400745403E+02  0.00000000000E+00 0.  1.
         11    1    3    3    0    0  0.60682630316E+01 -0.43116989435E+01 -0.70218011623E+01  0.10233291544E+02  0.51100000000E-03 0.  1.
        -11    1    3    3    0    0  0.10648321532E+02 -0.25803940607E+02 -0.81302988989E+00  0.27926530758E+02  0.51100000000E-03 0. -1.
        -12    1    3    3    0    0 -0.14219965921E+01 -0.89934339161E+01 -0.31278626372E+01  0.96274322947E+01  0.00000000000E+00 0.  1.
</event>
<event>
 7    1  0.2983653E-010  0.4778727E+02  0.7816164E-02  0.1312668E+00
        -11   -1    0    0    0    0  0.00000000000E+00  0.00000000000E+00  0.45593999997E+02  0.45594000000E+02  0.51100000000E-03 0.  1.
         11   -1    0    0    0    0 -0.00000000000E+00 -0.00000000000E+00 -0.45593999997E+02  0.45594000000E+02  0.51100000000E-03 0. -1.
    9900012    2    1    2    0    0 -0.19141501254E+02 -0.17004625894E+02 -0.35043817982E+02  0.47787267854E+02  0.19999985455E+02 0.  0.
        -12    1    1    2    0    0  0.19141501254E+02  0.17004625894E+02  0.35043817982E+02  0.43400732146E+02  0.00000000000E+00 0.  1.
         11    1    3    3    0    0 -0.26583649925E+01  0.27356407270E+01 -0.12174358032E+02  0.12757963332E+02  0.51100000000E-03 0. -1.
        -11    1    3    3    0    0 -0.88590098618E+01 -0.15216478006E+02 -0.14072287584E+02  0.22540020779E+02  0.51100000000E-03 0.  1.
         12    1    3    3    0    0 -0.76241263992E+01 -0.45237886155E+01 -0.87971723659E+01  0.12489283743E+02  0.00000000000E+00 0. -1.
</event>
<event>
 7    1  0.3035877E-010  0.4778726E+02  0.7816164E-02  0.1312668E+00
        -11   -1    0    0    0    0  0.00000000000E+00  0.00000000000E+00  0.45593999997E+02  0.45594000000E+02  0.51100000000E-03 0.  1.
         11   -1    0    0    0    0 -0.00000000000E+00 -0.00000000000E+00 -0.45593999997E+02  0.45594000000E+02  0.51100000000E-03 0. -1.
    9900012    2    1    2    0    0 -0.42884359577E+02  0.59839617025E+01 -0.29576685079E+01  0.47787263866E+02  0.19999967270E+02 0.  0.
        -12    1    1    2    0    0  0.42884359577E+02 -0.59839617025E+01  0.29576685079E+01  0.43400736134E+02  0.00000000000E+00 0.  1.
         11    1    3    3    0    0 -0.27854089227E+02  0.45753748647E+01 -0.34672764392E+01  0.28439520882E+02  0.51100000000E-03 0. -1.
        -11    1    3    3    0    0 -0.63096551914E+01 -0.42215352098E+01  0.37584253304E+01  0.84710607002E+01  0.51100000000E-03 0.  1.
        -12    1    3    3    0    0 -0.87206151586E+01  0.56301220475E+01 -0.32488173991E+01  0.10876682284E+02  0.00000000000E+00 0.  1.
</event>
<event>
 7    1  0.2983653E-010  0.4778726E+02  0.7816164E-02  0.1312668E+00
        -11   -1    0    0    0    0  0.00000000000E+00  0.00000000000E+00  0.45593999997E+02  0.45594000000E+02  0.51100000000E-03 0.  1.
         11   -1    0    0    0    0 -0.00000000000E+00 -0.00000000000E+00 -0.45593999997E+02  0.45594000000E+02  0.51100000000E-03 0. -1.
    9900012    2    1    2    0    0 -0.29953709569E+02  0.31289023817E+02  0.27196138095E+01  0.47787262360E+02  0.19999960405E+02 0.  0.
        -12    1    1    2    0    0  0.29953709569E+02 -0.31289023817E+02 -0.27196138095E+01  0.43400737640E+02  0.00000000000E+00 0.  1.
         11    1    3    3    0    0 -0.27810129642E+02  0.31389592883E+02  0.58934167915E+00  0.41941115579E+02  0.51100000000E-03 0. -1.
        -11    1    3    3    0    0 -0.31756895902E+01 -0.26722041657E+00  0.30812275123E+01  0.44328742784E+01  0.51100000000E-03 0.  1.
        -12    1    3    3    0    0  0.10321096634E+01  0.16665135042E+00 -0.95095538187E+00  0.14132725031E+01  0.00000000000E+00 0.  1.
</event>
<event>
 7    1  0.2983653E-010  0.4778727E+02  0.7816164E-02  0.1312668E+00
        -11   -1    0    0    0    0  0.00000000000E+00  0.00000000000E+00  0.45593999997E+02  0.45594000000E+02  0.51100000000E-03 0.  1.
         11   -1    0    0    0    0 -0.00000000000E+00 -0.00000000000E+00 -0.45593999997E+02  0.45594000000E+02  0.51100000000E-03 0. -1.
    9900012    2    1    2    0    0 -0.29510697336E+02  0.24187599400E+02 -0.20680951430E+02  0.47787274499E+02  0.20000015749E+02 0.  0.
        -12    1    1    2    0    0  0.29510697336E+02 -0.24187599400E+02  0.20680951430E+02  0.43400725501E+02  0.00000000000E+00 0.  1.
         11    1    3    3    0    0 -0.29006333207E+01  0.84083964341E+00 -0.57401530331E+00  0.30741143109E+01  0.51100000000E-03 0. -1.
        -11    1    3    3    0    0 -0.25420352104E+02  0.25433695755E+02 -0.21538930787E+02  0.41916496997E+02  0.51100000000E-03 0.  1.
        -12    1    3    3    0    0 -0.11897119116E+01 -0.20869359981E+01  0.14319946603E+01  0.27966631903E+01  0.00000000000E+00 0.  1.
</event>
<event>
 7    1  0.2983653E-010  0.4778727E+02  0.7816164E-02  0.1312668E+00
        -11   -1    0    0    0    0  0.00000000000E+00  0.00000000000E+00  0.45593999997E+02  0.45594000000E+02  0.51100000000E-03 0. -1.
         11   -1    0    0    0    0 -0.00000000000E+00 -0.00000000000E+00 -0.45593999997E+02  0.45594000000E+02  0.51100000000E-03 0.  1.
    9900012    2    1    2    0    0 -0.32866277549E+02 -0.22194556372E+02  0.17630449445E+02  0.47787270973E+02  0.19999999673E+02 0.  0.
        -12    1    1    2    0    0  0.32866277549E+02  0.22194556372E+02 -0.17630449445E+02  0.43400729027E+02  0.00000000000E+00 0.  1.
         11    1    3    3    0    0 -0.22001184550E+02 -0.20943381688E+02  0.12927062426E+02  0.33011911507E+02  0.51100000000E-03 0. -1.
        -11    1    3    3    0    0 -0.30792902037E+01  0.14721813257E+01  0.55165267940E+01  0.64870188951E+01  0.51100000000E-03 0.  1.
         12    1    3    3    0    0 -0.77858027950E+01 -0.27233560097E+01 -0.81313977498E+00  0.82883405705E+01  0.00000000000E+00 0. -1.
</event>
<event>
 7    1  0.2983653E-010  0.4778727E+02  0.7816164E-02  0.1312668E+00
        -11   -1    0    0    0    0  0.00000000000E+00  0.00000000000E+00  0.45593999997E+02  0.45594000000E+02  0.51100000000E-03 0. -1.
         11   -1    0    0    0    0 -0.00000000000E+00 -0.00000000000E+00 -0.45593999997E+02  0.45594000000E+02  0.51100000000E-03 0.  1.
    9900012    2    1    2    0    0  0.41278950696E+02 -0.10059093265E+02 -0.88592406660E+01  0.47787271054E+02  0.20000000042E+02 0.  0.
        -12    1    1    2    0    0 -0.41278950696E+02  0.10059093265E+02  0.88592406660E+01  0.43400728946E+02  0.00000000000E+00 0.  1.
         11    1    3    3    0    0  0.73456309620E+01 -0.35549201793E+01 -0.44515897470E+01  0.92958271955E+01  0.51100000000E-03 0. -1.
        -11    1    3    3    0    0  0.31043939793E+02 -0.23258963443E+01 -0.81520066987E+01  0.32180602934E+02  0.51100000000E-03 0.  1.
        -12    1    3    3    0    0  0.28893799408E+01 -0.41782767412E+01  0.37443557797E+01  0.63108409244E+01  0.00000000000E+00 0.  1.
</event>
<event>
 7    1  0.2983653E-010  0.4778728E+02  0.7816164E-02  0.1312668E+00
        -11   -1    0    0    0    0  0.00000000000E+00  0.00000000000E+00  0.45593999997E+02  0.45594000000E+02  0.51100000000E-03 0.  1.
         11   -1    0    0    0    0 -0.00000000000E+00 -0.00000000000E+00 -0.45593999997E+02  0.45594000000E+02  0.51100000000E-03 0. -1.
    9900012    2    1    2    0    0  0.94488979746E+01 -0.41986536713E+02  0.56099878178E+01  0.47787275335E+02  0.20000019563E+02 0.  0.
        -12    1    1    2    0    0 -0.94488979746E+01  0.41986536713E+02 -0.56099878178E+01  0.43400724665E+02  0.00000000000E+00 0.  1.
         11    1    3    3    0    0  0.42117760350E+01 -0.33754453773E+01 -0.42477828370E+01  0.68685040697E+01  0.51100000000E-03 0. -1.
        -11    1    3    3    0    0  0.48922774617E+01 -0.19694798341E+02  0.83343040414E+01  0.21938096649E+02  0.51100000000E-03 0.  1.
         12    1    3    3    0    0  0.34484447795E+00 -0.18916292995E+02  0.15234666134E+01  0.18980674616E+02  0.00000000000E+00 0. -1.
</event>
<event>
 7    1  0.2983653E-010  0.4778726E+02  0.7816164E-02  0.1312668E+00
        -11   -1    0    0    0    0  0.00000000000E+00  0.00000000000E+00  0.45593999997E+02  0.45594000000E+02  0.51100000000E-03 0. -1.
         11   -1    0    0    0    0 -0.00000000000E+00 -0.00000000000E+00 -0.45593999997E+02  0.45594000000E+02  0.51100000000E-03 0.  1.
    9900012    2    1    2    0    0  0.62934032658E+01  0.26913566617E+02  0.33461577169E+02  0.47787261074E+02  0.19999954539E+02 0.  0.
        -12    1    1    2    0    0 -0.62934032658E+01 -0.26913566617E+02 -0.33461577169E+02  0.43400738926E+02  0.00000000000E+00 0.  1.
         11    1    3    3    0    0  0.94906175862E+00 -0.21046175883E+01  0.88595827549E+01  0.91554541267E+01  0.51100000000E-03 0. -1.
        -11    1    3    3    0    0  0.54918080717E+01  0.21886011405E+02  0.17393383699E+02  0.28490125445E+02  0.51100000000E-03 0.  1.
         12    1    3    3    0    0 -0.14746656455E+00  0.71321728006E+01  0.72086107149E+01  0.10141681502E+02  0.00000000000E+00 0. -1.
</event>
<event>
 7    1  0.2983653E-010  0.4778727E+02  0.7816164E-02  0.1312668E+00
        -11   -1    0    0    0    0  0.00000000000E+00  0.00000000000E+00  0.45593999997E+02  0.45594000000E+02  0.51100000000E-03 0.  1.
         11   -1    0    0    0    0 -0.00000000000E+00 -0.00000000000E+00 -0.45593999997E+02  0.45594000000E+02  0.51100000000E-03 0. -1.
    9900012    2    1    2    0    0  0.36336647456E+01  0.41786950694E+02  0.11147673128E+02  0.47787269776E+02  0.19999994218E+02 0.  0.
        -12    1    1    2    0    0 -0.36336647456E+01 -0.41786950694E+02 -0.11147673128E+02  0.43400730224E+02  0.00000000000E+00 0.  1.
         11    1    3    3    0    0 -0.21422070692E+01  0.38381370977E-01  0.34234930870E+01  0.40386667892E+01  0.51100000000E-03 0.  1.
        -11    1    3    3    0    0  0.29604489470E+01  0.52984272619E+01 -0.10305156781E+01  0.61562612227E+01  0.51100000000E-03 0. -1.
         12    1    3    3    0    0  0.28154228678E+01  0.36450142061E+02  0.87546957194E+01  0.37592341764E+02  0.00000000000E+00 0. -1.
</event>
<event>
 7    1  0.2983653E-010  0.4778727E+02  0.7816164E-02  0.1312668E+00
        -11   -1    0    0    0    0  0.00000000000E+00  0.00000000000E+00  0.45593999997E+02  0.45594000000E+02  0.51100000000E-03 0. -1.
         11   -1    0    0    0    0 -0.00000000000E+00 -0.00000000000E+00 -0.45593999997E+02  0.45594000000E+02  0.51100000000E-03 0.  1.
    9900012    2    1    2    0    0 -0.41164715599E+02 -0.77455045449E+01 -0.11362061914E+02  0.47787273025E+02  0.20000009031E+02 0.  0.
        -12    1    1    2    0    0  0.41164715599E+02  0.77455045449E+01  0.11362061914E+02  0.43400726975E+02  0.00000000000E+00 0.  1.
         11    1    3    3    0    0 -0.18043734495E+02 -0.82618822318E+01 -0.49486318063E+01  0.20452970678E+02  0.51100000000E-03 0. -1.
        -11    1    3    3    0    0 -0.51273648804E+01  0.22168650289E+01  0.36256519724E+01  0.66595580679E+01  0.51100000000E-03 0.  1.
        -12    1    3    3    0    0 -0.17993616224E+02 -0.17004873420E+01 -0.10039082080E+02  0.20674744279E+02  0.00000000000E+00 0.  1.
</event>
<event>
 7    1  0.2983653E-010  0.4778727E+02  0.7816164E-02  0.1312668E+00
        -11   -1    0    0    0    0  0.00000000000E+00  0.00000000000E+00  0.45593999997E+02  0.45594000000E+02  0.51100000000E-03 0.  1.
         11   -1    0    0    0    0 -0.00000000000E+00 -0.00000000000E+00 -0.45593999997E+02  0.45594000000E+02  0.51100000000E-03 0. -1.
    9900012    2    1    2    0    0  0.16350518625E+02  0.35875882206E+02 -0.18144006439E+02  0.47787270133E+02  0.19999995843E+02 0.  0.
        -12    1    1    2    0    0 -0.16350518625E+02 -0.35875882206E+02  0.18144006439E+02  0.43400729867E+02  0.00000000000E+00 0.  1.
         11    1    3    3    0    0  0.14536153539E+02  0.28362110416E+02 -0.13156078566E+02  0.34478855411E+02  0.51100000000E-03 0. -1.
        -11    1    3    3    0    0 -0.16333593831E+01  0.24797773697E+01 -0.63915064114E+01  0.70475891727E+01  0.51100000000E-03 0.  1.
         12    1    3    3    0    0  0.34477244694E+01  0.50339944207E+01  0.14035785392E+01  0.62608255494E+01  0.00000000000E+00 0. -1.
</event>
<event>
 7    1  0.2983653E-010  0.4778727E+02  0.7816164E-02  0.1312668E+00
        -11   -1    0    0    0    0  0.00000000000E+00  0.00000000000E+00  0.45593999997E+02  0.45594000000E+02  0.51100000000E-03 0. -1.
         11   -1    0    0    0    0 -0.00000000000E+00 -0.00000000000E+00 -0.45593999997E+02  0.45594000000E+02  0.51100000000E-03 0.  1.
    9900012    2    1    2    0    0 -0.13784210235E+02  0.40180228385E+02 -0.88976452310E+01  0.47787270795E+02  0.19999998863E+02 0.  0.
        -12    1    1    2    0    0  0.13784210235E+02 -0.40180228385E+02  0.88976452310E+01  0.43400729205E+02  0.00000000000E+00 0.  1.
         11    1    3    3    0    0  0.23422956740E+01  0.10987553566E+02  0.22924314028E+01  0.11465946292E+02  0.51100000000E-03 0. -1.
        -11    1    3    3    0    0 -0.12205828125E+02  0.27295055715E+02 -0.80899778044E+01  0.30974990683E+02  0.51100000000E-03 0.  1.
        -12    1    3    3    0    0 -0.39206777846E+01  0.18976191041E+01 -0.31000988294E+01  0.53463338192E+01  0.00000000000E+00 0.  1.
</event>
<event>
 7    1  0.2983653E-010  0.4778727E+02  0.7816164E-02  0.1312668E+00
        -11   -1    0    0    0    0  0.00000000000E+00  0.00000000000E+00  0.45593999997E+02  0.45594000000E+02  0.51100000000E-03 0. -1.
         11   -1    0    0    0    0 -0.00000000000E+00 -0.00000000000E+00 -0.45593999997E+02  0.45594000000E+02  0.51100000000E-03 0.  1.
    9900012    2    1    2    0    0  0.10387428997E+01 -0.41961462296E+02  0.11035396388E+02  0.47787270994E+02  0.19999999769E+02 0.  0.
        -12    1    1    2    0    0 -0.10387428997E+01  0.41961462296E+02 -0.11035396388E+02  0.43400729006E+02  0.00000000000E+00 0.  1.
         11    1    3    3    0    0  0.91503224909E+00 -0.27771032776E+02  0.14318046643E+02  0.31258183015E+02  0.51100000000E-03 0. -1.
        -11    1    3    3    0    0  0.29105397961E+01 -0.92900952726E+01 -0.45576024169E+01  0.10749365197E+02  0.51100000000E-03 0.  1.
         12    1    3    3    0    0 -0.27868291455E+01 -0.49003342474E+01  0.12749521620E+01  0.57797227821E+01  0.00000000000E+00 0. -1.
</event>
<event>
 7    1  0.2983653E-010  0.4778727E+02  0.7816164E-02  0.1312668E+00
        -11   -1    0    0    0    0  0.00000000000E+00  0.00000000000E+00  0.45593999997E+02  0.45594000000E+02  0.51100000000E-03 0.  1.
         11   -1    0    0    0    0 -0.00000000000E+00 -0.00000000000E+00 -0.45593999997E+02  0.45594000000E+02  0.51100000000E-03 0. -1.
    9900012    2    1    2    0    0 -0.16596626131E+02 -0.40070280657E+02 -0.15962208820E+01  0.47787270606E+02  0.19999997999E+02 0.  0.
        -12    1    1    2    0    0  0.16596626131E+02  0.40070280657E+02  0.15962208820E+01  0.43400729394E+02  0.00000000000E+00 0.  1.
         11    1    3    3    0    0 -0.89302211567E+01 -0.31536395383E+02  0.13129058005E+01  0.32802695096E+02  0.51100000000E-03 0. -1.
        -11    1    3    3    0    0  0.17496977856E+01  0.14612418085E+00  0.30222120001E+00  0.17816095341E+01  0.51100000000E-03 0.  1.
         12    1    3    3    0    0 -0.94161027602E+01 -0.86800094551E+01 -0.32113478825E+01  0.13202965976E+02  0.00000000000E+00 0. -1.
</event>
<event>
 7    1  0.2983653E-010  0.4778728E+02  0.7816164E-02  0.1312668E+00
        -11   -1    0    0    0    0  0.00000000000E+00  0.00000000000E+00  0.45593999997E+02  0.45594000000E+02  0.51100000000E-03 0.  1.
         11   -1    0    0    0    0 -0.00000000000E+00 -0.00000000000E+00 -0.45593999997E+02  0.45594000000E+02  0.51100000000E-03 0. -1.
    9900012    2    1    2    0    0 -0.24251319742E+02 -0.15412223354E+02 -0.32526287213E+02  0.47787279985E+02  0.20000040765E+02 0.  0.
        -12    1    1    2    0    0  0.24251319742E+02  0.15412223354E+02  0.32526287213E+02  0.43400720015E+02  0.00000000000E+00 0.  1.
         11    1    3    3    0    0 -0.86000142134E+01  0.21441974797E+01 -0.11810309924E+02  0.14766219830E+02  0.51100000000E-03 0.  1.
        -11    1    3    3    0    0  0.12616811270E+01 -0.10717950409E+01 -0.32478811696E+01  0.36454514437E+01  0.51100000000E-03 0. -1.
         12    1    3    3    0    0 -0.16912986656E+02 -0.16484625793E+02 -0.17468096119E+02  0.29375608712E+02  0.00000000000E+00 0. -1.
</event>
<event>
 7    1  0.2983653E-010  0.4778727E+02  0.7816164E-02  0.1312668E+00
        -11   -1    0    0    0    0  0.00000000000E+00  0.00000000000E+00  0.45593999997E+02  0.45594000000E+02  0.51100000000E-03 0. -1.
         11   -1    0    0    0    0 -0.00000000000E+00 -0.00000000000E+00 -0.45593999997E+02  0.45594000000E+02  0.51100000000E-03 0.  1.
    9900012    2    1    2    0    0  0.24532068278E+02  0.34195800492E+02 -0.10604151950E+02  0.47787272082E+02  0.20000004729E+02 0.  0.
        -12    1    1    2    0    0 -0.24532068278E+02 -0.34195800492E+02  0.10604151950E+02  0.43400727918E+02  0.00000000000E+00 0.  1.
         11    1    3    3    0    0  0.47174262881E+01  0.25367960758E+01  0.48385837047E+01  0.72181256322E+01  0.51100000000E-03 0.  1.
        -11    1    3    3    0    0  0.18217244121E+02  0.29748925502E+02 -0.15251032698E+02  0.38071781551E+02  0.51100000000E-03 0. -1.
         12    1    3    3    0    0  0.15973978692E+01  0.19100789139E+01 -0.19170295689E+00  0.24973648979E+01  0.00000000000E+00 0. -1.
</event>
<event>
 7    1  0.2983653E-010  0.4778727E+02  0.7816164E-02  0.1312668E+00
        -11   -1    0    0    0    0  0.00000000000E+00  0.00000000000E+00  0.45593999997E+02  0.45594000000E+02  0.51100000000E-03 0. -1.
         11   -1    0    0    0    0 -0.00000000000E+00 -0.00000000000E+00 -0.45593999997E+02  0.45594000000E+02  0.51100000000E-03 0.  1.
    9900012    2    1    2    0    0  0.30380096234E+02 -0.21406234169E+01  0.30920720674E+02  0.47787268638E+02  0.19999989027E+02 0.  0.
        -12    1    1    2    0    0 -0.30380096234E+02  0.21406234169E+01 -0.30920720674E+02  0.43400731362E+02  0.00000000000E+00 0.  1.
         11    1    3    3    0    0  0.11786472344E+01 -0.77151767561E+00  0.10092149673E+02  0.10189991860E+02  0.51100000000E-03 0. -1.
        -11    1    3    3    0    0  0.24827170263E+02  0.14979298316E+01  0.20710231371E+02  0.32365813148E+02  0.51100000000E-03 0.  1.
        -12    1    3    3    0    0  0.43742787366E+01 -0.28670355729E+01  0.11833963023E+00  0.52314636298E+01  0.00000000000E+00 0.  1.
</event>
<event>
 7    1  0.2983653E-010  0.4778727E+02  0.7816164E-02  0.1312668E+00
        -11   -1    0    0    0    0  0.00000000000E+00  0.00000000000E+00  0.45593999997E+02  0.45594000000E+02  0.51100000000E-03 0. -1.
         11   -1    0    0    0    0 -0.00000000000E+00 -0.00000000000E+00 -0.45593999997E+02  0.45594000000E+02  0.51100000000E-03 0.  1.
    9900012    2    1    2    0    0 -0.40210197679E+02  0.15353345337E+02  0.55711557750E+01  0.47787274348E+02  0.20000015062E+02 0.  0.
        -12    1    1    2    0    0  0.40210197679E+02 -0.15353345337E+02 -0.55711557750E+01  0.43400725652E+02  0.00000000000E+00 0.  1.
         11    1    3    3    0    0 -0.25155518288E+02  0.54621855414E+01  0.28172955534E+01  0.25895419010E+02  0.51100000000E-03 0. -1.
        -11    1    3    3    0    0 -0.23033662715E+01  0.71070257845E+01  0.45035539096E+01  0.87233771993E+01  0.51100000000E-03 0.  1.
        -12    1    3    3    0    0 -0.12751313120E+02  0.27841340115E+01 -0.17496936880E+01  0.13168478139E+02  0.00000000000E+00 0.  1.
</event>
<event>
 7    1  0.2983653E-010  0.4778727E+02  0.7816164E-02  0.1312668E+00
        -11   -1    0    0    0    0  0.00000000000E+00  0.00000000000E+00  0.45593999997E+02  0.45594000000E+02  0.51100000000E-03 0.  1.
         11   -1    0    0    0    0 -0.00000000000E+00 -0.00000000000E+00 -0.45593999997E+02  0.45594000000E+02  0.51100000000E-03 0. -1.
    9900012    2    1    2    0    0 -0.53345896819E+01 -0.33528140133E+02 -0.27037554428E+02  0.47787269853E+02  0.19999994569E+02 0.  0.
        -12    1    1    2    0    0  0.53345896819E+01  0.33528140133E+02  0.27037554428E+02  0.43400730147E+02  0.00000000000E+00 0.  1.
         11    1    3    3    0    0 -0.80680949679E+01 -0.22138191386E+02 -0.11237192951E+02  0.26104945507E+02  0.51100000000E-03 0. -1.
        -11    1    3    3    0    0  0.16977213766E+01  0.91961389549E+00 -0.45692179933E+00  0.19841182881E+01  0.51100000000E-03 0.  1.
         12    1    3    3    0    0  0.10357839094E+01 -0.12309562642E+02 -0.15343439678E+02  0.19698206058E+02  0.00000000000E+00 0. -1.
</event>
<event>
 7    1  0.2983653E-010  0.4778727E+02  0.7816164E-02  0.1312668E+00
        -11   -1    0    0    0    0  0.00000000000E+00  0.00000000000E+00  0.45593999997E+02  0.45594000000E+02  0.51100000000E-03 0. -1.
         11   -1    0    0    0    0 -0.00000000000E+00 -0.00000000000E+00 -0.45593999997E+02  0.45594000000E+02  0.51100000000E-03 0.  1.
    9900012    2    1    2    0    0  0.18900274805E+02 -0.37169529415E+02 -0.12034505091E+02  0.47787267087E+02  0.19999981955E+02 0.  0.
        -12    1    1    2    0    0 -0.18900274805E+02  0.37169529415E+02  0.12034505091E+02  0.43400732913E+02  0.00000000000E+00 0.  1.
         11    1    3    3    0    0  0.76020064579E+01 -0.66691447385E+01 -0.38385277849E+01  0.10816759660E+02  0.51100000000E-03 0. -1.
        -11    1    3    3    0    0  0.32213304307E+01 -0.21354008057E+02 -0.11308942231E+02  0.24377506117E+02  0.51100000000E-03 0.  1.
        -12    1    3    3    0    0  0.80769379167E+01 -0.91463766194E+01  0.31129649244E+01  0.12593001310E+02  0.00000000000E+00 0.  1.
</event>
<event>
 7    1  0.2983653E-010  0.4778727E+02  0.7816164E-02  0.1312668E+00
        -11   -1    0    0    0    0  0.00000000000E+00  0.00000000000E+00  0.45593999997E+02  0.45594000000E+02  0.51100000000E-03 0.  1.
         11   -1    0    0    0    0 -0.00000000000E+00 -0.00000000000E+00 -0.45593999997E+02  0.45594000000E+02  0.51100000000E-03 0. -1.
    9900012    2    1    2    0    0 -0.11659927013E+02 -0.36632524305E+02 -0.20142677141E+02  0.47787272157E+02  0.20000005071E+02 0.  0.
        -12    1    1    2    0    0  0.11659927013E+02  0.36632524305E+02  0.20142677141E+02  0.43400727843E+02  0.00000000000E+00 0.  1.
         11    1    3    3    0    0  0.33978110893E-01 -0.19764394908E+02 -0.39340188508E+01  0.20152145424E+02  0.51100000000E-03 0. -1.
        -11    1    3    3    0    0 -0.63391880261E+01 -0.78040145254E+01 -0.13375438917E+02  0.16732911104E+02  0.51100000000E-03 0.  1.
         12    1    3    3    0    0 -0.53547170980E+01 -0.90641148715E+01 -0.28332193740E+01  0.10902215629E+02  0.00000000000E+00 0. -1.
</event>
<event>
 7    1  0.2983653E-010  0.4778727E+02  0.7816164E-02  0.1312668E+00
        -11   -1    0    0    0    0  0.00000000000E+00  0.00000000000E+00  0.45593999997E+02  0.45594000000E+02  0.51100000000E-03 0.  1.
         11   -1    0    0    0    0 -0.00000000000E+00 -0.00000000000E+00 -0.45593999997E+02  0.45594000000E+02  0.51100000000E-03 0. -1.
    9900012    2    1    2    0    0  0.16315076088E+02 -0.28718812789E+01 -0.40114756584E+02  0.47787272983E+02  0.20000008838E+02 0.  0.
        -12    1    1    2    0    0 -0.16315076088E+02  0.28718812789E+01  0.40114756584E+02  0.43400727017E+02  0.00000000000E+00 0.  1.
         11    1    3    3    0    0  0.23844243486E+01  0.64095155324E+01 -0.12686259187E+02  0.14412097046E+02  0.51100000000E-03 0. -1.
        -11    1    3    3    0    0  0.19321093752E+01 -0.62569446124E+01 -0.11101958784E+02  0.12889371266E+02  0.51100000000E-03 0.  1.
         12    1    3    3    0    0  0.11998542364E+02 -0.30244521989E+01 -0.16326538613E+02  0.20485804671E+02  0.00000000000E+00 0. -1.
</event>
<event>
 7    1  0.2983653E-010  0.4778727E+02  0.7816164E-02  0.1312668E+00
        -11   -1    0    0    0    0  0.00000000000E+00  0.00000000000E+00  0.45593999997E+02  0.45594000000E+02  0.51100000000E-03 0. -1.
         11   -1    0    0    0    0 -0.00000000000E+00 -0.00000000000E+00 -0.45593999997E+02  0.45594000000E+02  0.51100000000E-03 0.  1.
    9900012    2    1    2    0    0 -0.40537456367E+02 -0.90082080792E+01  0.12617056038E+02  0.47787270921E+02  0.19999999439E+02 0.  0.
        -12    1    1    2    0    0  0.40537456367E+02  0.90082080792E+01 -0.12617056038E+02  0.43400729079E+02  0.00000000000E+00 0.  1.
         11    1    3    3    0    0 -0.25947750412E+02 -0.10741839356E+02  0.15800828017E+02  0.32223268464E+02  0.51100000000E-03 0. -1.
        -11    1    3    3    0    0 -0.10080724399E+02  0.18947795365E+01 -0.40531292144E+00  0.10265255610E+02  0.51100000000E-03 0.  1.
         12    1    3    3    0    0 -0.45089815552E+01 -0.16114825978E+00 -0.27784590573E+01  0.52987468481E+01  0.00000000000E+00 0. -1.
</event>
<event>
 7    1  0.2983653E-010  0.4778728E+02  0.7816164E-02  0.1312668E+00
        -11   -1    0    0    0    0  0.00000000000E+00  0.00000000000E+00  0.45593999997E+02  0.45594000000E+02  0.51100000000E-03 0.  1.
         11   -1    0    0    0    0 -0.00000000000E+00 -0.00000000000E+00 -0.45593999997E+02  0.45594000000E+02  0.51100000000E-03 0. -1.
    9900012    2    1    2    0    0  0.38178607386E+02 -0.17369092030E+02 -0.11150383567E+02  0.47787280265E+02  0.20000042038E+02 0.  0.
        -12    1    1    2    0    0 -0.38178607386E+02  0.17369092030E+02  0.11150383567E+02  0.43400719735E+02  0.00000000000E+00 0.  1.
         11    1    3    3    0    0  0.26043056076E+02 -0.68084371379E+01 -0.86414222497E+01  0.28271359444E+02  0.51100000000E-03 0. -1.
        -11    1    3    3    0    0  0.83161844171E+01 -0.40753713348E+00  0.22413195942E+00  0.83291803421E+01  0.51100000000E-03 0.  1.
         12    1    3    3    0    0  0.38193668924E+01 -0.10153117758E+02 -0.27330932765E+01  0.11186740478E+02  0.00000000000E+00 0. -1.
</event>
<event>
 7    1  0.2983653E-010  0.4778727E+02  0.7816164E-02  0.1312668E+00
        -11   -1    0    0    0    0  0.00000000000E+00  0.00000000000E+00  0.45593999997E+02  0.45594000000E+02  0.51100000000E-03 0.  1.
         11   -1    0    0    0    0 -0.00000000000E+00 -0.00000000000E+00 -0.45593999997E+02  0.45594000000E+02  0.51100000000E-03 0. -1.
    9900012    2    1    2    0    0 -0.31503349261E+02 -0.58449411821E+01  0.29274541725E+02  0.47787272526E+02  0.20000006754E+02 0.  0.
        -12    1    1    2    0    0  0.31503349261E+02  0.58449411821E+01 -0.29274541725E+02  0.43400727474E+02  0.00000000000E+00 0.  1.
         11    1    3    3    0    0 -0.85984207339E+01 -0.91404332894E+01  0.10279562699E+02  0.16221891671E+02  0.51100000000E-03 0. -1.
        -11    1    3    3    0    0 -0.11217868704E+02  0.39929490450E+01  0.40430048902E+01  0.12574979489E+02  0.51100000000E-03 0.  1.
        -12    1    3    3    0    0 -0.11687059823E+02 -0.69745693774E+00  0.14951974136E+02  0.18990401366E+02  0.00000000000E+00 0.  1.
</event>
<event>
 7    1  0.2983653E-010  0.4778727E+02  0.7816164E-02  0.1312668E+00
        -11   -1    0    0    0    0  0.00000000000E+00  0.00000000000E+00  0.45593999997E+02  0.45594000000E+02  0.51100000000E-03 0. -1.
         11   -1    0    0    0    0 -0.00000000000E+00 -0.00000000000E+00 -0.45593999997E+02  0.45594000000E+02  0.51100000000E-03 0.  1.
    9900012    2    1    2    0    0  0.36218792946E+02 -0.23452345643E+02  0.46700981130E+01  0.47787270801E+02  0.19999998890E+02 0.  0.
        -12    1    1    2    0    0 -0.36218792946E+02  0.23452345643E+02 -0.46700981130E+01  0.43400729199E+02  0.00000000000E+00 0.  1.
         11    1    3    3    0    0  0.86071891104E+01 -0.84410284610E+01 -0.26301820490E+01  0.12339064946E+02  0.51100000000E-03 0. -1.
        -11    1    3    3    0    0  0.13505763800E+02 -0.13834932077E+02  0.87448366759E+01  0.21219876770E+02  0.51100000000E-03 0.  1.
        -12    1    3    3    0    0  0.14105840036E+02 -0.11763851046E+01 -0.14445565140E+01  0.14228329085E+02  0.00000000000E+00 0.  1.
</event>
<event>
 7    1  0.2983653E-010  0.4778727E+02  0.7816164E-02  0.1312668E+00
        -11   -1    0    0    0    0  0.00000000000E+00  0.00000000000E+00  0.45593999997E+02  0.45594000000E+02  0.51100000000E-03 0. -1.
         11   -1    0    0    0    0 -0.00000000000E+00 -0.00000000000E+00 -0.45593999997E+02  0.45594000000E+02  0.51100000000E-03 0.  1.
    9900012    2    1    2    0    0 -0.27160505321E+02 -0.15586911978E+02  0.30049596673E+02  0.47787272650E+02  0.20000007319E+02 0.  0.
        -12    1    1    2    0    0  0.27160505321E+02  0.15586911978E+02 -0.30049596673E+02  0.43400727350E+02  0.00000000000E+00 0.  1.
         11    1    3    3    0    0 -0.21574497387E+02 -0.86278256451E+01  0.27632668841E+02  0.36103499836E+02  0.51100000000E-03 0. -1.
        -11    1    3    3    0    0  0.87818840887E+00 -0.26312343349E+01 -0.12985489782E+01  0.30628154885E+01  0.51100000000E-03 0.  1.
        -12    1    3    3    0    0 -0.64641963430E+01 -0.43278519984E+01  0.37154768105E+01  0.86209573256E+01  0.00000000000E+00 0.  1.
</event>
<event>
 7    1  0.2983653E-010  0.4778726E+02  0.7816164E-02  0.1312668E+00
        -11   -1    0    0    0    0  0.00000000000E+00  0.00000000000E+00  0.45593999997E+02  0.45594000000E+02  0.51100000000E-03 0. -1.
         11   -1    0    0    0    0 -0.00000000000E+00 -0.00000000000E+00 -0.45593999997E+02  0.45594000000E+02  0.51100000000E-03 0.  1.
    9900012    2    1    2    0    0 -0.37099158437E+02 -0.16576128389E+02 -0.15248229624E+02  0.47787261575E+02  0.19999956827E+02 0.  0.
        -12    1    1    2    0    0  0.37099158437E+02  0.16576128389E+02  0.15248229624E+02  0.43400738425E+02  0.00000000000E+00 0.  1.
         11    1    3    3    0    0 -0.16174238850E+02  0.16499249355E+01 -0.41992509985E+01  0.16791723077E+02  0.51100000000E-03 0. -1.
        -11    1    3    3    0    0 -0.25614248177E+01 -0.51105308430E+01 -0.50938967791E+01  0.76567752514E+01  0.51100000000E-03 0.  1.
         12    1    3    3    0    0 -0.18363494770E+02 -0.13115522482E+02 -0.59550818462E+01  0.23338763247E+02  0.00000000000E+00 0. -1.
</event>
<event>
 7    1  0.2983653E-010  0.4778727E+02  0.7816164E-02  0.1312668E+00
        -11   -1    0    0    0    0  0.00000000000E+00  0.00000000000E+00  0.45593999997E+02  0.45594000000E+02  0.51100000000E-03 0.  1.
         11   -1    0    0    0    0 -0.00000000000E+00 -0.00000000000E+00 -0.45593999997E+02  0.45594000000E+02  0.51100000000E-03 0. -1.
    9900012    2    1    2    0    0 -0.11701998047E+02  0.27480368880E+02 -0.31488345591E+02  0.47787270281E+02  0.19999996521E+02 0.  0.
        -12    1    1    2    0    0  0.11701998047E+02 -0.27480368880E+02  0.31488345591E+02  0.43400729719E+02  0.00000000000E+00 0.  1.
         11    1    3    3    0    0 -0.12897247119E+02  0.17996708559E+02 -0.13448277595E+02  0.25905147611E+02  0.51100000000E-03 0. -1.
        -11    1    3    3    0    0  0.82651562194E+00  0.10522235604E+02 -0.13111691010E+02  0.16832023395E+02  0.51100000000E-03 0.  1.
         12    1    3    3    0    0  0.36873345075E+00 -0.10385752829E+01 -0.49283769859E+01  0.50500992754E+01  0.00000000000E+00 0. -1.
</event>
<event>
 7    1  0.2983653E-010  0.4778728E+02  0.7816164E-02  0.1312668E+00
        -11   -1    0    0    0    0  0.00000000000E+00  0.00000000000E+00  0.45593999997E+02  0.45594000000E+02  0.51100000000E-03 0.  1.
         11   -1    0    0    0    0 -0.00000000000E+00 -0.00000000000E+00 -0.45593999997E+02  0.45594000000E+02  0.51100000000E-03 0. -1.
    9900012    2    1    2    0    0 -0.13550896271E+02  0.11509526705E+02 -0.39592005517E+02  0.47787275403E+02  0.20000019870E+02 0.  0.
        -12    1    1    2    0    0  0.13550896271E+02 -0.11509526705E+02  0.39592005517E+02  0.43400724597E+02  0.00000000000E+00 0.  1.
         11    1    3    3    0    0 -0.77531239373E+01 -0.17227568038E+01 -0.14091680513E+02  0.16175731258E+02  0.51100000000E-03 0. -1.
        -11    1    3    3    0    0 -0.38042198488E-01 -0.22032146639E+01 -0.32097540698E+01  0.38933434878E+01  0.51100000000E-03 0.  1.
         12    1    3    3    0    0 -0.57597301354E+01  0.15435498172E+02 -0.22290570934E+02  0.27718200657E+02  0.00000000000E+00 0. -1.
</event>
<event>
 7    1  0.2983653E-010  0.4778725E+02  0.7816164E-02  0.1312668E+00
        -11   -1    0    0    0    0  0.00000000000E+00  0.00000000000E+00  0.45593999997E+02  0.45594000000E+02  0.51100000000E-03 0.  1.
         11   -1    0    0    0    0 -0.00000000000E+00 -0.00000000000E+00 -0.45593999997E+02  0.45594000000E+02  0.51100000000E-03 0. -1.
    9900012    2    1    2    0    0  0.93453340581E+01  0.33963129808E+02 -0.25353416239E+02  0.47787249200E+02  0.19999900402E+02 0.  0.
        -12    1    1    2    0    0 -0.93453340581E+01 -0.33963129808E+02  0.25353416239E+02  0.43400750800E+02  0.00000000000E+00 0.  1.
         11    1    3    3    0    0  0.27717548491E+01  0.13471184869E+01 -0.29321395330E+01  0.42537977930E+01  0.51100000000E-03 0.  1.
        -11    1    3    3    0    0  0.11646766081E+02  0.17060748053E+02 -0.97693878419E+01  0.22850759797E+02  0.51100000000E-03 0. -1.
        -12    1    3    3    0    0 -0.50731868718E+01  0.15555263269E+02 -0.12651888864E+02  0.20682691610E+02  0.00000000000E+00 0.  1.
</event>
<event>
 7    1  0.2983653E-010  0.4778728E+02  0.7816164E-02  0.1312668E+00
        -11   -1    0    0    0    0  0.00000000000E+00  0.00000000000E+00  0.45593999997E+02  0.45594000000E+02  0.51100000000E-03 0. -1.
         11   -1    0    0    0    0 -0.00000000000E+00 -0.00000000000E+00 -0.45593999997E+02  0.45594000000E+02  0.51100000000E-03 0.  1.
    9900012    2    1    2    0    0  0.31482118296E+01  0.11369806379E+02  0.41766480662E+02  0.47787278327E+02  0.20000033203E+02 0.  0.
        -12    1    1    2    0    0 -0.31482118296E+01 -0.11369806379E+02 -0.41766480662E+02  0.43400721673E+02  0.00000000000E+00 0.  1.
         11    1    3    3    0    0 -0.63517927734E+01  0.29038126847E+01  0.22580631750E+02  0.23636038797E+02  0.51100000000E-03 0. -1.
        -11    1    3    3    0    0  0.98414171213E+01  0.48137148998E+01  0.15167625676E+02  0.18710483986E+02  0.51100000000E-03 0.  1.
         12    1    3    3    0    0 -0.34141251823E+00  0.36522787947E+01  0.40182232367E+01  0.54407555433E+01  0.00000000000E+00 0. -1.
</event>
<event>
 7    1  0.2983653E-010  0.4778727E+02  0.7816164E-02  0.1312668E+00
        -11   -1    0    0    0    0  0.00000000000E+00  0.00000000000E+00  0.45593999997E+02  0.45594000000E+02  0.51100000000E-03 0.  1.
         11   -1    0    0    0    0 -0.00000000000E+00 -0.00000000000E+00 -0.45593999997E+02  0.45594000000E+02  0.51100000000E-03 0. -1.
    9900012    2    1    2    0    0 -0.36665911939E+02 -0.11276499080E+02 -0.20299628701E+02  0.47787268955E+02  0.19999990475E+02 0.  0.
        -12    1    1    2    0    0  0.36665911939E+02  0.11276499080E+02  0.20299628701E+02  0.43400731045E+02  0.00000000000E+00 0.  1.
         11    1    3    3    0    0 -0.13929956118E+02 -0.11636975143E+02 -0.15048407227E+02  0.23577901269E+02  0.51100000000E-03 0. -1.
        -11    1    3    3    0    0 -0.10155100558E+02  0.33651823621E+01 -0.24193147662E+01  0.10968299953E+02  0.51100000000E-03 0.  1.
        -12    1    3    3    0    0 -0.12580855264E+02 -0.30047062984E+01 -0.28319067081E+01  0.13241067733E+02  0.00000000000E+00 0.  1.
</event>
<event>
 7    1  0.2983653E-010  0.4778727E+02  0.7816164E-02  0.1312668E+00
        -11   -1    0    0    0    0  0.00000000000E+00  0.00000000000E+00  0.45593999997E+02  0.45594000000E+02  0.51100000000E-03 0. -1.
         11   -1    0    0    0    0 -0.00000000000E+00 -0.00000000000E+00 -0.45593999997E+02  0.45594000000E+02  0.51100000000E-03 0.  1.
    9900012    2    1    2    0    0 -0.27878246520E+02  0.25744186216E+02  0.21063320118E+02  0.47787271811E+02  0.20000003496E+02 0.  0.
        -12    1    1    2    0    0  0.27878246520E+02 -0.25744186216E+02 -0.21063320118E+02  0.43400728189E+02  0.00000000000E+00 0.  1.
         11    1    3    3    0    0 -0.80499543593E+01  0.33523112356E+01  0.67290960512E+01  0.11014558082E+02  0.51100000000E-03 0. -1.
        -11    1    3    3    0    0 -0.19027916148E+02  0.15291598002E+02  0.16311237191E+02  0.29359002391E+02  0.51100000000E-03 0.  1.
        -12    1    3    3    0    0 -0.80037601187E+00  0.71002769777E+01 -0.19770131243E+01  0.74137113387E+01  0.00000000000E+00 0.  1.
</event>
<event>
 7    1  0.2983653E-010  0.4778727E+02  0.7816164E-02  0.1312668E+00
        -11   -1    0    0    0    0  0.00000000000E+00  0.00000000000E+00  0.45593999997E+02  0.45594000000E+02  0.51100000000E-03 0.  1.
         11   -1    0    0    0    0 -0.00000000000E+00 -0.00000000000E+00 -0.45593999997E+02  0.45594000000E+02  0.51100000000E-03 0. -1.
    9900012    2    1    2    0    0  0.41144208350E+02  0.12585272793E+02  0.56910808467E+01  0.47787269900E+02  0.19999994783E+02 0.  0.
        -12    1    1    2    0    0 -0.41144208350E+02 -0.12585272793E+02 -0.56910808467E+01  0.43400730100E+02  0.00000000000E+00 0.  1.
         11    1    3    3    0    0  0.16157834915E+02  0.11301364836E+02 -0.25924177747E+00  0.19719626844E+02  0.51100000000E-03 0.  1.
        -11    1    3    3    0    0  0.11480943054E+01  0.30155601809E+01 -0.60709641728E+00  0.32833352037E+01  0.51100000000E-03 0. -1.
         12    1    3    3    0    0  0.23838279129E+02 -0.17316522234E+01  0.65574190415E+01  0.24784307853E+02  0.00000000000E+00 0. -1.
</event>
<event>
 7    1  0.2983653E-010  0.4778727E+02  0.7816164E-02  0.1312668E+00
        -11   -1    0    0    0    0  0.00000000000E+00  0.00000000000E+00  0.45593999997E+02  0.45594000000E+02  0.51100000000E-03 0.  1.
         11   -1    0    0    0    0 -0.00000000000E+00 -0.00000000000E+00 -0.45593999997E+02  0.45594000000E+02  0.51100000000E-03 0. -1.
    9900012    2    1    2    0    0 -0.21511962843E+02  0.27065429648E+02 -0.26235881257E+02  0.47787268523E+02  0.19999988504E+02 0.  0.
        -12    1    1    2    0    0  0.21511962843E+02 -0.27065429648E+02  0.26235881257E+02  0.43400731477E+02  0.00000000000E+00 0.  1.
         11    1    3    3    0    0 -0.80094591753E+00 -0.14389712476E+01 -0.20335862989E+01  0.26167969180E+01  0.51100000000E-03 0. -1.
        -11    1    3    3    0    0 -0.22581750370E+02  0.26444848099E+02 -0.19955750271E+02  0.40093608093E+02  0.51100000000E-03 0.  1.
        -12    1    3    3    0    0  0.18707334445E+01  0.20595527962E+01 -0.42465446871E+01  0.50768635121E+01  0.00000000000E+00 0.  1.
</event>
<event>
 7    1  0.2983653E-010  0.4778727E+02  0.7816164E-02  0.1312668E+00
        -11   -1    0    0    0    0  0.00000000000E+00  0.00000000000E+00  0.45593999997E+02  0.45594000000E+02  0.51100000000E-03 0.  1.
         11   -1    0    0    0    0 -0.00000000000E+00 -0.00000000000E+00 -0.45593999997E+02  0.45594000000E+02  0.51100000000E-03 0. -1.
    9900012    2    1    2    0    0  0.29181385523E+02  0.98925868991E+01 -0.30564795063E+02  0.47787271506E+02  0.20000002103E+02 0.  0.
        -12    1    1    2    0    0 -0.29181385523E+02 -0.98925868991E+01  0.30564795063E+02  0.43400728494E+02  0.00000000000E+00 0.  1.
         11    1    3    3    0    0  0.28537336293E+01  0.69632592026E+01 -0.12607543159E+02  0.14682674113E+02  0.51100000000E-03 0.  1.
        -11    1    3    3    0    0  0.19907505641E+02  0.38667729020E+01 -0.17163934221E+02  0.26568051335E+02  0.51100000000E-03 0. -1.
         12    1    3    3    0    0  0.64201462525E+01 -0.93744520547E+00 -0.79331768344E+00  0.65365460577E+01  0.00000000000E+00 0. -1.
</event>
<event>
 7    1  0.2983653E-010  0.4778727E+02  0.7816164E-02  0.1312668E+00
        -11   -1    0    0    0    0  0.00000000000E+00  0.00000000000E+00  0.45593999997E+02  0.45594000000E+02  0.51100000000E-03 0.  1.
         11   -1    0    0    0    0 -0.00000000000E+00 -0.00000000000E+00 -0.45593999997E+02  0.45594000000E+02  0.51100000000E-03 0. -1.
    9900012    2    1    2    0    0 -0.77193039830E+01 -0.15071552022E+02 -0.39961029846E+02  0.47787271426E+02  0.20000001741E+02 0.  0.
        -12    1    1    2    0    0  0.77193039830E+01  0.15071552022E+02  0.39961029846E+02  0.43400728574E+02  0.00000000000E+00 0.  1.
         11    1    3    3    0    0 -0.49207360042E+01 -0.11177124480E+02 -0.19256404629E+02  0.22802431317E+02  0.51100000000E-03 0. -1.
        -11    1    3    3    0    0 -0.17375792406E+01  0.16552148117E+00  0.15522592916E+01  0.23358270800E+01  0.51100000000E-03 0.  1.
        -12    1    3    3    0    0 -0.10609887383E+01 -0.40599490241E+01 -0.22256884509E+02  0.22649013030E+02  0.00000000000E+00 0.  1.
</event>
<event>
 7    1  0.2983653E-010  0.4778727E+02  0.7816164E-02  0.1312668E+00
        -11   -1    0    0    0    0  0.00000000000E+00  0.00000000000E+00  0.45593999997E+02  0.45594000000E+02  0.51100000000E-03 0. -1.
         11   -1    0    0    0    0 -0.00000000000E+00 -0.00000000000E+00 -0.45593999997E+02  0.45594000000E+02  0.51100000000E-03 0.  1.
    9900012    2    1    2    0    0 -0.35388009294E+02 -0.51420306400E+01  0.24594136843E+02  0.47787271343E+02  0.20000001362E+02 0.  0.
        -12    1    1    2    0    0  0.35388009294E+02  0.51420306400E+01 -0.24594136843E+02  0.43400728657E+02  0.00000000000E+00 0.  1.
         11    1    3    3    0    0 -0.40202509460E+01  0.51854493429E+01  0.10541606411E+01  0.66454915149E+01  0.51100000000E-03 0.  1.
        -11    1    3    3    0    0 -0.11151027591E+02 -0.61015121088E+01  0.12010829528E+02  0.17488107175E+02  0.51100000000E-03 0. -1.
         12    1    3    3    0    0 -0.20216730756E+02 -0.42259678740E+01  0.11529146674E+02  0.23653672653E+02  0.00000000000E+00 0. -1.
</event>
<event>
 7    1  0.2983653E-010  0.4778727E+02  0.7816164E-02  0.1312668E+00
        -11   -1    0    0    0    0  0.00000000000E+00  0.00000000000E+00  0.45593999997E+02  0.45594000000E+02  0.51100000000E-03 0.  1.
         11   -1    0    0    0    0 -0.00000000000E+00 -0.00000000000E+00 -0.45593999997E+02  0.45594000000E+02  0.51100000000E-03 0. -1.
    9900012    2    1    2    0    0  0.24588476089E+02 -0.48450432644E+01 -0.35433817336E+02  0.47787274065E+02  0.20000013774E+02 0.  0.
        -12    1    1    2    0    0 -0.24588476089E+02  0.48450432644E+01  0.35433817336E+02  0.43400725935E+02  0.00000000000E+00 0.  1.
         11    1    3    3    0    0  0.77235768106E+01 -0.84135389051E+01 -0.22184134122E+02  0.24951494598E+02  0.51100000000E-03 0. -1.
        -11    1    3    3    0    0  0.12609748506E+02  0.40597066212E+01 -0.12976121692E+02  0.18543643376E+02  0.51100000000E-03 0.  1.
        -12    1    3    3    0    0  0.42551507725E+01 -0.49121098049E+00 -0.27356152256E+00  0.42921360918E+01  0.00000000000E+00 0.  1.
</event>
<event>
 7    1  0.2983653E-010  0.4778727E+02  0.7816164E-02  0.1312668E+00
        -11   -1    0    0    0    0  0.00000000000E+00  0.00000000000E+00  0.45593999997E+02  0.45594000000E+02  0.51100000000E-03 0.  1.
         11   -1    0    0    0    0 -0.00000000000E+00 -0.00000000000E+00 -0.45593999997E+02  0.45594000000E+02  0.51100000000E-03 0. -1.
    9900012    2    1    2    0    0 -0.17112896981E+02  0.21054917997E+02 -0.33874214616E+02  0.47787271541E+02  0.20000002263E+02 0.  0.
        -12    1    1    2    0    0  0.17112896981E+02 -0.21054917997E+02  0.33874214616E+02  0.43400728459E+02  0.00000000000E+00 0.  1.
         11    1    3    3    0    0 -0.75987030986E+01  0.77784926814E+01 -0.22574641710E+02  0.25057128442E+02  0.51100000000E-03 0. -1.
        -11    1    3    3    0    0  0.18554966661E+01  0.54863391128E+01 -0.46506568536E+01  0.74277448913E+01  0.51100000000E-03 0.  1.
        -12    1    3    3    0    0 -0.11369690549E+02  0.77900862031E+01 -0.66489160525E+01  0.15302398207E+02  0.00000000000E+00 0.  1.
</event>
<event>
 7    1  0.2983653E-010  0.4778727E+02  0.7816164E-02  0.1312668E+00
        -11   -1    0    0    0    0  0.00000000000E+00  0.00000000000E+00  0.45593999997E+02  0.45594000000E+02  0.51100000000E-03 0. -1.
         11   -1    0    0    0    0 -0.00000000000E+00 -0.00000000000E+00 -0.45593999997E+02  0.45594000000E+02  0.51100000000E-03 0.  1.
    9900012    2    1    2    0    0 -0.33838319869E+01 -0.32215612554E+02  0.28884721916E+02  0.47787272226E+02  0.20000005389E+02 0.  0.
        -12    1    1    2    0    0  0.33838319869E+01  0.32215612554E+02 -0.28884721916E+02  0.43400727774E+02  0.00000000000E+00 0.  1.
         11    1    3    3    0    0  0.26876675515E+01 -0.28199506449E+02  0.21429419231E+02  0.35519793492E+02  0.51100000000E-03 0. -1.
        -11    1    3    3    0    0 -0.67500145130E+01 -0.46674564721E+01  0.77441178772E+01  0.11283581338E+02  0.51100000000E-03 0.  1.
         12    1    3    3    0    0  0.67851497466E+00  0.65135036761E+00 -0.28881519262E+00  0.98389739694E+00  0.00000000000E+00 0. -1.
</event>
<event>
 7    1  0.2983653E-010  0.4778727E+02  0.7816164E-02  0.1312668E+00
        -11   -1    0    0    0    0  0.00000000000E+00  0.00000000000E+00  0.45593999997E+02  0.45594000000E+02  0.51100000000E-03 0. -1.
         11   -1    0    0    0    0 -0.00000000000E+00 -0.00000000000E+00 -0.45593999997E+02  0.45594000000E+02  0.51100000000E-03 0.  1.
    9900012    2    1    2    0    0 -0.24164433835E+02  0.28805643260E+02  0.21678071581E+02  0.47787265748E+02  0.19999975851E+02 0.  0.
        -12    1    1    2    0    0  0.24164433835E+02 -0.28805643260E+02 -0.21678071581E+02  0.43400734252E+02  0.00000000000E+00 0.  1.
         11    1    3    3    0    0 -0.11421019054E+02  0.49339030088E+01  0.76385971178E+01  0.14599015081E+02  0.51100000000E-03 0. -1.
        -11    1    3    3    0    0 -0.98326818917E+01  0.23502871186E+02  0.83906972918E+01  0.26822945186E+02  0.51100000000E-03 0.  1.
        -12    1    3    3    0    0 -0.29107328890E+01  0.36886906533E+00  0.56487771713E+01  0.63653054812E+01  0.00000000000E+00 0.  1.
</event>
<event>
 7    1  0.2983653E-010  0.4778727E+02  0.7816164E-02  0.1312668E+00
        -11   -1    0    0    0    0  0.00000000000E+00  0.00000000000E+00  0.45593999997E+02  0.45594000000E+02  0.51100000000E-03 0.  1.
         11   -1    0    0    0    0 -0.00000000000E+00 -0.00000000000E+00 -0.45593999997E+02  0.45594000000E+02  0.51100000000E-03 0. -1.
    9900012    2    1    2    0    0 -0.10799315340E+02 -0.17485781899E+02 -0.38226240169E+02  0.47787271689E+02  0.20000002940E+02 0.  0.
        -12    1    1    2    0    0  0.10799315340E+02  0.17485781899E+02  0.38226240169E+02  0.43400728311E+02  0.00000000000E+00 0.  1.
         11    1    3    3    0    0 -0.74373699121E+00 -0.17716933670E+01  0.46233116046E+00  0.19763077852E+01  0.51100000000E-03 0. -1.
        -11    1    3    3    0    0 -0.98952310820E+01 -0.15350505120E+02 -0.19870541024E+02  0.26988738512E+02  0.51100000000E-03 0.  1.
        -12    1    3    3    0    0 -0.16034726721E+00 -0.36358341212E+00 -0.18818030306E+02  0.18822225393E+02  0.00000000000E+00 0.  1.
</event>
<event>
 7    1  0.2983653E-010  0.4778727E+02  0.7816164E-02  0.1312668E+00
        -11   -1    0    0    0    0  0.00000000000E+00  0.00000000000E+00  0.45593999997E+02  0.45594000000E+02  0.51100000000E-03 0.  1.
         11   -1    0    0    0    0 -0.00000000000E+00 -0.00000000000E+00 -0.45593999997E+02  0.45594000000E+02  0.51100000000E-03 0. -1.
    9900012    2    1    2    0    0 -0.18233722497E+02 -0.33237822455E+02 -0.21128218562E+02  0.47787273079E+02  0.20000009277E+02 0.  0.
        -12    1    1    2    0    0  0.18233722497E+02  0.33237822455E+02  0.21128218562E+02  0.43400726921E+02  0.00000000000E+00 0.  1.
         11    1    3    3    0    0 -0.45928622953E+00  0.13371530340E+01 -0.39568616901E+01  0.42018658680E+01  0.51100000000E-03 0. -1.
        -11    1    3    3    0    0 -0.15859309247E+02 -0.21538303954E+02 -0.97929995114E+01  0.28483663154E+02  0.51100000000E-03 0.  1.
         12    1    3    3    0    0 -0.19151270210E+01 -0.13036671535E+02 -0.73783573602E+01  0.15101744057E+02  0.00000000000E+00 0. -1.
</event>
<event>
 7    1  0.2983653E-010  0.4778727E+02  0.7816164E-02  0.1312668E+00
        -11   -1    0    0    0    0  0.00000000000E+00  0.00000000000E+00  0.45593999997E+02  0.45594000000E+02  0.51100000000E-03 0.  1.
         11   -1    0    0    0    0 -0.00000000000E+00 -0.00000000000E+00 -0.45593999997E+02  0.45594000000E+02  0.51100000000E-03 0. -1.
    9900012    2    1    2    0    0 -0.26013769537E+02  0.17535455973E+02 -0.29990252746E+02  0.47787266349E+02  0.19999978590E+02 0.  0.
        -12    1    1    2    0    0  0.26013769537E+02 -0.17535455973E+02  0.29990252746E+02  0.43400733651E+02  0.00000000000E+00 0.  1.
         11    1    3    3    0    0 -0.34852924035E+01  0.75064988867E+01 -0.41947765409E+00  0.82867816695E+01  0.51100000000E-03 0. -1.
        -11    1    3    3    0    0 -0.17486282114E+01  0.40115690466E+01 -0.68439764427E+01  0.81234475838E+01  0.51100000000E-03 0.  1.
         12    1    3    3    0    0 -0.20779848922E+02  0.60173880393E+01 -0.22726798650E+02  0.31377037095E+02  0.00000000000E+00 0. -1.
</event>
<event>
 7    1  0.2983653E-010  0.4778727E+02  0.7816164E-02  0.1312668E+00
        -11   -1    0    0    0    0  0.00000000000E+00  0.00000000000E+00  0.45593999997E+02  0.45594000000E+02  0.51100000000E-03 0.  1.
         11   -1    0    0    0    0 -0.00000000000E+00 -0.00000000000E+00 -0.45593999997E+02  0.45594000000E+02  0.51100000000E-03 0. -1.
    9900012    2    1    2    0    0  0.29118286200E+02 -0.17595269080E+02 -0.26947271858E+02  0.47787267911E+02  0.19999985714E+02 0.  0.
        -12    1    1    2    0    0 -0.29118286200E+02  0.17595269080E+02  0.26947271858E+02  0.43400732089E+02  0.00000000000E+00 0.  1.
         11    1    3    3    0    0  0.20512522304E+02 -0.11800425763E+02 -0.22757993528E+02  0.32831994901E+02  0.51100000000E-03 0. -1.
        -11    1    3    3    0    0  0.47354559296E+01  0.16743136711E+01  0.92942516384E+00  0.51080035754E+01  0.51100000000E-03 0.  1.
         12    1    3    3    0    0  0.38703079661E+01 -0.74691569878E+01 -0.51187034942E+01  0.98472694349E+01  0.00000000000E+00 0. -1.
</event>
<event>
 7    1  0.2983653E-010  0.4778727E+02  0.7816164E-02  0.1312668E+00
        -11   -1    0    0    0    0  0.00000000000E+00  0.00000000000E+00  0.45593999997E+02  0.45594000000E+02  0.51100000000E-03 0.  1.
         11   -1    0    0    0    0 -0.00000000000E+00 -0.00000000000E+00 -0.45593999997E+02  0.45594000000E+02  0.51100000000E-03 0. -1.
    9900012    2    1    2    0    0  0.13597445846E+01  0.43183183395E+02 -0.41215200802E+01  0.47787272343E+02  0.20000005919E+02 0.  0.
        -12    1    1    2    0    0 -0.13597445846E+01 -0.43183183395E+02  0.41215200802E+01  0.43400727657E+02  0.00000000000E+00 0.  1.
         11    1    3    3    0    0 -0.42422412778E+00  0.10331676099E+02 -0.63911428220E+00  0.10360114114E+02  0.51100000000E-03 0. -1.
        -11    1    3    3    0    0 -0.87998645211E-01  0.28701810331E+02 -0.91799642031E+01  0.30134256305E+02  0.51100000000E-03 0.  1.
        -12    1    3    3    0    0  0.18719673576E+01  0.41496969644E+01  0.56975584051E+01  0.72929019234E+01  0.00000000000E+00 0.  1.
</event>
<event>
 7    1  0.2983653E-010  0.4778727E+02  0.7816164E-02  0.1312668E+00
        -11   -1    0    0    0    0  0.00000000000E+00  0.00000000000E+00  0.45593999997E+02  0.45594000000E+02  0.51100000000E-03 0.  1.
         11   -1    0    0    0    0 -0.00000000000E+00 -0.00000000000E+00 -0.45593999997E+02  0.45594000000E+02  0.51100000000E-03 0. -1.
    9900012    2    1    2    0    0  0.17858603689E+02 -0.11438524077E+02 -0.37866264090E+02  0.47787268267E+02  0.19999987339E+02 0.  0.
        -12    1    1    2    0    0 -0.17858603689E+02  0.11438524077E+02  0.37866264090E+02  0.43400731733E+02  0.00000000000E+00 0.  1.
         11    1    3    3    0    0  0.86772705412E+01 -0.26068102928E+01 -0.28283668751E+02  0.29699434376E+02  0.51100000000E-03 0. -1.
        -11    1    3    3    0    0 -0.59255958965E-01  0.14869689490E+01 -0.99934343761E+00  0.17925611542E+01  0.51100000000E-03 0.  1.
         12    1    3    3    0    0  0.92405891068E+01 -0.10318682733E+02 -0.85832519011E+01  0.16295272738E+02  0.00000000000E+00 0. -1.
</event>
<event>
 7    1  0.2983653E-010  0.4778730E+02  0.7816164E-02  0.1312668E+00
        -11   -1    0    0    0    0  0.00000000000E+00  0.00000000000E+00  0.45593999997E+02  0.45594000000E+02  0.51100000000E-03 0.  1.
         11   -1    0    0    0    0 -0.00000000000E+00 -0.00000000000E+00 -0.45593999997E+02  0.45594000000E+02  0.51100000000E-03 0. -1.
    9900012    2    1    2    0    0  0.39312866986E+02  0.22569332877E+01  0.18248994111E+02  0.47787296728E+02  0.20000117099E+02 0.  0.
        -12    1    1    2    0    0 -0.39312866986E+02 -0.22569332877E+01 -0.18248994111E+02  0.43400703272E+02  0.00000000000E+00 0.  1.
         11    1    3    3    0    0  0.22138351492E+02  0.29650990958E+01  0.32954351717E+01  0.22577827899E+02  0.51100000000E-03 0. -1.
        -11    1    3    3    0    0  0.14771565091E+02 -0.46562454323E+01  0.10006676464E+02  0.18439450395E+02  0.51100000000E-03 0.  1.
         12    1    3    3    0    0  0.24029504024E+01  0.39480796242E+01  0.49468824753E+01  0.67700184328E+01  0.00000000000E+00 0. -1.
</event>
<event>
 7    1  0.2983653E-010  0.4778727E+02  0.7816164E-02  0.1312668E+00
        -11   -1    0    0    0    0  0.00000000000E+00  0.00000000000E+00  0.45593999997E+02  0.45594000000E+02  0.51100000000E-03 0.  1.
         11   -1    0    0    0    0 -0.00000000000E+00 -0.00000000000E+00 -0.45593999997E+02  0.45594000000E+02  0.51100000000E-03 0. -1.
    9900012    2    1    2    0    0  0.34203724728E+02 -0.10810508149E-01 -0.26715692614E+02  0.47787272656E+02  0.20000007349E+02 0.  0.
        -12    1    1    2    0    0 -0.34203724728E+02  0.10810508149E-01  0.26715692614E+02  0.43400727344E+02  0.00000000000E+00 0.  1.
         11    1    3    3    0    0  0.10991398863E+02 -0.35989996017E+00 -0.73144980744E+01  0.13207659114E+02  0.51100000000E-03 0. -1.
        -11    1    3    3    0    0  0.17994235788E+02  0.28798331900E+01 -0.21703863186E+02  0.28339788959E+02  0.51100000000E-03 0.  1.
        -12    1    3    3    0    0  0.52180900773E+01 -0.25307437380E+01  0.23026686470E+01  0.62398245825E+01  0.00000000000E+00 0.  1.
</event>
<event>
 7    1  0.2983653E-010  0.4778727E+02  0.7816164E-02  0.1312668E+00
        -11   -1    0    0    0    0  0.00000000000E+00  0.00000000000E+00  0.45593999997E+02  0.45594000000E+02  0.51100000000E-03 0.  1.
         11   -1    0    0    0    0 -0.00000000000E+00 -0.00000000000E+00 -0.45593999997E+02  0.45594000000E+02  0.51100000000E-03 0. -1.
    9900012    2    1    2    0    0 -0.16292759621E+02 -0.21159675031E+02 -0.34211651988E+02  0.47787274255E+02  0.20000014636E+02 0.  0.
        -12    1    1    2    0    0  0.16292759621E+02  0.21159675031E+02  0.34211651988E+02  0.43400725745E+02  0.00000000000E+00 0.  1.
         11    1    3    3    0    0  0.34943304101E+01 -0.45357566391E+01 -0.62677766492E+01  0.84893143239E+01  0.51100000000E-03 0.  1.
        -11    1    3    3    0    0 -0.15038943005E+02 -0.15133409624E+02 -0.17014473756E+02  0.27288866064E+02  0.51100000000E-03 0. -1.
         12    1    3    3    0    0 -0.47481470254E+01 -0.14905087680E+01 -0.10929401582E+02  0.12009093867E+02  0.00000000000E+00 0. -1.
</event>
<event>
 7    1  0.2983653E-010  0.4778725E+02  0.7816164E-02  0.1312668E+00
        -11   -1    0    0    0    0  0.00000000000E+00  0.00000000000E+00  0.45593999997E+02  0.45594000000E+02  0.51100000000E-03 0. -1.
         11   -1    0    0    0    0 -0.00000000000E+00 -0.00000000000E+00 -0.45593999997E+02  0.45594000000E+02  0.51100000000E-03 0.  1.
    9900012    2    1    2    0    0  0.11567652381E+02  0.39618230747E+02  0.13424231987E+02  0.47787253537E+02  0.19999920176E+02 0.  0.
        -12    1    1    2    0    0 -0.11567652381E+02 -0.39618230747E+02 -0.13424231987E+02  0.43400746463E+02  0.00000000000E+00 0.  1.
         11    1    3    3    0    0  0.81132924975E+01  0.42383387206E+01  0.16258709356E+01  0.92969073794E+01  0.51100000000E-03 0. -1.
        -11    1    3    3    0    0  0.28317024061E+00  0.31666961073E+02  0.93006116748E+01  0.33005726575E+02  0.51100000000E-03 0.  1.
        -12    1    3    3    0    0  0.31711896426E+01  0.37129309532E+01  0.24977493767E+01  0.54846195822E+01  0.00000000000E+00 0.  1.
</event>
<event>
 7    1  0.2983653E-010  0.4778726E+02  0.7816164E-02  0.1312668E+00
        -11   -1    0    0    0    0  0.00000000000E+00  0.00000000000E+00  0.45593999997E+02  0.45594000000E+02  0.51100000000E-03 0.  1.
         11   -1    0    0    0    0 -0.00000000000E+00 -0.00000000000E+00 -0.45593999997E+02  0.45594000000E+02  0.51100000000E-03 0. -1.
    9900012    2    1    2    0    0  0.28342735338E+01 -0.25735971960E+02 -0.34831751421E+02  0.47787259612E+02  0.19999947875E+02 0.  0.
        -12    1    1    2    0    0 -0.28342735338E+01  0.25735971960E+02  0.34831751421E+02  0.43400740388E+02  0.00000000000E+00 0.  1.
         11    1    3    3    0    0  0.29184866678E+01 -0.12713581192E+02 -0.51367312740E+01  0.14019226783E+02  0.51100000000E-03 0. -1.
        -11    1    3    3    0    0 -0.10747515159E+01 -0.65474024319E+01 -0.52507097414E+01  0.84612955554E+01  0.51100000000E-03 0.  1.
         12    1    3    3    0    0  0.99053838188E+00 -0.64749883365E+01 -0.24444310405E+02  0.25306737273E+02  0.00000000000E+00 0. -1.
</event>
<event>
 7    1  0.2983653E-010  0.4778726E+02  0.7816164E-02  0.1312668E+00
        -11   -1    0    0    0    0  0.00000000000E+00  0.00000000000E+00  0.45593999997E+02  0.45594000000E+02  0.51100000000E-03 0. -1.
         11   -1    0    0    0    0 -0.00000000000E+00 -0.00000000000E+00 -0.45593999997E+02  0.45594000000E+02  0.51100000000E-03 0.  1.
    9900012    2    1    2    0    0 -0.22058464172E+02  0.29772056527E+02 -0.22598071317E+02  0.47787262463E+02  0.19999960874E+02 0.  0.
        -12    1    1    2    0    0  0.22058464172E+02 -0.29772056527E+02  0.22598071317E+02  0.43400737537E+02  0.00000000000E+00 0.  1.
         11    1    3    3    0    0 -0.18631805582E+02  0.22832108621E+02 -0.17523557739E+02  0.34285921884E+02  0.51100000000E-03 0. -1.
        -11    1    3    3    0    0  0.18342637085E+01  0.41002366311E+01 -0.59542895563E+01  0.74585540264E+01  0.51100000000E-03 0.  1.
         12    1    3    3    0    0 -0.52609222983E+01  0.28397112746E+01  0.87977597758E+00  0.60427865528E+01  0.00000000000E+00 0. -1.
</event>
<event>
 7    1  0.2983653E-010  0.4778727E+02  0.7816164E-02  0.1312668E+00
        -11   -1    0    0    0    0  0.00000000000E+00  0.00000000000E+00  0.45593999997E+02  0.45594000000E+02  0.51100000000E-03 0.  1.
         11   -1    0    0    0    0 -0.00000000000E+00 -0.00000000000E+00 -0.45593999997E+02  0.45594000000E+02  0.51100000000E-03 0. -1.
    9900012    2    1    2    0    0 -0.20863665999E+02 -0.30680673041E+02 -0.22517265719E+02  0.47787268294E+02  0.19999987458E+02 0.  0.
        -12    1    1    2    0    0  0.20863665999E+02  0.30680673041E+02  0.22517265719E+02  0.43400731706E+02  0.00000000000E+00 0.  1.
         11    1    3    3    0    0 -0.21045206249E+01 -0.91082815617E+01  0.10840359556E+01  0.94108944464E+01  0.51100000000E-03 0. -1.
        -11    1    3    3    0    0 -0.13398376545E+02 -0.16846757718E+02 -0.22513385375E+02  0.31147748891E+02  0.51100000000E-03 0.  1.
        -12    1    3    3    0    0 -0.53607688291E+01 -0.47256337611E+01 -0.10879162995E+01  0.72286249563E+01  0.00000000000E+00 0.  1.
</event>
<event>
 7    1  0.2983653E-010  0.4778727E+02  0.7816164E-02  0.1312668E+00
        -11   -1    0    0    0    0  0.00000000000E+00  0.00000000000E+00  0.45593999997E+02  0.45594000000E+02  0.51100000000E-03 0. -1.
         11   -1    0    0    0    0 -0.00000000000E+00 -0.00000000000E+00 -0.45593999997E+02  0.45594000000E+02  0.51100000000E-03 0.  1.
    9900012    2    1    2    0    0 -0.32595509671E+02  0.23933530381E+02  0.15758868935E+02  0.47787273308E+02  0.20000010322E+02 0.  0.
        -12    1    1    2    0    0  0.32595509671E+02 -0.23933530381E+02 -0.15758868935E+02  0.43400726692E+02  0.00000000000E+00 0.  1.
         11    1    3    3    0    0 -0.23413430093E+02  0.24220717479E+02  0.13508593938E+02  0.36294820214E+02  0.51100000000E-03 0. -1.
        -11    1    3    3    0    0 -0.83324525590E+01 -0.16511097073E+00  0.42216311681E+01  0.93423336090E+01  0.51100000000E-03 0.  1.
         12    1    3    3    0    0 -0.84962701910E+00 -0.12207612673E+00 -0.19713561703E+01  0.21501194856E+01  0.00000000000E+00 0. -1.
</event>
<event>
 7    1  0.2983653E-010  0.4778727E+02  0.7816164E-02  0.1312668E+00
        -11   -1    0    0    0    0  0.00000000000E+00  0.00000000000E+00  0.45593999997E+02  0.45594000000E+02  0.51100000000E-03 0. -1.
         11   -1    0    0    0    0 -0.00000000000E+00 -0.00000000000E+00 -0.45593999997E+02  0.45594000000E+02  0.51100000000E-03 0.  1.
    9900012    2    1    2    0    0  0.21037866868E+02 -0.37883090803E+02 -0.24296107441E+01  0.47787269366E+02  0.19999992349E+02 0.  0.
        -12    1    1    2    0    0 -0.21037866868E+02  0.37883090803E+02  0.24296107441E+01  0.43400730634E+02  0.00000000000E+00 0.  1.
         11    1    3    3    0    0  0.16054983080E+02 -0.22377463222E+02 -0.94719482582E+01  0.29124408080E+02  0.51100000000E-03 0. -1.
        -11    1    3    3    0    0 -0.10034069342E+00 -0.91171356502E+01  0.38345302613E+01  0.98912008020E+01  0.51100000000E-03 0.  1.
         12    1    3    3    0    0  0.50832244820E+01 -0.63884919312E+01  0.32078072528E+01  0.87716604848E+01  0.00000000000E+00 0. -1.
</event>
<event>
 7    1  0.2983653E-010  0.4778727E+02  0.7816164E-02  0.1312668E+00
        -11   -1    0    0    0    0  0.00000000000E+00  0.00000000000E+00  0.45593999997E+02  0.45594000000E+02  0.51100000000E-03 0.  1.
         11   -1    0    0    0    0 -0.00000000000E+00 -0.00000000000E+00 -0.45593999997E+02  0.45594000000E+02  0.51100000000E-03 0. -1.
    9900012    2    1    2    0    0 -0.34922365758E+01 -0.43259994556E+02 -0.16135136662E-01  0.47787272983E+02  0.20000008837E+02 0.  0.
        -12    1    1    2    0    0  0.34922365758E+01  0.43259994556E+02  0.16135136662E-01  0.43400727017E+02  0.00000000000E+00 0.  1.
         11    1    3    3    0    0 -0.88392490634E+01 -0.26808003372E+02  0.47259386473E+01  0.28620549700E+02  0.51100000000E-03 0. -1.
        -11    1    3    3    0    0  0.17868458561E+01 -0.10636122478E+02 -0.58322225056E+01  0.12261106764E+02  0.51100000000E-03 0.  1.
         12    1    3    3    0    0  0.35601666314E+01 -0.58158687065E+01  0.10901487216E+01  0.69056165177E+01  0.00000000000E+00 0. -1.
</event>
<event>
 7    1  0.2983653E-010  0.4778727E+02  0.7816164E-02  0.1312668E+00
        -11   -1    0    0    0    0  0.00000000000E+00  0.00000000000E+00  0.45593999997E+02  0.45594000000E+02  0.51100000000E-03 0.  1.
         11   -1    0    0    0    0 -0.00000000000E+00 -0.00000000000E+00 -0.45593999997E+02  0.45594000000E+02  0.51100000000E-03 0. -1.
    9900012    2    1    2    0    0 -0.33383675489E+02 -0.20768934668E+02 -0.18379465142E+02  0.47787272180E+02  0.20000005177E+02 0.  0.
        -12    1    1    2    0    0  0.33383675489E+02  0.20768934668E+02  0.18379465142E+02  0.43400727820E+02  0.00000000000E+00 0.  1.
         11    1    3    3    0    0 -0.91817471874E+01 -0.14836790519E+02 -0.13425617115E+02  0.22015495214E+02  0.51100000000E-03 0. -1.
        -11    1    3    3    0    0 -0.19476506230E+02 -0.64300740628E+01 -0.35350984882E+01  0.20812906307E+02  0.51100000000E-03 0.  1.
         12    1    3    3    0    0 -0.47254220722E+01  0.49792991391E+00 -0.14187495389E+01  0.49588706591E+01  0.00000000000E+00 0. -1.
</event>
<event>
 7    1  0.2983653E-010  0.4778727E+02  0.7816164E-02  0.1312668E+00
        -11   -1    0    0    0    0  0.00000000000E+00  0.00000000000E+00  0.45593999997E+02  0.45594000000E+02  0.51100000000E-03 0. -1.
         11   -1    0    0    0    0 -0.00000000000E+00 -0.00000000000E+00 -0.45593999997E+02  0.45594000000E+02  0.51100000000E-03 0.  1.
    9900012    2    1    2    0    0  0.52187938154E-01 -0.14628558168E+02  0.40861053707E+02  0.47787272498E+02  0.20000006628E+02 0.  0.
        -12    1    1    2    0    0 -0.52187938154E-01  0.14628558168E+02 -0.40861053707E+02  0.43400727502E+02  0.00000000000E+00 0.  1.
         11    1    3    3    0    0 -0.69963350496E+01 -0.44492372712E+01  0.18684042708E+02  0.20441082863E+02  0.51100000000E-03 0. -1.
        -11    1    3    3    0    0  0.66587710104E+01 -0.57683058804E+01  0.62152216430E+01  0.10781538129E+02  0.51100000000E-03 0.  1.
        -12    1    3    3    0    0  0.38975197734E+00 -0.44110150162E+01  0.15961789356E+02  0.16564651506E+02  0.00000000000E+00 0.  1.
</event>
<event>
 7    1  0.2983653E-010  0.4778727E+02  0.7816164E-02  0.1312668E+00
        -11   -1    0    0    0    0  0.00000000000E+00  0.00000000000E+00  0.45593999997E+02  0.45594000000E+02  0.51100000000E-03 0. -1.
         11   -1    0    0    0    0 -0.00000000000E+00 -0.00000000000E+00 -0.45593999997E+02  0.45594000000E+02  0.51100000000E-03 0.  1.
    9900012    2    1    2    0    0 -0.24958840687E+01 -0.17026087085E+01  0.43295438518E+02  0.47787270626E+02  0.19999998094E+02 0.  0.
        -12    1    1    2    0    0  0.24958840687E+01  0.17026087085E+01 -0.43295438518E+02  0.43400729374E+02  0.00000000000E+00 0.  1.
         11    1    3    3    0    0  0.22313358516E+01 -0.38228847126E+01  0.31465457854E+01  0.54308431987E+01  0.51100000000E-03 0.  1.
        -11    1    3    3    0    0 -0.80373516376E-01  0.10277505326E+01  0.36049465239E+02  0.36064202131E+02  0.51100000000E-03 0. -1.
        -12    1    3    3    0    0 -0.46468464039E+01  0.10925254715E+01  0.40994274934E+01  0.62922252965E+01  0.00000000000E+00 0.  1.
</event>
<event>
 7    1  0.3563861E-010  0.4778727E+02  0.7816164E-02  0.1312668E+00
        -11   -1    0    0    0    0  0.00000000000E+00  0.00000000000E+00  0.45593999997E+02  0.45594000000E+02  0.51100000000E-03 0.  1.
         11   -1    0    0    0    0 -0.00000000000E+00 -0.00000000000E+00 -0.45593999997E+02  0.45594000000E+02  0.51100000000E-03 0. -1.
    9900012    2    1    2    0    0  0.45919903477E+00 -0.43244128214E+02  0.36548005289E+01  0.47787273558E+02  0.20000011461E+02 0.  0.
        -12    1    1    2    0    0 -0.45919903477E+00  0.43244128214E+02 -0.36548005289E+01  0.43400726442E+02  0.00000000000E+00 0.  1.
         11    1    3    3    0    0 -0.48669373900E+01 -0.23370286783E+02  0.56973368293E+01  0.24542148054E+02  0.51100000000E-03 0. -1.
        -11    1    3    3    0    0  0.17723218957E+01 -0.39729511962E-01 -0.25299765380E+01  0.30892531266E+01  0.51100000000E-03 0.  1.
        -12    1    3    3    0    0  0.35538145291E+01 -0.19834111919E+02  0.48744023759E+00  0.20155872378E+02  0.00000000000E+00 0.  1.
</event>
<event>
 7    1  0.2983653E-010  0.4778728E+02  0.7816164E-02  0.1312668E+00
        -11   -1    0    0    0    0  0.00000000000E+00  0.00000000000E+00  0.45593999997E+02  0.45594000000E+02  0.51100000000E-03 0.  1.
         11   -1    0    0    0    0 -0.00000000000E+00 -0.00000000000E+00 -0.45593999997E+02  0.45594000000E+02  0.51100000000E-03 0. -1.
    9900012    2    1    2    0    0 -0.13588719729E+02 -0.12378613454E+02 -0.39315891880E+02  0.47787277319E+02  0.20000028608E+02 0.  0.
        -12    1    1    2    0    0  0.13588719729E+02  0.12378613454E+02  0.39315891880E+02  0.43400722681E+02  0.00000000000E+00 0.  1.
         11    1    3    3    0    0 -0.12898684548E+02 -0.56197019269E+00 -0.26101598351E+02  0.29120187333E+02  0.51100000000E-03 0. -1.
        -11    1    3    3    0    0 -0.19981843780E+01 -0.11407511823E+02 -0.10527818248E+02  0.15651166861E+02  0.51100000000E-03 0.  1.
         12    1    3    3    0    0  0.13081491974E+01 -0.40913143828E+00 -0.26864752811E+01  0.30159231244E+01  0.00000000000E+00 0. -1.
</event>
<event>
 7    1  0.2983653E-010  0.4778727E+02  0.7816164E-02  0.1312668E+00
        -11   -1    0    0    0    0  0.00000000000E+00  0.00000000000E+00  0.45593999997E+02  0.45594000000E+02  0.51100000000E-03 0.  1.
         11   -1    0    0    0    0 -0.00000000000E+00 -0.00000000000E+00 -0.45593999997E+02  0.45594000000E+02  0.51100000000E-03 0. -1.
    9900012    2    1    2    0    0 -0.53950777597E+01  0.31052549846E+02 -0.29837146390E+02  0.47787273962E+02  0.20000013300E+02 0.  0.
        -12    1    1    2    0    0  0.53950777597E+01 -0.31052549846E+02  0.29837146390E+02  0.43400726038E+02  0.00000000000E+00 0.  1.
         11    1    3    3    0    0  0.22531840074E+01  0.12926472522E+02 -0.41232065870E+01  0.13753958079E+02  0.51100000000E-03 0. -1.
        -11    1    3    3    0    0 -0.35124304586E+01  0.53629475653E+00 -0.78857495346E+01  0.86492673548E+01  0.51100000000E-03 0.  1.
         12    1    3    3    0    0 -0.41358313085E+01  0.17589782567E+02 -0.17828190269E+02  0.25384048527E+02  0.00000000000E+00 0. -1.
</event>
<event>
 7    1  0.2983653E-010  0.4778727E+02  0.7816164E-02  0.1312668E+00
        -11   -1    0    0    0    0  0.00000000000E+00  0.00000000000E+00  0.45593999997E+02  0.45594000000E+02  0.51100000000E-03 0.  1.
         11   -1    0    0    0    0 -0.00000000000E+00 -0.00000000000E+00 -0.45593999997E+02  0.45594000000E+02  0.51100000000E-03 0. -1.
    9900012    2    1    2    0    0  0.23237648921E+02  0.74782515895E+00 -0.36648001173E+02  0.47787267751E+02  0.19999984982E+02 0.  0.
        -12    1    1    2    0    0 -0.23237648921E+02 -0.74782515895E+00  0.36648001173E+02  0.43400732249E+02  0.00000000000E+00 0.  1.
         11    1    3    3    0    0  0.24211865409E+00 -0.28909391956E+01  0.72834873122E+00  0.29910939488E+01  0.51100000000E-03 0. -1.
        -11    1    3    3    0    0  0.21005586765E+01  0.30536097541E+01 -0.44018631589E+01  0.57544138550E+01  0.51100000000E-03 0.  1.
         12    1    3    3    0    0  0.20894971590E+02  0.58515460045E+00 -0.32974486745E+02  0.39041759947E+02  0.00000000000E+00 0. -1.
</event>
<event>
 7    1  0.2983653E-010  0.4778727E+02  0.7816164E-02  0.1312668E+00
        -11   -1    0    0    0    0  0.00000000000E+00  0.00000000000E+00  0.45593999997E+02  0.45594000000E+02  0.51100000000E-03 0.  1.
         11   -1    0    0    0    0 -0.00000000000E+00 -0.00000000000E+00 -0.45593999997E+02  0.45594000000E+02  0.51100000000E-03 0. -1.
    9900012    2    1    2    0    0 -0.23932113862E+01 -0.36602045317E+01 -0.43179840057E+02  0.47787272526E+02  0.20000006754E+02 0.  0.
        -12    1    1    2    0    0  0.23932113862E+01  0.36602045317E+01  0.43179840057E+02  0.43400727474E+02  0.00000000000E+00 0.  1.
         11    1    3    3    0    0  0.30025877667E+01 -0.63259155389E+01 -0.20645914725E+02  0.21801067309E+02  0.51100000000E-03 0. -1.
        -11    1    3    3    0    0 -0.77465558864E+00  0.63591196080E+01 -0.15645352261E+02  0.16906080004E+02  0.51100000000E-03 0.  1.
        -12    1    3    3    0    0 -0.46211435642E+01 -0.36934086009E+01 -0.68885730705E+01  0.90801252129E+01  0.00000000000E+00 0.  1.
</event>
<event>
 7    1  0.2983653E-010  0.4778727E+02  0.7816164E-02  0.1312668E+00
        -11   -1    0    0    0    0  0.00000000000E+00  0.00000000000E+00  0.45593999997E+02  0.45594000000E+02  0.51100000000E-03 0.  1.
         11   -1    0    0    0    0 -0.00000000000E+00 -0.00000000000E+00 -0.45593999997E+02  0.45594000000E+02  0.51100000000E-03 0. -1.
    9900012    2    1    2    0    0 -0.26419511967E+02  0.30330449420E+02 -0.16300201268E+02  0.47787270329E+02  0.19999996738E+02 0.  0.
        -12    1    1    2    0    0  0.26419511967E+02 -0.30330449420E+02  0.16300201268E+02  0.43400729671E+02  0.00000000000E+00 0.  1.
         11    1    3    3    0    0 -0.13624066093E+02  0.18857071280E+02  0.47149273800E+00  0.23268575801E+02  0.51100000000E-03 0. -1.
        -11    1    3    3    0    0 -0.62734857369E+00 -0.91218816458E-01  0.18260208671E+00  0.65972031088E+00  0.51100000000E-03 0.  1.
         12    1    3    3    0    0 -0.12168097300E+02  0.11564596957E+02 -0.16954296092E+02  0.23858974217E+02  0.00000000000E+00 0. -1.
</event>
<event>
 7    1  0.2983653E-010  0.4778727E+02  0.7816164E-02  0.1312668E+00
        -11   -1    0    0    0    0  0.00000000000E+00  0.00000000000E+00  0.45593999997E+02  0.45594000000E+02  0.51100000000E-03 0.  1.
         11   -1    0    0    0    0 -0.00000000000E+00 -0.00000000000E+00 -0.45593999997E+02  0.45594000000E+02  0.51100000000E-03 0. -1.
    9900012    2    1    2    0    0 -0.41420104164E+02 -0.10682691652E+02  0.73401907641E+01  0.47787270394E+02  0.19999997033E+02 0.  0.
        -12    1    1    2    0    0  0.41420104164E+02  0.10682691652E+02 -0.73401907641E+01  0.43400729606E+02  0.00000000000E+00 0.  1.
         11    1    3    3    0    0 -0.87527306853E+01  0.37802747518E+00  0.86956220281E+01  0.12343704547E+02  0.51100000000E-03 0. -1.
        -11    1    3    3    0    0 -0.85532474640E+01 -0.38734003731E+01 -0.38701914262E+01  0.10155769521E+02  0.51100000000E-03 0.  1.
         12    1    3    3    0    0 -0.24114126015E+02 -0.71873187546E+01  0.25147601622E+01  0.25287796326E+02  0.00000000000E+00 0. -1.
</event>
<event>
 7    1  0.2983653E-010  0.4778728E+02  0.7816164E-02  0.1312668E+00
        -11   -1    0    0    0    0  0.00000000000E+00  0.00000000000E+00  0.45593999997E+02  0.45594000000E+02  0.51100000000E-03 0. -1.
         11   -1    0    0    0    0 -0.00000000000E+00 -0.00000000000E+00 -0.45593999997E+02  0.45594000000E+02  0.51100000000E-03 0.  1.
    9900012    2    1    2    0    0 -0.28746068578E+02  0.12266480494E+02  0.30113450440E+02  0.47787275354E+02  0.20000019649E+02 0.  0.
        -12    1    1    2    0    0  0.28746068578E+02 -0.12266480494E+02 -0.30113450440E+02  0.43400724646E+02  0.00000000000E+00 0.  1.
         11    1    3    3    0    0 -0.80692029741E+01  0.54110438453E+01  0.82727810908E+01  0.12760499182E+02  0.51100000000E-03 0. -1.
        -11    1    3    3    0    0 -0.17972158542E+02  0.13908265120E+00  0.21147605565E+02  0.27753180863E+02  0.51100000000E-03 0.  1.
        -12    1    3    3    0    0 -0.27047070621E+01  0.67163539971E+01  0.69306378398E+00  0.72735953087E+01  0.00000000000E+00 0.  1.
</event>
<event>
 7    1  0.2983653E-010  0.4778727E+02  0.7816164E-02  0.1312668E+00
        -11   -1    0    0    0    0  0.00000000000E+00  0.00000000000E+00  0.45593999997E+02  0.45594000000E+02  0.51100000000E-03 0. -1.
         11   -1    0    0    0    0 -0.00000000000E+00 -0.00000000000E+00 -0.45593999997E+02  0.45594000000E+02  0.51100000000E-03 0.  1.
    9900012    2    1    2    0    0 -0.18611985244E+02 -0.35513243611E+02  0.16614048130E+02  0.47787273488E+02  0.20000011143E+02 0.  0.
        -12    1    1    2    0    0  0.18611985244E+02  0.35513243611E+02 -0.16614048130E+02  0.43400726512E+02  0.00000000000E+00 0.  1.
         11    1    3    3    0    0 -0.16922228326E+02 -0.18284163421E+02  0.77139173734E+01  0.26080202549E+02  0.51100000000E-03 0. -1.
        -11    1    3    3    0    0 -0.15494763210E+01 -0.18477298303E+02  0.83028818060E+01  0.20316231836E+02  0.51100000000E-03 0.  1.
        -12    1    3    3    0    0 -0.14028059660E+00  0.12482181129E+01  0.59724895026E+00  0.13908391034E+01  0.00000000000E+00 0.  1.
</event>
<event>
 7    1  0.2983653E-010  0.4778728E+02  0.7816164E-02  0.1312668E+00
        -11   -1    0    0    0    0  0.00000000000E+00  0.00000000000E+00  0.45593999997E+02  0.45594000000E+02  0.51100000000E-03 0.  1.
         11   -1    0    0    0    0 -0.00000000000E+00 -0.00000000000E+00 -0.45593999997E+02  0.45594000000E+02  0.51100000000E-03 0. -1.
    9900012    2    1    2    0    0  0.30127916904E+02 -0.31134155100E+02  0.25681737541E+01  0.47787279877E+02  0.20000040271E+02 0.  0.
        -12    1    1    2    0    0 -0.30127916904E+02  0.31134155100E+02 -0.25681737541E+01  0.43400720123E+02  0.00000000000E+00 0.  1.
         11    1    3    3    0    0  0.62338076164E+01 -0.62854087342E+01 -0.72600317251E+01  0.11448789511E+02  0.51100000000E-03 0. -1.
        -11    1    3    3    0    0  0.15491103427E+02 -0.15774861728E+02  0.92250210721E+01  0.23956660075E+02  0.51100000000E-03 0.  1.
         12    1    3    3    0    0  0.84030058606E+01 -0.90738846384E+01  0.60318440717E+00  0.12381830291E+02  0.00000000000E+00 0. -1.
</event>
<event>
 7    1  0.2983653E-010  0.4778727E+02  0.7816164E-02  0.1312668E+00
        -11   -1    0    0    0    0  0.00000000000E+00  0.00000000000E+00  0.45593999997E+02  0.45594000000E+02  0.51100000000E-03 0.  1.
         11   -1    0    0    0    0 -0.00000000000E+00 -0.00000000000E+00 -0.45593999997E+02  0.45594000000E+02  0.51100000000E-03 0. -1.
    9900012    2    1    2    0    0 -0.34806018644E+02 -0.20434649881E+02 -0.15955860831E+02  0.47787270231E+02  0.19999996293E+02 0.  0.
        -12    1    1    2    0    0  0.34806018644E+02  0.20434649881E+02  0.15955860831E+02  0.43400729769E+02  0.00000000000E+00 0.  1.
         11    1    3    3    0    0 -0.10126867805E+02 -0.11127156401E+02 -0.13768110825E+02  0.20394311390E+02  0.51100000000E-03 0. -1.
        -11    1    3    3    0    0 -0.16124171529E+02 -0.77576475972E+01  0.14849835601E+01  0.17954809388E+02  0.51100000000E-03 0.  1.
        -12    1    3    3    0    0 -0.85549793098E+01 -0.15498458819E+01 -0.36727335657E+01  0.94381494528E+01  0.00000000000E+00 0.  1.
</event>
<event>
 7    1  0.2983653E-010  0.4778727E+02  0.7816164E-02  0.1312668E+00
        -11   -1    0    0    0    0  0.00000000000E+00  0.00000000000E+00  0.45593999997E+02  0.45594000000E+02  0.51100000000E-03 0.  1.
         11   -1    0    0    0    0 -0.00000000000E+00 -0.00000000000E+00 -0.45593999997E+02  0.45594000000E+02  0.51100000000E-03 0. -1.
    9900012    2    1    2    0    0 -0.71232835378E+01 -0.42696778111E+02  0.31412109534E+01  0.47787271484E+02  0.20000002006E+02 0.  0.
        -12    1    1    2    0    0  0.71232835378E+01  0.42696778111E+02 -0.31412109534E+01  0.43400728516E+02  0.00000000000E+00 0.  1.
         11    1    3    3    0    0 -0.11172284114E+02 -0.17772456396E+02  0.45682297028E+01  0.21483688266E+02  0.51100000000E-03 0. -1.
        -11    1    3    3    0    0  0.23696221636E+01 -0.19476086391E+01  0.76582706467E+00  0.31614521922E+01  0.51100000000E-03 0.  1.
         12    1    3    3    0    0  0.16793784122E+01 -0.22976713076E+02 -0.21928458141E+01  0.23142131026E+02  0.00000000000E+00 0. -1.
</event>
<event>
 7    1  0.2983653E-010  0.4778725E+02  0.7816164E-02  0.1312668E+00
        -11   -1    0    0    0    0  0.00000000000E+00  0.00000000000E+00  0.45593999997E+02  0.45594000000E+02  0.51100000000E-03 0.  1.
         11   -1    0    0    0    0 -0.00000000000E+00 -0.00000000000E+00 -0.45593999997E+02  0.45594000000E+02  0.51100000000E-03 0. -1.
    9900012    2    1    2    0    0 -0.40355850644E+02  0.15892049281E+02 -0.15725117237E+01  0.47787254561E+02  0.19999924845E+02 0.  0.
        -12    1    1    2    0    0  0.40355850644E+02 -0.15892049281E+02  0.15725117237E+01  0.43400745439E+02  0.00000000000E+00 0.  1.
         11    1    3    3    0    0 -0.52686872229E+01  0.53342554867E+01 -0.24111239890E+01  0.78757136694E+01  0.51100000000E-03 0. -1.
        -11    1    3    3    0    0 -0.26901165093E+02  0.13560103824E+02 -0.32140590447E+01  0.30296522488E+02  0.51100000000E-03 0.  1.
        -12    1    3    3    0    0 -0.81859983280E+01 -0.30023100302E+01  0.40526713100E+01  0.96150184030E+01  0.00000000000E+00 0.  1.
</event>
<event>
 7    1  0.2983653E-010  0.4778725E+02  0.7816164E-02  0.1312668E+00
        -11   -1    0    0    0    0  0.00000000000E+00  0.00000000000E+00  0.45593999997E+02  0.45594000000E+02  0.51100000000E-03 0. -1.
         11   -1    0    0    0    0 -0.00000000000E+00 -0.00000000000E+00 -0.45593999997E+02  0.45594000000E+02  0.51100000000E-03 0.  1.
    9900012    2    1    2    0    0 -0.25803777055E+02  0.34498206220E+02 -0.52596462916E+01  0.47787250907E+02  0.19999908185E+02 0.  0.
        -12    1    1    2    0    0  0.25803777055E+02 -0.34498206220E+02  0.52596462916E+01  0.43400749093E+02  0.00000000000E+00 0.  1.
         11    1    3    3    0    0 -0.21587955978E+02  0.15037921222E+02 -0.45961467725E+01  0.26707742012E+02  0.51100000000E-03 0. -1.
        -11    1    3    3    0    0 -0.66963927464E-01  0.14774569844E+02  0.96392452978E-01  0.14775036041E+02  0.51100000000E-03 0.  1.
        -12    1    3    3    0    0 -0.41488571500E+01  0.46857151535E+01 -0.75989197210E+00  0.63044728535E+01  0.00000000000E+00 0.  1.
</event>
<event>
 7    1  0.2983653E-010  0.4778727E+02  0.7816164E-02  0.1312668E+00
        -11   -1    0    0    0    0  0.00000000000E+00  0.00000000000E+00  0.45593999997E+02  0.45594000000E+02  0.51100000000E-03 0. -1.
         11   -1    0    0    0    0 -0.00000000000E+00 -0.00000000000E+00 -0.45593999997E+02  0.45594000000E+02  0.51100000000E-03 0.  1.
    9900012    2    1    2    0    0 -0.27565736336E+02  0.12558524495E+02 -0.31081134610E+02  0.47787270906E+02  0.19999999370E+02 0.  0.
        -12    1    1    2    0    0  0.27565736336E+02 -0.12558524495E+02  0.31081134610E+02  0.43400729094E+02  0.00000000000E+00 0.  1.
         11    1    3    3    0    0 -0.50026225820E+01 -0.29143357408E+00 -0.54584104202E+01  0.74098185405E+01  0.51100000000E-03 0. -1.
        -11    1    3    3    0    0 -0.10646117485E+00 -0.34400293258E+01 -0.23716184233E+01  0.41796782114E+01  0.51100000000E-03 0.  1.
        -12    1    3    3    0    0 -0.22456652579E+02  0.16289987395E+02 -0.23251105766E+02  0.36197774154E+02  0.00000000000E+00 0.  1.
</event>
<event>
 7    1  0.2983653E-010  0.4778727E+02  0.7816164E-02  0.1312668E+00
        -11   -1    0    0    0    0  0.00000000000E+00  0.00000000000E+00  0.45593999997E+02  0.45594000000E+02  0.51100000000E-03 0.  1.
         11   -1    0    0    0    0 -0.00000000000E+00 -0.00000000000E+00 -0.45593999997E+02  0.45594000000E+02  0.51100000000E-03 0. -1.
    9900012    2    1    2    0    0  0.94673263623E+01 -0.39077777629E+02 -0.16337689070E+02  0.47787273543E+02  0.20000011390E+02 0.  0.
        -12    1    1    2    0    0 -0.94673263623E+01  0.39077777629E+02  0.16337689070E+02  0.43400726457E+02  0.00000000000E+00 0.  1.
         11    1    3    3    0    0  0.53362792091E+01 -0.10758458503E+02 -0.39344620846E+01  0.12637258299E+02  0.51100000000E-03 0. -1.
        -11    1    3    3    0    0  0.74352012872E+00 -0.26635264527E+02 -0.14984719446E+02  0.30570115402E+02  0.51100000000E-03 0.  1.
        -12    1    3    3    0    0  0.33875270244E+01 -0.16840545995E+01  0.25814924602E+01  0.45798998415E+01  0.00000000000E+00 0.  1.
</event>
<event>
 7    1  0.2983653E-010  0.4778727E+02  0.7816164E-02  0.1312668E+00
        -11   -1    0    0    0    0  0.00000000000E+00  0.00000000000E+00  0.45593999997E+02  0.45594000000E+02  0.51100000000E-03 0.  1.
         11   -1    0    0    0    0 -0.00000000000E+00 -0.00000000000E+00 -0.45593999997E+02  0.45594000000E+02  0.51100000000E-03 0. -1.
    9900012    2    1    2    0    0  0.30934149341E+02 -0.26527716952E+02 -0.14932578124E+02  0.47787271301E+02  0.20000001171E+02 0.  0.
        -12    1    1    2    0    0 -0.30934149341E+02  0.26527716952E+02  0.14932578124E+02  0.43400728699E+02  0.00000000000E+00 0.  1.
         11    1    3    3    0    0  0.19290779207E+02 -0.21361062426E+02 -0.13011461145E+02  0.31586821172E+02  0.51100000000E-03 0. -1.
        -11    1    3    3    0    0  0.11315090626E+02 -0.25473631721E+01  0.16969125947E+01  0.11721768110E+02  0.51100000000E-03 0.  1.
         12    1    3    3    0    0  0.32827950803E+00 -0.26192913546E+01 -0.36180295733E+01  0.44786820192E+01  0.00000000000E+00 0. -1.
</event>
<event>
 7    1  0.2983653E-010  0.4778727E+02  0.7816164E-02  0.1312668E+00
        -11   -1    0    0    0    0  0.00000000000E+00  0.00000000000E+00  0.45593999997E+02  0.45594000000E+02  0.51100000000E-03 0.  1.
         11   -1    0    0    0    0 -0.00000000000E+00 -0.00000000000E+00 -0.45593999997E+02  0.45594000000E+02  0.51100000000E-03 0. -1.
    9900012    2    1    2    0    0 -0.24982193200E+02 -0.21452304481E+01 -0.35424723399E+02  0.47787273985E+02  0.20000013407E+02 0.  0.
        -12    1    1    2    0    0  0.24982193200E+02  0.21452304481E+01  0.35424723399E+02  0.43400726015E+02  0.00000000000E+00 0.  1.
         11    1    3    3    0    0 -0.23934778976E+02 -0.48698832096E+01 -0.24637694734E+02  0.34693016721E+02  0.51100000000E-03 0. -1.
        -11    1    3    3    0    0 -0.42301095165E+00  0.44869059622E+01 -0.10172676907E+02  0.11126303029E+02  0.51100000000E-03 0.  1.
         12    1    3    3    0    0 -0.62440327176E+00 -0.17622532006E+01 -0.61435175736E+00  0.19679542349E+01  0.00000000000E+00 0. -1.
</event>
<event>
 7    1  0.2983653E-010  0.4778732E+02  0.7816164E-02  0.1312668E+00
        -11   -1    0    0    0    0  0.00000000000E+00  0.00000000000E+00  0.45593999997E+02  0.45594000000E+02  0.51100000000E-03 0.  1.
         11   -1    0    0    0    0 -0.00000000000E+00 -0.00000000000E+00 -0.45593999997E+02  0.45594000000E+02  0.51100000000E-03 0. -1.
    9900012    2    1    2    0    0  0.20611686977E+02 -0.45214473427E+01 -0.37925373860E+02  0.47787319032E+02  0.20000218792E+02 0.  0.
        -12    1    1    2    0    0 -0.20611686977E+02  0.45214473427E+01  0.37925373860E+02  0.43400680968E+02  0.00000000000E+00 0.  1.
         11    1    3    3    0    0  0.63289780376E+01 -0.48527185690E+01 -0.28634120771E+02  0.29724025856E+02  0.51100000000E-03 0. -1.
        -11    1    3    3    0    0  0.14540058617E+02  0.11266686308E+01 -0.91473238686E+01  0.17214999884E+02  0.51100000000E-03 0.  1.
        -12    1    3    3    0    0 -0.25734967784E+00 -0.79539740448E+00 -0.14392922046E+00  0.84829329141E+00  0.00000000000E+00 0.  1.
</event>
<event>
 7    1  0.2983653E-010  0.4778727E+02  0.7816164E-02  0.1312668E+00
        -11   -1    0    0    0    0  0.00000000000E+00  0.00000000000E+00  0.45593999997E+02  0.45594000000E+02  0.51100000000E-03 0.  1.
         11   -1    0    0    0    0 -0.00000000000E+00 -0.00000000000E+00 -0.45593999997E+02  0.45594000000E+02  0.51100000000E-03 0. -1.
    9900012    2    1    2    0    0  0.69807694738E+01 -0.42835555709E+02 -0.84395412920E-01  0.47787273071E+02  0.20000009241E+02 0.  0.
        -12    1    1    2    0    0 -0.69807694738E+01  0.42835555709E+02  0.84395412920E-01  0.43400726929E+02  0.00000000000E+00 0.  1.
         11    1    3    3    0    0  0.14921210286E+01 -0.58516509138E+01 -0.46915429060E+01  0.76471444789E+01  0.51100000000E-03 0. -1.
        -11    1    3    3    0    0  0.71401007192E+01 -0.35624480408E+02  0.14949122769E+01  0.36363710009E+02  0.51100000000E-03 0.  1.
        -12    1    3    3    0    0 -0.16514522741E+01 -0.13594243875E+01  0.31122352162E+01  0.37764185838E+01  0.00000000000E+00 0.  1.
</event>
<event>
 7    1  0.2983653E-010  0.4778727E+02  0.7816164E-02  0.1312668E+00
        -11   -1    0    0    0    0  0.00000000000E+00  0.00000000000E+00  0.45593999997E+02  0.45594000000E+02  0.51100000000E-03 0.  1.
         11   -1    0    0    0    0 -0.00000000000E+00 -0.00000000000E+00 -0.45593999997E+02  0.45594000000E+02  0.51100000000E-03 0. -1.
    9900012    2    1    2    0    0 -0.29881343911E+02 -0.92595053731E+01 -0.30083058075E+02  0.47787268015E+02  0.19999986187E+02 0.  0.
        -12    1    1    2    0    0  0.29881343911E+02  0.92595053731E+01  0.30083058075E+02  0.43400731985E+02  0.00000000000E+00 0.  1.
         11    1    3    3    0    0 -0.70823243031E+01 -0.33369014775E+01 -0.71674301037E-01  0.78293911942E+01  0.51100000000E-03 0. -1.
        -11    1    3    3    0    0 -0.13147016704E+02 -0.28145485093E+00 -0.23741664499E+02  0.27140189729E+02  0.51100000000E-03 0.  1.
        -12    1    3    3    0    0 -0.96520029037E+01 -0.56411490447E+01 -0.62697192748E+01  0.12817687092E+02  0.00000000000E+00 0.  1.
</event>
<event>
 7    1  0.2983653E-010  0.4778727E+02  0.7816164E-02  0.1312668E+00
        -11   -1    0    0    0    0  0.00000000000E+00  0.00000000000E+00  0.45593999997E+02  0.45594000000E+02  0.51100000000E-03 0.  1.
         11   -1    0    0    0    0 -0.00000000000E+00 -0.00000000000E+00 -0.45593999997E+02  0.45594000000E+02  0.51100000000E-03 0. -1.
    9900012    2    1    2    0    0 -0.43267971619E+02 -0.26877341452E+01  0.20693373849E+01  0.47787269129E+02  0.19999991268E+02 0.  0.
        -12    1    1    2    0    0  0.43267971619E+02  0.26877341452E+01 -0.20693373849E+01  0.43400730871E+02  0.00000000000E+00 0.  1.
         11    1    3    3    0    0 -0.19055618548E+02  0.30389318346E+01  0.48233366524E+01  0.19890105120E+02  0.51100000000E-03 0. -1.
        -11    1    3    3    0    0 -0.52499470511E+01 -0.11290584724E+00 -0.58713818405E+01  0.78770436553E+01  0.51100000000E-03 0.  1.
        -12    1    3    3    0    0 -0.18962406020E+02 -0.56137601326E+01  0.31173825730E+01  0.20020120354E+02  0.00000000000E+00 0.  1.
</event>
<event>
 7    1  0.2983653E-010  0.4778727E+02  0.7816164E-02  0.1312668E+00
        -11   -1    0    0    0    0  0.00000000000E+00  0.00000000000E+00  0.45593999997E+02  0.45594000000E+02  0.51100000000E-03 0.  1.
         11   -1    0    0    0    0 -0.00000000000E+00 -0.00000000000E+00 -0.45593999997E+02  0.45594000000E+02  0.51100000000E-03 0. -1.
    9900012    2    1    2    0    0 -0.50554888206E+01 -0.12177629831E+02 -0.41349369339E+02  0.47787274427E+02  0.20000015422E+02 0.  0.
        -12    1    1    2    0    0  0.50554888206E+01  0.12177629831E+02  0.41349369339E+02  0.43400725573E+02  0.00000000000E+00 0.  1.
         11    1    3    3    0    0 -0.34731915433E+01 -0.78834437288E+01 -0.10132698452E+02  0.13299748972E+02  0.51100000000E-03 0. -1.
        -11    1    3    3    0    0  0.89670608631E+00 -0.25281301482E+00 -0.29393010860E+02  0.29407772509E+02  0.51100000000E-03 0.  1.
        -12    1    3    3    0    0 -0.24790033636E+01 -0.40413730870E+01 -0.18236600267E+01  0.50797529466E+01  0.00000000000E+00 0.  1.
</event>
<event>
 7    1  0.2983653E-010  0.4778727E+02  0.7816164E-02  0.1312668E+00
        -11   -1    0    0    0    0  0.00000000000E+00  0.00000000000E+00  0.45593999997E+02  0.45594000000E+02  0.51100000000E-03 0.  1.
         11   -1    0    0    0    0 -0.00000000000E+00 -0.00000000000E+00 -0.45593999997E+02  0.45594000000E+02  0.51100000000E-03 0. -1.
    9900012    2    1    2    0    0 -0.35773910256E+02  0.20932062047E+02 -0.12872423682E+02  0.47787272264E+02  0.20000005562E+02 0.  0.
        -12    1    1    2    0    0  0.35773910256E+02 -0.20932062047E+02  0.12872423682E+02  0.43400727736E+02  0.00000000000E+00 0.  1.
         11    1    3    3    0    0 -0.22553123903E+02  0.45382881486E+01 -0.86166149519E+01  0.24565942087E+02  0.51100000000E-03 0. -1.
        -11    1    3    3    0    0 -0.35094944923E+01  0.99823448056E+01 -0.46952117929E+01  0.11576215852E+02  0.51100000000E-03 0.  1.
        -12    1    3    3    0    0 -0.97112918599E+01  0.64114290932E+01  0.43940306311E+00  0.11645114326E+02  0.00000000000E+00 0.  1.
</event>
<event>
 7    1  0.2983653E-010  0.4778727E+02  0.7816164E-02  0.1312668E+00
        -11   -1    0    0    0    0  0.00000000000E+00  0.00000000000E+00  0.45593999997E+02  0.45594000000E+02  0.51100000000E-03 0.  1.
         11   -1    0    0    0    0 -0.00000000000E+00 -0.00000000000E+00 -0.45593999997E+02  0.45594000000E+02  0.51100000000E-03 0. -1.
    9900012    2    1    2    0    0 -0.25287544359E+02 -0.18599686501E+02 -0.29970234232E+02  0.47787272154E+02  0.20000005058E+02 0.  0.
        -12    1    1    2    0    0  0.25287544359E+02  0.18599686501E+02  0.29970234232E+02  0.43400727846E+02  0.00000000000E+00 0.  1.
         11    1    3    3    0    0 -0.17252886906E+01 -0.17970105153E+01 -0.93603813674E+01  0.96862070731E+01  0.51100000000E-03 0. -1.
        -11    1    3    3    0    0 -0.13519118838E+02 -0.11827268570E+02 -0.45724169047E+01  0.18535313663E+02  0.51100000000E-03 0.  1.
        -12    1    3    3    0    0 -0.10043136831E+02 -0.49754074153E+01 -0.16037435960E+02  0.19565751417E+02  0.00000000000E+00 0.  1.
</event>
<event>
 7    1  0.2983653E-010  0.4778727E+02  0.7816164E-02  0.1312668E+00
        -11   -1    0    0    0    0  0.00000000000E+00  0.00000000000E+00  0.45593999997E+02  0.45594000000E+02  0.51100000000E-03 0.  1.
         11   -1    0    0    0    0 -0.00000000000E+00 -0.00000000000E+00 -0.45593999997E+02  0.45594000000E+02  0.51100000000E-03 0. -1.
    9900012    2    1    2    0    0  0.24611959021E+01 -0.13044899071E+02 -0.41320654623E+02  0.47787269874E+02  0.19999994662E+02 0.  0.
        -12    1    1    2    0    0 -0.24611959021E+01  0.13044899071E+02  0.41320654623E+02  0.43400730126E+02  0.00000000000E+00 0.  1.
         11    1    3    3    0    0  0.22880043591E+01 -0.14965808244E+02 -0.24343720293E+02  0.28667526895E+02  0.51100000000E-03 0. -1.
        -11    1    3    3    0    0 -0.13887400333E+01  0.35828536045E+01 -0.27849621927E+01  0.47456773497E+01  0.51100000000E-03 0.  1.
         12    1    3    3    0    0  0.15619315763E+01 -0.16619444313E+01 -0.14191972137E+02  0.14374065628E+02  0.00000000000E+00 0. -1.
</event>
<event>
 7    1  0.2983653E-010  0.4778727E+02  0.7816164E-02  0.1312668E+00
        -11   -1    0    0    0    0  0.00000000000E+00  0.00000000000E+00  0.45593999997E+02  0.45594000000E+02  0.51100000000E-03 0.  1.
         11   -1    0    0    0    0 -0.00000000000E+00 -0.00000000000E+00 -0.45593999997E+02  0.45594000000E+02  0.51100000000E-03 0. -1.
    9900012    2    1    2    0    0  0.22613471283E+02 -0.32514103539E+01 -0.36900984224E+02  0.47787269713E+02  0.19999993931E+02 0.  0.
        -12    1    1    2    0    0 -0.22613471283E+02  0.32514103539E+01  0.36900984224E+02  0.43400730287E+02  0.00000000000E+00 0.  1.
         11    1    3    3    0    0 -0.17638697704E+01 -0.40760777727E+01 -0.10430057181E+02  0.11336301850E+02  0.51100000000E-03 0. -1.
        -11    1    3    3    0    0  0.18677836373E+02  0.30642382843E+01 -0.20390273037E+02  0.27821113612E+02  0.51100000000E-03 0.  1.
         12    1    3    3    0    0  0.56995046796E+01 -0.22395708655E+01 -0.60806540061E+01  0.86298542512E+01  0.00000000000E+00 0. -1.
</event>
<event>
 7    1  0.2983653E-010  0.4778727E+02  0.7816164E-02  0.1312668E+00
        -11   -1    0    0    0    0  0.00000000000E+00  0.00000000000E+00  0.45593999997E+02  0.45594000000E+02  0.51100000000E-03 0. -1.
         11   -1    0    0    0    0 -0.00000000000E+00 -0.00000000000E+00 -0.45593999997E+02  0.45594000000E+02  0.51100000000E-03 0.  1.
    9900012    2    1    2    0    0  0.28167447119E+02  0.32269136144E+02 -0.69943573781E+01  0.47787271206E+02  0.20000000737E+02 0.  0.
        -12    1    1    2    0    0 -0.28167447119E+02 -0.32269136144E+02  0.69943573781E+01  0.43400728794E+02  0.00000000000E+00 0.  1.
         11    1    3    3    0    0  0.11647844350E+02  0.14531200494E+02 -0.11708107145E+02  0.21997905332E+02  0.51100000000E-03 0. -1.
        -11    1    3    3    0    0  0.76154182740E+01  0.40518116730E+01 -0.52394473893E+00  0.86421230998E+01  0.51100000000E-03 0.  1.
         12    1    3    3    0    0  0.89041844950E+01  0.13686123977E+02  0.52376945056E+01  0.17147242775E+02  0.00000000000E+00 0. -1.
</event>
<event>
 7    1  0.2983653E-010  0.4778730E+02  0.7816164E-02  0.1312668E+00
        -11   -1    0    0    0    0  0.00000000000E+00  0.00000000000E+00  0.45593999997E+02  0.45594000000E+02  0.51100000000E-03 0.  1.
         11   -1    0    0    0    0 -0.00000000000E+00 -0.00000000000E+00 -0.45593999997E+02  0.45594000000E+02  0.51100000000E-03 0. -1.
    9900012    2    1    2    0    0  0.13500186315E+02 -0.35598773728E+02 -0.20834907789E+02  0.47787296042E+02  0.20000113973E+02 0.  0.
        -12    1    1    2    0    0 -0.13500186315E+02  0.35598773728E+02  0.20834907789E+02  0.43400703958E+02  0.00000000000E+00 0.  1.
         11    1    3    3    0    0  0.36401872274E+01 -0.17540704009E+02 -0.20130481951E+02  0.26947422215E+02  0.51100000000E-03 0. -1.
        -11    1    3    3    0    0  0.65903878328E+01 -0.86969111132E+01 -0.42867142742E+00  0.10920312915E+02  0.51100000000E-03 0.  1.
         12    1    3    3    0    0  0.32696112552E+01 -0.93611586056E+01 -0.27575441051E+00  0.99195609124E+01  0.00000000000E+00 0. -1.
</event>
<event>
 7    1  0.2983653E-010  0.4778727E+02  0.7816164E-02  0.1312668E+00
        -11   -1    0    0    0    0  0.00000000000E+00  0.00000000000E+00  0.45593999997E+02  0.45594000000E+02  0.51100000000E-03 0.  1.
         11   -1    0    0    0    0 -0.00000000000E+00 -0.00000000000E+00 -0.45593999997E+02  0.45594000000E+02  0.51100000000E-03 0. -1.
    9900012    2    1    2    0    0  0.54445173042E+01  0.22306630600E+02 -0.36829264556E+02  0.47787271145E+02  0.20000000457E+02 0.  0.
        -12    1    1    2    0    0 -0.54445173042E+01 -0.22306630600E+02  0.36829264556E+02  0.43400728855E+02  0.00000000000E+00 0.  1.
         11    1    3    3    0    0  0.62126636385E+01  0.88060854243E+01 -0.13624291095E+02  0.17371402882E+02  0.51100000000E-03 0. -1.
        -11    1    3    3    0    0 -0.61505726874E+01  0.31317301793E+01 -0.13755794802E+02  0.15390229667E+02  0.51100000000E-03 0.  1.
        -12    1    3    3    0    0  0.53824263531E+01  0.10368814997E+02 -0.94491786589E+01  0.15025638596E+02  0.00000000000E+00 0.  1.
</event>
<event>
 7    1  0.2983653E-010  0.4778727E+02  0.7816164E-02  0.1312668E+00
        -11   -1    0    0    0    0  0.00000000000E+00  0.00000000000E+00  0.45593999997E+02  0.45594000000E+02  0.51100000000E-03 0.  1.
         11   -1    0    0    0    0 -0.00000000000E+00 -0.00000000000E+00 -0.45593999997E+02  0.45594000000E+02  0.51100000000E-03 0. -1.
    9900012    2    1    2    0    0 -0.18780643818E+02 -0.60808596063E+01 -0.38651441506E+02  0.47787269980E+02  0.19999995148E+02 0.  0.
        -12    1    1    2    0    0  0.18780643818E+02  0.60808596063E+01  0.38651441506E+02  0.43400730020E+02  0.00000000000E+00 0.  1.
         11    1    3    3    0    0 -0.60194420132E+01 -0.49116684097E+01 -0.11686692514E+02  0.14033422636E+02  0.51100000000E-03 0.  1.
        -11    1    3    3    0    0 -0.29091830802E+01 -0.10368370999E+01 -0.22880458291E+02  0.23087956800E+02  0.51100000000E-03 0. -1.
        -12    1    3    3    0    0 -0.98520187244E+01 -0.13235409670E+00 -0.40842907014E+01  0.10665890544E+02  0.00000000000E+00 0.  1.
</event>
<event>
 7    1  0.2983653E-010  0.4778726E+02  0.7816164E-02  0.1312668E+00
        -11   -1    0    0    0    0  0.00000000000E+00  0.00000000000E+00  0.45593999997E+02  0.45594000000E+02  0.51100000000E-03 0.  1.
         11   -1    0    0    0    0 -0.00000000000E+00 -0.00000000000E+00 -0.45593999997E+02  0.45594000000E+02  0.51100000000E-03 0. -1.
    9900012    2    1    2    0    0 -0.20267817614E+02 -0.48545578256E+01 -0.38069316979E+02  0.47787262014E+02  0.19999958828E+02 0.  0.
        -12    1    1    2    0    0  0.20267817614E+02  0.48545578256E+01  0.38069316979E+02  0.43400737986E+02  0.00000000000E+00 0.  1.
         11    1    3    3    0    0 -0.13709809153E+02  0.48069876192E+01 -0.19888160891E+02  0.24629351207E+02  0.51100000000E-03 0. -1.
        -11    1    3    3    0    0  0.28200033833E+00 -0.21301661179E+01  0.19063800573E+00  0.21571914591E+01  0.51100000000E-03 0.  1.
         12    1    3    3    0    0 -0.68400087985E+01 -0.75313793269E+01 -0.18371794094E+02  0.21000719348E+02  0.00000000000E+00 0. -1.
</event>
<event>
 7    1  0.2983653E-010  0.4778729E+02  0.7816164E-02  0.1312668E+00
        -11   -1    0    0    0    0  0.00000000000E+00  0.00000000000E+00  0.45593999997E+02  0.45594000000E+02  0.51100000000E-03 0. -1.
         11   -1    0    0    0    0 -0.00000000000E+00 -0.00000000000E+00 -0.45593999997E+02  0.45594000000E+02  0.51100000000E-03 0.  1.
    9900012    2    1    2    0    0 -0.29575914622E+02 -0.47223573900E+00  0.31759468653E+02  0.47787290542E+02  0.20000088899E+02 0.  0.
        -12    1    1    2    0    0  0.29575914622E+02  0.47223573900E+00 -0.31759468653E+02  0.43400709458E+02  0.00000000000E+00 0.  1.
         11    1    3    3    0    0 -0.46704616981E+01  0.80185576724E+00  0.24847484733E+01  0.53507158757E+01  0.51100000000E-03 0. -1.
        -11    1    3    3    0    0 -0.19509770322E+02 -0.35367788282E+00  0.90964561498E+01  0.21529090571E+02  0.51100000000E-03 0.  1.
        -12    1    3    3    0    0 -0.53956826017E+01 -0.92041362341E+00  0.20178264029E+02  0.20907484096E+02  0.00000000000E+00 0.  1.
</event>
<event>
 7    1  0.2983653E-010  0.4778727E+02  0.7816164E-02  0.1312668E+00
        -11   -1    0    0    0    0  0.00000000000E+00  0.00000000000E+00  0.45593999997E+02  0.45594000000E+02  0.51100000000E-03 0. -1.
         11   -1    0    0    0    0 -0.00000000000E+00 -0.00000000000E+00 -0.45593999997E+02  0.45594000000E+02  0.51100000000E-03 0.  1.
    9900012    2    1    2    0    0  0.12977992249E+02  0.31275514994E+02 -0.27148427417E+02  0.47787271525E+02  0.20000002191E+02 0.  0.
        -12    1    1    2    0    0 -0.12977992249E+02 -0.31275514994E+02  0.27148427417E+02  0.43400728475E+02  0.00000000000E+00 0.  1.
         11    1    3    3    0    0  0.57731258683E+01  0.23029702822E+02 -0.21844399087E+02  0.32262578416E+02  0.51100000000E-03 0. -1.
        -11    1    3    3    0    0  0.54944180278E+01 -0.64288065331E+00 -0.17816357135E+01  0.58117253097E+01  0.51100000000E-03 0.  1.
        -12    1    3    3    0    0  0.17104483528E+01  0.88886928257E+01 -0.35223926164E+01  0.97129677988E+01  0.00000000000E+00 0.  1.
</event>
<event>
 7    1  0.2983653E-010  0.4778723E+02  0.7816164E-02  0.1312668E+00
        -11   -1    0    0    0    0  0.00000000000E+00  0.00000000000E+00  0.45593999997E+02  0.45594000000E+02  0.51100000000E-03 0. -1.
         11   -1    0    0    0    0 -0.00000000000E+00 -0.00000000000E+00 -0.45593999997E+02  0.45594000000E+02  0.51100000000E-03 0.  1.
    9900012    2    1    2    0    0 -0.20643360355E+01  0.10796307686E+02  0.41985769543E+02  0.47787232875E+02  0.19999825967E+02 0.  0.
        -12    1    1    2    0    0  0.20643360355E+01 -0.10796307686E+02 -0.41985769543E+02  0.43400767125E+02  0.00000000000E+00 0.  1.
         11    1    3    3    0    0 -0.73182317848E+01 -0.28186962139E+01  0.14785744018E+02  0.16736779596E+02  0.51100000000E-03 0. -1.
        -11    1    3    3    0    0  0.29439273529E+01  0.87725133755E+01  0.13788964674E+02  0.16606000308E+02  0.51100000000E-03 0.  1.
         12    1    3    3    0    0  0.23099683965E+01  0.48424905249E+01  0.13411060851E+02  0.14444452971E+02  0.00000000000E+00 0. -1.
</event>
<event>
 7    1  0.2983653E-010  0.4778727E+02  0.7816164E-02  0.1312668E+00
        -11   -1    0    0    0    0  0.00000000000E+00  0.00000000000E+00  0.45593999997E+02  0.45594000000E+02  0.51100000000E-03 0.  1.
         11   -1    0    0    0    0 -0.00000000000E+00 -0.00000000000E+00 -0.45593999997E+02  0.45594000000E+02  0.51100000000E-03 0. -1.
    9900012    2    1    2    0    0  0.11143856846E+02  0.16221917957E+02 -0.38681870932E+02  0.47787270670E+02  0.19999998293E+02 0.  0.
        -12    1    1    2    0    0 -0.11143856846E+02 -0.16221917957E+02  0.38681870932E+02  0.43400729330E+02  0.00000000000E+00 0.  1.
         11    1    3    3    0    0  0.89120178617E+01  0.92476928227E+01 -0.29386910177E+02  0.32070771349E+02  0.51100000000E-03 0. -1.
        -11    1    3    3    0    0 -0.11594468316E+01 -0.11655819584E+01  0.11803006207E+01  0.20238596970E+01  0.51100000000E-03 0.  1.
         12    1    3    3    0    0  0.33912858159E+01  0.81398070928E+01 -0.10475261376E+02  0.13692639624E+02  0.00000000000E+00 0. -1.
</event>
<event>
 7    1  0.2983653E-010  0.4778727E+02  0.7816164E-02  0.1312668E+00
        -11   -1    0    0    0    0  0.00000000000E+00  0.00000000000E+00  0.45593999997E+02  0.45594000000E+02  0.51100000000E-03 0.  1.
         11   -1    0    0    0    0 -0.00000000000E+00 -0.00000000000E+00 -0.45593999997E+02  0.45594000000E+02  0.51100000000E-03 0. -1.
    9900012    2    1    2    0    0 -0.97771527454E+00 -0.16481794235E+02 -0.40137485879E+02  0.47787271422E+02  0.20000001723E+02 0.  0.
        -12    1    1    2    0    0  0.97771527454E+00  0.16481794235E+02  0.40137485879E+02  0.43400728578E+02  0.00000000000E+00 0.  1.
         11    1    3    3    0    0 -0.49965751577E+01 -0.92475514786E+01 -0.31789537561E+02  0.33482199305E+02  0.51100000000E-03 0. -1.
        -11    1    3    3    0    0  0.33985481140E+01 -0.20315416965E+01  0.53153526365E+00  0.39949744611E+01  0.51100000000E-03 0.  1.
        -12    1    3    3    0    0  0.62031176920E+00 -0.52027010600E+01 -0.88794835816E+01  0.10310097657E+02  0.00000000000E+00 0.  1.
</event>
<event>
 7    1  0.2983653E-010  0.4778727E+02  0.7816164E-02  0.1312668E+00
        -11   -1    0    0    0    0  0.00000000000E+00  0.00000000000E+00  0.45593999997E+02  0.45594000000E+02  0.51100000000E-03 0.  1.
         11   -1    0    0    0    0 -0.00000000000E+00 -0.00000000000E+00 -0.45593999997E+02  0.45594000000E+02  0.51100000000E-03 0. -1.
    9900012    2    1    2    0    0 -0.11646944719E+02  0.11214610284E+02 -0.40276600723E+02  0.47787269926E+02  0.19999994901E+02 0.  0.
        -12    1    1    2    0    0  0.11646944719E+02 -0.11214610284E+02  0.40276600723E+02  0.43400730074E+02  0.00000000000E+00 0.  1.
         11    1    3    3    0    0 -0.97919650789E+01  0.27462727760E+01 -0.21078361883E+02  0.23403459877E+02  0.51100000000E-03 0. -1.
        -11    1    3    3    0    0  0.17132583874E+01  0.10078644671E+02 -0.96254995306E+01  0.14041530336E+02  0.51100000000E-03 0.  1.
        -12    1    3    3    0    0 -0.35682380271E+01 -0.16103071625E+01 -0.95727393099E+01  0.10342279713E+02  0.00000000000E+00 0.  1.
</event>
<event>
 7    1  0.2983653E-010  0.4778727E+02  0.7816164E-02  0.1312668E+00
        -11   -1    0    0    0    0  0.00000000000E+00  0.00000000000E+00  0.45593999997E+02  0.45594000000E+02  0.51100000000E-03 0. -1.
         11   -1    0    0    0    0 -0.00000000000E+00 -0.00000000000E+00 -0.45593999997E+02  0.45594000000E+02  0.51100000000E-03 0.  1.
    9900012    2    1    2    0    0 -0.38517785122E+02 -0.25324882322E+01  0.19839107725E+02  0.47787268870E+02  0.19999990084E+02 0.  0.
        -12    1    1    2    0    0  0.38517785122E+02  0.25324882322E+01 -0.19839107725E+02  0.43400731130E+02  0.00000000000E+00 0.  1.
         11    1    3    3    0    0 -0.29624370856E+02 -0.34218540814E+01  0.11775326072E+02  0.32061982757E+02  0.51100000000E-03 0. -1.
        -11    1    3    3    0    0 -0.98722505534E+01  0.26462489268E+01  0.36118778790E+01  0.10840185720E+02  0.51100000000E-03 0.  1.
        -12    1    3    3    0    0  0.97883628788E+00 -0.17568830776E+01  0.44519037743E+01  0.48851003923E+01  0.00000000000E+00 0.  1.
</event>
<event>
 7    1  0.2983653E-010  0.4778727E+02  0.7816164E-02  0.1312668E+00
        -11   -1    0    0    0    0  0.00000000000E+00  0.00000000000E+00  0.45593999997E+02  0.45594000000E+02  0.51100000000E-03 0.  1.
         11   -1    0    0    0    0 -0.00000000000E+00 -0.00000000000E+00 -0.45593999997E+02  0.45594000000E+02  0.51100000000E-03 0. -1.
    9900012    2    1    2    0    0  0.33130701637E+02 -0.98293379958E+01  0.26255743397E+02  0.47787270308E+02  0.19999996645E+02 0.  0.
        -12    1    1    2    0    0 -0.33130701637E+02  0.98293379958E+01 -0.26255743397E+02  0.43400729692E+02  0.00000000000E+00 0.  1.
         11    1    3    3    0    0  0.26148606816E+02 -0.26888721047E+01  0.18623420613E+02  0.32215081363E+02  0.51100000000E-03 0. -1.
        -11    1    3    3    0    0 -0.43440358136E+00 -0.19355330170E+01  0.60596086758E+01  0.63760373350E+01  0.51100000000E-03 0.  1.
         12    1    3    3    0    0  0.74164984024E+01 -0.52049328741E+01  0.15727141081E+01  0.91961516105E+01  0.00000000000E+00 0. -1.
</event>
<event>
 7    1  0.2983653E-010  0.4778729E+02  0.7816164E-02  0.1312668E+00
        -11   -1    0    0    0    0  0.00000000000E+00  0.00000000000E+00  0.45593999997E+02  0.45594000000E+02  0.51100000000E-03 0.  1.
         11   -1    0    0    0    0 -0.00000000000E+00 -0.00000000000E+00 -0.45593999997E+02  0.45594000000E+02  0.51100000000E-03 0. -1.
    9900012    2    1    2    0    0 -0.11182994616E+02 -0.23872886638E+02 -0.34476772146E+02  0.47787286842E+02  0.20000072028E+02 0.  0.
        -12    1    1    2    0    0  0.11182994616E+02  0.23872886638E+02  0.34476772146E+02  0.43400713158E+02  0.00000000000E+00 0.  1.
         11    1    3    3    0    0 -0.10506527205E+02 -0.17620209630E+02 -0.30342282292E+02  0.36626670559E+02  0.51100000000E-03 0. -1.
        -11    1    3    3    0    0  0.10408736648E+01 -0.38580492660E+01 -0.63300635553E+01  0.74858310828E+01  0.51100000000E-03 0.  1.
         12    1    3    3    0    0 -0.17173410754E+01 -0.23946277413E+01  0.21955737011E+01  0.36747851999E+01  0.00000000000E+00 0. -1.
</event>
<event>
 7    1  0.2983653E-010  0.4778727E+02  0.7816164E-02  0.1312668E+00
        -11   -1    0    0    0    0  0.00000000000E+00  0.00000000000E+00  0.45593999997E+02  0.45594000000E+02  0.51100000000E-03 0. -1.
         11   -1    0    0    0    0 -0.00000000000E+00 -0.00000000000E+00 -0.45593999997E+02  0.45594000000E+02  0.51100000000E-03 0.  1.
    9900012    2    1    2    0    0  0.42588517985E+02  0.24317764762E+01  0.79954824437E+01  0.47787272581E+02  0.20000007005E+02 0.  0.
        -12    1    1    2    0    0 -0.42588517985E+02 -0.24317764762E+01 -0.79954824437E+01  0.43400727419E+02  0.00000000000E+00 0.  1.
         11    1    3    3    0    0  0.43848040636E+02  0.35884068753E+00  0.57591654249E+01  0.44226094343E+02  0.51100000000E-03 0. -1.
        -11    1    3    3    0    0 -0.60461205052E+00  0.20241876464E+01  0.16452410760E+01  0.26776313821E+01  0.51100000000E-03 0.  1.
         12    1    3    3    0    0 -0.65491059998E+00  0.48748142322E-01  0.59107594291E+00  0.88354685537E+00  0.00000000000E+00 0. -1.
</event>
<event>
 7    1  0.2983653E-010  0.4778728E+02  0.7816164E-02  0.1312668E+00
        -11   -1    0    0    0    0  0.00000000000E+00  0.00000000000E+00  0.45593999997E+02  0.45594000000E+02  0.51100000000E-03 0.  1.
         11   -1    0    0    0    0 -0.00000000000E+00 -0.00000000000E+00 -0.45593999997E+02  0.45594000000E+02  0.51100000000E-03 0. -1.
    9900012    2    1    2    0    0 -0.28721680621E+02  0.22578685552E+02 -0.23428414218E+02  0.47787279133E+02  0.20000036880E+02 0.  0.
        -12    1    1    2    0    0  0.28721680621E+02 -0.22578685552E+02  0.23428414218E+02  0.43400720867E+02  0.00000000000E+00 0.  1.
         11    1    3    3    0    0 -0.17575579907E+02  0.60971566184E+01 -0.14734289226E+02  0.23731321227E+02  0.51100000000E-03 0. -1.
        -11    1    3    3    0    0 -0.71480532599E+01  0.29113942913E+01 -0.56271298429E+00  0.77387032692E+01  0.51100000000E-03 0.  1.
         12    1    3    3    0    0 -0.39980474542E+01  0.13570134642E+02 -0.81314120075E+01  0.16317254637E+02  0.00000000000E+00 0. -1.
</event>
<event>
 7    1  0.2983653E-010  0.4778726E+02  0.7816164E-02  0.1312668E+00
        -11   -1    0    0    0    0  0.00000000000E+00  0.00000000000E+00  0.45593999997E+02  0.45594000000E+02  0.51100000000E-03 0. -1.
         11   -1    0    0    0    0 -0.00000000000E+00 -0.00000000000E+00 -0.45593999997E+02  0.45594000000E+02  0.51100000000E-03 0.  1.
    9900012    2    1    2    0    0 -0.35695277895E+02  0.21194948736E+02  0.12658821928E+02  0.47787257051E+02  0.19999936197E+02 0.  0.
        -12    1    1    2    0    0  0.35695277895E+02 -0.21194948736E+02 -0.12658821928E+02  0.43400742949E+02  0.00000000000E+00 0.  1.
         11    1    3    3    0    0 -0.13665097644E+02  0.30186790650E+01  0.11388216822E+02  0.18042693800E+02  0.51100000000E-03 0. -1.
        -11    1    3    3    0    0 -0.11030058013E+02  0.75243235050E+01 -0.33205690454E+01  0.13758771857E+02  0.51100000000E-03 0.  1.
        -12    1    3    3    0    0 -0.11000122238E+02  0.10651946166E+02  0.45911741516E+01  0.15985791394E+02  0.00000000000E+00 0.  1.
</event>
<event>
 7    1  0.2983653E-010  0.4778727E+02  0.7816164E-02  0.1312668E+00
        -11   -1    0    0    0    0  0.00000000000E+00  0.00000000000E+00  0.45593999997E+02  0.45594000000E+02  0.51100000000E-03 0.  1.
         11   -1    0    0    0    0 -0.00000000000E+00 -0.00000000000E+00 -0.45593999997E+02  0.45594000000E+02  0.51100000000E-03 0. -1.
    9900012    2    1    2    0    0  0.60127548806E+01 -0.40597567204E+02 -0.14117629079E+02  0.47787272645E+02  0.20000007299E+02 0.  0.
        -12    1    1    2    0    0 -0.60127548806E+01  0.40597567204E+02  0.14117629079E+02  0.43400727355E+02  0.00000000000E+00 0.  1.
         11    1    3    3    0    0  0.40590526944E+01 -0.22405247141E+02 -0.15661027737E+02  0.27635824544E+02  0.51100000000E-03 0. -1.
        -11    1    3    3    0    0  0.49083000720E+01 -0.13928406687E+02  0.21688091240E+01  0.14926341002E+02  0.51100000000E-03 0.  1.
         12    1    3    3    0    0 -0.29545978857E+01 -0.42639133763E+01 -0.62541046680E+00  0.52251070993E+01  0.00000000000E+00 0. -1.
</event>
<event>
 7    1  0.2983653E-010  0.4778727E+02  0.7816164E-02  0.1312668E+00
        -11   -1    0    0    0    0  0.00000000000E+00  0.00000000000E+00  0.45593999997E+02  0.45594000000E+02  0.51100000000E-03 0.  1.
         11   -1    0    0    0    0 -0.00000000000E+00 -0.00000000000E+00 -0.45593999997E+02  0.45594000000E+02  0.51100000000E-03 0. -1.
    9900012    2    1    2    0    0  0.28088710115E+02 -0.18094128820E+02 -0.27699275604E+02  0.47787274169E+02  0.20000014245E+02 0.  0.
        -12    1    1    2    0    0 -0.28088710115E+02  0.18094128820E+02  0.27699275604E+02  0.43400725831E+02  0.00000000000E+00 0.  1.
         11    1    3    3    0    0  0.10412577244E+02 -0.73621949474E+01 -0.58286556525E+01  0.14021301875E+02  0.51100000000E-03 0. -1.
        -11    1    3    3    0    0  0.51783711991E+01  0.18279190166E+01  0.16045032475E+00  0.54938657405E+01  0.51100000000E-03 0.  1.
        -12    1    3    3    0    0  0.12497761672E+02 -0.12559852889E+02 -0.22031070277E+02  0.28272106553E+02  0.00000000000E+00 0.  1.
</event>
<event>
 7    1  0.2983653E-010  0.4778727E+02  0.7816164E-02  0.1312668E+00
        -11   -1    0    0    0    0  0.00000000000E+00  0.00000000000E+00  0.45593999997E+02  0.45594000000E+02  0.51100000000E-03 0.  1.
         11   -1    0    0    0    0 -0.00000000000E+00 -0.00000000000E+00 -0.45593999997E+02  0.45594000000E+02  0.51100000000E-03 0. -1.
    9900012    2    1    2    0    0  0.40367547793E+02  0.76383619886E+01 -0.13990705974E+02  0.47787270256E+02  0.19999996404E+02 0.  0.
        -12    1    1    2    0    0 -0.40367547793E+02 -0.76383619886E+01  0.13990705974E+02  0.43400729744E+02  0.00000000000E+00 0.  1.
         11    1    3    3    0    0  0.12292637547E+02  0.48568785888E+00 -0.62238010591E+01  0.13786969589E+02  0.51100000000E-03 0. -1.
        -11    1    3    3    0    0  0.28675716676E+02  0.56480628272E+01 -0.34991531120E+01  0.29435376902E+02  0.51100000000E-03 0.  1.
        -12    1    3    3    0    0 -0.60080642965E+00  0.15046113025E+01 -0.42677518023E+01  0.45649237654E+01  0.00000000000E+00 0.  1.
</event>
<event>
 7    1  0.2983653E-010  0.4778722E+02  0.7816164E-02  0.1312668E+00
        -11   -1    0    0    0    0  0.00000000000E+00  0.00000000000E+00  0.45593999997E+02  0.45594000000E+02  0.51100000000E-03 0.  1.
         11   -1    0    0    0    0 -0.00000000000E+00 -0.00000000000E+00 -0.45593999997E+02  0.45594000000E+02  0.51100000000E-03 0. -1.
    9900012    2    1    2    0    0  0.10879508779E+02 -0.50174779645E+01 -0.41714377981E+02  0.47787215137E+02  0.19999745093E+02 0.  0.
        -12    1    1    2    0    0 -0.10879508779E+02  0.50174779645E+01  0.41714377981E+02  0.43400784863E+02  0.00000000000E+00 0.  1.
         11    1    3    3    0    0 -0.38041644776E+01  0.59090578116E+00 -0.66808135750E+01  0.77106489545E+01  0.51100000000E-03 0. -1.
        -11    1    3    3    0    0  0.11095013430E+02  0.96827723600E+00 -0.14959924142E+02  0.18650367675E+02  0.51100000000E-03 0.  1.
        -12    1    3    3    0    0  0.35886598266E+01 -0.65766609816E+01 -0.20073640264E+02  0.21426198507E+02  0.00000000000E+00 0.  1.
</event>
<event>
 7    1  0.2983653E-010  0.4778727E+02  0.7816164E-02  0.1312668E+00
        -11   -1    0    0    0    0  0.00000000000E+00  0.00000000000E+00  0.45593999997E+02  0.45594000000E+02  0.51100000000E-03 0.  1.
         11   -1    0    0    0    0 -0.00000000000E+00 -0.00000000000E+00 -0.45593999997E+02  0.45594000000E+02  0.51100000000E-03 0. -1.
    9900012    2    1    2    0    0 -0.25257927046E+02  0.10348071399E+02 -0.33742819235E+02  0.47787270625E+02  0.19999998088E+02 0.  0.
        -12    1    1    2    0    0  0.25257927046E+02 -0.10348071399E+02  0.33742819235E+02  0.43400729375E+02  0.00000000000E+00 0.  1.
         11    1    3    3    0    0 -0.15725509438E+02 -0.14607295965E+01 -0.21414322825E+02  0.26608243090E+02  0.51100000000E-03 0. -1.
        -11    1    3    3    0    0 -0.29620143915E+01  0.95609754575E+01 -0.54153366172E+01  0.11380318620E+02  0.51100000000E-03 0.  1.
        -12    1    3    3    0    0 -0.65704032165E+01  0.22478255377E+01 -0.69131597937E+01  0.97987089154E+01  0.00000000000E+00 0.  1.
</event>
<event>
 7    1  0.2983653E-010  0.4778727E+02  0.7816164E-02  0.1312668E+00
        -11   -1    0    0    0    0  0.00000000000E+00  0.00000000000E+00  0.45593999997E+02  0.45594000000E+02  0.51100000000E-03 0.  1.
         11   -1    0    0    0    0 -0.00000000000E+00 -0.00000000000E+00 -0.45593999997E+02  0.45594000000E+02  0.51100000000E-03 0. -1.
    9900012    2    1    2    0    0 -0.90117089661E+01 -0.25503341573E+02 -0.33941005774E+02  0.47787271863E+02  0.20000003732E+02 0.  0.
        -12    1    1    2    0    0  0.90117089661E+01  0.25503341573E+02  0.33941005774E+02  0.43400728137E+02  0.00000000000E+00 0.  1.
         11    1    3    3    0    0  0.41691758915E+01 -0.56112143344E+01 -0.35981796910E+01  0.78622294084E+01  0.51100000000E-03 0. -1.
        -11    1    3    3    0    0 -0.24443847997E+00  0.11583131326E+01 -0.20052673006E+01  0.23286340828E+01  0.51100000000E-03 0.  1.
         12    1    3    3    0    0 -0.12936446378E+02 -0.21050440371E+02 -0.28337558782E+02  0.37596408372E+02  0.00000000000E+00 0. -1.
</event>
<event>
 7    1  0.2983653E-010  0.4778728E+02  0.7816164E-02  0.1312668E+00
        -11   -1    0    0    0    0  0.00000000000E+00  0.00000000000E+00  0.45593999997E+02  0.45594000000E+02  0.51100000000E-03 0.  1.
         11   -1    0    0    0    0 -0.00000000000E+00 -0.00000000000E+00 -0.45593999997E+02  0.45594000000E+02  0.51100000000E-03 0. -1.
    9900012    2    1    2    0    0 -0.25653812010E+02 -0.34925031828E+02  0.23972746530E+01  0.47787275990E+02  0.20000022550E+02 0.  0.
        -12    1    1    2    0    0  0.25653812010E+02  0.34925031828E+02 -0.23972746530E+01  0.43400724010E+02  0.00000000000E+00 0.  1.
         11    1    3    3    0    0 -0.24146857848E+02 -0.24418371760E+02  0.26100485843E+01  0.34440382942E+02  0.51100000000E-03 0. -1.
        -11    1    3    3    0    0 -0.20958851170E+01 -0.29764470075E+01  0.33936887564E+01  0.49768559201E+01  0.51100000000E-03 0.  1.
         12    1    3    3    0    0  0.58893095496E+00 -0.75302130610E+01 -0.36064626877E+01  0.83700371285E+01  0.00000000000E+00 0. -1.
</event>
<event>
 7    1  0.2983653E-010  0.4778727E+02  0.7816164E-02  0.1312668E+00
        -11   -1    0    0    0    0  0.00000000000E+00  0.00000000000E+00  0.45593999997E+02  0.45594000000E+02  0.51100000000E-03 0.  1.
         11   -1    0    0    0    0 -0.00000000000E+00 -0.00000000000E+00 -0.45593999997E+02  0.45594000000E+02  0.51100000000E-03 0. -1.
    9900012    2    1    2    0    0 -0.17397681372E+02  0.20480426521E+02 -0.34080729612E+02  0.47787270531E+02  0.19999997657E+02 0.  0.
        -12    1    1    2    0    0  0.17397681372E+02 -0.20480426521E+02  0.34080729612E+02  0.43400729469E+02  0.00000000000E+00 0.  1.
         11    1    3    3    0    0 -0.60647091332E+01  0.16880733306E+02 -0.12344478315E+02  0.21774434527E+02  0.51100000000E-03 0. -1.
        -11    1    3    3    0    0 -0.10147938468E+02  0.50193732003E+00 -0.11980760955E+02  0.15708953801E+02  0.51100000000E-03 0.  1.
        -12    1    3    3    0    0 -0.11850337710E+01  0.30977558947E+01 -0.97554903424E+01  0.10303882202E+02  0.00000000000E+00 0.  1.
</event>
<event>
 7    1  0.2983653E-010  0.4778727E+02  0.7816164E-02  0.1312668E+00
        -11   -1    0    0    0    0  0.00000000000E+00  0.00000000000E+00  0.45593999997E+02  0.45594000000E+02  0.51100000000E-03 0. -1.
         11   -1    0    0    0    0 -0.00000000000E+00 -0.00000000000E+00 -0.45593999997E+02  0.45594000000E+02  0.51100000000E-03 0.  1.
    9900012    2    1    2    0    0 -0.20216159369E+00  0.37273473770E+02  0.22232196636E+02  0.47787270934E+02  0.19999999496E+02 0.  0.
        -12    1    1    2    0    0  0.20216159369E+00 -0.37273473770E+02 -0.22232196636E+02  0.43400729066E+02  0.00000000000E+00 0.  1.
         11    1    3    3    0    0 -0.48540578720E-01  0.25414773514E+02  0.22619160291E+02  0.34022631901E+02  0.51100000000E-03 0. -1.
        -11    1    3    3    0    0  0.32978049905E+01  0.60301014949E+01 -0.10727246375E+01  0.69561756881E+01  0.51100000000E-03 0.  1.
        -12    1    3    3    0    0 -0.34514260054E+01  0.58285987611E+01  0.68576098285E+00  0.68084633446E+01  0.00000000000E+00 0.  1.
</event>
<event>
 7    1  0.2983653E-010  0.4778726E+02  0.7816164E-02  0.1312668E+00
        -11   -1    0    0    0    0  0.00000000000E+00  0.00000000000E+00  0.45593999997E+02  0.45594000000E+02  0.51100000000E-03 0.  1.
         11   -1    0    0    0    0 -0.00000000000E+00 -0.00000000000E+00 -0.45593999997E+02  0.45594000000E+02  0.51100000000E-03 0. -1.
    9900012    2    1    2    0    0  0.41744522731E+02 -0.11309615291E+02  0.36209793470E+01  0.47787261901E+02  0.19999958314E+02 0.  0.
        -12    1    1    2    0    0 -0.41744522731E+02  0.11309615291E+02 -0.36209793470E+01  0.43400738099E+02  0.00000000000E+00 0.  1.
         11    1    3    3    0    0  0.21084289146E+02 -0.32786047548E+01 -0.94833244872E+00  0.21358741363E+02  0.51100000000E-03 0. -1.
        -11    1    3    3    0    0  0.45558330480E+01 -0.24769669272E+01  0.75250358407E+01  0.91387715030E+01  0.51100000000E-03 0.  1.
        -12    1    3    3    0    0  0.16104400537E+02 -0.55540436090E+01 -0.29557240450E+01  0.17289749035E+02  0.00000000000E+00 0.  1.
</event>
<event>
 7    1  0.2983653E-010  0.4778727E+02  0.7816164E-02  0.1312668E+00
        -11   -1    0    0    0    0  0.00000000000E+00  0.00000000000E+00  0.45593999997E+02  0.45594000000E+02  0.51100000000E-03 0.  1.
         11   -1    0    0    0    0 -0.00000000000E+00 -0.00000000000E+00 -0.45593999997E+02  0.45594000000E+02  0.51100000000E-03 0. -1.
    9900012    2    1    2    0    0 -0.12136890172E+02 -0.41576833772E+02 -0.27723762588E+01  0.47787270978E+02  0.19999999696E+02 0.  0.
        -12    1    1    2    0    0  0.12136890172E+02  0.41576833772E+02  0.27723762588E+01  0.43400729022E+02  0.00000000000E+00 0.  1.
         11    1    3    3    0    0  0.30628858129E+01 -0.12057045811E+02 -0.99343986990E+00  0.12479605211E+02  0.51100000000E-03 0. -1.
        -11    1    3    3    0    0 -0.87390119967E+01 -0.16821316832E+02  0.48901132880E+01  0.19576522645E+02  0.51100000000E-03 0.  1.
        -12    1    3    3    0    0 -0.64607639881E+01 -0.12698471129E+02 -0.66690496769E+01  0.15731143122E+02  0.00000000000E+00 0.  1.
</event>
<event>
 7    1  0.2983653E-010  0.4778727E+02  0.7816164E-02  0.1312668E+00
        -11   -1    0    0    0    0  0.00000000000E+00  0.00000000000E+00  0.45593999997E+02  0.45594000000E+02  0.51100000000E-03 0.  1.
         11   -1    0    0    0    0 -0.00000000000E+00 -0.00000000000E+00 -0.45593999997E+02  0.45594000000E+02  0.51100000000E-03 0. -1.
    9900012    2    1    2    0    0 -0.12762446922E+02  0.62828344804E+01 -0.41003283899E+02  0.47787270155E+02  0.19999995944E+02 0.  0.
        -12    1    1    2    0    0  0.12762446922E+02 -0.62828344804E+01  0.41003283899E+02  0.43400729845E+02  0.00000000000E+00 0.  1.
         11    1    3    3    0    0 -0.89735933915E+01  0.10523357771E+02 -0.35975334762E+02  0.38542069854E+02  0.51100000000E-03 0. -1.
        -11    1    3    3    0    0 -0.16701371405E+01 -0.43231887138E+01 -0.10721476011E+01  0.47569758737E+01  0.51100000000E-03 0.  1.
        -12    1    3    3    0    0 -0.21187163903E+01  0.82665423145E-01 -0.39558015363E+01  0.44882244272E+01  0.00000000000E+00 0.  1.
</event>
<event>
 7    1  0.2983653E-010  0.4778727E+02  0.7816164E-02  0.1312668E+00
        -11   -1    0    0    0    0  0.00000000000E+00  0.00000000000E+00  0.45593999997E+02  0.45594000000E+02  0.51100000000E-03 0.  1.
         11   -1    0    0    0    0 -0.00000000000E+00 -0.00000000000E+00 -0.45593999997E+02  0.45594000000E+02  0.51100000000E-03 0. -1.
    9900012    2    1    2    0    0  0.17702123488E+02 -0.49815768212E+01 -0.39312110582E+02  0.47787270490E+02  0.19999997471E+02 0.  0.
        -12    1    1    2    0    0 -0.17702123488E+02  0.49815768212E+01  0.39312110582E+02  0.43400729510E+02  0.00000000000E+00 0.  1.
         11    1    3    3    0    0  0.98780777528E+01 -0.90542075366E+01 -0.21975884985E+02  0.25738970752E+02  0.51100000000E-03 0. -1.
        -11    1    3    3    0    0  0.92489092357E+01  0.33607720186E+01 -0.83021602147E+01  0.12874897091E+02  0.51100000000E-03 0.  1.
        -12    1    3    3    0    0 -0.14248635008E+01  0.71185869680E+00 -0.90340653820E+01  0.91734026472E+01  0.00000000000E+00 0.  1.
</event>
<event>
 7    1  0.2983653E-010  0.4778726E+02  0.7816164E-02  0.1312668E+00
        -11   -1    0    0    0    0  0.00000000000E+00  0.00000000000E+00  0.45593999997E+02  0.45594000000E+02  0.51100000000E-03 0. -1.
         11   -1    0    0    0    0 -0.00000000000E+00 -0.00000000000E+00 -0.45593999997E+02  0.45594000000E+02  0.51100000000E-03 0.  1.
    9900012    2    1    2    0    0 -0.26712370201E+02 -0.34046486392E+02  0.33030839225E+01  0.47787258983E+02  0.19999945009E+02 0.  0.
        -12    1    1    2    0    0  0.26712370201E+02  0.34046486392E+02 -0.33030839225E+01  0.43400741017E+02  0.00000000000E+00 0.  1.
         11    1    3    3    0    0 -0.62641904013E+01 -0.12293071955E+02  0.82275516466E+01  0.16064006531E+02  0.51100000000E-03 0. -1.
        -11    1    3    3    0    0 -0.21495462548E+02 -0.20638602777E+02 -0.45125066760E+01  0.30139169722E+02  0.51100000000E-03 0.  1.
        -12    1    3    3    0    0  0.10472827484E+01 -0.11148116598E+01 -0.41196104817E+00  0.15840827305E+01  0.00000000000E+00 0.  1.
</event>
<event>
 7    1  0.2983653E-010  0.4778730E+02  0.7816164E-02  0.1312668E+00
        -11   -1    0    0    0    0  0.00000000000E+00  0.00000000000E+00  0.45593999997E+02  0.45594000000E+02  0.51100000000E-03 0.  1.
         11   -1    0    0    0    0 -0.00000000000E+00 -0.00000000000E+00 -0.45593999997E+02  0.45594000000E+02  0.51100000000E-03 0. -1.
    9900012    2    1    2    0    0 -0.31767306639E+00  0.41927861302E+02 -0.11206011285E+02  0.47787295415E+02  0.20000111114E+02 0.  0.
        -12    1    1    2    0    0  0.31767306639E+00 -0.41927861302E+02  0.11206011285E+02  0.43400704585E+02  0.00000000000E+00 0.  1.
         11    1    3    3    0    0  0.56908254693E+01  0.92528255604E+01 -0.82146955664E+01  0.13619159257E+02  0.51100000000E-03 0. -1.
        -11    1    3    3    0    0 -0.22901766675E+01  0.24314184912E+01 -0.14967025626E+01  0.36601671915E+01  0.51100000000E-03 0.  1.
         12    1    3    3    0    0 -0.37183218682E+01  0.30243617251E+02 -0.14946131562E+01  0.30507968966E+02  0.00000000000E+00 0. -1.
</event>
<event>
 7    1  0.2983653E-010  0.4778727E+02  0.7816164E-02  0.1312668E+00
        -11   -1    0    0    0    0  0.00000000000E+00  0.00000000000E+00  0.45593999997E+02  0.45594000000E+02  0.51100000000E-03 0.  1.
         11   -1    0    0    0    0 -0.00000000000E+00 -0.00000000000E+00 -0.45593999997E+02  0.45594000000E+02  0.51100000000E-03 0. -1.
    9900012    2    1    2    0    0 -0.40547604734E+02  0.49683192978E+01 -0.14657101587E+02  0.47787273356E+02  0.20000010537E+02 0.  0.
        -12    1    1    2    0    0  0.40547604734E+02 -0.49683192978E+01  0.14657101587E+02  0.43400726644E+02  0.00000000000E+00 0.  1.
         11    1    3    3    0    0 -0.18899768583E+02  0.73794105653E+01 -0.13876494742E+02  0.24580766045E+02  0.51100000000E-03 0. -1.
        -11    1    3    3    0    0 -0.38479634746E+01 -0.23313332566E+01  0.24389130113E+01  0.51176395529E+01  0.51100000000E-03 0.  1.
         12    1    3    3    0    0 -0.17799872677E+02 -0.79758010970E-01 -0.32195198567E+01  0.18088867757E+02  0.00000000000E+00 0. -1.
</event>
<event>
 7    1  0.2983653E-010  0.4778727E+02  0.7816164E-02  0.1312668E+00
        -11   -1    0    0    0    0  0.00000000000E+00  0.00000000000E+00  0.45593999997E+02  0.45594000000E+02  0.51100000000E-03 0.  1.
         11   -1    0    0    0    0 -0.00000000000E+00 -0.00000000000E+00 -0.45593999997E+02  0.45594000000E+02  0.51100000000E-03 0. -1.
    9900012    2    1    2    0    0  0.13556727633E+02  0.15804208848E+02 -0.38079723375E+02  0.47787271737E+02  0.20000003157E+02 0.  0.
        -12    1    1    2    0    0 -0.13556727633E+02 -0.15804208848E+02  0.38079723375E+02  0.43400728263E+02  0.00000000000E+00 0.  1.
         11    1    3    3    0    0  0.33415789491E+01  0.94899047696E+01 -0.15051342846E+02  0.18104346553E+02  0.51100000000E-03 0. -1.
        -11    1    3    3    0    0 -0.26059607337E+01  0.44646155018E+01 -0.34786005358E+01  0.62309296957E+01  0.51100000000E-03 0.  1.
        -12    1    3    3    0    0  0.12821109418E+02  0.18496885763E+01 -0.19549779994E+02  0.23451995488E+02  0.00000000000E+00 0.  1.
</event>
<event>
 7    1  0.2983653E-010  0.4778727E+02  0.7816164E-02  0.1312668E+00
        -11   -1    0    0    0    0  0.00000000000E+00  0.00000000000E+00  0.45593999997E+02  0.45594000000E+02  0.51100000000E-03 0. -1.
         11   -1    0    0    0    0 -0.00000000000E+00 -0.00000000000E+00 -0.45593999997E+02  0.45594000000E+02  0.51100000000E-03 0.  1.
    9900012    2    1    2    0    0  0.25324126202E+02  0.32378505100E+02  0.13926389452E+02  0.47787270932E+02  0.19999999490E+02 0.  0.
        -12    1    1    2    0    0 -0.25324126202E+02 -0.32378505100E+02 -0.13926389452E+02  0.43400729068E+02  0.00000000000E+00 0.  1.
         11    1    3    3    0    0  0.74814278752E+01  0.13372854328E+02  0.12387684339E+02  0.19704307130E+02  0.51100000000E-03 0. -1.
        -11    1    3    3    0    0  0.10517778521E+02  0.10914446235E+02 -0.42317504376E+01  0.15737106267E+02  0.51100000000E-03 0.  1.
        -12    1    3    3    0    0  0.73249198065E+01  0.80912045368E+01  0.57704555508E+01  0.12345857536E+02  0.00000000000E+00 0.  1.
</event>
<event>
 7    1  0.2983653E-010  0.4778727E+02  0.7816164E-02  0.1312668E+00
        -11   -1    0    0    0    0  0.00000000000E+00  0.00000000000E+00  0.45593999997E+02  0.45594000000E+02  0.51100000000E-03 0. -1.
         11   -1    0    0    0    0 -0.00000000000E+00 -0.00000000000E+00 -0.45593999997E+02  0.45594000000E+02  0.51100000000E-03 0.  1.
    9900012    2    1    2    0    0 -0.36917546572E+01  0.39533140817E+02  0.17524988926E+02  0.47787268300E+02  0.19999987485E+02 0.  0.
        -12    1    1    2    0    0  0.36917546572E+01 -0.39533140817E+02 -0.17524988926E+02  0.43400731700E+02  0.00000000000E+00 0.  1.
         11    1    3    3    0    0 -0.65540896319E+01  0.13203633853E+02  0.42845100729E+00  0.14747054227E+02  0.51100000000E-03 0. -1.
        -11    1    3    3    0    0  0.18389980209E+01  0.59811660963E+01  0.93341079141E+01  0.11237518961E+02  0.51100000000E-03 0.  1.
         12    1    3    3    0    0  0.10233369537E+01  0.20348340867E+02  0.77624300045E+01  0.21802695112E+02  0.00000000000E+00 0. -1.
</event>
<event>
 7    1  0.2983653E-010  0.4778727E+02  0.7816164E-02  0.1312668E+00
        -11   -1    0    0    0    0  0.00000000000E+00  0.00000000000E+00  0.45593999997E+02  0.45594000000E+02  0.51100000000E-03 0.  1.
         11   -1    0    0    0    0 -0.00000000000E+00 -0.00000000000E+00 -0.45593999997E+02  0.45594000000E+02  0.51100000000E-03 0. -1.
    9900012    2    1    2    0    0  0.15865074617E+01  0.42689726246E+02 -0.76611732983E+01  0.47787270638E+02  0.19999998147E+02 0.  0.
        -12    1    1    2    0    0 -0.15865074617E+01 -0.42689726246E+02  0.76611732983E+01  0.43400729362E+02  0.00000000000E+00 0.  1.
         11    1    3    3    0    0 -0.23247945985E+01  0.24441737512E+02 -0.11788921263E+01  0.24580337455E+02  0.51100000000E-03 0. -1.
        -11    1    3    3    0    0  0.27617234669E+01  0.89813615919E+00 -0.49662986372E+01  0.57530763494E+01  0.51100000000E-03 0.  1.
        -12    1    3    3    0    0  0.11495785933E+01  0.17349852575E+02 -0.15159825349E+01  0.17453856833E+02  0.00000000000E+00 0.  1.
</event>
<event>
 7    1  0.2983653E-010  0.4778728E+02  0.7816164E-02  0.1312668E+00
        -11   -1    0    0    0    0  0.00000000000E+00  0.00000000000E+00  0.45593999997E+02  0.45594000000E+02  0.51100000000E-03 0.  1.
         11   -1    0    0    0    0 -0.00000000000E+00 -0.00000000000E+00 -0.45593999997E+02  0.45594000000E+02  0.51100000000E-03 0. -1.
    9900012    2    1    2    0    0 -0.40433665909E+01 -0.39940335471E+02 -0.16493745858E+02  0.47787275773E+02  0.20000021561E+02 0.  0.
        -12    1    1    2    0    0  0.40433665909E+01  0.39940335471E+02  0.16493745858E+02  0.43400724227E+02  0.00000000000E+00 0.  1.
         11    1    3    3    0    0 -0.76177497345E+01 -0.25623784087E+02 -0.89281115701E+01  0.28183676098E+02  0.51100000000E-03 0. -1.
        -11    1    3    3    0    0  0.25916070290E+01  0.50561746308E+00  0.51954865673E+00  0.26910977462E+01  0.51100000000E-03 0.  1.
         12    1    3    3    0    0  0.98277611458E+00 -0.14822168848E+02 -0.80851829450E+01  0.16912501929E+02  0.00000000000E+00 0. -1.
</event>
<event>
 7    1  0.2983653E-010  0.4778727E+02  0.7816164E-02  0.1312668E+00
        -11   -1    0    0    0    0  0.00000000000E+00  0.00000000000E+00  0.45593999997E+02  0.45594000000E+02  0.51100000000E-03 0.  1.
         11   -1    0    0    0    0 -0.00000000000E+00 -0.00000000000E+00 -0.45593999997E+02  0.45594000000E+02  0.51100000000E-03 0. -1.
    9900012    2    1    2    0    0 -0.23635963763E+02 -0.22824787459E+02 -0.28354776973E+02  0.47787273246E+02  0.20000010039E+02 0.  0.
        -12    1    1    2    0    0  0.23635963763E+02  0.22824787459E+02  0.28354776973E+02  0.43400726754E+02  0.00000000000E+00 0.  1.
         11    1    3    3    0    0  0.42519247880E+00  0.70276817745E+00 -0.74845702472E+00  0.11112425182E+01  0.51100000000E-03 0. -1.
        -11    1    3    3    0    0 -0.54740980741E+01 -0.29726833552E+01 -0.14978360624E+02  0.16222018472E+02  0.51100000000E-03 0.  1.
        -12    1    3    3    0    0 -0.18587058167E+02 -0.20554872281E+02 -0.12627959325E+02  0.30454012256E+02  0.00000000000E+00 0.  1.
</event>
<event>
 7    1  0.2983653E-010  0.4778727E+02  0.7816164E-02  0.1312668E+00
        -11   -1    0    0    0    0  0.00000000000E+00  0.00000000000E+00  0.45593999997E+02  0.45594000000E+02  0.51100000000E-03 0.  1.
         11   -1    0    0    0    0 -0.00000000000E+00 -0.00000000000E+00 -0.45593999997E+02  0.45594000000E+02  0.51100000000E-03 0. -1.
    9900012    2    1    2    0    0  0.20980282562E+02 -0.95325221894E+01 -0.36777470307E+02  0.47787267773E+02  0.19999985085E+02 0.  0.
        -12    1    1    2    0    0 -0.20980282562E+02  0.95325221894E+01  0.36777470307E+02  0.43400732227E+02  0.00000000000E+00 0.  1.
         11    1    3    3    0    0  0.82858102851E+01  0.44692448864E+00 -0.22753088942E+02  0.24218948166E+02  0.51100000000E-03 0. -1.
        -11    1    3    3    0    0 -0.59339686921E+00 -0.12662972384E+01  0.98492304872E+00  0.17104684193E+01  0.51100000000E-03 0.  1.
         12    1    3    3    0    0  0.13287869146E+02 -0.87131494397E+01 -0.15009304413E+02  0.21857851188E+02  0.00000000000E+00 0. -1.
</event>
<event>
 7    1  0.2983653E-010  0.4778728E+02  0.7816164E-02  0.1312668E+00
        -11   -1    0    0    0    0  0.00000000000E+00  0.00000000000E+00  0.45593999997E+02  0.45594000000E+02  0.51100000000E-03 0.  1.
         11   -1    0    0    0    0 -0.00000000000E+00 -0.00000000000E+00 -0.45593999997E+02  0.45594000000E+02  0.51100000000E-03 0. -1.
    9900012    2    1    2    0    0 -0.16168856061E+02 -0.11249823361E+02 -0.38673406232E+02  0.47787276716E+02  0.20000025858E+02 0.  0.
        -12    1    1    2    0    0  0.16168856061E+02  0.11249823361E+02  0.38673406232E+02  0.43400723284E+02  0.00000000000E+00 0.  1.
         11    1    3    3    0    0 -0.79126102576E+01 -0.81243431519E+01 -0.23953438276E+02  0.26502482115E+02  0.51100000000E-03 0. -1.
        -11    1    3    3    0    0  0.11620585258E+00  0.35956490756E+01 -0.76559190204E+00  0.36780874509E+01  0.51100000000E-03 0.  1.
        -12    1    3    3    0    0 -0.83724516562E+01 -0.67211292851E+01 -0.13954376054E+02  0.17606707150E+02  0.00000000000E+00 0.  1.
</event>
<event>
 7    1  0.2983653E-010  0.4778727E+02  0.7816164E-02  0.1312668E+00
        -11   -1    0    0    0    0  0.00000000000E+00  0.00000000000E+00  0.45593999997E+02  0.45594000000E+02  0.51100000000E-03 0.  1.
         11   -1    0    0    0    0 -0.00000000000E+00 -0.00000000000E+00 -0.45593999997E+02  0.45594000000E+02  0.51100000000E-03 0. -1.
    9900012    2    1    2    0    0 -0.40792763542E+02 -0.12278397002E+02  0.82954668727E+01  0.47787270041E+02  0.19999995425E+02 0.  0.
        -12    1    1    2    0    0  0.40792763542E+02  0.12278397002E+02 -0.82954668727E+01  0.43400729959E+02  0.00000000000E+00 0.  1.
         11    1    3    3    0    0 -0.10913955132E+00 -0.43477365821E+01 -0.16846564904E+01  0.46639889130E+01  0.51100000000E-03 0. -1.
        -11    1    3    3    0    0 -0.31027665658E+02 -0.31770988214E+01  0.74327339447E+01  0.32063304996E+02  0.51100000000E-03 0.  1.
        -12    1    3    3    0    0 -0.96559583321E+01 -0.47535615990E+01  0.25473894184E+01  0.11059976132E+02  0.00000000000E+00 0.  1.
</event>
<event>
 7    1  0.2983653E-010  0.4778727E+02  0.7816164E-02  0.1312668E+00
        -11   -1    0    0    0    0  0.00000000000E+00  0.00000000000E+00  0.45593999997E+02  0.45594000000E+02  0.51100000000E-03 0.  1.
         11   -1    0    0    0    0 -0.00000000000E+00 -0.00000000000E+00 -0.45593999997E+02  0.45594000000E+02  0.51100000000E-03 0. -1.
    9900012    2    1    2    0    0  0.32671326971E+02  0.16701725588E+02 -0.23178870112E+02  0.47787271166E+02  0.20000000556E+02 0.  0.
        -12    1    1    2    0    0 -0.32671326971E+02 -0.16701725588E+02  0.23178870112E+02  0.43400728834E+02  0.00000000000E+00 0.  1.
         11    1    3    3    0    0  0.44158814282E+01  0.10182083931E+02 -0.33185522579E+01  0.11583938506E+02  0.51100000000E-03 0.  1.
        -11    1    3    3    0    0  0.12609218108E+02 -0.14421641566E+01 -0.90275601672E+01  0.15574628778E+02  0.51100000000E-03 0. -1.
        -12    1    3    3    0    0  0.15646227435E+02  0.79618058138E+01 -0.10832757686E+02  0.20628703882E+02  0.00000000000E+00 0.  1.
</event>
<event>
 7    1  0.2983653E-010  0.4778730E+02  0.7816164E-02  0.1312668E+00
        -11   -1    0    0    0    0  0.00000000000E+00  0.00000000000E+00  0.45593999997E+02  0.45594000000E+02  0.51100000000E-03 0.  1.
         11   -1    0    0    0    0 -0.00000000000E+00 -0.00000000000E+00 -0.45593999997E+02  0.45594000000E+02  0.51100000000E-03 0. -1.
    9900012    2    1    2    0    0  0.27814132471E+02 -0.20200047971E+02 -0.26494387714E+02  0.47787303192E+02  0.20000146572E+02 0.  0.
        -12    1    1    2    0    0 -0.27814132471E+02  0.20200047971E+02  0.26494387714E+02  0.43400696808E+02  0.00000000000E+00 0.  1.
         11    1    3    3    0    0  0.58638996589E+01 -0.60107207223E+01 -0.12996877834E+02  0.15473620019E+02  0.51100000000E-03 0. -1.
        -11    1    3    3    0    0  0.14878864276E+02 -0.12432611000E+02 -0.31278893683E+01  0.19640114831E+02  0.51100000000E-03 0.  1.
        -12    1    3    3    0    0  0.70713685363E+01 -0.17567162485E+01 -0.10369620512E+02  0.12673568342E+02  0.00000000000E+00 0.  1.
</event>
<event>
 7    1  0.2983653E-010  0.4778727E+02  0.7816164E-02  0.1312668E+00
        -11   -1    0    0    0    0  0.00000000000E+00  0.00000000000E+00  0.45593999997E+02  0.45594000000E+02  0.51100000000E-03 0.  1.
         11   -1    0    0    0    0 -0.00000000000E+00 -0.00000000000E+00 -0.45593999997E+02  0.45594000000E+02  0.51100000000E-03 0. -1.
    9900012    2    1    2    0    0  0.22142450381E+02 -0.37305767455E+02  0.12706617576E+01  0.47787274481E+02  0.20000015667E+02 0.  0.
        -12    1    1    2    0    0 -0.22142450381E+02  0.37305767455E+02 -0.12706617576E+01  0.43400725519E+02  0.00000000000E+00 0.  1.
         11    1    3    3    0    0  0.58965423636E+01 -0.69876176264E+01  0.11647429773E+01  0.92169755561E+01  0.51100000000E-03 0. -1.
        -11    1    3    3    0    0  0.75303931106E+01 -0.68607449964E+01  0.72999041728E+01  0.12532567315E+02  0.51100000000E-03 0.  1.
        -12    1    3    3    0    0  0.87155149073E+01 -0.23457404832E+02 -0.71939853924E+01  0.26037731610E+02  0.00000000000E+00 0.  1.
</event>
<event>
 7    1  0.2983653E-010  0.4778728E+02  0.7816164E-02  0.1312668E+00
        -11   -1    0    0    0    0  0.00000000000E+00  0.00000000000E+00  0.45593999997E+02  0.45594000000E+02  0.51100000000E-03 0.  1.
         11   -1    0    0    0    0 -0.00000000000E+00 -0.00000000000E+00 -0.45593999997E+02  0.45594000000E+02  0.51100000000E-03 0. -1.
    9900012    2    1    2    0    0  0.21331809090E+02  0.35175150167E+02 -0.13830585790E+02  0.47787281438E+02  0.20000047390E+02 0.  0.
        -12    1    1    2    0    0 -0.21331809090E+02 -0.35175150167E+02  0.13830585790E+02  0.43400718562E+02  0.00000000000E+00 0.  1.
         11    1    3    3    0    0  0.39271555766E+01  0.17878227374E+02 -0.11595190824E+02  0.21667995188E+02  0.51100000000E-03 0.  1.
        -11    1    3    3    0    0  0.80810031746E+01  0.71700650803E+01  0.32797753236E+01  0.11290233478E+02  0.51100000000E-03 0. -1.
         12    1    3    3    0    0  0.93236503392E+01  0.10126857713E+02 -0.55151702901E+01  0.14829052772E+02  0.00000000000E+00 0. -1.
</event>
<event>
 7    1  0.2983653E-010  0.4778727E+02  0.7816164E-02  0.1312668E+00
        -11   -1    0    0    0    0  0.00000000000E+00  0.00000000000E+00  0.45593999997E+02  0.45594000000E+02  0.51100000000E-03 0.  1.
         11   -1    0    0    0    0 -0.00000000000E+00 -0.00000000000E+00 -0.45593999997E+02  0.45594000000E+02  0.51100000000E-03 0. -1.
    9900012    2    1    2    0    0  0.19328523829E+02  0.26976139975E+02 -0.27969970586E+02  0.47787271712E+02  0.20000003045E+02 0.  0.
        -12    1    1    2    0    0 -0.19328523829E+02 -0.26976139975E+02  0.27969970586E+02  0.43400728288E+02  0.00000000000E+00 0.  1.
         11    1    3    3    0    0  0.11259199735E+02  0.31067485069E+01 -0.14048158452E+02  0.18269434067E+02  0.51100000000E-03 0. -1.
        -11    1    3    3    0    0  0.88561842833E+01  0.17831541589E+02 -0.10052907983E+02  0.22303740374E+02  0.51100000000E-03 0.  1.
         12    1    3    3    0    0 -0.78686018941E+00  0.60378498790E+01 -0.38689041505E+01  0.72140972717E+01  0.00000000000E+00 0. -1.
</event>
<event>
 7    1  0.2983653E-010  0.4778724E+02  0.7816164E-02  0.1312668E+00
        -11   -1    0    0    0    0  0.00000000000E+00  0.00000000000E+00  0.45593999997E+02  0.45594000000E+02  0.51100000000E-03 0.  1.
         11   -1    0    0    0    0 -0.00000000000E+00 -0.00000000000E+00 -0.45593999997E+02  0.45594000000E+02  0.51100000000E-03 0. -1.
    9900012    2    1    2    0    0  0.52208094740E+01  0.42340143495E+02  0.79800646001E+01  0.47787239249E+02  0.19999855033E+02 0.  0.
        -12    1    1    2    0    0 -0.52208094740E+01 -0.42340143495E+02 -0.79800646001E+01  0.43400760751E+02  0.00000000000E+00 0.  1.
         11    1    3    3    0    0  0.33866835841E+01  0.23495055994E+02 -0.33952117887E+00  0.23740315009E+02  0.51100000000E-03 0.  1.
        -11    1    3    3    0    0  0.32300491721E+01 -0.35124144638E+00  0.18657869765E+01  0.37466984815E+01  0.51100000000E-03 0. -1.
        -12    1    3    3    0    0 -0.13959232823E+01  0.19196328948E+02  0.64537988025E+01  0.20300225759E+02  0.00000000000E+00 0.  1.
</event>
<event>
 7    1  0.2983653E-010  0.4778728E+02  0.7816164E-02  0.1312668E+00
        -11   -1    0    0    0    0  0.00000000000E+00  0.00000000000E+00  0.45593999997E+02  0.45594000000E+02  0.51100000000E-03 0.  1.
         11   -1    0    0    0    0 -0.00000000000E+00 -0.00000000000E+00 -0.45593999997E+02  0.45594000000E+02  0.51100000000E-03 0. -1.
    9900012    2    1    2    0    0  0.32045785759E+02 -0.22089375203E+02 -0.19202864514E+02  0.47787275498E+02  0.20000020304E+02 0.  0.
        -12    1    1    2    0    0 -0.32045785759E+02  0.22089375203E+02  0.19202864514E+02  0.43400724502E+02  0.00000000000E+00 0.  1.
         11    1    3    3    0    0  0.12022622812E+02 -0.29928001905E+01 -0.12970505812E+02  0.17936954411E+02  0.51100000000E-03 0. -1.
        -11    1    3    3    0    0  0.87112541618E+01 -0.10229947252E+02  0.15165664151E+01  0.13521750767E+02  0.51100000000E-03 0.  1.
         12    1    3    3    0    0  0.11311908785E+02 -0.88666277605E+01 -0.77489251172E+01  0.16328570320E+02  0.00000000000E+00 0. -1.
</event>
<event>
 7    1  0.2983653E-010  0.4778727E+02  0.7816164E-02  0.1312668E+00
        -11   -1    0    0    0    0  0.00000000000E+00  0.00000000000E+00  0.45593999997E+02  0.45594000000E+02  0.51100000000E-03 0. -1.
         11   -1    0    0    0    0 -0.00000000000E+00 -0.00000000000E+00 -0.45593999997E+02  0.45594000000E+02  0.51100000000E-03 0.  1.
    9900012    2    1    2    0    0  0.10798679063E+02 -0.41215372590E+02  0.82646560172E+01  0.47787274818E+02  0.20000017204E+02 0.  0.
        -12    1    1    2    0    0 -0.10798679063E+02  0.41215372590E+02 -0.82646560172E+01  0.43400725182E+02  0.00000000000E+00 0.  1.
         11    1    3    3    0    0  0.13123053340E+02 -0.20027806324E+02  0.45544152902E+01  0.24373556450E+02  0.51100000000E-03 0. -1.
        -11    1    3    3    0    0 -0.42936355456E+01 -0.15089290603E+02  0.57185925623E+01  0.16698032766E+02  0.51100000000E-03 0.  1.
        -12    1    3    3    0    0  0.19692612688E+01 -0.60982756636E+01 -0.20083518352E+01  0.67156856022E+01  0.00000000000E+00 0.  1.
</event>
<event>
 7    1  0.2983653E-010  0.4778727E+02  0.7816164E-02  0.1312668E+00
        -11   -1    0    0    0    0  0.00000000000E+00  0.00000000000E+00  0.45593999997E+02  0.45594000000E+02  0.51100000000E-03 0.  1.
         11   -1    0    0    0    0 -0.00000000000E+00 -0.00000000000E+00 -0.45593999997E+02  0.45594000000E+02  0.51100000000E-03 0. -1.
    9900012    2    1    2    0    0 -0.86245917212E+01  0.40793296203E+02 -0.12047681372E+02  0.47787271620E+02  0.20000002625E+02 0.  0.
        -12    1    1    2    0    0  0.86245917212E+01 -0.40793296203E+02  0.12047681372E+02  0.43400728380E+02  0.00000000000E+00 0.  1.
         11    1    3    3    0    0 -0.45588787893E+01  0.28474790046E+02 -0.42470988182E+01  0.29148497261E+02  0.51100000000E-03 0. -1.
        -11    1    3    3    0    0 -0.73007442069E+01  0.95191369053E+01 -0.78921976011E+01  0.14359722025E+02  0.51100000000E-03 0.  1.
         12    1    3    3    0    0  0.32350312750E+01  0.27993692518E+01  0.91615047250E-01  0.42790523338E+01  0.00000000000E+00 0. -1.
</event>
<event>
 7    1  0.2983653E-010  0.4778727E+02  0.7816164E-02  0.1312668E+00
        -11   -1    0    0    0    0  0.00000000000E+00  0.00000000000E+00  0.45593999997E+02  0.45594000000E+02  0.51100000000E-03 0.  1.
         11   -1    0    0    0    0 -0.00000000000E+00 -0.00000000000E+00 -0.45593999997E+02  0.45594000000E+02  0.51100000000E-03 0. -1.
    9900012    2    1    2    0    0  0.23188826304E+02  0.31315296349E+02 -0.19111612822E+02  0.47787271948E+02  0.20000004118E+02 0.  0.
        -12    1    1    2    0    0 -0.23188826304E+02 -0.31315296349E+02  0.19111612822E+02  0.43400728052E+02  0.00000000000E+00 0.  1.
         11    1    3    3    0    0  0.14661116111E+00  0.12865730792E+01 -0.56689784463E+01  0.58149877048E+01  0.51100000000E-03 0. -1.
        -11    1    3    3    0    0  0.20035213916E+02  0.16694175956E+02 -0.83051510536E+01  0.27369341274E+02  0.51100000000E-03 0.  1.
        -12    1    3    3    0    0  0.30070012268E+01  0.13334547314E+02 -0.51374833222E+01  0.14602942969E+02  0.00000000000E+00 0.  1.
</event>
<event>
 7    1  0.2983653E-010  0.4778727E+02  0.7816164E-02  0.1312668E+00
        -11   -1    0    0    0    0  0.00000000000E+00  0.00000000000E+00  0.45593999997E+02  0.45594000000E+02  0.51100000000E-03 0. -1.
         11   -1    0    0    0    0 -0.00000000000E+00 -0.00000000000E+00 -0.45593999997E+02  0.45594000000E+02  0.51100000000E-03 0.  1.
    9900012    2    1    2    0    0  0.15925567346E+02 -0.14781041573E+02  0.37570207294E+02  0.47787270036E+02  0.19999995402E+02 0.  0.
        -12    1    1    2    0    0 -0.15925567346E+02  0.14781041573E+02 -0.37570207294E+02  0.43400729964E+02  0.00000000000E+00 0.  1.
         11    1    3    3    0    0  0.10787497637E+02  0.13823911678E+01  0.12449124197E+02  0.16530632297E+02  0.51100000000E-03 0. -1.
        -11    1    3    3    0    0  0.56308425555E+01 -0.15696494160E+02  0.19775249115E+02  0.25867871862E+02  0.51100000000E-03 0.  1.
        -12    1    3    3    0    0 -0.49277284640E+00 -0.46693858023E+00  0.53458339822E+01  0.53887658774E+01  0.00000000000E+00 0.  1.
</event>
<event>
 7    1  0.2983653E-010  0.4778726E+02  0.7816164E-02  0.1312668E+00
        -11   -1    0    0    0    0  0.00000000000E+00  0.00000000000E+00  0.45593999997E+02  0.45594000000E+02  0.51100000000E-03 0. -1.
         11   -1    0    0    0    0 -0.00000000000E+00 -0.00000000000E+00 -0.45593999997E+02  0.45594000000E+02  0.51100000000E-03 0.  1.
    9900012    2    1    2    0    0  0.74690914614E+01 -0.22981830982E+02  0.36050965816E+02  0.47787262462E+02  0.19999960871E+02 0.  0.
        -12    1    1    2    0    0 -0.74690914614E+01  0.22981830982E+02 -0.36050965816E+02  0.43400737538E+02  0.00000000000E+00 0.  1.
         11    1    3    3    0    0  0.28443489357E+01 -0.20213902187E+02  0.13588980849E+02  0.24522490968E+02  0.51100000000E-03 0.  1.
        -11    1    3    3    0    0  0.40487126221E+01 -0.12940462011E+01  0.18817207749E+02  0.19291291746E+02  0.51100000000E-03 0. -1.
        -12    1    3    3    0    0  0.57602990351E+00 -0.14738825946E+01  0.36447772174E+01  0.39734797491E+01  0.00000000000E+00 0.  1.
</event>
<event>
 7    1  0.2983653E-010  0.4778727E+02  0.7816164E-02  0.1312668E+00
        -11   -1    0    0    0    0  0.00000000000E+00  0.00000000000E+00  0.45593999997E+02  0.45594000000E+02  0.51100000000E-03 0.  1.
         11   -1    0    0    0    0 -0.00000000000E+00 -0.00000000000E+00 -0.45593999997E+02  0.45594000000E+02  0.51100000000E-03 0. -1.
    9900012    2    1    2    0    0 -0.16134427515E+01 -0.19898099297E+02 -0.38536814176E+02  0.47787267288E+02  0.19999982871E+02 0.  0.
        -12    1    1    2    0    0  0.16134427515E+01  0.19898099297E+02  0.38536814176E+02  0.43400732712E+02  0.00000000000E+00 0.  1.
         11    1    3    3    0    0  0.81816772558E+00 -0.21714093922E+02 -0.28603098059E+02  0.35920864300E+02  0.51100000000E-03 0. -1.
        -11    1    3    3    0    0 -0.20223887603E+01  0.17282938441E+01 -0.87857832501E+00  0.28015988370E+01  0.51100000000E-03 0.  1.
         12    1    3    3    0    0 -0.40922171677E+00  0.87700780897E-01 -0.90551377924E+01  0.90648041501E+01  0.00000000000E+00 0. -1.
</event>
<event>
 7    1  0.2983653E-010  0.4778727E+02  0.7816164E-02  0.1312668E+00
        -11   -1    0    0    0    0  0.00000000000E+00  0.00000000000E+00  0.45593999997E+02  0.45594000000E+02  0.51100000000E-03 0.  1.
         11   -1    0    0    0    0 -0.00000000000E+00 -0.00000000000E+00 -0.45593999997E+02  0.45594000000E+02  0.51100000000E-03 0. -1.
    9900012    2    1    2    0    0 -0.21559578034E+01 -0.11316202805E+02 -0.41843980387E+02  0.47787270806E+02  0.19999998911E+02 0.  0.
        -12    1    1    2    0    0  0.21559578034E+01  0.11316202805E+02  0.41843980387E+02  0.43400729194E+02  0.00000000000E+00 0.  1.
         11    1    3    3    0    0  0.64437438860E+00 -0.25572947468E+01 -0.16940493384E+02  0.17144541147E+02  0.51100000000E-03 0. -1.
        -11    1    3    3    0    0  0.17165225408E+01 -0.10709270745E+02 -0.22884557996E+02  0.25324650529E+02  0.51100000000E-03 0.  1.
        -12    1    3    3    0    0 -0.45168547328E+01  0.19503626871E+01 -0.20189290076E+01  0.53180791294E+01  0.00000000000E+00 0.  1.
</event>
<event>
 7    1  0.2983653E-010  0.4778727E+02  0.7816164E-02  0.1312668E+00
        -11   -1    0    0    0    0  0.00000000000E+00  0.00000000000E+00  0.45593999997E+02  0.45594000000E+02  0.51100000000E-03 0. -1.
         11   -1    0    0    0    0 -0.00000000000E+00 -0.00000000000E+00 -0.45593999997E+02  0.45594000000E+02  0.51100000000E-03 0.  1.
    9900012    2    1    2    0    0  0.67980825329E+01  0.36252815346E+02  0.22872322331E+02  0.47787266418E+02  0.19999978905E+02 0.  0.
        -12    1    1    2    0    0 -0.67980825329E+01 -0.36252815346E+02 -0.22872322331E+02  0.43400733582E+02  0.00000000000E+00 0.  1.
         11    1    3    3    0    0 -0.22532296322E+01  0.84654012757E+01  0.92918100261E+00  0.88092814764E+01  0.51100000000E-03 0. -1.
        -11    1    3    3    0    0  0.54115455057E+01  0.50296698136E+01  0.11515641763E+02  0.13681827680E+02  0.51100000000E-03 0.  1.
         12    1    3    3    0    0  0.36397666595E+01  0.22757744257E+02  0.10427499566E+02  0.25296157261E+02  0.00000000000E+00 0. -1.
</event>
<event>
 7    1  0.2983653E-010  0.4778727E+02  0.7816164E-02  0.1312668E+00
        -11   -1    0    0    0    0  0.00000000000E+00  0.00000000000E+00  0.45593999997E+02  0.45594000000E+02  0.51100000000E-03 0. -1.
         11   -1    0    0    0    0 -0.00000000000E+00 -0.00000000000E+00 -0.45593999997E+02  0.45594000000E+02  0.51100000000E-03 0.  1.
    9900012    2    1    2    0    0 -0.40960241655E+02  0.10746624076E+02  0.95074698626E+01  0.47787270644E+02  0.19999998175E+02 0.  0.
        -12    1    1    2    0    0  0.40960241655E+02 -0.10746624076E+02 -0.95074698626E+01  0.43400729356E+02  0.00000000000E+00 0.  1.
         11    1    3    3    0    0 -0.33674696977E+02  0.26625572316E+01  0.59655932102E+01  0.34302517840E+02  0.51100000000E-03 0. -1.
        -11    1    3    3    0    0 -0.80487558917E+01  0.63827447741E+01  0.46927409377E+01  0.11293525580E+02  0.51100000000E-03 0.  1.
         12    1    3    3    0    0  0.76321121456E+00  0.17013220706E+01 -0.11508642853E+01  0.21912272244E+01  0.00000000000E+00 0. -1.
</event>
<event>
 7    1  0.2983653E-010  0.4778727E+02  0.7816164E-02  0.1312668E+00
        -11   -1    0    0    0    0  0.00000000000E+00  0.00000000000E+00  0.45593999997E+02  0.45594000000E+02  0.51100000000E-03 0. -1.
         11   -1    0    0    0    0 -0.00000000000E+00 -0.00000000000E+00 -0.45593999997E+02  0.45594000000E+02  0.51100000000E-03 0.  1.
    9900012    2    1    2    0    0 -0.30369932048E+02 -0.10221869966E+02  0.29271215010E+02  0.47787269288E+02  0.19999991992E+02 0.  0.
        -12    1    1    2    0    0  0.30369932048E+02  0.10221869966E+02 -0.29271215010E+02  0.43400730712E+02  0.00000000000E+00 0.  1.
         11    1    3    3    0    0 -0.55223385228E+01 -0.61249080485E+01  0.13241248172E+02  0.15599403026E+02  0.51100000000E-03 0. -1.
        -11    1    3    3    0    0 -0.14543278815E+02 -0.73594628855E+01  0.57850063658E+01  0.17295518251E+02  0.51100000000E-03 0.  1.
         12    1    3    3    0    0 -0.10304314710E+02  0.32625009682E+01  0.10244960472E+02  0.14892348011E+02  0.00000000000E+00 0. -1.
</event>
<event>
 7    1  0.2983653E-010  0.4778727E+02  0.7816164E-02  0.1312668E+00
        -11   -1    0    0    0    0  0.00000000000E+00  0.00000000000E+00  0.45593999997E+02  0.45594000000E+02  0.51100000000E-03 0. -1.
         11   -1    0    0    0    0 -0.00000000000E+00 -0.00000000000E+00 -0.45593999997E+02  0.45594000000E+02  0.51100000000E-03 0.  1.
    9900012    2    1    2    0    0 -0.85030734952E-01  0.31999067736E+02  0.29320230857E+02  0.47787268397E+02  0.19999987930E+02 0.  0.
        -12    1    1    2    0    0  0.85030734952E-01 -0.31999067736E+02 -0.29320230857E+02  0.43400731603E+02  0.00000000000E+00 0.  1.
         11    1    3    3    0    0  0.22597316473E+01  0.18360835115E+02  0.60964601209E+01  0.19478025555E+02  0.51100000000E-03 0. -1.
        -11    1    3    3    0    0 -0.47634988402E+00 -0.10274682927E+01  0.33722570725E+01  0.35573470913E+01  0.51100000000E-03 0.  1.
         12    1    3    3    0    0 -0.18684124982E+01  0.14665700913E+02  0.19851513663E+02  0.24751895751E+02  0.00000000000E+00 0. -1.
</event>
<event>
 7    1  0.2983653E-010  0.4778727E+02  0.7816164E-02  0.1312668E+00
        -11   -1    0    0    0    0  0.00000000000E+00  0.00000000000E+00  0.45593999997E+02  0.45594000000E+02  0.51100000000E-03 0.  1.
         11   -1    0    0    0    0 -0.00000000000E+00 -0.00000000000E+00 -0.45593999997E+02  0.45594000000E+02  0.51100000000E-03 0. -1.
    9900012    2    1    2    0    0  0.59434343523E+01  0.33201923110E+02 -0.27311738625E+02  0.47787272163E+02  0.20000005099E+02 0.  0.
        -12    1    1    2    0    0 -0.59434343523E+01 -0.33201923110E+02  0.27311738625E+02  0.43400727837E+02  0.00000000000E+00 0.  1.
         11    1    3    3    0    0  0.89183502311E+01  0.26897529488E+02 -0.28923853422E+02  0.40492016009E+02  0.51100000000E-03 0. -1.
        -11    1    3    3    0    0 -0.29785703039E+01  0.62483359106E+01  0.13822492304E+01  0.70586256384E+01  0.51100000000E-03 0.  1.
         12    1    3    3    0    0  0.36544251192E-02  0.56057711213E-01  0.22986556726E+00  0.23663051540E+00  0.00000000000E+00 0. -1.
</event>
<event>
 7    1  0.2983653E-010  0.4778727E+02  0.7816164E-02  0.1312668E+00
        -11   -1    0    0    0    0  0.00000000000E+00  0.00000000000E+00  0.45593999997E+02  0.45594000000E+02  0.51100000000E-03 0.  1.
         11   -1    0    0    0    0 -0.00000000000E+00 -0.00000000000E+00 -0.45593999997E+02  0.45594000000E+02  0.51100000000E-03 0. -1.
    9900012    2    1    2    0    0 -0.40363946382E+02  0.52787987597E+01 -0.15050227480E+02  0.47787271537E+02  0.20000002248E+02 0.  0.
        -12    1    1    2    0    0  0.40363946382E+02 -0.52787987597E+01  0.15050227480E+02  0.43400728463E+02  0.00000000000E+00 0.  1.
         11    1    3    3    0    0 -0.32125081315E+02  0.36380522222E+01 -0.12826872797E+02  0.34781962846E+02  0.51100000000E-03 0. -1.
        -11    1    3    3    0    0 -0.90527130900E+00  0.11461844725E+01  0.34328690445E+01  0.37306628266E+01  0.51100000000E-03 0.  1.
        -12    1    3    3    0    0 -0.73335937584E+01  0.49456206496E+00 -0.56562237280E+01  0.92746458644E+01  0.00000000000E+00 0.  1.
</event>
<event>
 7    1  0.2983653E-010  0.4778727E+02  0.7816164E-02  0.1312668E+00
        -11   -1    0    0    0    0  0.00000000000E+00  0.00000000000E+00  0.45593999997E+02  0.45594000000E+02  0.51100000000E-03 0. -1.
         11   -1    0    0    0    0 -0.00000000000E+00 -0.00000000000E+00 -0.45593999997E+02  0.45594000000E+02  0.51100000000E-03 0.  1.
    9900012    2    1    2    0    0  0.15442900464E+02  0.20781826447E+01  0.40507050033E+02  0.47787272814E+02  0.20000008068E+02 0.  0.
        -12    1    1    2    0    0 -0.15442900464E+02 -0.20781826447E+01 -0.40507050033E+02  0.43400727186E+02  0.00000000000E+00 0.  1.
         11    1    3    3    0    0  0.89393074174E+00  0.33939532356E+01 -0.31493837358E+00  0.35238071992E+01  0.51100000000E-03 0.  1.
        -11    1    3    3    0    0  0.59183689563E+01 -0.18643121955E+01  0.70041954027E+01  0.93574304468E+01  0.51100000000E-03 0. -1.
         12    1    3    3    0    0  0.86306007663E+01  0.54854160465E+00  0.33817793004E+02  0.34906035168E+02  0.00000000000E+00 0. -1.
</event>
<event>
 7    1  0.2983653E-010  0.4778727E+02  0.7816164E-02  0.1312668E+00
        -11   -1    0    0    0    0  0.00000000000E+00  0.00000000000E+00  0.45593999997E+02  0.45594000000E+02  0.51100000000E-03 0.  1.
         11   -1    0    0    0    0 -0.00000000000E+00 -0.00000000000E+00 -0.45593999997E+02  0.45594000000E+02  0.51100000000E-03 0. -1.
    9900012    2    1    2    0    0  0.16887357153E+02 -0.53874808794E+01 -0.39615847784E+02  0.47787272155E+02  0.20000005066E+02 0.  0.
        -12    1    1    2    0    0 -0.16887357153E+02  0.53874808794E+01  0.39615847784E+02  0.43400727845E+02  0.00000000000E+00 0.  1.
         11    1    3    3    0    0 -0.11473965926E+01  0.32369355657E+01 -0.32264930561E+01  0.47121681315E+01  0.51100000000E-03 0.  1.
        -11    1    3    3    0    0 -0.84432127888E+00 -0.11413408286E+01 -0.19784838107E-01  0.14198341487E+01  0.51100000000E-03 0. -1.
         12    1    3    3    0    0  0.18879075024E+02 -0.74830756165E+01 -0.36369569889E+02  0.41655269875E+02  0.00000000000E+00 0. -1.
</event>
<event>
 7    1  0.2983653E-010  0.4778727E+02  0.7816164E-02  0.1312668E+00
        -11   -1    0    0    0    0  0.00000000000E+00  0.00000000000E+00  0.45593999997E+02  0.45594000000E+02  0.51100000000E-03 0. -1.
         11   -1    0    0    0    0 -0.00000000000E+00 -0.00000000000E+00 -0.45593999997E+02  0.45594000000E+02  0.51100000000E-03 0.  1.
    9900012    2    1    2    0    0  0.32851533553E+02 -0.23422722011E+02 -0.15993000938E+02  0.47787271409E+02  0.20000001663E+02 0.  0.
        -12    1    1    2    0    0 -0.32851533553E+02  0.23422722011E+02  0.15993000938E+02  0.43400728591E+02  0.00000000000E+00 0.  1.
         11    1    3    3    0    0  0.18652833157E+02 -0.45743103171E+01 -0.62570714839E+01  0.20199095115E+02  0.51100000000E-03 0. -1.
        -11    1    3    3    0    0  0.10886119845E+02 -0.15407753420E+02 -0.11941652582E+02  0.22327327144E+02  0.51100000000E-03 0.  1.
        -12    1    3    3    0    0  0.33125805509E+01 -0.34406582734E+01  0.22057231278E+01  0.52608491498E+01  0.00000000000E+00 0.  1.
</event>
<event>
 7    1  0.2983653E-010  0.4778727E+02  0.7816164E-02  0.1312668E+00
        -11   -1    0    0    0    0  0.00000000000E+00  0.00000000000E+00  0.45593999997E+02  0.45594000000E+02  0.51100000000E-03 0. -1.
         11   -1    0    0    0    0 -0.00000000000E+00 -0.00000000000E+00 -0.45593999997E+02  0.45594000000E+02  0.51100000000E-03 0.  1.
    9900012    2    1    2    0    0 -0.63444924895E+01 -0.42308935320E+02  0.73023905252E+01  0.47787268436E+02  0.19999988108E+02 0.  0.
        -12    1    1    2    0    0  0.63444924895E+01  0.42308935320E+02 -0.73023905252E+01  0.43400731564E+02  0.00000000000E+00 0.  1.
         11    1    3    3    0    0 -0.94528036432E+01 -0.31565787798E+02  0.11563465337E+02  0.34920884681E+02  0.51100000000E-03 0. -1.
        -11    1    3    3    0    0  0.35038174626E+01 -0.10972828449E+02 -0.44801454741E+01  0.12359263923E+02  0.51100000000E-03 0.  1.
         12    1    3    3    0    0 -0.39550630881E+00  0.22968092761E+00  0.21907066276E+00  0.50711983209E+00  0.00000000000E+00 0. -1.
</event>
<event>
 7    1  0.2983653E-010  0.4778727E+02  0.7816164E-02  0.1312668E+00
        -11   -1    0    0    0    0  0.00000000000E+00  0.00000000000E+00  0.45593999997E+02  0.45594000000E+02  0.51100000000E-03 0. -1.
         11   -1    0    0    0    0 -0.00000000000E+00 -0.00000000000E+00 -0.45593999997E+02  0.45594000000E+02  0.51100000000E-03 0.  1.
    9900012    2    1    2    0    0 -0.43388753575E+02  0.97249695151E+00  0.30599006489E+00  0.47787270547E+02  0.19999997731E+02 0.  0.
        -12    1    1    2    0    0  0.43388753575E+02 -0.97249695151E+00 -0.30599006489E+00  0.43400729453E+02  0.00000000000E+00 0.  1.
         11    1    3    3    0    0 -0.10628147502E+02  0.31256552873E+01  0.13715432977E+01  0.11162811993E+02  0.51100000000E-03 0. -1.
        -11    1    3    3    0    0 -0.15718055437E+02  0.38020566648E+01 -0.69994941640E+01  0.17621175341E+02  0.51100000000E-03 0.  1.
        -12    1    3    3    0    0 -0.17042550637E+02 -0.59552150005E+01  0.59339409312E+01  0.19003283213E+02  0.00000000000E+00 0.  1.
</event>
<event>
 7    1  0.2983653E-010  0.4778727E+02  0.7816164E-02  0.1312668E+00
        -11   -1    0    0    0    0  0.00000000000E+00  0.00000000000E+00  0.45593999997E+02  0.45594000000E+02  0.51100000000E-03 0.  1.
         11   -1    0    0    0    0 -0.00000000000E+00 -0.00000000000E+00 -0.45593999997E+02  0.45594000000E+02  0.51100000000E-03 0. -1.
    9900012    2    1    2    0    0  0.30328216094E+02 -0.27057724390E+02 -0.15221767512E+02  0.47787270204E+02  0.19999996168E+02 0.  0.
        -12    1    1    2    0    0 -0.30328216094E+02  0.27057724390E+02  0.15221767512E+02  0.43400729796E+02  0.00000000000E+00 0.  1.
         11    1    3    3    0    0  0.38200920494E+01 -0.37281219807E+01 -0.83556253459E+00  0.54027920356E+01  0.51100000000E-03 0. -1.
        -11    1    3    3    0    0  0.13281453214E+02 -0.29295020530E+00 -0.54293506499E+01  0.14351329835E+02  0.51100000000E-03 0.  1.
        -12    1    3    3    0    0  0.13226670831E+02 -0.23036652204E+02 -0.89568543274E+01  0.28033148334E+02  0.00000000000E+00 0.  1.
</event>
<event>
 7    1  0.2983653E-010  0.4778727E+02  0.7816164E-02  0.1312668E+00
        -11   -1    0    0    0    0  0.00000000000E+00  0.00000000000E+00  0.45593999997E+02  0.45594000000E+02  0.51100000000E-03 0.  1.
         11   -1    0    0    0    0 -0.00000000000E+00 -0.00000000000E+00 -0.45593999997E+02  0.45594000000E+02  0.51100000000E-03 0. -1.
    9900012    2    1    2    0    0 -0.27124015684E+02  0.14374935636E+02 -0.30680160196E+02  0.47787271538E+02  0.20000002250E+02 0.  0.
        -12    1    1    2    0    0  0.27124015684E+02 -0.14374935636E+02  0.30680160196E+02  0.43400728462E+02  0.00000000000E+00 0.  1.
         11    1    3    3    0    0 -0.58561818917E+01  0.11507894640E+02 -0.76000746947E+01  0.14982911634E+02  0.51100000000E-03 0. -1.
        -11    1    3    3    0    0 -0.20002863322E+02 -0.17324717335E+00 -0.19394799245E+02  0.27862210854E+02  0.51100000000E-03 0.  1.
        -12    1    3    3    0    0 -0.12649704706E+01  0.30402881690E+01 -0.36852862560E+01  0.49421490498E+01  0.00000000000E+00 0.  1.
</event>
<event>
 7    1  0.2983653E-010  0.4778729E+02  0.7816164E-02  0.1312668E+00
        -11   -1    0    0    0    0  0.00000000000E+00  0.00000000000E+00  0.45593999997E+02  0.45594000000E+02  0.51100000000E-03 0.  1.
         11   -1    0    0    0    0 -0.00000000000E+00 -0.00000000000E+00 -0.45593999997E+02  0.45594000000E+02  0.51100000000E-03 0. -1.
    9900012    2    1    2    0    0 -0.29685921693E+02 -0.24301742911E+02 -0.20292680499E+02  0.47787291053E+02  0.20000091226E+02 0.  0.
        -12    1    1    2    0    0  0.29685921693E+02  0.24301742911E+02  0.20292680499E+02  0.43400708947E+02  0.00000000000E+00 0.  1.
         11    1    3    3    0    0 -0.12082579901E+02 -0.28518875778E+01 -0.41645360464E+01  0.13094478247E+02  0.51100000000E-03 0. -1.
        -11    1    3    3    0    0 -0.13916401039E+02 -0.22790555541E+02 -0.13140148840E+02  0.29761370122E+02  0.51100000000E-03 0.  1.
        -12    1    3    3    0    0 -0.36869407526E+01  0.13407002076E+01 -0.29879956124E+01  0.49314426833E+01  0.00000000000E+00 0.  1.
</event>
<event>
 7    1  0.2983653E-010  0.4778727E+02  0.7816164E-02  0.1312668E+00
        -11   -1    0    0    0    0  0.00000000000E+00  0.00000000000E+00  0.45593999997E+02  0.45594000000E+02  0.51100000000E-03 0.  1.
         11   -1    0    0    0    0 -0.00000000000E+00 -0.00000000000E+00 -0.45593999997E+02  0.45594000000E+02  0.51100000000E-03 0. -1.
    9900012    2    1    2    0    0  0.29128305805E+01  0.24857832270E+02 -0.35457396395E+02  0.47787269980E+02  0.19999995147E+02 0.  0.
        -12    1    1    2    0    0 -0.29128305805E+01 -0.24857832270E+02  0.35457396395E+02  0.43400730020E+02  0.00000000000E+00 0.  1.
         11    1    3    3    0    0  0.93928949596E+01  0.19737584092E+02 -0.19892973412E+02  0.29555525591E+02  0.51100000000E-03 0. -1.
        -11    1    3    3    0    0 -0.35398934100E+01  0.22725296461E+01 -0.12290071297E+02  0.12990038071E+02  0.51100000000E-03 0.  1.
        -12    1    3    3    0    0 -0.29401709690E+01  0.28477185320E+01 -0.32743516861E+01  0.52417063185E+01  0.00000000000E+00 0.  1.
</event>
<event>
 7    1  0.2983653E-010  0.4778727E+02  0.7816164E-02  0.1312668E+00
        -11   -1    0    0    0    0  0.00000000000E+00  0.00000000000E+00  0.45593999997E+02  0.45594000000E+02  0.51100000000E-03 0. -1.
         11   -1    0    0    0    0 -0.00000000000E+00 -0.00000000000E+00 -0.45593999997E+02  0.45594000000E+02  0.51100000000E-03 0.  1.
    9900012    2    1    2    0    0 -0.15552304629E+02 -0.37546317156E+02  0.15232301747E+02  0.47787272728E+02  0.20000007675E+02 0.  0.
        -12    1    1    2    0    0  0.15552304629E+02  0.37546317156E+02 -0.15232301747E+02  0.43400727272E+02  0.00000000000E+00 0.  1.
         11    1    3    3    0    0 -0.15848780451E+02 -0.30334116378E+02  0.17960642405E+02  0.38651353587E+02  0.51100000000E-03 0. -1.
        -11    1    3    3    0    0  0.22531725923E+01 -0.45491424222E+01 -0.28636077656E+01  0.58285275331E+01  0.51100000000E-03 0.  1.
        -12    1    3    3    0    0 -0.19566967695E+01 -0.26630583560E+01  0.13526710695E+00  0.33073916075E+01  0.00000000000E+00 0.  1.
</event>
<event>
 7    1  0.2983653E-010  0.4778727E+02  0.7816164E-02  0.1312668E+00
        -11   -1    0    0    0    0  0.00000000000E+00  0.00000000000E+00  0.45593999997E+02  0.45594000000E+02  0.51100000000E-03 0.  1.
         11   -1    0    0    0    0 -0.00000000000E+00 -0.00000000000E+00 -0.45593999997E+02  0.45594000000E+02  0.51100000000E-03 0. -1.
    9900012    2    1    2    0    0 -0.24901242241E+02  0.35500216164E+02  0.18128290369E+01  0.47787267726E+02  0.19999984868E+02 0.  0.
        -12    1    1    2    0    0  0.24901242241E+02 -0.35500216164E+02 -0.18128290369E+01  0.43400732274E+02  0.00000000000E+00 0.  1.
         11    1    3    3    0    0 -0.82183212985E+01  0.22838645841E+02 -0.28960619458E+01  0.24444462029E+02  0.51100000000E-03 0. -1.
        -11    1    3    3    0    0 -0.33463430216E+01  0.70756402050E+01  0.41816318206E+01  0.88740487306E+01  0.51100000000E-03 0.  1.
         12    1    3    3    0    0 -0.13336577921E+02  0.55859301178E+01  0.52725916216E+00  0.14468756966E+02  0.00000000000E+00 0. -1.
</event>
<event>
 7    1  0.2983653E-010  0.4778727E+02  0.7816164E-02  0.1312668E+00
        -11   -1    0    0    0    0  0.00000000000E+00  0.00000000000E+00  0.45593999997E+02  0.45594000000E+02  0.51100000000E-03 0.  1.
         11   -1    0    0    0    0 -0.00000000000E+00 -0.00000000000E+00 -0.45593999997E+02  0.45594000000E+02  0.51100000000E-03 0. -1.
    9900012    2    1    2    0    0 -0.29648229500E+02 -0.13562305899E+02 -0.28647332282E+02  0.47787270736E+02  0.19999998593E+02 0.  0.
        -12    1    1    2    0    0  0.29648229500E+02  0.13562305899E+02  0.28647332282E+02  0.43400729264E+02  0.00000000000E+00 0.  1.
         11    1    3    3    0    0 -0.11267990688E+02 -0.30082355621E+01 -0.13716124759E+02  0.18004143246E+02  0.51100000000E-03 0.  1.
        -11    1    3    3    0    0 -0.13278855588E+02 -0.88004563350E+01 -0.23610314986E+01  0.16104362993E+02  0.51100000000E-03 0. -1.
        -12    1    3    3    0    0 -0.51013832243E+01 -0.17536140015E+01 -0.12570176024E+02  0.13678764496E+02  0.00000000000E+00 0.  1.
</event>
<event>
 7    1  0.2983653E-010  0.4778728E+02  0.7816164E-02  0.1312668E+00
        -11   -1    0    0    0    0  0.00000000000E+00  0.00000000000E+00  0.45593999997E+02  0.45594000000E+02  0.51100000000E-03 0. -1.
         11   -1    0    0    0    0 -0.00000000000E+00 -0.00000000000E+00 -0.45593999997E+02  0.45594000000E+02  0.51100000000E-03 0.  1.
    9900012    2    1    2    0    0  0.23491948428E+02 -0.15662697822E+02  0.32961052629E+02  0.47787277259E+02  0.20000028336E+02 0.  0.
        -12    1    1    2    0    0 -0.23491948428E+02  0.15662697822E+02 -0.32961052629E+02  0.43400722741E+02  0.00000000000E+00 0.  1.
         11    1    3    3    0    0  0.22954896836E+02 -0.17380281753E+02  0.28237657442E+02  0.40328238006E+02  0.51100000000E-03 0. -1.
        -11    1    3    3    0    0  0.59744544481E+00  0.28415817444E+01  0.54103823516E+01  0.61403391862E+01  0.51100000000E-03 0.  1.
         12    1    3    3    0    0 -0.60393852150E-01 -0.11239978139E+01 -0.68698716526E+00  0.13187000675E+01  0.00000000000E+00 0. -1.
</event>
<event>
 7    1  0.2983653E-010  0.4778727E+02  0.7816164E-02  0.1312668E+00
        -11   -1    0    0    0    0  0.00000000000E+00  0.00000000000E+00  0.45593999997E+02  0.45594000000E+02  0.51100000000E-03 0.  1.
         11   -1    0    0    0    0 -0.00000000000E+00 -0.00000000000E+00 -0.45593999997E+02  0.45594000000E+02  0.51100000000E-03 0. -1.
    9900012    2    1    2    0    0 -0.12059781257E+01 -0.40777785901E+02 -0.14810160864E+02  0.47787273381E+02  0.20000010655E+02 0.  0.
        -12    1    1    2    0    0  0.12059781257E+01  0.40777785901E+02  0.14810160864E+02  0.43400726619E+02  0.00000000000E+00 0.  1.
         11    1    3    3    0    0 -0.21243202427E+01 -0.21371963893E+02 -0.11385471487E+02  0.24308486962E+02  0.51100000000E-03 0. -1.
        -11    1    3    3    0    0  0.47553557808E+01 -0.54968983069E+01  0.27678682360E+01  0.77775570992E+01  0.51100000000E-03 0.  1.
        -12    1    3    3    0    0 -0.38370136638E+01 -0.13908923701E+02 -0.61925576130E+01  0.15701229320E+02  0.00000000000E+00 0.  1.
</event>
<event>
 7    1  0.2983653E-010  0.4778727E+02  0.7816164E-02  0.1312668E+00
        -11   -1    0    0    0    0  0.00000000000E+00  0.00000000000E+00  0.45593999997E+02  0.45594000000E+02  0.51100000000E-03 0.  1.
         11   -1    0    0    0    0 -0.00000000000E+00 -0.00000000000E+00 -0.45593999997E+02  0.45594000000E+02  0.51100000000E-03 0. -1.
    9900012    2    1    2    0    0 -0.92995289293E+01  0.97070738215E+01 -0.41266387049E+02  0.47787271659E+02  0.20000002802E+02 0.  0.
        -12    1    1    2    0    0  0.92995289293E+01 -0.97070738215E+01  0.41266387049E+02  0.43400728341E+02  0.00000000000E+00 0.  1.
         11    1    3    3    0    0 -0.30037541784E+01  0.19744457565E+01 -0.68190675734E+01  0.77084796193E+01  0.51100000000E-03 0. -1.
        -11    1    3    3    0    0  0.23688049103E+01  0.10719775943E+02 -0.15085589724E+02  0.18657434190E+02  0.51100000000E-03 0.  1.
        -12    1    3    3    0    0 -0.86645796612E+01 -0.29871478784E+01 -0.19361729751E+02  0.21421357849E+02  0.00000000000E+00 0.  1.
</event>
<event>
 7    1  0.2983653E-010  0.4778727E+02  0.7816164E-02  0.1312668E+00
        -11   -1    0    0    0    0  0.00000000000E+00  0.00000000000E+00  0.45593999997E+02  0.45594000000E+02  0.51100000000E-03 0.  1.
         11   -1    0    0    0    0 -0.00000000000E+00 -0.00000000000E+00 -0.45593999997E+02  0.45594000000E+02  0.51100000000E-03 0. -1.
    9900012    2    1    2    0    0 -0.36033289983E+02  0.24121849987E+02 -0.18333958381E+01  0.47787274498E+02  0.20000015747E+02 0.  0.
        -12    1    1    2    0    0  0.36033289983E+02 -0.24121849987E+02  0.18333958381E+01  0.43400725502E+02  0.00000000000E+00 0.  1.
         11    1    3    3    0    0 -0.13040185070E+02  0.13027290885E+02 -0.49637426930E+00  0.18439173575E+02  0.51100000000E-03 0. -1.
        -11    1    3    3    0    0 -0.10993473451E+02 -0.18299582893E+01  0.22024136633E+01  0.11360274295E+02  0.51100000000E-03 0.  1.
        -12    1    3    3    0    0 -0.11999631462E+02  0.12924517392E+02 -0.35394352320E+01  0.17987826628E+02  0.00000000000E+00 0.  1.
</event>
<event>
 7    1  0.2983653E-010  0.4778727E+02  0.7816164E-02  0.1312668E+00
        -11   -1    0    0    0    0  0.00000000000E+00  0.00000000000E+00  0.45593999997E+02  0.45594000000E+02  0.51100000000E-03 0.  1.
         11   -1    0    0    0    0 -0.00000000000E+00 -0.00000000000E+00 -0.45593999997E+02  0.45594000000E+02  0.51100000000E-03 0. -1.
    9900012    2    1    2    0    0  0.79218480846E+01 -0.41918355712E+02 -0.79824272883E+01  0.47787269959E+02  0.19999995051E+02 0.  0.
        -12    1    1    2    0    0 -0.79218480846E+01  0.41918355712E+02  0.79824272883E+01  0.43400730041E+02  0.00000000000E+00 0.  1.
         11    1    3    3    0    0  0.91075764316E+01 -0.21573900491E+02  0.31738803532E+01  0.23631645047E+02  0.51100000000E-03 0. -1.
        -11    1    3    3    0    0 -0.34657839232E+01 -0.62602820577E+01 -0.38768146398E+01  0.81383340836E+01  0.51100000000E-03 0.  1.
         12    1    3    3    0    0  0.22800555762E+01 -0.14084173163E+02 -0.72794930016E+01  0.16017290828E+02  0.00000000000E+00 0. -1.
</event>
<event>
 7    1  0.2983653E-010  0.4778724E+02  0.7816164E-02  0.1312668E+00
        -11   -1    0    0    0    0  0.00000000000E+00  0.00000000000E+00  0.45593999997E+02  0.45594000000E+02  0.51100000000E-03 0.  1.
         11   -1    0    0    0    0 -0.00000000000E+00 -0.00000000000E+00 -0.45593999997E+02  0.45594000000E+02  0.51100000000E-03 0. -1.
    9900012    2    1    2    0    0 -0.11407773612E+02 -0.13225279893E+02 -0.39731351465E+02  0.47787244058E+02  0.19999876959E+02 0.  0.
        -12    1    1    2    0    0  0.11407773612E+02  0.13225279893E+02  0.39731351465E+02  0.43400755942E+02  0.00000000000E+00 0.  1.
         11    1    3    3    0    0 -0.65299930164E+01 -0.84608016488E+01 -0.24120533636E+02  0.26382306884E+02  0.51100000000E-03 0. -1.
        -11    1    3    3    0    0  0.18429285556E+01  0.30677966337E+01 -0.14021847063E+01  0.38436810557E+01  0.51100000000E-03 0.  1.
        -12    1    3    3    0    0 -0.67207091515E+01 -0.78322748779E+01 -0.14208633123E+02  0.17561256119E+02  0.00000000000E+00 0.  1.
</event>
<event>
 7    1  0.2983653E-010  0.4778727E+02  0.7816164E-02  0.1312668E+00
        -11   -1    0    0    0    0  0.00000000000E+00  0.00000000000E+00  0.45593999997E+02  0.45594000000E+02  0.51100000000E-03 0. -1.
         11   -1    0    0    0    0 -0.00000000000E+00 -0.00000000000E+00 -0.45593999997E+02  0.45594000000E+02  0.51100000000E-03 0.  1.
    9900012    2    1    2    0    0  0.29881057629E+02 -0.31191671610E+02  0.42219994990E+01  0.47787271174E+02  0.20000000592E+02 0.  0.
        -12    1    1    2    0    0 -0.29881057629E+02  0.31191671610E+02 -0.42219994990E+01  0.43400728826E+02  0.00000000000E+00 0.  1.
         11    1    3    3    0    0  0.18132539825E+02 -0.75414703992E+01 -0.30956248121E+01  0.19880786441E+02  0.51100000000E-03 0. -1.
        -11    1    3    3    0    0  0.99702233160E+01 -0.14458575964E+02  0.50292018842E+01  0.18268788787E+02  0.51100000000E-03 0.  1.
         12    1    3    3    0    0  0.17782944886E+01 -0.91916252462E+01  0.22884224269E+01  0.96376959466E+01  0.00000000000E+00 0. -1.
</event>
<event>
 7    1  0.2983653E-010  0.4778727E+02  0.7816164E-02  0.1312668E+00
        -11   -1    0    0    0    0  0.00000000000E+00  0.00000000000E+00  0.45593999997E+02  0.45594000000E+02  0.51100000000E-03 0.  1.
         11   -1    0    0    0    0 -0.00000000000E+00 -0.00000000000E+00 -0.45593999997E+02  0.45594000000E+02  0.51100000000E-03 0. -1.
    9900012    2    1    2    0    0 -0.21479805366E+01 -0.42225147763E+02 -0.98003196511E+01  0.47787272019E+02  0.20000004444E+02 0.  0.
        -12    1    1    2    0    0  0.21479805366E+01  0.42225147763E+02  0.98003196511E+01  0.43400727981E+02  0.00000000000E+00 0.  1.
         11    1    3    3    0    0  0.42247012417E+01 -0.21582806229E+02 -0.49582348015E+01  0.22544394379E+02  0.51100000000E-03 0. -1.
        -11    1    3    3    0    0 -0.54580475461E+01 -0.89669951064E+01  0.32718467459E+01  0.10995556632E+02  0.51100000000E-03 0.  1.
        -12    1    3    3    0    0 -0.91463423221E+00 -0.11675346428E+02 -0.81139315956E+01  0.14247321009E+02  0.00000000000E+00 0.  1.
</event>
<event>
 7    1  0.2983653E-010  0.4778727E+02  0.7816164E-02  0.1312668E+00
        -11   -1    0    0    0    0  0.00000000000E+00  0.00000000000E+00  0.45593999997E+02  0.45594000000E+02  0.51100000000E-03 0. -1.
         11   -1    0    0    0    0 -0.00000000000E+00 -0.00000000000E+00 -0.45593999997E+02  0.45594000000E+02  0.51100000000E-03 0.  1.
    9900012    2    1    2    0    0 -0.28289500091E+02  0.26700822488E+02 -0.19245611425E+02  0.47787270789E+02  0.19999998837E+02 0.  0.
        -12    1    1    2    0    0  0.28289500091E+02 -0.26700822488E+02  0.19245611425E+02  0.43400729211E+02  0.00000000000E+00 0.  1.
         11    1    3    3    0    0 -0.22331406955E+02  0.27626307350E+02 -0.16887231540E+02  0.39332978322E+02  0.51100000000E-03 0. -1.
        -11    1    3    3    0    0  0.26326973772E+00 -0.17603378888E+01 -0.96382704369E+00  0.20241203692E+01  0.51100000000E-03 0.  1.
         12    1    3    3    0    0 -0.62213628736E+01  0.83485302684E+00 -0.13945528412E+01  0.64301720979E+01  0.00000000000E+00 0. -1.
</event>
<event>
 7    1  0.2983653E-010  0.4778727E+02  0.7816164E-02  0.1312668E+00
        -11   -1    0    0    0    0  0.00000000000E+00  0.00000000000E+00  0.45593999997E+02  0.45594000000E+02  0.51100000000E-03 0.  1.
         11   -1    0    0    0    0 -0.00000000000E+00 -0.00000000000E+00 -0.45593999997E+02  0.45594000000E+02  0.51100000000E-03 0. -1.
    9900012    2    1    2    0    0  0.10859109673E+02 -0.35686428609E+02 -0.22185168734E+02  0.47787272338E+02  0.20000005899E+02 0.  0.
        -12    1    1    2    0    0 -0.10859109673E+02  0.35686428609E+02  0.22185168734E+02  0.43400727662E+02  0.00000000000E+00 0.  1.
         11    1    3    3    0    0  0.15915343767E+02 -0.27196266738E+02 -0.17231412530E+02  0.35914574615E+02  0.51100000000E-03 0. -1.
        -11    1    3    3    0    0 -0.42922117599E+01 -0.41892105298E+01 -0.44648701028E+01  0.74771406266E+01  0.51100000000E-03 0.  1.
         12    1    3    3    0    0 -0.76402233421E+00 -0.43009513421E+01 -0.48888610143E+00  0.43955570971E+01  0.00000000000E+00 0. -1.
</event>
<event>
 7    1  0.2983653E-010  0.4778727E+02  0.7816164E-02  0.1312668E+00
        -11   -1    0    0    0    0  0.00000000000E+00  0.00000000000E+00  0.45593999997E+02  0.45594000000E+02  0.51100000000E-03 0. -1.
         11   -1    0    0    0    0 -0.00000000000E+00 -0.00000000000E+00 -0.45593999997E+02  0.45594000000E+02  0.51100000000E-03 0.  1.
    9900012    2    1    2    0    0  0.37907166551E+02 -0.15091585805E+02  0.14795739625E+02  0.47787272482E+02  0.20000006556E+02 0.  0.
        -12    1    1    2    0    0 -0.37907166551E+02  0.15091585805E+02 -0.14795739625E+02  0.43400727518E+02  0.00000000000E+00 0.  1.
         11    1    3    3    0    0  0.16880163141E+02 -0.11676304145E+02  0.13699825598E+02  0.24677139377E+02  0.51100000000E-03 0. -1.
        -11    1    3    3    0    0  0.21838923477E+02 -0.27749521524E+01  0.77774125757E+00  0.22028250494E+02  0.51100000000E-03 0.  1.
         12    1    3    3    0    0 -0.81192006751E+00 -0.64032950681E+00  0.31817276997E+00  0.10818826114E+01  0.00000000000E+00 0. -1.
</event>
<event>
 7    1  0.2983653E-010  0.4778727E+02  0.7816164E-02  0.1312668E+00
        -11   -1    0    0    0    0  0.00000000000E+00  0.00000000000E+00  0.45593999997E+02  0.45594000000E+02  0.51100000000E-03 0.  1.
         11   -1    0    0    0    0 -0.00000000000E+00 -0.00000000000E+00 -0.45593999997E+02  0.45594000000E+02  0.51100000000E-03 0. -1.
    9900012    2    1    2    0    0 -0.14732433014E+01 -0.39682947485E+02  0.17513338214E+02  0.47787265187E+02  0.19999973295E+02 0.  0.
        -12    1    1    2    0    0  0.14732433014E+01  0.39682947485E+02 -0.17513338214E+02  0.43400734813E+02  0.00000000000E+00 0.  1.
         11    1    3    3    0    0  0.40375468910E+01 -0.83560045472E+01  0.75846705163E+01  0.11985483886E+02  0.51100000000E-03 0. -1.
        -11    1    3    3    0    0 -0.58772708383E+01 -0.60600089137E+01 -0.51834238723E+00  0.84578188460E+01  0.51100000000E-03 0.  1.
        -12    1    3    3    0    0  0.36648064585E+00 -0.25266934024E+02  0.10447010084E+02  0.27343962455E+02  0.00000000000E+00 0.  1.
</event>
<event>
 7    1  0.2983653E-010  0.4778727E+02  0.7816164E-02  0.1312668E+00
        -11   -1    0    0    0    0  0.00000000000E+00  0.00000000000E+00  0.45593999997E+02  0.45594000000E+02  0.51100000000E-03 0.  1.
         11   -1    0    0    0    0 -0.00000000000E+00 -0.00000000000E+00 -0.45593999997E+02  0.45594000000E+02  0.51100000000E-03 0. -1.
    9900012    2    1    2    0    0 -0.21047032197E+02  0.88314904764E+01 -0.36914098181E+02  0.47787269213E+02  0.19999991650E+02 0.  0.
        -12    1    1    2    0    0  0.21047032197E+02 -0.88314904764E+01  0.36914098181E+02  0.43400730787E+02  0.00000000000E+00 0.  1.
         11    1    3    3    0    0 -0.30256549160E+01 -0.30739265443E+01 -0.13030750004E+01  0.45057315486E+01  0.51100000000E-03 0. -1.
        -11    1    3    3    0    0 -0.12551120188E+02  0.13302278275E+02 -0.22421684966E+02  0.28934636376E+02  0.51100000000E-03 0.  1.
        -12    1    3    3    0    0 -0.54702570939E+01 -0.13968612544E+01 -0.13189338214E+02  0.14346901288E+02  0.00000000000E+00 0.  1.
</event>
<event>
 7    1  0.2983653E-010  0.4778727E+02  0.7816164E-02  0.1312668E+00
        -11   -1    0    0    0    0  0.00000000000E+00  0.00000000000E+00  0.45593999997E+02  0.45594000000E+02  0.51100000000E-03 0.  1.
         11   -1    0    0    0    0 -0.00000000000E+00 -0.00000000000E+00 -0.45593999997E+02  0.45594000000E+02  0.51100000000E-03 0. -1.
    9900012    2    1    2    0    0 -0.81019487528E+01 -0.31799565546E+02 -0.28403679444E+02  0.47787274793E+02  0.20000017091E+02 0.  0.
        -12    1    1    2    0    0  0.81019487528E+01  0.31799565546E+02  0.28403679444E+02  0.43400725207E+02  0.00000000000E+00 0.  1.
         11    1    3    3    0    0 -0.29507315030E+01 -0.10432272361E+02 -0.13338302940E+02  0.17188643012E+02  0.51100000000E-03 0. -1.
        -11    1    3    3    0    0 -0.25075404637E+01 -0.58604285533E+00  0.22503946511E+01  0.34198657506E+01  0.51100000000E-03 0.  1.
        -12    1    3    3    0    0 -0.26436767861E+01 -0.20781250330E+02 -0.17315771155E+02  0.27178766030E+02  0.00000000000E+00 0.  1.
</event>
<event>
 7    1  0.2983653E-010  0.4778727E+02  0.7816164E-02  0.1312668E+00
        -11   -1    0    0    0    0  0.00000000000E+00  0.00000000000E+00  0.45593999997E+02  0.45594000000E+02  0.51100000000E-03 0.  1.
         11   -1    0    0    0    0 -0.00000000000E+00 -0.00000000000E+00 -0.45593999997E+02  0.45594000000E+02  0.51100000000E-03 0. -1.
    9900012    2    1    2    0    0 -0.21231977330E+02 -0.28130996375E+02 -0.25327334970E+02  0.47787265961E+02  0.19999976824E+02 0.  0.
        -12    1    1    2    0    0  0.21231977330E+02  0.28130996375E+02  0.25327334970E+02  0.43400734039E+02  0.00000000000E+00 0.  1.
         11    1    3    3    0    0 -0.60363905489E+00  0.27459380169E+01 -0.20362524162E+00  0.28188684257E+01  0.51100000000E-03 0.  1.
        -11    1    3    3    0    0 -0.11950506747E+02 -0.20443004115E+02 -0.14902394616E+02  0.27978784718E+02  0.51100000000E-03 0. -1.
        -12    1    3    3    0    0 -0.86778315289E+01 -0.10433930277E+02 -0.10221315113E+02  0.16989612818E+02  0.00000000000E+00 0.  1.
</event>
<event>
 7    1  0.2983653E-010  0.4778725E+02  0.7816164E-02  0.1312668E+00
        -11   -1    0    0    0    0  0.00000000000E+00  0.00000000000E+00  0.45593999997E+02  0.45594000000E+02  0.51100000000E-03 0.  1.
         11   -1    0    0    0    0 -0.00000000000E+00 -0.00000000000E+00 -0.45593999997E+02  0.45594000000E+02  0.51100000000E-03 0. -1.
    9900012    2    1    2    0    0  0.24144910265E+02  0.70995778756E+01 -0.35358798898E+02  0.47787247043E+02  0.19999890566E+02 0.  0.
        -12    1    1    2    0    0 -0.24144910265E+02 -0.70995778756E+01  0.35358798898E+02  0.43400752957E+02  0.00000000000E+00 0.  1.
         11    1    3    3    0    0  0.21612050827E+01 -0.10933765597E+01  0.41151201248E+00  0.24567503146E+01  0.51100000000E-03 0.  1.
        -11    1    3    3    0    0  0.15515489016E+02  0.12297826655E+02 -0.28957649328E+02  0.35078660104E+02  0.51100000000E-03 0. -1.
         12    1    3    3    0    0  0.64682161666E+01 -0.41048722201E+01 -0.68126615826E+01  0.10251836624E+02  0.00000000000E+00 0. -1.
</event>
<event>
 7    1  0.2983653E-010  0.4778728E+02  0.7816164E-02  0.1312668E+00
        -11   -1    0    0    0    0  0.00000000000E+00  0.00000000000E+00  0.45593999997E+02  0.45594000000E+02  0.51100000000E-03 0.  1.
         11   -1    0    0    0    0 -0.00000000000E+00 -0.00000000000E+00 -0.45593999997E+02  0.45594000000E+02  0.51100000000E-03 0. -1.
    9900012    2    1    2    0    0 -0.32547478288E+02  0.28696293090E+02  0.89847357718E+00  0.47787276103E+02  0.20000023064E+02 0.  0.
        -12    1    1    2    0    0  0.32547478288E+02 -0.28696293090E+02 -0.89847357718E+00  0.43400723897E+02  0.00000000000E+00 0.  1.
         11    1    3    3    0    0 -0.17178379723E+02  0.51780188814E+01  0.12981123798E+01  0.17988710500E+02  0.51100000000E-03 0. -1.
        -11    1    3    3    0    0 -0.16379566239E+02  0.23562957820E+02 -0.80717433916E+00  0.28708094714E+02  0.51100000000E-03 0.  1.
        -12    1    3    3    0    0  0.10104676745E+01 -0.44683611425E-01  0.40753553651E+00  0.10904708890E+01  0.00000000000E+00 0.  1.
</event>
<event>
 7    1  0.2983653E-010  0.4778727E+02  0.7816164E-02  0.1312668E+00
        -11   -1    0    0    0    0  0.00000000000E+00  0.00000000000E+00  0.45593999997E+02  0.45594000000E+02  0.51100000000E-03 0.  1.
         11   -1    0    0    0    0 -0.00000000000E+00 -0.00000000000E+00 -0.45593999997E+02  0.45594000000E+02  0.51100000000E-03 0. -1.
    9900012    2    1    2    0    0 -0.79923400842E+01 -0.22929195503E+02 -0.35972181272E+02  0.47787270376E+02  0.19999996952E+02 0.  0.
        -12    1    1    2    0    0  0.79923400842E+01  0.22929195503E+02  0.35972181272E+02  0.43400729624E+02  0.00000000000E+00 0.  1.
         11    1    3    3    0    0  0.24995177622E+00 -0.17333244013E+02 -0.10346968440E+02  0.20188203983E+02  0.51100000000E-03 0. -1.
        -11    1    3    3    0    0 -0.62338900307E+01 -0.39422347056E+01 -0.21417950363E+02  0.22652399374E+02  0.51100000000E-03 0.  1.
         12    1    3    3    0    0 -0.20084018297E+01 -0.16537167849E+01 -0.42072624688E+01  0.49466670189E+01  0.00000000000E+00 0. -1.
</event>
<event>
 7    1  0.2983653E-010  0.4778727E+02  0.7816164E-02  0.1312668E+00
        -11   -1    0    0    0    0  0.00000000000E+00  0.00000000000E+00  0.45593999997E+02  0.45594000000E+02  0.51100000000E-03 0.  1.
         11   -1    0    0    0    0 -0.00000000000E+00 -0.00000000000E+00 -0.45593999997E+02  0.45594000000E+02  0.51100000000E-03 0. -1.
    9900012    2    1    2    0    0 -0.17165094723E+02  0.22204903796E+02 -0.33104761845E+02  0.47787268598E+02  0.19999988844E+02 0.  0.
        -12    1    1    2    0    0  0.17165094723E+02 -0.22204903796E+02  0.33104761845E+02  0.43400731402E+02  0.00000000000E+00 0.  1.
         11    1    3    3    0    0 -0.22943386764E+01 -0.28806664345E+01 -0.59353782630E+00  0.37302166802E+01  0.51100000000E-03 0.  1.
        -11    1    3    3    0    0 -0.12181685421E+02  0.16547134775E+02 -0.25082442405E+02  0.32424220055E+02  0.51100000000E-03 0. -1.
        -12    1    3    3    0    0 -0.26890706253E+01  0.85384354555E+01 -0.74287816144E+01  0.11632831862E+02  0.00000000000E+00 0.  1.
</event>
<event>
 7    1  0.2983653E-010  0.4778727E+02  0.7816164E-02  0.1312668E+00
        -11   -1    0    0    0    0  0.00000000000E+00  0.00000000000E+00  0.45593999997E+02  0.45594000000E+02  0.51100000000E-03 0. -1.
         11   -1    0    0    0    0 -0.00000000000E+00 -0.00000000000E+00 -0.45593999997E+02  0.45594000000E+02  0.51100000000E-03 0.  1.
    9900012    2    1    2    0    0  0.34783306338E+02  0.23612513209E+02 -0.10779359466E+02  0.47787265325E+02  0.19999973921E+02 0.  0.
        -12    1    1    2    0    0 -0.34783306338E+02 -0.23612513209E+02  0.10779359466E+02  0.43400734675E+02  0.00000000000E+00 0.  1.
         11    1    3    3    0    0  0.15491441187E+02  0.13772405406E+01 -0.30366974200E+01  0.15846232140E+02  0.51100000000E-03 0. -1.
        -11    1    3    3    0    0  0.10223958796E+02  0.17455334688E+02 -0.78257513198E+01  0.21690099735E+02  0.51100000000E-03 0.  1.
         12    1    3    3    0    0  0.90679063544E+01  0.47799379805E+01  0.83089273289E-01  0.10250933449E+02  0.00000000000E+00 0. -1.
</event>
<event>
 7    1  0.2983653E-010  0.4778727E+02  0.7816164E-02  0.1312668E+00
        -11   -1    0    0    0    0  0.00000000000E+00  0.00000000000E+00  0.45593999997E+02  0.45594000000E+02  0.51100000000E-03 0.  1.
         11   -1    0    0    0    0 -0.00000000000E+00 -0.00000000000E+00 -0.45593999997E+02  0.45594000000E+02  0.51100000000E-03 0. -1.
    9900012    2    1    2    0    0  0.42298235285E+02 -0.94452096393E+01  0.22957789215E+01  0.47787270811E+02  0.19999998934E+02 0.  0.
        -12    1    1    2    0    0 -0.42298235285E+02  0.94452096393E+01 -0.22957789215E+01  0.43400729189E+02  0.00000000000E+00 0.  1.
         11    1    3    3    0    0  0.28979382165E+02 -0.27733555109E+01  0.49340264149E+01  0.29526948850E+02  0.51100000000E-03 0. -1.
        -11    1    3    3    0    0  0.13496830792E+02 -0.56618302854E+01 -0.51749013518E+01  0.15524186545E+02  0.51100000000E-03 0.  1.
         12    1    3    3    0    0 -0.17797767309E+00 -0.10100238430E+01  0.25366538584E+01  0.27361354156E+01  0.00000000000E+00 0. -1.
</event>
<event>
 7    1  0.2983653E-010  0.4778728E+02  0.7816164E-02  0.1312668E+00
        -11   -1    0    0    0    0  0.00000000000E+00  0.00000000000E+00  0.45593999997E+02  0.45594000000E+02  0.51100000000E-03 0.  1.
         11   -1    0    0    0    0 -0.00000000000E+00 -0.00000000000E+00 -0.45593999997E+02  0.45594000000E+02  0.51100000000E-03 0. -1.
    9900012    2    1    2    0    0  0.22160108922E+02  0.37284548700E+02  0.15539740853E+01  0.47787276105E+02  0.20000023072E+02 0.  0.
        -12    1    1    2    0    0 -0.22160108922E+02 -0.37284548700E+02 -0.15539740853E+01  0.43400723895E+02  0.00000000000E+00 0.  1.
         11    1    3    3    0    0  0.79967848686E+01  0.22553454071E+02  0.65970681409E+01  0.24821929157E+02  0.51100000000E-03 0. -1.
        -11    1    3    3    0    0  0.13044554681E+02  0.15963625212E+02 -0.39970321519E+01  0.20999381015E+02  0.51100000000E-03 0.  1.
         12    1    3    3    0    0  0.11187693721E+01 -0.12325305821E+01 -0.10460619037E+01  0.19659659331E+01  0.00000000000E+00 0. -1.
</event>
<event>
 7    1  0.2983653E-010  0.4778723E+02  0.7816164E-02  0.1312668E+00
        -11   -1    0    0    0    0  0.00000000000E+00  0.00000000000E+00  0.45593999997E+02  0.45594000000E+02  0.51100000000E-03 0. -1.
         11   -1    0    0    0    0 -0.00000000000E+00 -0.00000000000E+00 -0.45593999997E+02  0.45594000000E+02  0.51100000000E-03 0.  1.
    9900012    2    1    2    0    0  0.40837856549E+02 -0.64092647264E+01  0.13221848664E+02  0.47787234063E+02  0.19999831385E+02 0.  0.
        -12    1    1    2    0    0 -0.40837856549E+02  0.64092647264E+01 -0.13221848664E+02  0.43400765937E+02  0.00000000000E+00 0.  1.
         11    1    3    3    0    0  0.13414845413E+02 -0.68277295512E+01  0.43227138292E+00  0.15058646257E+02  0.51100000000E-03 0. -1.
        -11    1    3    3    0    0  0.28441701380E+02  0.10772487703E+01  0.10889225631E+02  0.30474022993E+02  0.51100000000E-03 0.  1.
        -12    1    3    3    0    0 -0.10186902441E+01 -0.65878394545E+00  0.19003516496E+01  0.22545648122E+01  0.00000000000E+00 0.  1.
</event>
<event>
 7    1  0.2983653E-010  0.4778727E+02  0.7816164E-02  0.1312668E+00
        -11   -1    0    0    0    0  0.00000000000E+00  0.00000000000E+00  0.45593999997E+02  0.45594000000E+02  0.51100000000E-03 0.  1.
         11   -1    0    0    0    0 -0.00000000000E+00 -0.00000000000E+00 -0.45593999997E+02  0.45594000000E+02  0.51100000000E-03 0. -1.
    9900012    2    1    2    0    0 -0.23613484653E+02  0.25177110572E+02 -0.26308547546E+02  0.47787271570E+02  0.20000002398E+02 0.  0.
        -12    1    1    2    0    0  0.23613484653E+02 -0.25177110572E+02  0.26308547546E+02  0.43400728430E+02  0.00000000000E+00 0.  1.
         11    1    3    3    0    0 -0.12191121297E+02  0.22412761012E+02 -0.19179592330E+02  0.31918835456E+02  0.51100000000E-03 0. -1.
        -11    1    3    3    0    0 -0.87333633700E+01  0.48945429508E+01 -0.28998792786E+01  0.10422930804E+02  0.51100000000E-03 0.  1.
         12    1    3    3    0    0 -0.26889999859E+01 -0.21301933901E+01 -0.42290759379E+01  0.54455053110E+01  0.00000000000E+00 0. -1.
</event>
<event>
 7    1  0.2983653E-010  0.4778730E+02  0.7816164E-02  0.1312668E+00
        -11   -1    0    0    0    0  0.00000000000E+00  0.00000000000E+00  0.45593999997E+02  0.45594000000E+02  0.51100000000E-03 0.  1.
         11   -1    0    0    0    0 -0.00000000000E+00 -0.00000000000E+00 -0.45593999997E+02  0.45594000000E+02  0.51100000000E-03 0. -1.
    9900012    2    1    2    0    0  0.47925625966E+00  0.24799915802E+02 -0.35613974314E+02  0.47787300964E+02  0.20000136414E+02 0.  0.
        -12    1    1    2    0    0 -0.47925625966E+00 -0.24799915802E+02  0.35613974314E+02  0.43400699036E+02  0.00000000000E+00 0.  1.
         11    1    3    3    0    0  0.31363904410E+01  0.14601722854E+02 -0.33784640752E+02  0.36938451596E+02  0.51100000000E-03 0. -1.
        -11    1    3    3    0    0 -0.12495964255E+01  0.35541964390E+01  0.16361641789E+00  0.37710176540E+01  0.51100000000E-03 0.  1.
         12    1    3    3    0    0 -0.14075377558E+01  0.66439965090E+01 -0.19929499802E+01  0.70778317138E+01  0.00000000000E+00 0. -1.
</event>
<event>
 7    1  0.2983653E-010  0.4778727E+02  0.7816164E-02  0.1312668E+00
        -11   -1    0    0    0    0  0.00000000000E+00  0.00000000000E+00  0.45593999997E+02  0.45594000000E+02  0.51100000000E-03 0. -1.
         11   -1    0    0    0    0 -0.00000000000E+00 -0.00000000000E+00 -0.45593999997E+02  0.45594000000E+02  0.51100000000E-03 0.  1.
    9900012    2    1    2    0    0 -0.25770626622E+02 -0.16388058300E+02  0.30837147403E+02  0.47787270613E+02  0.19999998035E+02 0.  0.
        -12    1    1    2    0    0  0.25770626622E+02  0.16388058300E+02 -0.30837147403E+02  0.43400729387E+02  0.00000000000E+00 0.  1.
         11    1    3    3    0    0 -0.13242137256E+02 -0.33504859467E+00  0.69599480649E+01  0.14963533473E+02  0.51100000000E-03 0. -1.
        -11    1    3    3    0    0 -0.85131426163E+01 -0.38661857805E+01  0.12934602034E+02  0.15960104001E+02  0.51100000000E-03 0.  1.
         12    1    3    3    0    0 -0.40153467495E+01 -0.12186823924E+02  0.10942597304E+02  0.16863633139E+02  0.00000000000E+00 0. -1.
</event>
<event>
 7    1  0.2983653E-010  0.4778727E+02  0.7816164E-02  0.1312668E+00
        -11   -1    0    0    0    0  0.00000000000E+00  0.00000000000E+00  0.45593999997E+02  0.45594000000E+02  0.51100000000E-03 0. -1.
         11   -1    0    0    0    0 -0.00000000000E+00 -0.00000000000E+00 -0.45593999997E+02  0.45594000000E+02  0.51100000000E-03 0.  1.
    9900012    2    1    2    0    0 -0.85187157184E+00 -0.21915281013E+02  0.37451540699E+02  0.47787272728E+02  0.20000007674E+02 0.  0.
        -12    1    1    2    0    0  0.85187157184E+00  0.21915281013E+02 -0.37451540699E+02  0.43400727272E+02  0.00000000000E+00 0.  1.
         11    1    3    3    0    0 -0.39591983944E+01 -0.20362900417E+02  0.38145219369E+02  0.43420971043E+02  0.51100000000E-03 0. -1.
        -11    1    3    3    0    0  0.33192879597E+00  0.12377055810E+00 -0.10465538948E+01  0.11048851490E+01  0.51100000000E-03 0.  1.
         12    1    3    3    0    0  0.27753980266E+01 -0.16761511538E+01  0.35287522476E+00  0.32614165359E+01  0.00000000000E+00 0. -1.
</event>
<event>
 7    1  0.2983653E-010  0.4778728E+02  0.7816164E-02  0.1312668E+00
        -11   -1    0    0    0    0  0.00000000000E+00  0.00000000000E+00  0.45593999997E+02  0.45594000000E+02  0.51100000000E-03 0.  1.
         11   -1    0    0    0    0 -0.00000000000E+00 -0.00000000000E+00 -0.45593999997E+02  0.45594000000E+02  0.51100000000E-03 0. -1.
    9900012    2    1    2    0    0  0.35042334164E+02 -0.21370084014E+01 -0.25516467692E+02  0.47787284429E+02  0.20000061025E+02 0.  0.
        -12    1    1    2    0    0 -0.35042334164E+02  0.21370084014E+01  0.25516467692E+02  0.43400715571E+02  0.00000000000E+00 0.  1.
         11    1    3    3    0    0 -0.90830218022E+00  0.58972680878E+00  0.32521633609E+00  0.11307327208E+01  0.51100000000E-03 0. -1.
        -11    1    3    3    0    0  0.45106082514E+01 -0.20449901238E+00  0.16587378200E+01  0.48102825344E+01  0.51100000000E-03 0.  1.
         12    1    3    3    0    0  0.31440028093E+02 -0.25222361978E+01 -0.27500421848E+02  0.41846269174E+02  0.00000000000E+00 0. -1.
</event>
<event>
 7    1  0.2983653E-010  0.4778728E+02  0.7816164E-02  0.1312668E+00
        -11   -1    0    0    0    0  0.00000000000E+00  0.00000000000E+00  0.45593999997E+02  0.45594000000E+02  0.51100000000E-03 0.  1.
         11   -1    0    0    0    0 -0.00000000000E+00 -0.00000000000E+00 -0.45593999997E+02  0.45594000000E+02  0.51100000000E-03 0. -1.
    9900012    2    1    2    0    0 -0.68588792248E+00 -0.41282315711E+02 -0.13376205702E+02  0.47787275217E+02  0.20000019025E+02 0.  0.
        -12    1    1    2    0    0  0.68588792248E+00  0.41282315711E+02  0.13376205702E+02  0.43400724783E+02  0.00000000000E+00 0.  1.
         11    1    3    3    0    0  0.45407636725E+01 -0.19340335076E+02 -0.12964619846E+02  0.23722319946E+02  0.51100000000E-03 0. -1.
        -11    1    3    3    0    0 -0.24749956891E+01 -0.70664359776E+01  0.37516171491E+01  0.83746494005E+01  0.51100000000E-03 0.  1.
        -12    1    3    3    0    0 -0.27516559058E+01 -0.14875544657E+02 -0.41632030050E+01  0.15690305871E+02  0.00000000000E+00 0.  1.
</event>
<event>
 7    1  0.2983653E-010  0.4778727E+02  0.7816164E-02  0.1312668E+00
        -11   -1    0    0    0    0  0.00000000000E+00  0.00000000000E+00  0.45593999997E+02  0.45594000000E+02  0.51100000000E-03 0. -1.
         11   -1    0    0    0    0 -0.00000000000E+00 -0.00000000000E+00 -0.45593999997E+02  0.45594000000E+02  0.51100000000E-03 0.  1.
    9900012    2    1    2    0    0  0.24551606782E+02  0.10948925212E+02  0.34072903839E+02  0.47787272646E+02  0.20000007301E+02 0.  0.
        -12    1    1    2    0    0 -0.24551606782E+02 -0.10948925212E+02 -0.34072903839E+02  0.43400727354E+02  0.00000000000E+00 0.  1.
         11    1    3    3    0    0  0.65538873222E+01  0.15355866313E+00  0.16920798672E+02  0.18146361818E+02  0.51100000000E-03 0. -1.
        -11    1    3    3    0    0  0.69605035552E+01  0.16215325075E+00  0.45621150958E+00  0.69773227403E+01  0.51100000000E-03 0.  1.
        -12    1    3    3    0    0  0.11037215905E+02  0.10633213298E+02  0.16695893657E+02  0.22663588087E+02  0.00000000000E+00 0.  1.
</event>
<event>
 7    1  0.2983653E-010  0.4778727E+02  0.7816164E-02  0.1312668E+00
        -11   -1    0    0    0    0  0.00000000000E+00  0.00000000000E+00  0.45593999997E+02  0.45594000000E+02  0.51100000000E-03 0. -1.
         11   -1    0    0    0    0 -0.00000000000E+00 -0.00000000000E+00 -0.45593999997E+02  0.45594000000E+02  0.51100000000E-03 0.  1.
    9900012    2    1    2    0    0  0.10152102793E+02 -0.27940658301E+02  0.31620844105E+02  0.47787270060E+02  0.19999995511E+02 0.  0.
        -12    1    1    2    0    0 -0.10152102793E+02  0.27940658301E+02 -0.31620844105E+02  0.43400729940E+02  0.00000000000E+00 0.  1.
         11    1    3    3    0    0  0.62295390416E+00 -0.24912283224E+02  0.17669413180E+02  0.30548618453E+02  0.51100000000E-03 0.  1.
        -11    1    3    3    0    0  0.39975970342E+01 -0.55206117830E+00  0.62296106509E+01  0.74225064982E+01  0.51100000000E-03 0. -1.
         12    1    3    3    0    0  0.55315518544E+01 -0.24763138982E+01  0.77218202744E+01  0.98161451085E+01  0.00000000000E+00 0. -1.
</event>
<event>
 7    1  0.2983653E-010  0.4778727E+02  0.7816164E-02  0.1312668E+00
        -11   -1    0    0    0    0  0.00000000000E+00  0.00000000000E+00  0.45593999997E+02  0.45594000000E+02  0.51100000000E-03 0.  1.
         11   -1    0    0    0    0 -0.00000000000E+00 -0.00000000000E+00 -0.45593999997E+02  0.45594000000E+02  0.51100000000E-03 0. -1.
    9900012    2    1    2    0    0  0.19237322144E+02 -0.32287707698E+01 -0.38770141281E+02  0.47787269835E+02  0.19999994484E+02 0.  0.
        -12    1    1    2    0    0 -0.19237322144E+02  0.32287707698E+01  0.38770141281E+02  0.43400730165E+02  0.00000000000E+00 0.  1.
         11    1    3    3    0    0  0.18844075567E+02 -0.13781938003E+01 -0.30592992204E+02  0.35957332692E+02  0.51100000000E-03 0. -1.
        -11    1    3    3    0    0  0.36393745056E+00  0.18269596948E+01  0.87582805053E+00  0.20584720619E+01  0.51100000000E-03 0.  1.
         12    1    3    3    0    0  0.29309126481E-01 -0.36775366643E+01 -0.90529771279E+01  0.97714650806E+01  0.00000000000E+00 0. -1.
</event>
<event>
 7    1  0.2983653E-010  0.4778727E+02  0.7816164E-02  0.1312668E+00
        -11   -1    0    0    0    0  0.00000000000E+00  0.00000000000E+00  0.45593999997E+02  0.45594000000E+02  0.51100000000E-03 0.  1.
         11   -1    0    0    0    0 -0.00000000000E+00 -0.00000000000E+00 -0.45593999997E+02  0.45594000000E+02  0.51100000000E-03 0. -1.
    9900012    2    1    2    0    0 -0.42449555786E+02  0.76024689913E+01  0.48847817075E+01  0.47787269436E+02  0.19999992666E+02 0.  0.
        -12    1    1    2    0    0  0.42449555786E+02 -0.76024689913E+01 -0.48847817075E+01  0.43400730564E+02  0.00000000000E+00 0.  1.
         11    1    3    3    0    0 -0.31264043281E+02  0.64515604526E+01  0.82924287531E+01  0.32982228691E+02  0.51100000000E-03 0.  1.
        -11    1    3    3    0    0 -0.91593913037E+01 -0.19019466794E+01 -0.52250120820E+01  0.10715064244E+02  0.51100000000E-03 0. -1.
        -12    1    3    3    0    0 -0.20261212013E+01  0.30528552181E+01  0.18173650365E+01  0.40899765013E+01  0.00000000000E+00 0.  1.
</event>
<event>
 7    1  0.2983653E-010  0.4778727E+02  0.7816164E-02  0.1312668E+00
        -11   -1    0    0    0    0  0.00000000000E+00  0.00000000000E+00  0.45593999997E+02  0.45594000000E+02  0.51100000000E-03 0.  1.
         11   -1    0    0    0    0 -0.00000000000E+00 -0.00000000000E+00 -0.45593999997E+02  0.45594000000E+02  0.51100000000E-03 0. -1.
    9900012    2    1    2    0    0  0.73647866193E+01  0.30971053007E+02 -0.29498768281E+02  0.47787268020E+02  0.19999986212E+02 0.  0.
        -12    1    1    2    0    0 -0.73647866193E+01 -0.30971053007E+02  0.29498768281E+02  0.43400731980E+02  0.00000000000E+00 0.  1.
         11    1    3    3    0    0 -0.17216652093E+01  0.21232572872E+02 -0.19107062840E+02  0.28615837092E+02  0.51100000000E-03 0. -1.
        -11    1    3    3    0    0 -0.16920937636E+01  0.17555979214E+00 -0.10602464324E+01  0.20045262044E+01  0.51100000000E-03 0.  1.
         12    1    3    3    0    0  0.10778545592E+02  0.95629203425E+01 -0.93314590085E+01  0.17166904724E+02  0.00000000000E+00 0. -1.
</event>
<event>
 7    1  0.2983653E-010  0.4778727E+02  0.7816164E-02  0.1312668E+00
        -11   -1    0    0    0    0  0.00000000000E+00  0.00000000000E+00  0.45593999997E+02  0.45594000000E+02  0.51100000000E-03 0. -1.
         11   -1    0    0    0    0 -0.00000000000E+00 -0.00000000000E+00 -0.45593999997E+02  0.45594000000E+02  0.51100000000E-03 0.  1.
    9900012    2    1    2    0    0 -0.39219415930E+02  0.41659913539E+01  0.18113665922E+02  0.47787274626E+02  0.20000016330E+02 0.  0.
        -12    1    1    2    0    0  0.39219415930E+02 -0.41659913539E+01 -0.18113665922E+02  0.43400725374E+02  0.00000000000E+00 0.  1.
         11    1    3    3    0    0 -0.68358009539E+01  0.33398475247E+01 -0.14702282533E+01  0.77488274951E+01  0.51100000000E-03 0. -1.
        -11    1    3    3    0    0 -0.12104726921E+02 -0.57771921314E+01  0.95748065826E+01  0.16479602062E+02  0.51100000000E-03 0.  1.
         12    1    3    3    0    0 -0.20278888055E+02  0.66033359606E+01  0.10009087593E+02  0.23558845069E+02  0.00000000000E+00 0. -1.
</event>
<event>
 7    1  0.2983653E-010  0.4778727E+02  0.7816164E-02  0.1312668E+00
        -11   -1    0    0    0    0  0.00000000000E+00  0.00000000000E+00  0.45593999997E+02  0.45594000000E+02  0.51100000000E-03 0. -1.
         11   -1    0    0    0    0 -0.00000000000E+00 -0.00000000000E+00 -0.45593999997E+02  0.45594000000E+02  0.51100000000E-03 0.  1.
    9900012    2    1    2    0    0  0.81419758415E+01 -0.36006765949E+02  0.22822010823E+02  0.47787272556E+02  0.20000006890E+02 0.  0.
        -12    1    1    2    0    0 -0.81419758415E+01  0.36006765949E+02 -0.22822010823E+02  0.43400727444E+02  0.00000000000E+00 0.  1.
         11    1    3    3    0    0  0.71069181835E+01 -0.32922110656E+02  0.18417624089E+02  0.38387270462E+02  0.51100000000E-03 0. -1.
        -11    1    3    3    0    0  0.14687879663E+01  0.20595698759E+01  0.32351953165E+01  0.41067816062E+01  0.51100000000E-03 0.  1.
        -12    1    3    3    0    0 -0.43373030834E+00 -0.51442251684E+01  0.11691914171E+01  0.52932204879E+01  0.00000000000E+00 0.  1.
</event>
<event>
 7    1  0.2983653E-010  0.4778727E+02  0.7816164E-02  0.1312668E+00
        -11   -1    0    0    0    0  0.00000000000E+00  0.00000000000E+00  0.45593999997E+02  0.45594000000E+02  0.51100000000E-03 0.  1.
         11   -1    0    0    0    0 -0.00000000000E+00 -0.00000000000E+00 -0.45593999997E+02  0.45594000000E+02  0.51100000000E-03 0. -1.
    9900012    2    1    2    0    0 -0.31916988449E+02  0.54359567597E+01 -0.28902932290E+02  0.47787271061E+02  0.20000000074E+02 0.  0.
        -12    1    1    2    0    0  0.31916988449E+02 -0.54359567597E+01  0.28902932290E+02  0.43400728939E+02  0.00000000000E+00 0.  1.
         11    1    3    3    0    0 -0.14743767322E+02 -0.52827993397E+01 -0.10986639812E+02  0.19130940863E+02  0.51100000000E-03 0. -1.
        -11    1    3    3    0    0 -0.13054180069E+01 -0.61487832997E+00  0.78120380829E+00  0.16408751277E+01  0.51100000000E-03 0.  1.
         12    1    3    3    0    0 -0.15867803120E+02  0.11333634429E+02 -0.18697496287E+02  0.27015455069E+02  0.00000000000E+00 0. -1.
</event>
<event>
 7    1  0.2983653E-010  0.4778727E+02  0.7816164E-02  0.1312668E+00
        -11   -1    0    0    0    0  0.00000000000E+00  0.00000000000E+00  0.45593999997E+02  0.45594000000E+02  0.51100000000E-03 0. -1.
         11   -1    0    0    0    0 -0.00000000000E+00 -0.00000000000E+00 -0.45593999997E+02  0.45594000000E+02  0.51100000000E-03 0.  1.
    9900012    2    1    2    0    0 -0.12661280066E+02  0.20653569797E+02  0.36010350200E+02  0.47787270976E+02  0.19999999690E+02 0.  0.
        -12    1    1    2    0    0  0.12661280066E+02 -0.20653569797E+02 -0.36010350200E+02  0.43400729024E+02  0.00000000000E+00 0.  1.
         11    1    3    3    0    0 -0.19317099115E+01 -0.30666086474E+01  0.22030609100E+01  0.42413523094E+01  0.51100000000E-03 0. -1.
        -11    1    3    3    0    0 -0.79229873849E+01  0.11473740074E+02  0.12084386224E+02  0.18451363935E+02  0.51100000000E-03 0.  1.
         12    1    3    3    0    0 -0.28065827699E+01  0.12246438370E+02  0.21722903066E+02  0.25094554732E+02  0.00000000000E+00 0. -1.
</event>
<event>
 7    1  0.2983653E-010  0.4778724E+02  0.7816164E-02  0.1312668E+00
        -11   -1    0    0    0    0  0.00000000000E+00  0.00000000000E+00  0.45593999997E+02  0.45594000000E+02  0.51100000000E-03 0. -1.
         11   -1    0    0    0    0 -0.00000000000E+00 -0.00000000000E+00 -0.45593999997E+02  0.45594000000E+02  0.51100000000E-03 0.  1.
    9900012    2    1    2    0    0 -0.31877262451E+02 -0.16866014796E+02 -0.24145463573E+02  0.47787242776E+02  0.19999871111E+02 0.  0.
        -12    1    1    2    0    0  0.31877262451E+02  0.16866014796E+02  0.24145463573E+02  0.43400757224E+02  0.00000000000E+00 0.  1.
         11    1    3    3    0    0 -0.25465363462E+02 -0.90049420722E+01 -0.15010965048E+02  0.30901501419E+02  0.51100000000E-03 0. -1.
        -11    1    3    3    0    0  0.18662552720E+01  0.96180811172E+00 -0.14915746351E+01  0.25754181674E+01  0.51100000000E-03 0.  1.
         12    1    3    3    0    0 -0.82781542612E+01 -0.88228808355E+01 -0.76429238898E+01  0.14310323190E+02  0.00000000000E+00 0. -1.
</event>
<event>
 7    1  0.2983653E-010  0.4778727E+02  0.7816164E-02  0.1312668E+00
        -11   -1    0    0    0    0  0.00000000000E+00  0.00000000000E+00  0.45593999997E+02  0.45594000000E+02  0.51100000000E-03 0.  1.
         11   -1    0    0    0    0 -0.00000000000E+00 -0.00000000000E+00 -0.45593999997E+02  0.45594000000E+02  0.51100000000E-03 0. -1.
    9900012    2    1    2    0    0 -0.15506234528E+02  0.37493226668E+02 -0.15409023222E+02  0.47787270146E+02  0.19999995904E+02 0.  0.
        -12    1    1    2    0    0  0.15506234528E+02 -0.37493226668E+02  0.15409023222E+02  0.43400729854E+02  0.00000000000E+00 0.  1.
         11    1    3    3    0    0 -0.39001973704E+01  0.22251768659E+02 -0.44418522066E+00  0.22595354584E+02  0.51100000000E-03 0. -1.
        -11    1    3    3    0    0 -0.47144515917E+01  0.17477378320E+01 -0.47627386457E+01  0.69256278422E+01  0.51100000000E-03 0.  1.
         12    1    3    3    0    0 -0.68915855660E+01  0.13493720177E+02 -0.10202099355E+02  0.18266287720E+02  0.00000000000E+00 0. -1.
</event>
<event>
 7    1  0.2983653E-010  0.4778727E+02  0.7816164E-02  0.1312668E+00
        -11   -1    0    0    0    0  0.00000000000E+00  0.00000000000E+00  0.45593999997E+02  0.45594000000E+02  0.51100000000E-03 0.  1.
         11   -1    0    0    0    0 -0.00000000000E+00 -0.00000000000E+00 -0.45593999997E+02  0.45594000000E+02  0.51100000000E-03 0. -1.
    9900012    2    1    2    0    0  0.41083518163E+02 -0.13969071162E+02 -0.79560912741E+00  0.47787269503E+02  0.19999992974E+02 0.  0.
        -12    1    1    2    0    0 -0.41083518163E+02  0.13969071162E+02  0.79560912741E+00  0.43400730497E+02  0.00000000000E+00 0.  1.
         11    1    3    3    0    0  0.13710371225E+02 -0.64807197134E+01  0.79348691194E+01  0.17115377744E+02  0.51100000000E-03 0. -1.
        -11    1    3    3    0    0 -0.47024289303E+00  0.17594766314E+00 -0.31104849731E+00  0.59062457400E+00  0.51100000000E-03 0.  1.
         12    1    3    3    0    0  0.27843389831E+02 -0.76642991115E+01 -0.84194297494E+01  0.30081267185E+02  0.00000000000E+00 0. -1.
</event>
<event>
 7    1  0.2984653E-010  0.4778727E+02  0.7816164E-02  0.1312668E+00
        -11   -1    0    0    0    0  0.00000000000E+00  0.00000000000E+00  0.45593999997E+02  0.45594000000E+02  0.51100000000E-03 0. -1.
         11   -1    0    0    0    0 -0.00000000000E+00 -0.00000000000E+00 -0.45593999997E+02  0.45594000000E+02  0.51100000000E-03 0.  1.
    9900012    2    1    2    0    0 -0.10372560733E+02 -0.37893619159E+02  0.18441988809E+02  0.47787270278E+02  0.19999996507E+02 0.  0.
        -12    1    1    2    0    0  0.10372560733E+02  0.37893619159E+02 -0.18441988809E+02  0.43400729722E+02  0.00000000000E+00 0.  1.
         11    1    3    3    0    0 -0.97958688387E+00 -0.24061423830E+02  0.13881032826E+02  0.27795589214E+02  0.51100000000E-03 0. -1.
        -11    1    3    3    0    0 -0.71371179497E+01 -0.25445871529E+01  0.37446051315E+01  0.84519491397E+01  0.51100000000E-03 0.  1.
        -12    1    3    3    0    0 -0.22558558999E+01 -0.11287608176E+02  0.81635085161E+00  0.11539731925E+02  0.00000000000E+00 0.  1.
</event>
<event>
 7    1  0.2983653E-010  0.4778727E+02  0.7816164E-02  0.1312668E+00
        -11   -1    0    0    0    0  0.00000000000E+00  0.00000000000E+00  0.45593999997E+02  0.45594000000E+02  0.51100000000E-03 0.  1.
         11   -1    0    0    0    0 -0.00000000000E+00 -0.00000000000E+00 -0.45593999997E+02  0.45594000000E+02  0.51100000000E-03 0. -1.
    9900012    2    1    2    0    0 -0.81062438400E+01  0.33478919892E+02 -0.26402166426E+02  0.47787266616E+02  0.19999979807E+02 0.  0.
        -12    1    1    2    0    0  0.81062438400E+01 -0.33478919892E+02  0.26402166426E+02  0.43400733384E+02  0.00000000000E+00 0.  1.
         11    1    3    3    0    0 -0.15240062123E+01  0.12820911042E+02 -0.20598007794E+01  0.13074445854E+02  0.51100000000E-03 0. -1.
        -11    1    3    3    0    0 -0.68139870872E+01  0.62955393534E+01 -0.14801904200E+02  0.17468846670E+02  0.51100000000E-03 0.  1.
        -12    1    3    3    0    0  0.23174945946E+00  0.14362469497E+02 -0.95404614467E+01  0.17243974092E+02  0.00000000000E+00 0.  1.
</event>
<event>
 7    1  0.2983653E-010  0.4778727E+02  0.7816164E-02  0.1312668E+00
        -11   -1    0    0    0    0  0.00000000000E+00  0.00000000000E+00  0.45593999997E+02  0.45594000000E+02  0.51100000000E-03 0.  1.
         11   -1    0    0    0    0 -0.00000000000E+00 -0.00000000000E+00 -0.45593999997E+02  0.45594000000E+02  0.51100000000E-03 0. -1.
    9900012    2    1    2    0    0 -0.29172452989E+01  0.16928075437E+02 -0.39856657759E+02  0.47787271598E+02  0.20000002522E+02 0.  0.
        -12    1    1    2    0    0  0.29172452989E+01 -0.16928075437E+02  0.39856657759E+02  0.43400728402E+02  0.00000000000E+00 0.  1.
         11    1    3    3    0    0  0.63384056608E+00  0.87765626668E+01 -0.29139019810E+02  0.30438664259E+02  0.51100000000E-03 0. -1.
        -11    1    3    3    0    0 -0.52969592346E+01  0.19776649578E+00 -0.28171096447E+01  0.60027490146E+01  0.51100000000E-03 0.  1.
        -12    1    3    3    0    0  0.17458733697E+01  0.79537462748E+01 -0.79005283040E+01  0.11345858324E+02  0.00000000000E+00 0.  1.
</event>
<event>
 7    1  0.4499776E-010  0.4778727E+02  0.7816164E-02  0.1312668E+00
        -11   -1    0    0    0    0  0.00000000000E+00  0.00000000000E+00  0.45593999997E+02  0.45594000000E+02  0.51100000000E-03 0.  1.
         11   -1    0    0    0    0 -0.00000000000E+00 -0.00000000000E+00 -0.45593999997E+02  0.45594000000E+02  0.51100000000E-03 0. -1.
    9900012    2    1    2    0    0  0.23463077601E+02  0.36035608462E+02 -0.58772414261E+01  0.47787273572E+02  0.20000011523E+02 0.  0.
        -12    1    1    2    0    0 -0.23463077601E+02 -0.36035608462E+02  0.58772414261E+01  0.43400726428E+02  0.00000000000E+00 0.  1.
         11    1    3    3    0    0  0.65128780128E+01  0.13104075925E+02 -0.30963929050E+01  0.14957340510E+02  0.51100000000E-03 0. -1.
        -11    1    3    3    0    0  0.78415994239E+00  0.11994359116E+02 -0.53247700065E+01  0.13146586375E+02  0.51100000000E-03 0.  1.
        -12    1    3    3    0    0  0.16166039646E+02  0.10937173421E+02  0.25439214854E+01  0.19683346687E+02  0.00000000000E+00 0.  1.
</event>
<event>
 7    1  0.2983653E-010  0.4778726E+02  0.7816164E-02  0.1312668E+00
        -11   -1    0    0    0    0  0.00000000000E+00  0.00000000000E+00  0.45593999997E+02  0.45594000000E+02  0.51100000000E-03 0. -1.
         11   -1    0    0    0    0 -0.00000000000E+00 -0.00000000000E+00 -0.45593999997E+02  0.45594000000E+02  0.51100000000E-03 0.  1.
    9900012    2    1    2    0    0 -0.96419074700E+00  0.43386641306E+02 -0.54179996406E+00  0.47787264352E+02  0.19999969485E+02 0.  0.
        -12    1    1    2    0    0  0.96419074700E+00 -0.43386641306E+02  0.54179996406E+00  0.43400735648E+02  0.00000000000E+00 0.  1.
         11    1    3    3    0    0 -0.33688442097E+01  0.15796531222E+01 -0.22536849563E+01  0.43501162558E+01  0.51100000000E-03 0.  1.
        -11    1    3    3    0    0  0.38834628215E+01  0.32315152405E+02  0.56871182406E+01  0.33040788014E+02  0.51100000000E-03 0. -1.
         12    1    3    3    0    0 -0.14788093588E+01  0.94918357784E+01 -0.39752332484E+01  0.10396360081E+02  0.00000000000E+00 0. -1.
</event>
<event>
 7    1  0.2983653E-010  0.4778727E+02  0.7816164E-02  0.1312668E+00
        -11   -1    0    0    0    0  0.00000000000E+00  0.00000000000E+00  0.45593999997E+02  0.45594000000E+02  0.51100000000E-03 0. -1.
         11   -1    0    0    0    0 -0.00000000000E+00 -0.00000000000E+00 -0.45593999997E+02  0.45594000000E+02  0.51100000000E-03 0.  1.
    9900012    2    1    2    0    0 -0.19654164907E+02 -0.12921217211E+02  0.36474368666E+02  0.47787267035E+02  0.19999981717E+02 0.  0.
        -12    1    1    2    0    0  0.19654164907E+02  0.12921217211E+02 -0.36474368666E+02  0.43400732965E+02  0.00000000000E+00 0.  1.
         11    1    3    3    0    0 -0.11186702299E+02 -0.14766393637E+01  0.10048991059E+02  0.15109764846E+02  0.51100000000E-03 0. -1.
        -11    1    3    3    0    0 -0.61851377142E+01 -0.12688411532E+02  0.13634764538E+02  0.19625455919E+02  0.51100000000E-03 0.  1.
        -12    1    3    3    0    0 -0.22823248932E+01  0.12438336849E+01  0.12790613068E+02  0.13052046269E+02  0.00000000000E+00 0.  1.
</event>
<event>
 7    1  0.2983653E-010  0.4778727E+02  0.7816164E-02  0.1312668E+00
        -11   -1    0    0    0    0  0.00000000000E+00  0.00000000000E+00  0.45593999997E+02  0.45594000000E+02  0.51100000000E-03 0. -1.
         11   -1    0    0    0    0 -0.00000000000E+00 -0.00000000000E+00 -0.45593999997E+02  0.45594000000E+02  0.51100000000E-03 0.  1.
    9900012    2    1    2    0    0  0.63190916901E+01 -0.42892224528E+02 -0.19872743022E+01  0.47787273003E+02  0.20000008928E+02 0.  0.
        -12    1    1    2    0    0 -0.63190916901E+01  0.42892224528E+02  0.19872743022E+01  0.43400726997E+02  0.00000000000E+00 0.  1.
         11    1    3    3    0    0  0.12305308779E+02 -0.29180811315E+02  0.24187746108E+01  0.31761467913E+02  0.51100000000E-03 0. -1.
        -11    1    3    3    0    0 -0.39884576294E+01 -0.11985967325E+02 -0.28094807827E+01  0.12940803279E+02  0.51100000000E-03 0.  1.
        -12    1    3    3    0    0 -0.19977594600E+01 -0.17254458882E+01 -0.15965681303E+01  0.30850018100E+01  0.00000000000E+00 0.  1.
</event>
<event>
 7    1  0.4082554E-010  0.4778727E+02  0.7816164E-02  0.1312668E+00
        -11   -1    0    0    0    0  0.00000000000E+00  0.00000000000E+00  0.45593999997E+02  0.45594000000E+02  0.51100000000E-03 0. -1.
         11   -1    0    0    0    0 -0.00000000000E+00 -0.00000000000E+00 -0.45593999997E+02  0.45594000000E+02  0.51100000000E-03 0.  1.
    9900012    2    1    2    0    0  0.61149490146E+01 -0.19547799720E+02  0.38263750701E+02  0.47787266215E+02  0.19999977981E+02 0.  0.
        -12    1    1    2    0    0 -0.61149490146E+01  0.19547799720E+02 -0.38263750701E+02  0.43400733785E+02  0.00000000000E+00 0.  1.
         11    1    3    3    0    0  0.43483861130E+01 -0.40410363855E+01  0.20619507180E+02  0.21456992181E+02  0.51100000000E-03 0. -1.
        -11    1    3    3    0    0  0.29741852560E+01 -0.29457718650E+01 -0.51435608561E+00  0.42175718443E+01  0.51100000000E-03 0.  1.
        -12    1    3    3    0    0 -0.12076223544E+01 -0.12560991469E+02  0.18158599607E+02  0.22112702190E+02  0.00000000000E+00 0.  1.
</event>
<event>
 7    1  0.3508237E-010  0.4778728E+02  0.7816164E-02  0.1312668E+00
        -11   -1    0    0    0    0  0.00000000000E+00  0.00000000000E+00  0.45593999997E+02  0.45594000000E+02  0.51100000000E-03 0. -1.
         11   -1    0    0    0    0 -0.00000000000E+00 -0.00000000000E+00 -0.45593999997E+02  0.45594000000E+02  0.51100000000E-03 0.  1.
    9900012    2    1    2    0    0 -0.18020002555E+02  0.11377820442E+02  0.37808028278E+02  0.47787282352E+02  0.20000051554E+02 0.  0.
        -12    1    1    2    0    0  0.18020002555E+02 -0.11377820442E+02 -0.37808028278E+02  0.43400717648E+02  0.00000000000E+00 0.  1.
         11    1    3    3    0    0 -0.87555865272E+01  0.98464511331E+01  0.26208945049E+02  0.29334650095E+02  0.51100000000E-03 0. -1.
        -11    1    3    3    0    0 -0.11155775608E+02  0.13772889233E+01  0.64377020100E+01  0.12953465236E+02  0.51100000000E-03 0.  1.
        -12    1    3    3    0    0  0.18913595803E+01  0.15408038558E+00  0.51613812189E+01  0.54991670200E+01  0.00000000000E+00 0.  1.
</event>
<event>
 7    1  0.2983653E-010  0.4778727E+02  0.7816164E-02  0.1312668E+00
        -11   -1    0    0    0    0  0.00000000000E+00  0.00000000000E+00  0.45593999997E+02  0.45594000000E+02  0.51100000000E-03 0. -1.
         11   -1    0    0    0    0 -0.00000000000E+00 -0.00000000000E+00 -0.45593999997E+02  0.45594000000E+02  0.51100000000E-03 0.  1.
    9900012    2    1    2    0    0 -0.66398627799E+01  0.31528939457E+02  0.29076814963E+02  0.47787274552E+02  0.20000015991E+02 0.  0.
        -12    1    1    2    0    0  0.66398627799E+01 -0.31528939457E+02 -0.29076814963E+02  0.43400725448E+02  0.00000000000E+00 0.  1.
         11    1    3    3    0    0  0.31551194841E+01  0.16875115536E+02  0.10035062690E+02  0.19885341002E+02  0.51100000000E-03 0. -1.
        -11    1    3    3    0    0  0.18644358029E+01  0.10355947436E+01  0.67723168781E+00  0.22376819157E+01  0.51100000000E-03 0.  1.
         12    1    3    3    0    0 -0.11659418067E+02  0.13618229178E+02  0.18364520585E+02  0.25664251634E+02  0.00000000000E+00 0. -1.
</event>
<event>
 7    1  0.2983653E-010  0.4778727E+02  0.7816164E-02  0.1312668E+00
        -11   -1    0    0    0    0  0.00000000000E+00  0.00000000000E+00  0.45593999997E+02  0.45594000000E+02  0.51100000000E-03 0.  1.
         11   -1    0    0    0    0 -0.00000000000E+00 -0.00000000000E+00 -0.45593999997E+02  0.45594000000E+02  0.51100000000E-03 0. -1.
    9900012    2    1    2    0    0  0.23134539847E+01 -0.33918424527E+02 -0.26977981164E+02  0.47787273515E+02  0.20000011263E+02 0.  0.
        -12    1    1    2    0    0 -0.23134539847E+01  0.33918424527E+02  0.26977981164E+02  0.43400726485E+02  0.00000000000E+00 0.  1.
         11    1    3    3    0    0  0.70153603839E+01 -0.17407301426E+02 -0.16269112001E+02  0.24837742044E+02  0.51100000000E-03 0. -1.
        -11    1    3    3    0    0 -0.19323199507E+01 -0.14490475866E+02 -0.35974861487E+01  0.15054888179E+02  0.51100000000E-03 0.  1.
        -12    1    3    3    0    0 -0.27695864485E+01 -0.20206472350E+01 -0.71113830140E+01  0.78946432925E+01  0.00000000000E+00 0.  1.
</event>
<event>
 7    1  0.2983653E-010  0.4778727E+02  0.7816164E-02  0.1312668E+00
        -11   -1    0    0    0    0  0.00000000000E+00  0.00000000000E+00  0.45593999997E+02  0.45594000000E+02  0.51100000000E-03 0.  1.
         11   -1    0    0    0    0 -0.00000000000E+00 -0.00000000000E+00 -0.45593999997E+02  0.45594000000E+02  0.51100000000E-03 0. -1.
    9900012    2    1    2    0    0  0.15462335107E+02 -0.86629308051E+01 -0.39616830576E+02  0.47787269108E+02  0.19999991171E+02 0.  0.
        -12    1    1    2    0    0 -0.15462335107E+02  0.86629308051E+01  0.39616830576E+02  0.43400730892E+02  0.00000000000E+00 0.  1.
         11    1    3    3    0    0  0.28858822724E+01  0.75330693931E+00 -0.95784150628E+01  0.10032039833E+02  0.51100000000E-03 0. -1.
        -11    1    3    3    0    0 -0.25813660570E+01  0.20831999081E+01 -0.78768822967E+01  0.85468384538E+01  0.51100000000E-03 0.  1.
        -12    1    3    3    0    0  0.15157818891E+02 -0.11499437652E+02 -0.22161533216E+02  0.29208390821E+02  0.00000000000E+00 0.  1.
</event>
<event>
 7    1  0.2983653E-010  0.4778727E+02  0.7816164E-02  0.1312668E+00
        -11   -1    0    0    0    0  0.00000000000E+00  0.00000000000E+00  0.45593999997E+02  0.45594000000E+02  0.51100000000E-03 0. -1.
         11   -1    0    0    0    0 -0.00000000000E+00 -0.00000000000E+00 -0.45593999997E+02  0.45594000000E+02  0.51100000000E-03 0.  1.
    9900012    2    1    2    0    0  0.37830016376E+02  0.20979416811E+02  0.35181252937E+01  0.47787271040E+02  0.19999999978E+02 0.  0.
        -12    1    1    2    0    0 -0.37830016376E+02 -0.20979416811E+02 -0.35181252937E+01  0.43400728960E+02  0.00000000000E+00 0.  1.
         11    1    3    3    0    0  0.26665137673E+02  0.18185744316E+02  0.10306046528E+02  0.33881638961E+02  0.51100000000E-03 0. -1.
        -11    1    3    3    0    0  0.65899479394E+01  0.27400846101E+00 -0.21972625294E+01  0.69520110302E+01  0.51100000000E-03 0.  1.
         12    1    3    3    0    0  0.45749307636E+01  0.25196640341E+01 -0.45906587047E+01  0.69536210480E+01  0.00000000000E+00 0. -1.
</event>
<event>
 7    1  0.2983653E-010  0.4778727E+02  0.7816164E-02  0.1312668E+00
        -11   -1    0    0    0    0  0.00000000000E+00  0.00000000000E+00  0.45593999997E+02  0.45594000000E+02  0.51100000000E-03 0.  1.
         11   -1    0    0    0    0 -0.00000000000E+00 -0.00000000000E+00 -0.45593999997E+02  0.45594000000E+02  0.51100000000E-03 0. -1.
    9900012    2    1    2    0    0  0.82601701259E+01  0.12164413199E+02 -0.40834053953E+02  0.47787270499E+02  0.19999997512E+02 0.  0.
        -12    1    1    2    0    0 -0.82601701259E+01 -0.12164413199E+02  0.40834053953E+02  0.43400729501E+02  0.00000000000E+00 0.  1.
         11    1    3    3    0    0 -0.37584740840E+00 -0.77025810328E+00 -0.27744282886E+01  0.29037925907E+01  0.51100000000E-03 0. -1.
        -11    1    3    3    0    0 -0.61370898003E-01  0.13049279595E+02 -0.13266347518E+02  0.18608692622E+02  0.51100000000E-03 0.  1.
        -12    1    3    3    0    0  0.86973884323E+01 -0.11460829308E+00 -0.24793278146E+02  0.26274785286E+02  0.00000000000E+00 0.  1.
</event>
<event>
 7    1  0.2983653E-010  0.4778727E+02  0.7816164E-02  0.1312668E+00
        -11   -1    0    0    0    0  0.00000000000E+00  0.00000000000E+00  0.45593999997E+02  0.45594000000E+02  0.51100000000E-03 0.  1.
         11   -1    0    0    0    0 -0.00000000000E+00 -0.00000000000E+00 -0.45593999997E+02  0.45594000000E+02  0.51100000000E-03 0. -1.
    9900012    2    1    2    0    0 -0.10377555139E+02 -0.41776579142E+01 -0.41934195221E+02  0.47787271836E+02  0.20000003611E+02 0.  0.
        -12    1    1    2    0    0  0.10377555139E+02  0.41776579142E+01  0.41934195221E+02  0.43400728164E+02  0.00000000000E+00 0.  1.
         11    1    3    3    0    0 -0.10341708068E+02 -0.63209470028E-01 -0.11640674039E+02  0.15571133984E+02  0.51100000000E-03 0. -1.
        -11    1    3    3    0    0 -0.21917986936E+01 -0.43362954143E+01 -0.29516492934E+02  0.29913722517E+02  0.51100000000E-03 0.  1.
         12    1    3    3    0    0  0.21559516229E+01  0.22184697015E+00 -0.77702824751E+00  0.23024153352E+01  0.00000000000E+00 0. -1.
</event>
<event>
 7    1  0.2983653E-010  0.4778726E+02  0.7816164E-02  0.1312668E+00
        -11   -1    0    0    0    0  0.00000000000E+00  0.00000000000E+00  0.45593999997E+02  0.45594000000E+02  0.51100000000E-03 0. -1.
         11   -1    0    0    0    0 -0.00000000000E+00 -0.00000000000E+00 -0.45593999997E+02  0.45594000000E+02  0.51100000000E-03 0.  1.
    9900012    2    1    2    0    0 -0.11820402375E+02 -0.32216183057E+02  0.26571029034E+02  0.47787263290E+02  0.19999964644E+02 0.  0.
        -12    1    1    2    0    0  0.11820402375E+02  0.32216183057E+02 -0.26571029034E+02  0.43400736710E+02  0.00000000000E+00 0.  1.
         11    1    3    3    0    0 -0.10852866409E+02 -0.14867687838E+02  0.18167373094E+02  0.25862836200E+02  0.51100000000E-03 0. -1.
        -11    1    3    3    0    0  0.35577240977E+01 -0.42204235294E+01  0.53900715441E+01  0.77150662366E+01  0.51100000000E-03 0.  1.
         12    1    3    3    0    0 -0.45252600641E+01 -0.13128071690E+02  0.30135843954E+01  0.14209360853E+02  0.00000000000E+00 0. -1.
</event>
<event>
 7    1  0.2983653E-010  0.4778727E+02  0.7816164E-02  0.1312668E+00
        -11   -1    0    0    0    0  0.00000000000E+00  0.00000000000E+00  0.45593999997E+02  0.45594000000E+02  0.51100000000E-03 0.  1.
         11   -1    0    0    0    0 -0.00000000000E+00 -0.00000000000E+00 -0.45593999997E+02  0.45594000000E+02  0.51100000000E-03 0. -1.
    9900012    2    1    2    0    0  0.44180971531E+01  0.14813303758E+02 -0.40554524243E+02  0.47787274346E+02  0.20000015055E+02 0.  0.
        -12    1    1    2    0    0 -0.44180971531E+01 -0.14813303758E+02  0.40554524243E+02  0.43400725654E+02  0.00000000000E+00 0.  1.
         11    1    3    3    0    0  0.50290407181E+01 -0.46128343369E+00 -0.26508295550E+02  0.26985065614E+02  0.51100000000E-03 0. -1.
        -11    1    3    3    0    0 -0.10200726740E+01  0.96070769789E+01 -0.87580896946E+01  0.13039962105E+02  0.51100000000E-03 0.  1.
         12    1    3    3    0    0  0.40912910894E+00  0.56675102127E+01 -0.52881389980E+01  0.77622466272E+01  0.00000000000E+00 0. -1.
</event>
<event>
 7    1  0.2983653E-010  0.4778727E+02  0.7816164E-02  0.1312668E+00
        -11   -1    0    0    0    0  0.00000000000E+00  0.00000000000E+00  0.45593999997E+02  0.45594000000E+02  0.51100000000E-03 0. -1.
         11   -1    0    0    0    0 -0.00000000000E+00 -0.00000000000E+00 -0.45593999997E+02  0.45594000000E+02  0.51100000000E-03 0.  1.
    9900012    2    1    2    0    0  0.18748458684E+02  0.17195352307E+02  0.35163027291E+02  0.47787270372E+02  0.19999996933E+02 0.  0.
        -12    1    1    2    0    0 -0.18748458684E+02 -0.17195352307E+02 -0.35163027291E+02  0.43400729628E+02  0.00000000000E+00 0.  1.
         11    1    3    3    0    0  0.16700414150E+02  0.18265455725E+02  0.22163479429E+02  0.33222741101E+02  0.51100000000E-03 0. -1.
        -11    1    3    3    0    0  0.11518337297E+00 -0.13714764890E+01  0.12459298561E+02  0.12535084198E+02  0.51100000000E-03 0.  1.
         12    1    3    3    0    0  0.19328611607E+01  0.30137307178E+00  0.54024930173E+00  0.20294450727E+01  0.00000000000E+00 0. -1.
</event>
<event>
 7    1  0.2983653E-010  0.4778727E+02  0.7816164E-02  0.1312668E+00
        -11   -1    0    0    0    0  0.00000000000E+00  0.00000000000E+00  0.45593999997E+02  0.45594000000E+02  0.51100000000E-03 0. -1.
         11   -1    0    0    0    0 -0.00000000000E+00 -0.00000000000E+00 -0.45593999997E+02  0.45594000000E+02  0.51100000000E-03 0.  1.
    9900012    2    1    2    0    0  0.34947767855E+02 -0.50955449754E+01  0.25225228757E+02  0.47787271637E+02  0.20000002700E+02 0.  0.
        -12    1    1    2    0    0 -0.34947767855E+02  0.50955449754E+01 -0.25225228757E+02  0.43400728363E+02  0.00000000000E+00 0.  1.
         11    1    3    3    0    0  0.18332918219E+01 -0.12169893184E+00  0.14521561217E+01  0.23419067439E+01  0.51100000000E-03 0. -1.
        -11    1    3    3    0    0  0.11187498266E+02  0.75337706789E+01  0.82011602141E+01  0.15785336462E+02  0.51100000000E-03 0.  1.
        -12    1    3    3    0    0  0.21926977767E+02 -0.12507616722E+02  0.15571912421E+02  0.29660028431E+02  0.00000000000E+00 0.  1.
</event>
<event>
 7    1  0.2983653E-010  0.4778727E+02  0.7816164E-02  0.1312668E+00
        -11   -1    0    0    0    0  0.00000000000E+00  0.00000000000E+00  0.45593999997E+02  0.45594000000E+02  0.51100000000E-03 0.  1.
         11   -1    0    0    0    0 -0.00000000000E+00 -0.00000000000E+00 -0.45593999997E+02  0.45594000000E+02  0.51100000000E-03 0. -1.
    9900012    2    1    2    0    0 -0.23641622265E+02 -0.19127688168E+02 -0.30964953787E+02  0.47787272806E+02  0.20000008030E+02 0.  0.
        -12    1    1    2    0    0  0.23641622265E+02  0.19127688168E+02  0.30964953787E+02  0.43400727194E+02  0.00000000000E+00 0.  1.
         11    1    3    3    0    0 -0.94320305652E+01 -0.53946076779E+01 -0.16801789414E+02  0.20009125927E+02  0.51100000000E-03 0. -1.
        -11    1    3    3    0    0 -0.83853403550E+01 -0.11810490290E+02 -0.26382954204E+01  0.14722846761E+02  0.51100000000E-03 0.  1.
        -12    1    3    3    0    0 -0.58242513447E+01 -0.19225902005E+01 -0.11524868953E+02  0.13055300119E+02  0.00000000000E+00 0.  1.
</event>
<event>
 7    1  0.2983653E-010  0.4778727E+02  0.7816164E-02  0.1312668E+00
        -11   -1    0    0    0    0  0.00000000000E+00  0.00000000000E+00  0.45593999997E+02  0.45594000000E+02  0.51100000000E-03 0.  1.
         11   -1    0    0    0    0 -0.00000000000E+00 -0.00000000000E+00 -0.45593999997E+02  0.45594000000E+02  0.51100000000E-03 0. -1.
    9900012    2    1    2    0    0  0.39038715571E+01 -0.42850501249E+02  0.56760635143E+01  0.47787269966E+02  0.19999995084E+02 0.  0.
        -12    1    1    2    0    0 -0.39038715571E+01  0.42850501249E+02 -0.56760635143E+01  0.43400730034E+02  0.00000000000E+00 0.  1.
         11    1    3    3    0    0  0.36420870843E+01 -0.14410497995E+02  0.17675455075E+01  0.14968348880E+02  0.51100000000E-03 0. -1.
        -11    1    3    3    0    0 -0.50766885853E+01 -0.26366585204E+02  0.34886980872E+01  0.27076569150E+02  0.51100000000E-03 0.  1.
        -12    1    3    3    0    0  0.53384730581E+01 -0.20734180498E+01  0.41981991958E+00  0.57423519368E+01  0.00000000000E+00 0.  1.
</event>
<event>
 7    1  0.2983653E-010  0.4778727E+02  0.7816164E-02  0.1312668E+00
        -11   -1    0    0    0    0  0.00000000000E+00  0.00000000000E+00  0.45593999997E+02  0.45594000000E+02  0.51100000000E-03 0.  1.
         11   -1    0    0    0    0 -0.00000000000E+00 -0.00000000000E+00 -0.45593999997E+02  0.45594000000E+02  0.51100000000E-03 0. -1.
    9900012    2    1    2    0    0 -0.33427566575E+02  0.12969823208E+02 -0.24454129549E+02  0.47787274509E+02  0.20000015796E+02 0.  0.
        -12    1    1    2    0    0  0.33427566575E+02 -0.12969823208E+02  0.24454129549E+02  0.43400725491E+02  0.00000000000E+00 0.  1.
         11    1    3    3    0    0 -0.10670464669E+02  0.22364916751E+01  0.27824844602E+00  0.10905876110E+02  0.51100000000E-03 0. -1.
        -11    1    3    3    0    0 -0.54243594622E+01  0.74734112981E+01 -0.11937732668E+02  0.15092548278E+02  0.51100000000E-03 0.  1.
        -12    1    3    3    0    0 -0.17332742443E+02  0.32599202345E+01 -0.12794645327E+02  0.21788850121E+02  0.00000000000E+00 0.  1.
</event>
<event>
 7    1  0.2983653E-010  0.4778727E+02  0.7816164E-02  0.1312668E+00
        -11   -1    0    0    0    0  0.00000000000E+00  0.00000000000E+00  0.45593999997E+02  0.45594000000E+02  0.51100000000E-03 0.  1.
         11   -1    0    0    0    0 -0.00000000000E+00 -0.00000000000E+00 -0.45593999997E+02  0.45594000000E+02  0.51100000000E-03 0. -1.
    9900012    2    1    2    0    0 -0.34902441091E+02  0.17670936907E+02 -0.18793104902E+02  0.47787271928E+02  0.20000004031E+02 0.  0.
        -12    1    1    2    0    0  0.34902441091E+02 -0.17670936907E+02  0.18793104902E+02  0.43400728072E+02  0.00000000000E+00 0.  1.
         11    1    3    3    0    0 -0.15410340030E+02  0.16002481790E+00 -0.81617096040E+01  0.17438970488E+02  0.51100000000E-03 0.  1.
        -11    1    3    3    0    0 -0.12911448796E+02  0.17027427683E+02 -0.10350652030E+02  0.23743942411E+02  0.51100000000E-03 0. -1.
         12    1    3    3    0    0 -0.65806522652E+01  0.48348440663E+00 -0.28074326822E+00  0.66043590294E+01  0.00000000000E+00 0. -1.
</event>
<event>
 7    1  0.2983653E-010  0.4778727E+02  0.7816164E-02  0.1312668E+00
        -11   -1    0    0    0    0  0.00000000000E+00  0.00000000000E+00  0.45593999997E+02  0.45594000000E+02  0.51100000000E-03 0.  1.
         11   -1    0    0    0    0 -0.00000000000E+00 -0.00000000000E+00 -0.45593999997E+02  0.45594000000E+02  0.51100000000E-03 0. -1.
    9900012    2    1    2    0    0  0.38031400378E+02 -0.20354601318E+02  0.47881049010E+01  0.47787272378E+02  0.20000006081E+02 0.  0.
        -12    1    1    2    0    0 -0.38031400378E+02  0.20354601318E+02 -0.47881049010E+01  0.43400727622E+02  0.00000000000E+00 0.  1.
         11    1    3    3    0    0  0.14163610881E+02 -0.17354372946E+02  0.10964604135E+01  0.22427312796E+02  0.51100000000E-03 0. -1.
        -11    1    3    3    0    0  0.18062276381E+02 -0.51713418841E+01  0.37640554466E+01  0.19161333946E+02  0.51100000000E-03 0.  1.
         12    1    3    3    0    0  0.58055131164E+01  0.21711135119E+01 -0.72410959071E-01  0.61986256358E+01  0.00000000000E+00 0. -1.
</event>
<event>
 7    1  0.2983653E-010  0.4778727E+02  0.7816164E-02  0.1312668E+00
        -11   -1    0    0    0    0  0.00000000000E+00  0.00000000000E+00  0.45593999997E+02  0.45594000000E+02  0.51100000000E-03 0.  1.
         11   -1    0    0    0    0 -0.00000000000E+00 -0.00000000000E+00 -0.45593999997E+02  0.45594000000E+02  0.51100000000E-03 0. -1.
    9900012    2    1    2    0    0 -0.30058327456E+02  0.11261087870E+02 -0.29211441224E+02  0.47787269040E+02  0.19999990861E+02 0.  0.
        -12    1    1    2    0    0  0.30058327456E+02 -0.11261087870E+02  0.29211441224E+02  0.43400730960E+02  0.00000000000E+00 0.  1.
         11    1    3    3    0    0  0.98827851519E+00  0.69849120141E+00 -0.78263521316E+01  0.79193669148E+01  0.51100000000E-03 0. -1.
        -11    1    3    3    0    0 -0.15642942164E+02  0.86191523303E+01 -0.89566257409E+01  0.19980304587E+02  0.51100000000E-03 0.  1.
         12    1    3    3    0    0 -0.15403663807E+02  0.19434443385E+01 -0.12428463352E+02  0.19887597538E+02  0.00000000000E+00 0. -1.
</event>
<event>
 7    1  0.2983653E-010  0.4778727E+02  0.7816164E-02  0.1312668E+00
        -11   -1    0    0    0    0  0.00000000000E+00  0.00000000000E+00  0.45593999997E+02  0.45594000000E+02  0.51100000000E-03 0. -1.
         11   -1    0    0    0    0 -0.00000000000E+00 -0.00000000000E+00 -0.45593999997E+02  0.45594000000E+02  0.51100000000E-03 0.  1.
    9900012    2    1    2    0    0 -0.39957424812E+02 -0.16391943015E+02  0.42815282846E+01  0.47787273302E+02  0.20000010294E+02 0.  0.
        -12    1    1    2    0    0  0.39957424812E+02  0.16391943015E+02 -0.42815282846E+01  0.43400726698E+02  0.00000000000E+00 0.  1.
         11    1    3    3    0    0 -0.16940129308E+02 -0.82587087858E+01  0.55332586293E+01  0.19641568244E+02  0.51100000000E-03 0. -1.
        -11    1    3    3    0    0  0.88925508258E+00 -0.25915042759E+01 -0.23081985921E+01  0.35825200649E+01  0.51100000000E-03 0.  1.
        -12    1    3    3    0    0 -0.23906550587E+02 -0.55417299535E+01  0.10564682474E+01  0.24563184993E+02  0.00000000000E+00 0.  1.
</event>
<event>
 7    1  0.2983653E-010  0.4778727E+02  0.7816164E-02  0.1312668E+00
        -11   -1    0    0    0    0  0.00000000000E+00  0.00000000000E+00  0.45593999997E+02  0.45594000000E+02  0.51100000000E-03 0. -1.
         11   -1    0    0    0    0 -0.00000000000E+00 -0.00000000000E+00 -0.45593999997E+02  0.45594000000E+02  0.51100000000E-03 0.  1.
    9900012    2    1    2    0    0 -0.11996691758E+02  0.27045077473E+02  0.31753211285E+02  0.47787271255E+02  0.20000000962E+02 0.  0.
        -12    1    1    2    0    0  0.11996691758E+02 -0.27045077473E+02 -0.31753211285E+02  0.43400728745E+02  0.00000000000E+00 0.  1.
         11    1    3    3    0    0 -0.34876045344E+01  0.12976409220E+02  0.11176263991E+02  0.17477398511E+02  0.51100000000E-03 0. -1.
        -11    1    3    3    0    0  0.14928950638E+01  0.55183625531E+01 -0.19587264349E+00  0.57200897976E+01  0.51100000000E-03 0.  1.
        -12    1    3    3    0    0 -0.10001982287E+02  0.85503056994E+01  0.20772819938E+02  0.24589782947E+02  0.00000000000E+00 0.  1.
</event>
<event>
 7    1  0.2983653E-010  0.4778727E+02  0.7816164E-02  0.1312668E+00
        -11   -1    0    0    0    0  0.00000000000E+00  0.00000000000E+00  0.45593999997E+02  0.45594000000E+02  0.51100000000E-03 0.  1.
         11   -1    0    0    0    0 -0.00000000000E+00 -0.00000000000E+00 -0.45593999997E+02  0.45594000000E+02  0.51100000000E-03 0. -1.
    9900012    2    1    2    0    0  0.33153186447E+02 -0.19427566078E+02 -0.20175701930E+02  0.47787273696E+02  0.20000012091E+02 0.  0.
        -12    1    1    2    0    0 -0.33153186447E+02  0.19427566078E+02  0.20175701930E+02  0.43400726304E+02  0.00000000000E+00 0.  1.
         11    1    3    3    0    0  0.12414098483E+02 -0.35032288807E+01 -0.15613650613E+02  0.20252618089E+02  0.51100000000E-03 0. -1.
        -11    1    3    3    0    0  0.14834240419E+02 -0.12520742135E+02 -0.64619763394E+01  0.20459247564E+02  0.51100000000E-03 0.  1.
         12    1    3    3    0    0  0.59048475451E+01 -0.34035950623E+01  0.18999250225E+01  0.70754080427E+01  0.00000000000E+00 0. -1.
</event>
<event>
 7    1 -0.6231206E-010  0.4778727E+02  0.7816164E-02  0.1312668E+00
        -11   -1    0    0    0    0  0.00000000000E+00  0.00000000000E+00  0.45593999997E+02  0.45594000000E+02  0.51100000000E-03 0. -1.
         11   -1    0    0    0    0 -0.00000000000E+00 -0.00000000000E+00 -0.45593999997E+02  0.45594000000E+02  0.51100000000E-03 0.  1.
    9900012    2    1    2    0    0  0.19920845564E+02  0.36623947441E+02  0.12061078881E+02  0.47787271459E+02  0.20000001888E+02 0.  0.
        -12    1    1    2    0    0 -0.19920845564E+02 -0.36623947441E+02 -0.12061078881E+02  0.43400728541E+02  0.00000000000E+00 0.  1.
         11    1    3    3    0    0  0.10346154749E+02  0.18911937396E+02  0.51869859873E+01  0.22172260102E+02  0.51100000000E-03 0. -1.
        -11    1    3    3    0    0 -0.72876677862E+00  0.10243191406E+02  0.77408083072E+01  0.12859789450E+02  0.51100000000E-03 0.  1.
        -12    1    3    3    0    0  0.10303457594E+02  0.74688186391E+01 -0.86671541379E+00  0.12755221906E+02  0.00000000000E+00 0.  1.
</event>
<event>
 7    1  0.2983653E-010  0.4778727E+02  0.7816164E-02  0.1312668E+00
        -11   -1    0    0    0    0  0.00000000000E+00  0.00000000000E+00  0.45593999997E+02  0.45594000000E+02  0.51100000000E-03 0.  1.
         11   -1    0    0    0    0 -0.00000000000E+00 -0.00000000000E+00 -0.45593999997E+02  0.45594000000E+02  0.51100000000E-03 0. -1.
    9900012    2    1    2    0    0 -0.16243516336E+02 -0.39805825238E+02 -0.59386407858E+01  0.47787274198E+02  0.20000014376E+02 0.  0.
        -12    1    1    2    0    0  0.16243516336E+02  0.39805825238E+02  0.59386407858E+01  0.43400725802E+02  0.00000000000E+00 0.  1.
         11    1    3    3    0    0 -0.48873762565E+01 -0.32633319999E+02 -0.17873965521E+01  0.33045647331E+02  0.51100000000E-03 0.  1.
        -11    1    3    3    0    0 -0.83835867923E+01 -0.28294160956E+01 -0.30941837229E+01  0.93735850196E+01  0.51100000000E-03 0. -1.
        -12    1    3    3    0    0 -0.29725532871E+01 -0.43430891432E+01 -0.10570605107E+01  0.53680418472E+01  0.00000000000E+00 0.  1.
</event>
<event>
 7    1  0.2983653E-010  0.4778727E+02  0.7816164E-02  0.1312668E+00
        -11   -1    0    0    0    0  0.00000000000E+00  0.00000000000E+00  0.45593999997E+02  0.45594000000E+02  0.51100000000E-03 0. -1.
         11   -1    0    0    0    0 -0.00000000000E+00 -0.00000000000E+00 -0.45593999997E+02  0.45594000000E+02  0.51100000000E-03 0.  1.
    9900012    2    1    2    0    0 -0.37734430551E+01 -0.34425134524E+02  0.26159023200E+02  0.47787271271E+02  0.20000001031E+02 0.  0.
        -12    1    1    2    0    0  0.37734430551E+01  0.34425134524E+02 -0.26159023200E+02  0.43400728729E+02  0.00000000000E+00 0.  1.
         11    1    3    3    0    0 -0.45193993404E+01 -0.13393676845E+02  0.50726407547E+01  0.15018230066E+02  0.51100000000E-03 0. -1.
        -11    1    3    3    0    0  0.12564986833E+01 -0.43534473538E+01  0.13866756699E+02  0.14588291004E+02  0.51100000000E-03 0.  1.
        -12    1    3    3    0    0 -0.51054239794E+00 -0.16678010326E+02  0.72196257456E+01  0.18180750201E+02  0.00000000000E+00 0.  1.
</event>
<event>
 7    1  0.2983653E-010  0.4778727E+02  0.7816164E-02  0.1312668E+00
        -11   -1    0    0    0    0  0.00000000000E+00  0.00000000000E+00  0.45593999997E+02  0.45594000000E+02  0.51100000000E-03 0.  1.
         11   -1    0    0    0    0 -0.00000000000E+00 -0.00000000000E+00 -0.45593999997E+02  0.45594000000E+02  0.51100000000E-03 0. -1.
    9900012    2    1    2    0    0  0.27633710493E+02  0.20142103414E+01 -0.33405752767E+02  0.47787270550E+02  0.19999997744E+02 0.  0.
        -12    1    1    2    0    0 -0.27633710493E+02 -0.20142103414E+01  0.33405752767E+02  0.43400729450E+02  0.00000000000E+00 0.  1.
         11    1    3    3    0    0  0.24909750294E+02  0.12815985300E+00 -0.30250474022E+02  0.39186774089E+02  0.51100000000E-03 0. -1.
        -11    1    3    3    0    0 -0.98377925406E+00 -0.19624475174E+01  0.33075214676E+00  0.22200043070E+01  0.51100000000E-03 0.  1.
         12    1    3    3    0    0  0.37077394526E+01  0.38484980058E+01 -0.34860308915E+01  0.63804921538E+01  0.00000000000E+00 0. -1.
</event>
<event>
 7    1  0.3081124E-010  0.4778728E+02  0.7816164E-02  0.1312668E+00
        -11   -1    0    0    0    0  0.00000000000E+00  0.00000000000E+00  0.45593999997E+02  0.45594000000E+02  0.51100000000E-03 0.  1.
         11   -1    0    0    0    0 -0.00000000000E+00 -0.00000000000E+00 -0.45593999997E+02  0.45594000000E+02  0.51100000000E-03 0. -1.
    9900012    2    1    2    0    0  0.83542194261E+01  0.35435840461E+02 -0.23624788695E+02  0.47787280971E+02  0.20000045257E+02 0.  0.
        -12    1    1    2    0    0 -0.83542194261E+01 -0.35435840461E+02  0.23624788695E+02  0.43400719029E+02  0.00000000000E+00 0.  1.
         11    1    3    3    0    0  0.10690618501E+02  0.29790064284E+02 -0.20785783815E+02  0.37865367594E+02  0.51100000000E-03 0. -1.
        -11    1    3    3    0    0 -0.97821124514E+00 -0.15917163204E+01 -0.15892443974E+01  0.24527853759E+01  0.51100000000E-03 0.  1.
        -12    1    3    3    0    0 -0.13581878294E+01  0.72374924974E+01 -0.12497604830E+01  0.74691280010E+01  0.00000000000E+00 0.  1.
</event>
<event>
 7    1  0.2983653E-010  0.4778727E+02  0.7816164E-02  0.1312668E+00
        -11   -1    0    0    0    0  0.00000000000E+00  0.00000000000E+00  0.45593999997E+02  0.45594000000E+02  0.51100000000E-03 0.  1.
         11   -1    0    0    0    0 -0.00000000000E+00 -0.00000000000E+00 -0.45593999997E+02  0.45594000000E+02  0.51100000000E-03 0. -1.
    9900012    2    1    2    0    0 -0.29567730590E+02 -0.12785707129E+02 -0.29084339073E+02  0.47787265232E+02  0.19999973501E+02 0.  0.
        -12    1    1    2    0    0  0.29567730590E+02  0.12785707129E+02  0.29084339073E+02  0.43400734768E+02  0.00000000000E+00 0.  1.
         11    1    3    3    0    0 -0.20870807299E+02 -0.12442598679E+02 -0.13064984662E+02  0.27588089526E+02  0.51100000000E-03 0. -1.
        -11    1    3    3    0    0 -0.48322610436E+01  0.16302819061E+01 -0.19235465092E+01  0.54505593586E+01  0.51100000000E-03 0.  1.
         12    1    3    3    0    0 -0.38646622478E+01 -0.19733903565E+01 -0.14095807901E+02  0.14748616348E+02  0.00000000000E+00 0. -1.
</event>
<event>
 7    1  0.2983653E-010  0.4778727E+02  0.7816164E-02  0.1312668E+00
        -11   -1    0    0    0    0  0.00000000000E+00  0.00000000000E+00  0.45593999997E+02  0.45594000000E+02  0.51100000000E-03 0. -1.
         11   -1    0    0    0    0 -0.00000000000E+00 -0.00000000000E+00 -0.45593999997E+02  0.45594000000E+02  0.51100000000E-03 0.  1.
    9900012    2    1    2    0    0  0.18654276607E+02  0.39158884241E+02 -0.14909399408E+01  0.47787272441E+02  0.20000006367E+02 0.  0.
        -12    1    1    2    0    0 -0.18654276607E+02 -0.39158884241E+02  0.14909399408E+01  0.43400727559E+02  0.00000000000E+00 0.  1.
         11    1    3    3    0    0  0.11351408610E+02  0.14654930293E+02 -0.54876717485E+01  0.19332252864E+02  0.51100000000E-03 0. -1.
        -11    1    3    3    0    0  0.85118667610E+00  0.15963051438E+02  0.68283208166E+01  0.17383023195E+02  0.51100000000E-03 0.  1.
        -12    1    3    3    0    0  0.64516813215E+01  0.85409025096E+01 -0.28315890090E+01  0.11071996381E+02  0.00000000000E+00 0.  1.
</event>
<event>
 7    1  0.2983653E-010  0.4778727E+02  0.7816164E-02  0.1312668E+00
        -11   -1    0    0    0    0  0.00000000000E+00  0.00000000000E+00  0.45593999997E+02  0.45594000000E+02  0.51100000000E-03 0. -1.
         11   -1    0    0    0    0 -0.00000000000E+00 -0.00000000000E+00 -0.45593999997E+02  0.45594000000E+02  0.51100000000E-03 0.  1.
    9900012    2    1    2    0    0  0.13692220428E+02 -0.39448842515E+02  0.11829415322E+02  0.47787272554E+02  0.20000006881E+02 0.  0.
        -12    1    1    2    0    0 -0.13692220428E+02  0.39448842515E+02 -0.11829415322E+02  0.43400727446E+02  0.00000000000E+00 0.  1.
         11    1    3    3    0    0  0.52334846263E+01 -0.19190637852E+02  0.46833798227E+01  0.20435361247E+02  0.51100000000E-03 0. -1.
        -11    1    3    3    0    0  0.58261565491E+01 -0.36525932282E+01 -0.32275261912E+01  0.75962137280E+01  0.51100000000E-03 0.  1.
        -12    1    3    3    0    0  0.26325792530E+01 -0.16605611435E+02  0.10373561691E+02  0.19755697578E+02  0.00000000000E+00 0.  1.
</event>
<event>
 7    1  0.2983653E-010  0.4778727E+02  0.7816164E-02  0.1312668E+00
        -11   -1    0    0    0    0  0.00000000000E+00  0.00000000000E+00  0.45593999997E+02  0.45594000000E+02  0.51100000000E-03 0.  1.
         11   -1    0    0    0    0 -0.00000000000E+00 -0.00000000000E+00 -0.45593999997E+02  0.45594000000E+02  0.51100000000E-03 0. -1.
    9900012    2    1    2    0    0  0.34787747440E+02  0.51409604916E+01 -0.25436320840E+02  0.47787271151E+02  0.20000000488E+02 0.  0.
        -12    1    1    2    0    0 -0.34787747440E+02 -0.51409604916E+01  0.25436320840E+02  0.43400728849E+02  0.00000000000E+00 0.  1.
         11    1    3    3    0    0  0.16493238747E+02  0.80031382880E+01 -0.20831624079E+02  0.27749481236E+02  0.51100000000E-03 0. -1.
        -11    1    3    3    0    0  0.16204210051E+02 -0.67719669822E+00 -0.50385772519E+01  0.16982999728E+02  0.51100000000E-03 0.  1.
         12    1    3    3    0    0  0.20902986418E+01 -0.21849810982E+01  0.43388049161E+00  0.30547901880E+01  0.00000000000E+00 0. -1.
</event>
<event>
 7    1  0.2983653E-010  0.4778728E+02  0.7816164E-02  0.1312668E+00
        -11   -1    0    0    0    0  0.00000000000E+00  0.00000000000E+00  0.45593999997E+02  0.45594000000E+02  0.51100000000E-03 0. -1.
         11   -1    0    0    0    0 -0.00000000000E+00 -0.00000000000E+00 -0.45593999997E+02  0.45594000000E+02  0.51100000000E-03 0.  1.
    9900012    2    1    2    0    0 -0.17534108206E+02 -0.27137063514E+02  0.28978574137E+02  0.47787275055E+02  0.20000018287E+02 0.  0.
        -12    1    1    2    0    0  0.17534108206E+02  0.27137063514E+02 -0.28978574137E+02  0.43400724945E+02  0.00000000000E+00 0.  1.
         11    1    3    3    0    0 -0.16371634938E+02 -0.98254637117E+01  0.15295163206E+02  0.24464508691E+02  0.51100000000E-03 0. -1.
        -11    1    3    3    0    0 -0.20545793534E+01 -0.17231152245E+02  0.14076469659E+02  0.22344594477E+02  0.51100000000E-03 0.  1.
        -12    1    3    3    0    0  0.89210608558E+00 -0.80447556901E-01 -0.39305872894E+00  0.97817188762E+00  0.00000000000E+00 0.  1.
</event>
<event>
 7    1  0.3976641E-010  0.4778727E+02  0.7816164E-02  0.1312668E+00
        -11   -1    0    0    0    0  0.00000000000E+00  0.00000000000E+00  0.45593999997E+02  0.45594000000E+02  0.51100000000E-03 0. -1.
         11   -1    0    0    0    0 -0.00000000000E+00 -0.00000000000E+00 -0.45593999997E+02  0.45594000000E+02  0.51100000000E-03 0.  1.
    9900012    2    1    2    0    0 -0.19658311197E+02 -0.14766697621E+01  0.38665142981E+02  0.47787273803E+02  0.20000012576E+02 0.  0.
        -12    1    1    2    0    0  0.19658311197E+02  0.14766697621E+01 -0.38665142981E+02  0.43400726197E+02  0.00000000000E+00 0.  1.
         11    1    3    3    0    0 -0.45806136291E+01 -0.54195306620E-01  0.22743660243E+02  0.23200410338E+02  0.51100000000E-03 0.  1.
        -11    1    3    3    0    0 -0.13891788356E+02  0.29400138811E+01  0.11645399650E+02  0.18364117148E+02  0.51100000000E-03 0. -1.
        -12    1    3    3    0    0 -0.11859092114E+01 -0.43624883366E+01  0.42760830884E+01  0.62227463168E+01  0.00000000000E+00 0.  1.
</event>
<event>
 7    1  0.2983653E-010  0.4778727E+02  0.7816164E-02  0.1312668E+00
        -11   -1    0    0    0    0  0.00000000000E+00  0.00000000000E+00  0.45593999997E+02  0.45594000000E+02  0.51100000000E-03 0.  1.
         11   -1    0    0    0    0 -0.00000000000E+00 -0.00000000000E+00 -0.45593999997E+02  0.45594000000E+02  0.51100000000E-03 0. -1.
    9900012    2    1    2    0    0 -0.25450707079E+02  0.17638355793E+02 -0.30410085425E+02  0.47787269805E+02  0.19999994347E+02 0.  0.
        -12    1    1    2    0    0  0.25450707079E+02 -0.17638355793E+02  0.30410085425E+02  0.43400730195E+02  0.00000000000E+00 0.  1.
         11    1    3    3    0    0 -0.15954779188E+02  0.10843201889E+02 -0.16448111242E+02  0.25350944160E+02  0.51100000000E-03 0. -1.
        -11    1    3    3    0    0  0.31246547267E+01  0.30012359755E+01 -0.42186934714E+01  0.60471695369E+01  0.51100000000E-03 0.  1.
         12    1    3    3    0    0 -0.12620582618E+02  0.37939179281E+01 -0.97432807123E+01  0.16389156107E+02  0.00000000000E+00 0. -1.
</event>
<event>
 7    1  0.2983653E-010  0.4778727E+02  0.7816164E-02  0.1312668E+00
        -11   -1    0    0    0    0  0.00000000000E+00  0.00000000000E+00  0.45593999997E+02  0.45594000000E+02  0.51100000000E-03 0. -1.
         11   -1    0    0    0    0 -0.00000000000E+00 -0.00000000000E+00 -0.45593999997E+02  0.45594000000E+02  0.51100000000E-03 0.  1.
    9900012    2    1    2    0    0  0.18924879813E+02 -0.81869197604E+01  0.38189610527E+02  0.47787273240E+02  0.20000010011E+02 0.  0.
        -12    1    1    2    0    0 -0.18924879813E+02  0.81869197604E+01 -0.38189610527E+02  0.43400726760E+02  0.00000000000E+00 0.  1.
         11    1    3    3    0    0 -0.52443947854E+00  0.55157013817E+00  0.55412151206E+01  0.55932398176E+01  0.51100000000E-03 0.  1.
        -11    1    3    3    0    0  0.73555615521E+00  0.38303971549E+01  0.72632287410E+01  0.82442390326E+01  0.51100000000E-03 0. -1.
        -12    1    3    3    0    0  0.18713763136E+02 -0.12568887053E+02  0.25385166665E+02  0.33949794390E+02  0.00000000000E+00 0.  1.
</event>
<event>
 7    1  0.2983653E-010  0.4778727E+02  0.7816164E-02  0.1312668E+00
        -11   -1    0    0    0    0  0.00000000000E+00  0.00000000000E+00  0.45593999997E+02  0.45594000000E+02  0.51100000000E-03 0. -1.
         11   -1    0    0    0    0 -0.00000000000E+00 -0.00000000000E+00 -0.45593999997E+02  0.45594000000E+02  0.51100000000E-03 0.  1.
    9900012    2    1    2    0    0  0.15730183705E+02 -0.21550332716E+02  0.34231092116E+02  0.47787272045E+02  0.20000004561E+02 0.  0.
        -12    1    1    2    0    0 -0.15730183705E+02  0.21550332716E+02 -0.34231092116E+02  0.43400727955E+02  0.00000000000E+00 0.  1.
         11    1    3    3    0    0  0.65657902284E+01 -0.74529525935E+01  0.23394593938E+02  0.25415804718E+02  0.51100000000E-03 0. -1.
        -11    1    3    3    0    0  0.22402746072E+01 -0.10785714583E+02  0.30328087957E+01  0.11425777822E+02  0.51100000000E-03 0.  1.
        -12    1    3    3    0    0  0.69241188694E+01 -0.33116655398E+01  0.78036893826E+01  0.10945689505E+02  0.00000000000E+00 0.  1.
</event>
<event>
 7    1  0.2983653E-010  0.4778727E+02  0.7816164E-02  0.1312668E+00
        -11   -1    0    0    0    0  0.00000000000E+00  0.00000000000E+00  0.45593999997E+02  0.45594000000E+02  0.51100000000E-03 0.  1.
         11   -1    0    0    0    0 -0.00000000000E+00 -0.00000000000E+00 -0.45593999997E+02  0.45594000000E+02  0.51100000000E-03 0. -1.
    9900012    2    1    2    0    0 -0.28319921459E+02 -0.72063026931E+01 -0.32088541700E+02  0.47787271223E+02  0.20000000814E+02 0.  0.
        -12    1    1    2    0    0  0.28319921459E+02  0.72063026931E+01  0.32088541700E+02  0.43400728777E+02  0.00000000000E+00 0.  1.
         11    1    3    3    0    0 -0.11251100066E+02 -0.10878795514E+02 -0.18660829291E+02  0.24354917257E+02  0.51100000000E-03 0. -1.
        -11    1    3    3    0    0 -0.17257815983E+02  0.19896548916E+01 -0.12965277056E+02  0.21676931251E+02  0.51100000000E-03 0.  1.
         12    1    3    3    0    0  0.18899458885E+00  0.16828379293E+01 -0.46243535277E+00  0.17554227145E+01  0.00000000000E+00 0. -1.
</event>
<event>
 7    1  0.2983653E-010  0.4778729E+02  0.7816164E-02  0.1312668E+00
        -11   -1    0    0    0    0  0.00000000000E+00  0.00000000000E+00  0.45593999997E+02  0.45594000000E+02  0.51100000000E-03 0.  1.
         11   -1    0    0    0    0 -0.00000000000E+00 -0.00000000000E+00 -0.45593999997E+02  0.45594000000E+02  0.51100000000E-03 0. -1.
    9900012    2    1    2    0    0  0.23409955153E+02  0.36537636927E+02  0.77237201119E+00  0.47787291815E+02  0.20000094700E+02 0.  0.
        -12    1    1    2    0    0 -0.23409955153E+02 -0.36537636927E+02 -0.77237201119E+00  0.43400708185E+02  0.00000000000E+00 0.  1.
         11    1    3    3    0    0  0.17445703542E+02  0.11765517747E+02  0.16728185653E+01  0.21108725735E+02  0.51100000000E-03 0. -1.
        -11    1    3    3    0    0  0.15018554340E+01  0.13118401853E+02  0.31206222489E+01  0.13567841406E+02  0.51100000000E-03 0.  1.
         12    1    3    3    0    0  0.44623961773E+01  0.11653717326E+02 -0.40210688030E+01  0.13110724674E+02  0.00000000000E+00 0. -1.
</event>
<event>
 7    1  0.2983653E-010  0.4778727E+02  0.7816164E-02  0.1312668E+00
        -11   -1    0    0    0    0  0.00000000000E+00  0.00000000000E+00  0.45593999997E+02  0.45594000000E+02  0.51100000000E-03 0. -1.
         11   -1    0    0    0    0 -0.00000000000E+00 -0.00000000000E+00 -0.45593999997E+02  0.45594000000E+02  0.51100000000E-03 0.  1.
    9900012    2    1    2    0    0  0.33429098433E+02  0.28704180890E+01  0.27529606756E+02  0.47787272239E+02  0.20000005448E+02 0.  0.
        -12    1    1    2    0    0 -0.33429098433E+02 -0.28704180890E+01 -0.27529606756E+02  0.43400727761E+02  0.00000000000E+00 0.  1.
         11    1    3    3    0    0  0.17708738458E+02  0.87746140219E+00  0.21920533065E+02  0.28193600806E+02  0.51100000000E-03 0. -1.
        -11    1    3    3    0    0  0.39725435167E+01  0.37045078028E+01  0.54874928180E+01  0.77212083084E+01  0.51100000000E-03 0.  1.
         12    1    3    3    0    0  0.11747816458E+02 -0.17115511160E+01  0.12158087310E+00  0.11872463125E+02  0.00000000000E+00 0. -1.
</event>
<event>
 7    1  0.2983653E-010  0.4778727E+02  0.7816164E-02  0.1312668E+00
        -11   -1    0    0    0    0  0.00000000000E+00  0.00000000000E+00  0.45593999997E+02  0.45594000000E+02  0.51100000000E-03 0.  1.
         11   -1    0    0    0    0 -0.00000000000E+00 -0.00000000000E+00 -0.45593999997E+02  0.45594000000E+02  0.51100000000E-03 0. -1.
    9900012    2    1    2    0    0  0.30518303783E+02  0.21261463400E+02 -0.22365295181E+02  0.47787272815E+02  0.20000008071E+02 0.  0.
        -12    1    1    2    0    0 -0.30518303783E+02 -0.21261463400E+02  0.22365295181E+02  0.43400727185E+02  0.00000000000E+00 0.  1.
         11    1    3    3    0    0  0.12742806270E+02  0.11684875794E+02 -0.17892965727E+02  0.24881190822E+02  0.51100000000E-03 0. -1.
        -11    1    3    3    0    0  0.13523438468E+02  0.18980396988E+01 -0.21245797887E+01  0.13820267083E+02  0.51100000000E-03 0.  1.
         12    1    3    3    0    0  0.42520590447E+01  0.76785479070E+01 -0.23477496655E+01  0.90858149096E+01  0.00000000000E+00 0. -1.
</event>
<event>
 7    1  0.2983653E-010  0.4778729E+02  0.7816164E-02  0.1312668E+00
        -11   -1    0    0    0    0  0.00000000000E+00  0.00000000000E+00  0.45593999997E+02  0.45594000000E+02  0.51100000000E-03 0. -1.
         11   -1    0    0    0    0 -0.00000000000E+00 -0.00000000000E+00 -0.45593999997E+02  0.45594000000E+02  0.51100000000E-03 0.  1.
    9900012    2    1    2    0    0 -0.24006722084E+02 -0.29930744720E+02  0.20284224276E+02  0.47787286421E+02  0.20000070108E+02 0.  0.
        -12    1    1    2    0    0  0.24006722084E+02  0.29930744720E+02 -0.20284224276E+02  0.43400713579E+02  0.00000000000E+00 0.  1.
         11    1    3    3    0    0 -0.14746480385E+02 -0.61764981198E+01  0.10776425128E+02  0.19280538156E+02  0.51100000000E-03 0. -1.
        -11    1    3    3    0    0  0.69786544446E+00 -0.11437432504E+01  0.24826511929E+01  0.28211207008E+01  0.51100000000E-03 0.  1.
         12    1    3    3    0    0 -0.99581071433E+01 -0.22610503350E+02  0.70251479542E+01  0.25685627564E+02  0.00000000000E+00 0. -1.
</event>
<event>
 7    1  0.2983653E-010  0.4778728E+02  0.7816164E-02  0.1312668E+00
        -11   -1    0    0    0    0  0.00000000000E+00  0.00000000000E+00  0.45593999997E+02  0.45594000000E+02  0.51100000000E-03 0. -1.
         11   -1    0    0    0    0 -0.00000000000E+00 -0.00000000000E+00 -0.45593999997E+02  0.45594000000E+02  0.51100000000E-03 0.  1.
    9900012    2    1    2    0    0 -0.31228089549E+01  0.42592481844E+02  0.77298641071E+01  0.47787282903E+02  0.20000054068E+02 0.  0.
        -12    1    1    2    0    0  0.31228089549E+01 -0.42592481844E+02 -0.77298641071E+01  0.43400717097E+02  0.00000000000E+00 0.  1.
         11    1    3    3    0    0 -0.83639563500E+01  0.30142254250E+02  0.80984556967E+01  0.32312478116E+02  0.51100000000E-03 0. -1.
        -11    1    3    3    0    0  0.87415898078E+00  0.10334200918E+02 -0.15346296832E+01  0.10484033149E+02  0.51100000000E-03 0.  1.
         12    1    3    3    0    0  0.43669884143E+01  0.21160266761E+01  0.11660380935E+01  0.49907716378E+01  0.00000000000E+00 0. -1.
</event>
<event>
 7    1  0.2983653E-010  0.4778725E+02  0.7816164E-02  0.1312668E+00
        -11   -1    0    0    0    0  0.00000000000E+00  0.00000000000E+00  0.45593999997E+02  0.45594000000E+02  0.51100000000E-03 0.  1.
         11   -1    0    0    0    0 -0.00000000000E+00 -0.00000000000E+00 -0.45593999997E+02  0.45594000000E+02  0.51100000000E-03 0. -1.
    9900012    2    1    2    0    0 -0.31946301254E+02 -0.19030129077E+02 -0.22381093420E+02  0.47787247482E+02  0.19999892567E+02 0.  0.
        -12    1    1    2    0    0  0.31946301254E+02  0.19030129077E+02  0.22381093420E+02  0.43400752518E+02  0.00000000000E+00 0.  1.
         11    1    3    3    0    0 -0.66458349142E+01 -0.60448884756E+01 -0.13868357895E+01  0.90901656837E+01  0.51100000000E-03 0. -1.
        -11    1    3    3    0    0  0.11787026527E+01  0.16192873030E+01 -0.23279811090E+00  0.20163398857E+01  0.51100000000E-03 0.  1.
         12    1    3    3    0    0 -0.26479168992E+02 -0.14604527905E+02 -0.20761459520E+02  0.36680741912E+02  0.00000000000E+00 0. -1.
</event>
<event>
 7    1  0.2983653E-010  0.4778727E+02  0.7816164E-02  0.1312668E+00
        -11   -1    0    0    0    0  0.00000000000E+00  0.00000000000E+00  0.45593999997E+02  0.45594000000E+02  0.51100000000E-03 0.  1.
         11   -1    0    0    0    0 -0.00000000000E+00 -0.00000000000E+00 -0.45593999997E+02  0.45594000000E+02  0.51100000000E-03 0. -1.
    9900012    2    1    2    0    0 -0.32086651334E+02  0.19580337578E+02 -0.21695175783E+02  0.47787268834E+02  0.19999989920E+02 0.  0.
        -12    1    1    2    0    0  0.32086651334E+02 -0.19580337578E+02  0.21695175783E+02  0.43400731166E+02  0.00000000000E+00 0.  1.
         11    1    3    3    0    0 -0.21745495785E+02  0.20039079770E+02 -0.13269117140E+02  0.32411429695E+02  0.51100000000E-03 0. -1.
        -11    1    3    3    0    0 -0.10321475712E+02 -0.18698712707E+01 -0.90298932817E+01  0.13840818342E+02  0.51100000000E-03 0.  1.
         12    1    3    3    0    0 -0.19679837388E-01  0.14111290790E+01  0.60383463866E+00  0.15350207961E+01  0.00000000000E+00 0. -1.
</event>
<event>
 7    1  0.2983653E-010  0.4778728E+02  0.7816164E-02  0.1312668E+00
        -11   -1    0    0    0    0  0.00000000000E+00  0.00000000000E+00  0.45593999997E+02  0.45594000000E+02  0.51100000000E-03 0.  1.
         11   -1    0    0    0    0 -0.00000000000E+00 -0.00000000000E+00 -0.45593999997E+02  0.45594000000E+02  0.51100000000E-03 0. -1.
    9900012    2    1    2    0    0  0.77589117357E+01 -0.11799237304E+02 -0.41039004702E+02  0.47787278587E+02  0.20000034388E+02 0.  0.
        -12    1    1    2    0    0 -0.77589117357E+01  0.11799237304E+02  0.41039004702E+02  0.43400721413E+02  0.00000000000E+00 0.  1.
         11    1    3    3    0    0  0.73240273587E+00  0.37978825059E+01 -0.15009686431E+02  0.15500032655E+02  0.51100000000E-03 0. -1.
        -11    1    3    3    0    0  0.22544334259E+01 -0.18514444649E+01 -0.58349542132E+00  0.29750266967E+01  0.51100000000E-03 0.  1.
         12    1    3    3    0    0  0.47720755740E+01 -0.13745675345E+02 -0.25445822850E+02  0.29312219235E+02  0.00000000000E+00 0. -1.
</event>
<event>
 7    1  0.2983653E-010  0.4778726E+02  0.7816164E-02  0.1312668E+00
        -11   -1    0    0    0    0  0.00000000000E+00  0.00000000000E+00  0.45593999997E+02  0.45594000000E+02  0.51100000000E-03 0.  1.
         11   -1    0    0    0    0 -0.00000000000E+00 -0.00000000000E+00 -0.45593999997E+02  0.45594000000E+02  0.51100000000E-03 0. -1.
    9900012    2    1    2    0    0  0.42576802876E+02 -0.83003454168E+01  0.13942835349E+01  0.47787263787E+02  0.19999966913E+02 0.  0.
        -12    1    1    2    0    0 -0.42576802876E+02  0.83003454168E+01 -0.13942835349E+01  0.43400736213E+02  0.00000000000E+00 0.  1.
         11    1    3    3    0    0  0.33033965124E+02 -0.10471334655E+02  0.65195361177E+01  0.35261821460E+02  0.51100000000E-03 0. -1.
        -11    1    3    3    0    0  0.95407013395E+00  0.26539991791E+01 -0.14451889923E+01  0.31689955740E+01  0.51100000000E-03 0.  1.
         12    1    3    3    0    0  0.85887676188E+01 -0.48300994052E+00 -0.36800635905E+01  0.93564467531E+01  0.00000000000E+00 0. -1.
</event>
<event>
 7    1  0.2983653E-010  0.4778727E+02  0.7816164E-02  0.1312668E+00
        -11   -1    0    0    0    0  0.00000000000E+00  0.00000000000E+00  0.45593999997E+02  0.45594000000E+02  0.51100000000E-03 0.  1.
         11   -1    0    0    0    0 -0.00000000000E+00 -0.00000000000E+00 -0.45593999997E+02  0.45594000000E+02  0.51100000000E-03 0. -1.
    9900012    2    1    2    0    0 -0.22770004792E+02 -0.93939525227E+01 -0.35733792619E+02  0.47787269624E+02  0.19999993523E+02 0.  0.
        -12    1    1    2    0    0  0.22770004792E+02  0.93939525227E+01  0.35733792619E+02  0.43400730376E+02  0.00000000000E+00 0.  1.
         11    1    3    3    0    0 -0.18593184267E+02 -0.95402928467E+01 -0.24250729943E+02  0.32012834798E+02  0.51100000000E-03 0. -1.
        -11    1    3    3    0    0 -0.43052394694E+01  0.31298858880E+01 -0.17647423209E+01  0.56076366039E+01  0.51100000000E-03 0.  1.
        -12    1    3    3    0    0  0.12841894358E+00 -0.29835455640E+01 -0.97183203556E+01  0.10166798222E+02  0.00000000000E+00 0.  1.
</event>
<event>
 7    1  0.2983653E-010  0.4778727E+02  0.7816164E-02  0.1312668E+00
        -11   -1    0    0    0    0  0.00000000000E+00  0.00000000000E+00  0.45593999997E+02  0.45594000000E+02  0.51100000000E-03 0. -1.
         11   -1    0    0    0    0 -0.00000000000E+00 -0.00000000000E+00 -0.45593999997E+02  0.45594000000E+02  0.51100000000E-03 0.  1.
    9900012    2    1    2    0    0 -0.36590848113E+02 -0.19293170449E+02  0.13134170606E+02  0.47787273864E+02  0.20000012855E+02 0.  0.
        -12    1    1    2    0    0  0.36590848113E+02  0.19293170449E+02 -0.13134170606E+02  0.43400726136E+02  0.00000000000E+00 0.  1.
         11    1    3    3    0    0 -0.49845942240E+01 -0.52166912563E+01  0.12296861829E+01  0.73193015794E+01  0.51100000000E-03 0. -1.
        -11    1    3    3    0    0 -0.23686749398E+02 -0.16943025230E+02  0.13150289829E+02  0.31954003252E+02  0.51100000000E-03 0.  1.
        -12    1    3    3    0    0 -0.79195044914E+01  0.28665460371E+01 -0.12458054059E+01  0.85139690322E+01  0.00000000000E+00 0.  1.
</event>
<event>
 7    1  0.2983653E-010  0.4778727E+02  0.7816164E-02  0.1312668E+00
        -11   -1    0    0    0    0  0.00000000000E+00  0.00000000000E+00  0.45593999997E+02  0.45594000000E+02  0.51100000000E-03 0.  1.
         11   -1    0    0    0    0 -0.00000000000E+00 -0.00000000000E+00 -0.45593999997E+02  0.45594000000E+02  0.51100000000E-03 0. -1.
    9900012    2    1    2    0    0 -0.29508559370E+02 -0.39156136264E+01 -0.31583793687E+02  0.47787272704E+02  0.20000007569E+02 0.  0.
        -12    1    1    2    0    0  0.29508559370E+02  0.39156136264E+01  0.31583793687E+02  0.43400727296E+02  0.00000000000E+00 0.  1.
         11    1    3    3    0    0 -0.13127752631E+02 -0.47867443354E+01 -0.10259919423E+02  0.17335419155E+02  0.51100000000E-03 0. -1.
        -11    1    3    3    0    0 -0.31935270062E+01  0.66165096803E+01 -0.68171247403E+01  0.10022474997E+02  0.51100000000E-03 0.  1.
        -12    1    3    3    0    0 -0.13187279733E+02 -0.57453789714E+01 -0.14506749524E+02  0.20429378552E+02  0.00000000000E+00 0.  1.
</event>
<event>
 7    1  0.2983653E-010  0.4778728E+02  0.7816164E-02  0.1312668E+00
        -11   -1    0    0    0    0  0.00000000000E+00  0.00000000000E+00  0.45593999997E+02  0.45594000000E+02  0.51100000000E-03 0.  1.
         11   -1    0    0    0    0 -0.00000000000E+00 -0.00000000000E+00 -0.45593999997E+02  0.45594000000E+02  0.51100000000E-03 0. -1.
    9900012    2    1    2    0    0  0.26435493347E+02 -0.50124935505E+01 -0.34053818110E+02  0.47787275029E+02  0.20000018168E+02 0.  0.
        -12    1    1    2    0    0 -0.26435493347E+02  0.50124935505E+01  0.34053818110E+02  0.43400724971E+02  0.00000000000E+00 0.  1.
         11    1    3    3    0    0  0.69076397147E+01  0.13689796856E+01 -0.19534538608E+02  0.20765061779E+02  0.51100000000E-03 0. -1.
        -11    1    3    3    0    0  0.97365841235E+01 -0.18105561325E+01 -0.13623928294E+01  0.99967643958E+01  0.51100000000E-03 0.  1.
        -12    1    3    3    0    0  0.97912695087E+01 -0.45709171037E+01 -0.13156886673E+02  0.17025448855E+02  0.00000000000E+00 0.  1.
</event>
<event>
 7    1  0.2983653E-010  0.4778727E+02  0.7816164E-02  0.1312668E+00
        -11   -1    0    0    0    0  0.00000000000E+00  0.00000000000E+00  0.45593999997E+02  0.45594000000E+02  0.51100000000E-03 0. -1.
         11   -1    0    0    0    0 -0.00000000000E+00 -0.00000000000E+00 -0.45593999997E+02  0.45594000000E+02  0.51100000000E-03 0.  1.
    9900012    2    1    2    0    0  0.71283955974E+01 -0.41691277517E+02  0.97286547448E+01  0.47787269961E+02  0.19999995061E+02 0.  0.
        -12    1    1    2    0    0 -0.71283955974E+01  0.41691277517E+02 -0.97286547448E+01  0.43400730039E+02  0.00000000000E+00 0.  1.
         11    1    3    3    0    0  0.29506528496E+01  0.61532073245E+00  0.85265224908E+00  0.31324092903E+01  0.51100000000E-03 0. -1.
        -11    1    3    3    0    0  0.47510661028E+01 -0.24978919136E+02  0.57583101875E+00  0.25433257989E+02  0.51100000000E-03 0.  1.
         12    1    3    3    0    0 -0.57332335496E+00 -0.17327679113E+02  0.83001714770E+01  0.19221602682E+02  0.00000000000E+00 0. -1.
</event>
<event>
 7    1  0.2983653E-010  0.4778727E+02  0.7816164E-02  0.1312668E+00
        -11   -1    0    0    0    0  0.00000000000E+00  0.00000000000E+00  0.45593999997E+02  0.45594000000E+02  0.51100000000E-03 0.  1.
         11   -1    0    0    0    0 -0.00000000000E+00 -0.00000000000E+00 -0.45593999997E+02  0.45594000000E+02  0.51100000000E-03 0. -1.
    9900012    2    1    2    0    0 -0.26486071813E+02 -0.34056785406E+02 -0.47166368993E+01  0.47787270791E+02  0.19999998842E+02 0.  0.
        -12    1    1    2    0    0  0.26486071813E+02  0.34056785406E+02  0.47166368993E+01  0.43400729209E+02  0.00000000000E+00 0.  1.
         11    1    3    3    0    0 -0.23830824870E+02 -0.29230839092E+02  0.77672104652E+00  0.37722055403E+02  0.51100000000E-03 0. -1.
        -11    1    3    3    0    0 -0.45432102072E+00 -0.15849327386E+01  0.13824322498E+01  0.21516362523E+01  0.51100000000E-03 0.  1.
         12    1    3    3    0    0 -0.22009259221E+01 -0.32410135757E+01 -0.68757901956E+01  0.79135791350E+01  0.00000000000E+00 0. -1.
</event>
<event>
 7    1  0.2983653E-010  0.4778727E+02  0.7816164E-02  0.1312668E+00
        -11   -1    0    0    0    0  0.00000000000E+00  0.00000000000E+00  0.45593999997E+02  0.45594000000E+02  0.51100000000E-03 0.  1.
         11   -1    0    0    0    0 -0.00000000000E+00 -0.00000000000E+00 -0.45593999997E+02  0.45594000000E+02  0.51100000000E-03 0. -1.
    9900012    2    1    2    0    0  0.20497936083E+02 -0.33217156894E+02 -0.18975737888E+02  0.47787268161E+02  0.19999986851E+02 0.  0.
        -12    1    1    2    0    0 -0.20497936083E+02  0.33217156894E+02  0.18975737888E+02  0.43400731839E+02  0.00000000000E+00 0.  1.
         11    1    3    3    0    0  0.99452238407E+01 -0.96841997418E+01 -0.86820627561E+01  0.16372825530E+02  0.51100000000E-03 0. -1.
        -11    1    3    3    0    0 -0.21392863356E+01 -0.12720398400E+02 -0.58211946868E+01  0.14151727433E+02  0.51100000000E-03 0.  1.
         12    1    3    3    0    0  0.12691998578E+02 -0.10812558753E+02 -0.44724804452E+01  0.17262715198E+02  0.00000000000E+00 0. -1.
</event>
<event>
 7    1  0.2983653E-010  0.4778727E+02  0.7816164E-02  0.1312668E+00
        -11   -1    0    0    0    0  0.00000000000E+00  0.00000000000E+00  0.45593999997E+02  0.45594000000E+02  0.51100000000E-03 0.  1.
         11   -1    0    0    0    0 -0.00000000000E+00 -0.00000000000E+00 -0.45593999997E+02  0.45594000000E+02  0.51100000000E-03 0. -1.
    9900012    2    1    2    0    0  0.22042316214E+02  0.23093733862E+02 -0.29401348220E+02  0.47787268152E+02  0.19999986814E+02 0.  0.
        -12    1    1    2    0    0 -0.22042316214E+02 -0.23093733862E+02  0.29401348220E+02  0.43400731848E+02  0.00000000000E+00 0.  1.
         11    1    3    3    0    0  0.14363185093E+02  0.14573660127E+02 -0.28575647760E+02  0.35146270083E+02  0.51100000000E-03 0. -1.
        -11    1    3    3    0    0  0.63668696873E+01  0.47606809465E+01  0.14106921073E+01  0.80741046050E+01  0.51100000000E-03 0.  1.
        -12    1    3    3    0    0  0.13122614332E+01  0.37593927885E+01 -0.22363925666E+01  0.45668934649E+01  0.00000000000E+00 0.  1.
</event>
<event>
 7    1  0.2983653E-010  0.4778727E+02  0.7816164E-02  0.1312668E+00
        -11   -1    0    0    0    0  0.00000000000E+00  0.00000000000E+00  0.45593999997E+02  0.45594000000E+02  0.51100000000E-03 0.  1.
         11   -1    0    0    0    0 -0.00000000000E+00 -0.00000000000E+00 -0.45593999997E+02  0.45594000000E+02  0.51100000000E-03 0. -1.
    9900012    2    1    2    0    0  0.26382464677E+02 -0.18075438863E+02 -0.29340539999E+02  0.47787271666E+02  0.20000002832E+02 0.  0.
        -12    1    1    2    0    0 -0.26382464677E+02  0.18075438863E+02  0.29340539999E+02  0.43400728334E+02  0.00000000000E+00 0.  1.
         11    1    3    3    0    0  0.50901070240E+01  0.43166850281E+01 -0.56864826268E+01  0.87680695751E+01  0.51100000000E-03 0. -1.
        -11    1    3    3    0    0  0.12942572946E+02 -0.14309630587E+02 -0.13103289078E+02  0.23323205331E+02  0.51100000000E-03 0.  1.
         12    1    3    3    0    0  0.83497847071E+01 -0.80824933038E+01 -0.10550768295E+02  0.15695996759E+02  0.00000000000E+00 0. -1.
</event>
<event>
 7    1  0.2983653E-010  0.4778727E+02  0.7816164E-02  0.1312668E+00
        -11   -1    0    0    0    0  0.00000000000E+00  0.00000000000E+00  0.45593999997E+02  0.45594000000E+02  0.51100000000E-03 0.  1.
         11   -1    0    0    0    0 -0.00000000000E+00 -0.00000000000E+00 -0.45593999997E+02  0.45594000000E+02  0.51100000000E-03 0. -1.
    9900012    2    1    2    0    0  0.32248796836E+02 -0.10720807946E+02 -0.26994492823E+02  0.47787271168E+02  0.20000000564E+02 0.  0.
        -12    1    1    2    0    0 -0.32248796836E+02  0.10720807946E+02  0.26994492823E+02  0.43400728832E+02  0.00000000000E+00 0.  1.
         11    1    3    3    0    0  0.21424392537E+02 -0.11228367894E+01 -0.22798943061E+02  0.31305864675E+02  0.51100000000E-03 0. -1.
        -11    1    3    3    0    0  0.10812416922E+02 -0.63772634873E+01 -0.23554309769E+01  0.12772075189E+02  0.51100000000E-03 0.  1.
         12    1    3    3    0    0  0.11987376444E-01 -0.32207076691E+01 -0.18401187843E+01  0.37093313046E+01  0.00000000000E+00 0. -1.
</event>
<event>
 7    1  0.2983653E-010  0.4778727E+02  0.7816164E-02  0.1312668E+00
        -11   -1    0    0    0    0  0.00000000000E+00  0.00000000000E+00  0.45593999997E+02  0.45594000000E+02  0.51100000000E-03 0.  1.
         11   -1    0    0    0    0 -0.00000000000E+00 -0.00000000000E+00 -0.45593999997E+02  0.45594000000E+02  0.51100000000E-03 0. -1.
    9900012    2    1    2    0    0 -0.38202653127E+02 -0.25370112987E+01 -0.20438795554E+02  0.47787268486E+02  0.19999988333E+02 0.  0.
        -12    1    1    2    0    0  0.38202653127E+02  0.25370112987E+01  0.20438795554E+02  0.43400731514E+02  0.00000000000E+00 0.  1.
         11    1    3    3    0    0 -0.26193480643E+02  0.50411038155E+00 -0.59092816936E+01  0.26856510679E+02  0.51100000000E-03 0.  1.
        -11    1    3    3    0    0  0.13266189272E+01 -0.69903028022E+00 -0.18441626484E+01  0.23768671072E+01  0.51100000000E-03 0. -1.
         12    1    3    3    0    0 -0.13335791412E+02 -0.23420914001E+01 -0.12685351212E+02  0.18553890699E+02  0.00000000000E+00 0. -1.
</event>
<event>
 7    1  0.2983653E-010  0.4778727E+02  0.7816164E-02  0.1312668E+00
        -11   -1    0    0    0    0  0.00000000000E+00  0.00000000000E+00  0.45593999997E+02  0.45594000000E+02  0.51100000000E-03 0.  1.
         11   -1    0    0    0    0 -0.00000000000E+00 -0.00000000000E+00 -0.45593999997E+02  0.45594000000E+02  0.51100000000E-03 0. -1.
    9900012    2    1    2    0    0 -0.11909635752E+02  0.21573523975E+02 -0.35726276761E+02  0.47787271761E+02  0.20000003269E+02 0.  0.
        -12    1    1    2    0    0  0.11909635752E+02 -0.21573523975E+02  0.35726276761E+02  0.43400728239E+02  0.00000000000E+00 0.  1.
         11    1    3    3    0    0  0.34853074081E+01  0.41904392639E+00 -0.57485697598E+01  0.67356529071E+01  0.51100000000E-03 0.  1.
        -11    1    3    3    0    0 -0.90420812751E+01  0.17521016868E+02 -0.26274300990E+02  0.32849416413E+02  0.51100000000E-03 0. -1.
         12    1    3    3    0    0 -0.63528618847E+01  0.36334631801E+01 -0.37034060110E+01  0.82022024414E+01  0.00000000000E+00 0. -1.
</event>
<event>
 7    1  0.2983653E-010  0.4778727E+02  0.7816164E-02  0.1312668E+00
        -11   -1    0    0    0    0  0.00000000000E+00  0.00000000000E+00  0.45593999997E+02  0.45594000000E+02  0.51100000000E-03 0.  1.
         11   -1    0    0    0    0 -0.00000000000E+00 -0.00000000000E+00 -0.45593999997E+02  0.45594000000E+02  0.51100000000E-03 0. -1.
    9900012    2    1    2    0    0 -0.12337247219E+02  0.21161584905E+02 -0.35827409730E+02  0.47787266912E+02  0.19999981156E+02 0.  0.
        -12    1    1    2    0    0  0.12337247219E+02 -0.21161584905E+02  0.35827409730E+02  0.43400733088E+02  0.00000000000E+00 0.  1.
         11    1    3    3    0    0 -0.94478037711E+01  0.60180351078E+01 -0.13520485812E+02  0.17557940640E+02  0.51100000000E-03 0. -1.
        -11    1    3    3    0    0  0.31923545582E+01  0.46585538084E+01 -0.10279792903E+01  0.57402084364E+01  0.51100000000E-03 0.  1.
        -12    1    3    3    0    0 -0.60817980064E+01  0.10484995989E+02 -0.21278944628E+02  0.24489117835E+02  0.00000000000E+00 0.  1.
</event>
<event>
 7    1  0.2983653E-010  0.4778727E+02  0.7816164E-02  0.1312668E+00
        -11   -1    0    0    0    0  0.00000000000E+00  0.00000000000E+00  0.45593999997E+02  0.45594000000E+02  0.51100000000E-03 0.  1.
         11   -1    0    0    0    0 -0.00000000000E+00 -0.00000000000E+00 -0.45593999997E+02  0.45594000000E+02  0.51100000000E-03 0. -1.
    9900012    2    1    2    0    0  0.14244331392E+02 -0.36102408057E+02 -0.19425201045E+02  0.47787270974E+02  0.19999999680E+02 0.  0.
        -12    1    1    2    0    0 -0.14244331392E+02  0.36102408057E+02  0.19425201045E+02  0.43400729026E+02  0.00000000000E+00 0.  1.
         11    1    3    3    0    0  0.76478002505E+01 -0.26460494129E+02 -0.10258069640E+02  0.29391743589E+02  0.51100000000E-03 0. -1.
        -11    1    3    3    0    0  0.27391053879E+01 -0.35404597914E+01 -0.10166294474E+02  0.11108154548E+02  0.51100000000E-03 0.  1.
        -12    1    3    3    0    0  0.38574257538E+01 -0.61014541368E+01  0.99916306914E+00  0.72873728372E+01  0.00000000000E+00 0.  1.
</event>
<event>
 7    1  0.3131454E-010  0.4778728E+02  0.7816164E-02  0.1312668E+00
        -11   -1    0    0    0    0  0.00000000000E+00  0.00000000000E+00  0.45593999997E+02  0.45594000000E+02  0.51100000000E-03 0. -1.
         11   -1    0    0    0    0 -0.00000000000E+00 -0.00000000000E+00 -0.45593999997E+02  0.45594000000E+02  0.51100000000E-03 0.  1.
    9900012    2    1    2    0    0 -0.47359841412E+01  0.14090862905E+01  0.43118522724E+02  0.47787284893E+02  0.20000063139E+02 0.  0.
        -12    1    1    2    0    0  0.47359841412E+01 -0.14090862905E+01 -0.43118522724E+02  0.43400715107E+02  0.00000000000E+00 0.  1.
         11    1    3    3    0    0  0.32558629855E+01  0.10552353924E+01  0.28497075369E+02  0.28701872244E+02  0.51100000000E-03 0. -1.
        -11    1    3    3    0    0 -0.94942571261E+01 -0.11634500765E+01  0.13814313947E+02  0.16802672542E+02  0.51100000000E-03 0.  1.
        -12    1    3    3    0    0  0.15024099994E+01  0.15173009746E+01  0.80713340785E+00  0.22827401060E+01  0.00000000000E+00 0.  1.
</event>
<event>
 7    1  0.2983653E-010  0.4778727E+02  0.7816164E-02  0.1312668E+00
        -11   -1    0    0    0    0  0.00000000000E+00  0.00000000000E+00  0.45593999997E+02  0.45594000000E+02  0.51100000000E-03 0. -1.
         11   -1    0    0    0    0 -0.00000000000E+00 -0.00000000000E+00 -0.45593999997E+02  0.45594000000E+02  0.51100000000E-03 0.  1.
    9900012    2    1    2    0    0 -0.27918356916E+02  0.13140996598E+02  0.30520534111E+02  0.47787269051E+02  0.19999990912E+02 0.  0.
        -12    1    1    2    0    0  0.27918356916E+02 -0.13140996598E+02 -0.30520534111E+02  0.43400730949E+02  0.00000000000E+00 0.  1.
         11    1    3    3    0    0 -0.20402905605E+02  0.12650533067E+02  0.20642480739E+02  0.31661120563E+02  0.51100000000E-03 0. -1.
        -11    1    3    3    0    0 -0.27849121735E+01 -0.31497731135E+01  0.92044572762E+01  0.10119231220E+02  0.51100000000E-03 0.  1.
         12    1    3    3    0    0 -0.47305391380E+01  0.36402366448E+01  0.67359609597E+00  0.60069172681E+01  0.00000000000E+00 0. -1.
</event>
<event>
 7    1  0.2983653E-010  0.4778727E+02  0.7816164E-02  0.1312668E+00
        -11   -1    0    0    0    0  0.00000000000E+00  0.00000000000E+00  0.45593999997E+02  0.45594000000E+02  0.51100000000E-03 0.  1.
         11   -1    0    0    0    0 -0.00000000000E+00 -0.00000000000E+00 -0.45593999997E+02  0.45594000000E+02  0.51100000000E-03 0. -1.
    9900012    2    1    2    0    0 -0.59789465220E+01  0.42317388995E+02 -0.75574122257E+01  0.47787266223E+02  0.19999978017E+02 0.  0.
        -12    1    1    2    0    0  0.59789465220E+01 -0.42317388995E+02  0.75574122257E+01  0.43400733777E+02  0.00000000000E+00 0.  1.
         11    1    3    3    0    0  0.41581959600E+01  0.12649582055E+02 -0.90013090611E+01  0.16072525778E+02  0.51100000000E-03 0. -1.
        -11    1    3    3    0    0 -0.69668148929E+01  0.14796143331E+02 -0.63989907527E+00  0.16366790715E+02  0.51100000000E-03 0.  1.
         12    1    3    3    0    0 -0.31703275891E+01  0.14871663609E+02  0.20837959107E+01  0.15347949730E+02  0.00000000000E+00 0. -1.
</event>
<event>
 7    1  0.2983653E-010  0.4778725E+02  0.7816164E-02  0.1312668E+00
        -11   -1    0    0    0    0  0.00000000000E+00  0.00000000000E+00  0.45593999997E+02  0.45594000000E+02  0.51100000000E-03 0.  1.
         11   -1    0    0    0    0 -0.00000000000E+00 -0.00000000000E+00 -0.45593999997E+02  0.45594000000E+02  0.51100000000E-03 0. -1.
    9900012    2    1    2    0    0 -0.25072114537E+02  0.23900596073E+02 -0.26149110319E+02  0.47787246660E+02  0.19999888820E+02 0.  0.
        -12    1    1    2    0    0  0.25072114537E+02 -0.23900596073E+02  0.26149110319E+02  0.43400753340E+02  0.00000000000E+00 0.  1.
         11    1    3    3    0    0 -0.12269405762E+02  0.18748232605E+02 -0.20537953047E+02  0.30394770261E+02  0.51100000000E-03 0. -1.
        -11    1    3    3    0    0 -0.66258450987E+01  0.62281594209E+01 -0.17668427784E+00  0.90952191089E+01  0.51100000000E-03 0.  1.
         12    1    3    3    0    0 -0.61768636770E+01 -0.10757959528E+01 -0.54344729939E+01  0.82972572901E+01  0.00000000000E+00 0. -1.
</event>
<event>
 7    1  0.2983653E-010  0.4778727E+02  0.7816164E-02  0.1312668E+00
        -11   -1    0    0    0    0  0.00000000000E+00  0.00000000000E+00  0.45593999997E+02  0.45594000000E+02  0.51100000000E-03 0. -1.
         11   -1    0    0    0    0 -0.00000000000E+00 -0.00000000000E+00 -0.45593999997E+02  0.45594000000E+02  0.51100000000E-03 0.  1.
    9900012    2    1    2    0    0 -0.45745178013E+01  0.32131741189E+02  0.28814027039E+02  0.47787272367E+02  0.20000006028E+02 0.  0.
        -12    1    1    2    0    0  0.45745178013E+01 -0.32131741189E+02 -0.28814027039E+02  0.43400727633E+02  0.00000000000E+00 0.  1.
         11    1    3    3    0    0  0.33806258013E+01  0.15319296485E+02  0.15016039767E+02  0.21716144367E+02  0.51100000000E-03 0. -1.
        -11    1    3    3    0    0 -0.36239446423E+01  0.35925625765E+01 -0.15728789510E+01  0.53397967276E+01  0.51100000000E-03 0.  1.
         12    1    3    3    0    0 -0.43311989603E+01  0.13219882127E+02  0.15370866223E+02  0.20731331272E+02  0.00000000000E+00 0. -1.
</event>
<event>
 7    1  0.2983653E-010  0.4778728E+02  0.7816164E-02  0.1312668E+00
        -11   -1    0    0    0    0  0.00000000000E+00  0.00000000000E+00  0.45593999997E+02  0.45594000000E+02  0.51100000000E-03 0.  1.
         11   -1    0    0    0    0 -0.00000000000E+00 -0.00000000000E+00 -0.45593999997E+02  0.45594000000E+02  0.51100000000E-03 0. -1.
    9900012    2    1    2    0    0  0.39086568756E+02  0.18196922316E+02  0.49734259294E+01  0.47787276454E+02  0.20000024662E+02 0.  0.
        -12    1    1    2    0    0 -0.39086568756E+02 -0.18196922316E+02 -0.49734259294E+01  0.43400723546E+02  0.00000000000E+00 0.  1.
         11    1    3    3    0    0  0.13746090031E+02  0.16216853840E+02  0.49745850570E+01  0.21833182003E+02  0.51100000000E-03 0. -1.
        -11    1    3    3    0    0  0.20046110675E+02  0.67885324705E+00  0.19760613588E+01  0.20154706986E+02  0.51100000000E-03 0.  1.
         12    1    3    3    0    0  0.52943680492E+01  0.13012152288E+01 -0.19772204865E+01  0.57993874646E+01  0.00000000000E+00 0. -1.
</event>
<event>
 7    1  0.2983653E-010  0.4778727E+02  0.7816164E-02  0.1312668E+00
        -11   -1    0    0    0    0  0.00000000000E+00  0.00000000000E+00  0.45593999997E+02  0.45594000000E+02  0.51100000000E-03 0.  1.
         11   -1    0    0    0    0 -0.00000000000E+00 -0.00000000000E+00 -0.45593999997E+02  0.45594000000E+02  0.51100000000E-03 0. -1.
    9900012    2    1    2    0    0 -0.18170321249E+02  0.46209610102E+01 -0.39142167592E+02  0.47787272601E+02  0.20000007098E+02 0.  0.
        -12    1    1    2    0    0  0.18170321249E+02 -0.46209610102E+01  0.39142167592E+02  0.43400727399E+02  0.00000000000E+00 0.  1.
         11    1    3    3    0    0 -0.13013417980E+02  0.87810424174E+01 -0.21018978810E+02  0.26234580689E+02  0.51100000000E-03 0. -1.
        -11    1    3    3    0    0 -0.89322573176E+00 -0.40985034080E+00 -0.15076818594E+02  0.15108814933E+02  0.51100000000E-03 0.  1.
         12    1    3    3    0    0 -0.42636775377E+01 -0.37502310664E+01 -0.30463701874E+01  0.64438769786E+01  0.00000000000E+00 0. -1.
</event>
<event>
 7    1  0.2983653E-010  0.4778727E+02  0.7816164E-02  0.1312668E+00
        -11   -1    0    0    0    0  0.00000000000E+00  0.00000000000E+00  0.45593999997E+02  0.45594000000E+02  0.51100000000E-03 0.  1.
         11   -1    0    0    0    0 -0.00000000000E+00 -0.00000000000E+00 -0.45593999997E+02  0.45594000000E+02  0.51100000000E-03 0. -1.
    9900012    2    1    2    0    0  0.20918115986E+02 -0.12488301697E+01 -0.38006528726E+02  0.47787269834E+02  0.19999994481E+02 0.  0.
        -12    1    1    2    0    0 -0.20918115986E+02  0.12488301697E+01  0.38006528726E+02  0.43400730166E+02  0.00000000000E+00 0.  1.
         11    1    3    3    0    0  0.96217013523E+01 -0.62918765203E+01 -0.10173829052E+02  0.15351600728E+02  0.51100000000E-03 0. -1.
        -11    1    3    3    0    0  0.10614902970E+02  0.78556644528E+01 -0.18980662356E+02  0.23122568473E+02  0.51100000000E-03 0.  1.
        -12    1    3    3    0    0  0.68151166380E+00 -0.28126181021E+01 -0.88520373177E+01  0.93131006335E+01  0.00000000000E+00 0.  1.
</event>
<event>
 7    1  0.2983653E-010  0.4778727E+02  0.7816164E-02  0.1312668E+00
        -11   -1    0    0    0    0  0.00000000000E+00  0.00000000000E+00  0.45593999997E+02  0.45594000000E+02  0.51100000000E-03 0.  1.
         11   -1    0    0    0    0 -0.00000000000E+00 -0.00000000000E+00 -0.45593999997E+02  0.45594000000E+02  0.51100000000E-03 0. -1.
    9900012    2    1    2    0    0 -0.24686933443E+02 -0.82878440782E+01 -0.34720173605E+02  0.47787268469E+02  0.19999988256E+02 0.  0.
        -12    1    1    2    0    0  0.24686933443E+02  0.82878440782E+01  0.34720173605E+02  0.43400731531E+02  0.00000000000E+00 0.  1.
         11    1    3    3    0    0 -0.74919403579E+01 -0.11703834003E+02 -0.15947105115E+02  0.21152282678E+02  0.51100000000E-03 0. -1.
        -11    1    3    3    0    0 -0.34409602602E+01  0.38084608374E+01 -0.49302713952E+01  0.71170329319E+01  0.51100000000E-03 0.  1.
        -12    1    3    3    0    0 -0.13754032825E+02 -0.39247091259E+00 -0.13842797095E+02  0.19517952858E+02  0.00000000000E+00 0.  1.
</event>
<event>
 7    1  0.2983653E-010  0.4778727E+02  0.7816164E-02  0.1312668E+00
        -11   -1    0    0    0    0  0.00000000000E+00  0.00000000000E+00  0.45593999997E+02  0.45594000000E+02  0.51100000000E-03 0. -1.
         11   -1    0    0    0    0 -0.00000000000E+00 -0.00000000000E+00 -0.45593999997E+02  0.45594000000E+02  0.51100000000E-03 0.  1.
    9900012    2    1    2    0    0  0.19433811290E+01 -0.25601169251E+02  0.34991814755E+02  0.47787266169E+02  0.19999977773E+02 0.  0.
        -12    1    1    2    0    0 -0.19433811290E+01  0.25601169251E+02 -0.34991814755E+02  0.43400733831E+02  0.00000000000E+00 0.  1.
         11    1    3    3    0    0 -0.33714056281E+01 -0.26113122068E+01  0.13408940757E+02  0.14070714972E+02  0.51100000000E-03 0. -1.
        -11    1    3    3    0    0  0.54319714270E+00 -0.75990917104E+01  0.11661735939E+01  0.77072186340E+01  0.51100000000E-03 0.  1.
         12    1    3    3    0    0  0.47715896145E+01 -0.15390765333E+02  0.20416700404E+02  0.26009332563E+02  0.00000000000E+00 0. -1.
</event>
<event>
 7    1  0.2983653E-010  0.4778727E+02  0.7816164E-02  0.1312668E+00
        -11   -1    0    0    0    0  0.00000000000E+00  0.00000000000E+00  0.45593999997E+02  0.45594000000E+02  0.51100000000E-03 0.  1.
         11   -1    0    0    0    0 -0.00000000000E+00 -0.00000000000E+00 -0.45593999997E+02  0.45594000000E+02  0.51100000000E-03 0. -1.
    9900012    2    1    2    0    0  0.20348397647E+02  0.38207345759E+02 -0.31248875738E+01  0.47787268680E+02  0.19999989222E+02 0.  0.
        -12    1    1    2    0    0 -0.20348397647E+02 -0.38207345759E+02  0.31248875738E+01  0.43400731320E+02  0.00000000000E+00 0.  1.
         11    1    3    3    0    0 -0.11450998024E+01 -0.10212466354E+01  0.14523270666E+01  0.21126884335E+01  0.51100000000E-03 0. -1.
        -11    1    3    3    0    0  0.95873547766E+01  0.25654540137E+02 -0.29350173932E+01  0.27544275787E+02  0.51100000000E-03 0.  1.
         12    1    3    3    0    0  0.11906142673E+02  0.13574052257E+02 -0.16421972472E+01  0.18130304460E+02  0.00000000000E+00 0. -1.
</event>
<event>
 7    1  0.2983653E-010  0.4778727E+02  0.7816164E-02  0.1312668E+00
        -11   -1    0    0    0    0  0.00000000000E+00  0.00000000000E+00  0.45593999997E+02  0.45594000000E+02  0.51100000000E-03 0. -1.
         11   -1    0    0    0    0 -0.00000000000E+00 -0.00000000000E+00 -0.45593999997E+02  0.45594000000E+02  0.51100000000E-03 0.  1.
    9900012    2    1    2    0    0  0.21191531465E+02 -0.20938590378E+02  0.31561331056E+02  0.47787272000E+02  0.20000004358E+02 0.  0.
        -12    1    1    2    0    0 -0.21191531465E+02  0.20938590378E+02 -0.31561331056E+02  0.43400728000E+02  0.00000000000E+00 0.  1.
         11    1    3    3    0    0  0.11430037595E+02 -0.10663948950E+02  0.12676145852E+02  0.20125859995E+02  0.51100000000E-03 0. -1.
        -11    1    3    3    0    0 -0.20650952202E+01  0.81295644695E+00  0.75782650663E+01  0.78965573593E+01  0.51100000000E-03 0.  1.
        -12    1    3    3    0    0  0.11826589091E+02 -0.11087597875E+02  0.11306920138E+02  0.19764854646E+02  0.00000000000E+00 0.  1.
</event>
<event>
 7    1  0.6504340E-010  0.4778727E+02  0.7816164E-02  0.1312668E+00
        -11   -1    0    0    0    0  0.00000000000E+00  0.00000000000E+00  0.45593999997E+02  0.45594000000E+02  0.51100000000E-03 0. -1.
         11   -1    0    0    0    0 -0.00000000000E+00 -0.00000000000E+00 -0.45593999997E+02  0.45594000000E+02  0.51100000000E-03 0.  1.
    9900012    2    1    2    0    0  0.10447741950E+02  0.27894694719E+02  0.31565074814E+02  0.47787271281E+02  0.20000001079E+02 0.  0.
        -12    1    1    2    0    0 -0.10447741950E+02 -0.27894694719E+02 -0.31565074814E+02  0.43400728719E+02  0.00000000000E+00 0.  1.
         11    1    3    3    0    0  0.49238973377E+01  0.48851076237E+01  0.16229726936E+02  0.17649733090E+02  0.51100000000E-03 0. -1.
        -11    1    3    3    0    0  0.26050604030E+01  0.21132461001E+02  0.15961981456E+02  0.26611127370E+02  0.51100000000E-03 0.  1.
        -12    1    3    3    0    0  0.29187842091E+01  0.18771260947E+01 -0.62663357800E+00  0.35264108206E+01  0.00000000000E+00 0.  1.
</event>
<event>
 7    1  0.2983653E-010  0.4778728E+02  0.7816164E-02  0.1312668E+00
        -11   -1    0    0    0    0  0.00000000000E+00  0.00000000000E+00  0.45593999997E+02  0.45594000000E+02  0.51100000000E-03 0. -1.
         11   -1    0    0    0    0 -0.00000000000E+00 -0.00000000000E+00 -0.45593999997E+02  0.45594000000E+02  0.51100000000E-03 0.  1.
    9900012    2    1    2    0    0 -0.57340925391E+01 -0.58637910961E+01  0.42618761519E+02  0.47787277694E+02  0.20000030318E+02 0.  0.
        -12    1    1    2    0    0  0.57340925391E+01  0.58637910961E+01 -0.42618761519E+02  0.43400722306E+02  0.00000000000E+00 0.  1.
         11    1    3    3    0    0 -0.23005035587E+01  0.24381955649E+01  0.52046797622E+01  0.61907839507E+01  0.51100000000E-03 0. -1.
        -11    1    3    3    0    0 -0.58640011405E+00 -0.12816798304E+02  0.27060238453E+02  0.29947799406E+02  0.51100000000E-03 0.  1.
        -12    1    3    3    0    0 -0.28471888664E+01  0.45148116428E+01  0.10353843303E+02  0.11648694337E+02  0.00000000000E+00 0.  1.
</event>
<event>
 7    1  0.2983653E-010  0.4778727E+02  0.7816164E-02  0.1312668E+00
        -11   -1    0    0    0    0  0.00000000000E+00  0.00000000000E+00  0.45593999997E+02  0.45594000000E+02  0.51100000000E-03 0.  1.
         11   -1    0    0    0    0 -0.00000000000E+00 -0.00000000000E+00 -0.45593999997E+02  0.45594000000E+02  0.51100000000E-03 0. -1.
    9900012    2    1    2    0    0 -0.74935470010E+01  0.60329454061E+01 -0.42321079216E+02  0.47787269327E+02  0.19999992169E+02 0.  0.
        -12    1    1    2    0    0  0.74935470010E+01 -0.60329454061E+01  0.42321079216E+02  0.43400730673E+02  0.00000000000E+00 0.  1.
         11    1    3    3    0    0  0.37012472033E+01 -0.44196636203E+01 -0.75097603723E+01  0.94672677414E+01  0.51100000000E-03 0.  1.
        -11    1    3    3    0    0 -0.52497284147E+01  0.76482883189E+01 -0.23045410709E+02  0.24842441862E+02  0.51100000000E-03 0. -1.
         12    1    3    3    0    0 -0.59450657896E+01  0.28043207075E+01 -0.11765908134E+02  0.13477559724E+02  0.00000000000E+00 0. -1.
</event>
<event>
 7    1  0.2983653E-010  0.4778727E+02  0.7816164E-02  0.1312668E+00
        -11   -1    0    0    0    0  0.00000000000E+00  0.00000000000E+00  0.45593999997E+02  0.45594000000E+02  0.51100000000E-03 0.  1.
         11   -1    0    0    0    0 -0.00000000000E+00 -0.00000000000E+00 -0.45593999997E+02  0.45594000000E+02  0.51100000000E-03 0. -1.
    9900012    2    1    2    0    0 -0.15466534282E+02  0.25533012105E+02 -0.31503574489E+02  0.47787267340E+02  0.19999983112E+02 0.  0.
        -12    1    1    2    0    0  0.15466534282E+02 -0.25533012105E+02  0.31503574489E+02  0.43400732660E+02  0.00000000000E+00 0.  1.
         11    1    3    3    0    0 -0.73173253900E+01  0.22682752868E+02 -0.20844587306E+02  0.31663028104E+02  0.51100000000E-03 0. -1.
        -11    1    3    3    0    0 -0.97532351351E+01  0.12670589023E+01 -0.84150788869E+01  0.12943901529E+02  0.51100000000E-03 0.  1.
        -12    1    3    3    0    0  0.16040262433E+01  0.15832003347E+01 -0.22439082961E+01  0.31803377070E+01  0.00000000000E+00 0.  1.
</event>
<event>
 7    1  0.2983653E-010  0.4778728E+02  0.7816164E-02  0.1312668E+00
        -11   -1    0    0    0    0  0.00000000000E+00  0.00000000000E+00  0.45593999997E+02  0.45594000000E+02  0.51100000000E-03 0. -1.
         11   -1    0    0    0    0 -0.00000000000E+00 -0.00000000000E+00 -0.45593999997E+02  0.45594000000E+02  0.51100000000E-03 0.  1.
    9900012    2    1    2    0    0  0.32895640756E+01  0.32816215896E+02  0.28211652364E+02  0.47787278962E+02  0.20000036099E+02 0.  0.
        -12    1    1    2    0    0 -0.32895640756E+01 -0.32816215896E+02 -0.28211652364E+02  0.43400721038E+02  0.00000000000E+00 0.  1.
         11    1    3    3    0    0  0.63755244242E+01  0.16766612967E+02  0.13630033864E+02  0.22528747091E+02  0.51100000000E-03 0. -1.
        -11    1    3    3    0    0 -0.48062733685E+01  0.50344399085E+01  0.72378941183E-01  0.69606815656E+01  0.51100000000E-03 0.  1.
        -12    1    3    3    0    0  0.17203130199E+01  0.11015163020E+02  0.14509239558E+02  0.18297850306E+02  0.00000000000E+00 0.  1.
</event>
<event>
 7    1  0.2983653E-010  0.4778727E+02  0.7816164E-02  0.1312668E+00
        -11   -1    0    0    0    0  0.00000000000E+00  0.00000000000E+00  0.45593999997E+02  0.45594000000E+02  0.51100000000E-03 0.  1.
         11   -1    0    0    0    0 -0.00000000000E+00 -0.00000000000E+00 -0.45593999997E+02  0.45594000000E+02  0.51100000000E-03 0. -1.
    9900012    2    1    2    0    0 -0.25395843284E+02 -0.10477770061E+02 -0.33598969971E+02  0.47787270690E+02  0.19999998383E+02 0.  0.
        -12    1    1    2    0    0  0.25395843284E+02  0.10477770061E+02  0.33598969971E+02  0.43400729310E+02  0.00000000000E+00 0.  1.
         11    1    3    3    0    0  0.59653673294E+00  0.21305824717E+01 -0.60508258006E+01  0.64426493675E+01  0.51100000000E-03 0. -1.
        -11    1    3    3    0    0 -0.19846018781E+01 -0.31518609423E+01 -0.17760010853E+00  0.37288623029E+01  0.51100000000E-03 0.  1.
         12    1    3    3    0    0 -0.24007778139E+02 -0.94564915907E+01 -0.27370544062E+02  0.37615759019E+02  0.00000000000E+00 0. -1.
</event>
<event>
 7    1  0.2983653E-010  0.4778727E+02  0.7816164E-02  0.1312668E+00
        -11   -1    0    0    0    0  0.00000000000E+00  0.00000000000E+00  0.45593999997E+02  0.45594000000E+02  0.51100000000E-03 0.  1.
         11   -1    0    0    0    0 -0.00000000000E+00 -0.00000000000E+00 -0.45593999997E+02  0.45594000000E+02  0.51100000000E-03 0. -1.
    9900012    2    1    2    0    0  0.26492927023E+02 -0.30346761686E+02 -0.16149985641E+02  0.47787272319E+02  0.20000005811E+02 0.  0.
        -12    1    1    2    0    0 -0.26492927023E+02  0.30346761686E+02  0.16149985641E+02  0.43400727681E+02  0.00000000000E+00 0.  1.
         11    1    3    3    0    0  0.16264038259E+02 -0.18029159043E+02 -0.16462030041E+02  0.29335438460E+02  0.51100000000E-03 0. -1.
        -11    1    3    3    0    0  0.16617203556E+01  0.46173553366E+00  0.23682809087E+01  0.29297216535E+01  0.51100000000E-03 0.  1.
        -12    1    3    3    0    0  0.85671684078E+01 -0.12779338176E+02 -0.20562365088E+01  0.15522112206E+02  0.00000000000E+00 0.  1.
</event>
<event>
 7    1  0.2983653E-010  0.4778728E+02  0.7816164E-02  0.1312668E+00
        -11   -1    0    0    0    0  0.00000000000E+00  0.00000000000E+00  0.45593999997E+02  0.45594000000E+02  0.51100000000E-03 0. -1.
         11   -1    0    0    0    0 -0.00000000000E+00 -0.00000000000E+00 -0.45593999997E+02  0.45594000000E+02  0.51100000000E-03 0.  1.
    9900012    2    1    2    0    0  0.20276898629E+02 -0.12070637721E+02  0.36424854035E+02  0.47787275301E+02  0.20000019405E+02 0.  0.
        -12    1    1    2    0    0 -0.20276898629E+02  0.12070637721E+02 -0.36424854035E+02  0.43400724699E+02  0.00000000000E+00 0.  1.
         11    1    3    3    0    0  0.22877093579E+02 -0.68335640423E+01  0.31147885854E+02  0.39246016378E+02  0.51100000000E-03 0. -1.
        -11    1    3    3    0    0 -0.24916647015E+01 -0.31421932016E+01  0.16193775168E+01  0.43248300433E+01  0.51100000000E-03 0.  1.
         12    1    3    3    0    0 -0.10853024833E+00 -0.20948804770E+01  0.36575906637E+01  0.42164288789E+01  0.00000000000E+00 0. -1.
</event>
<event>
 7    1  0.2983653E-010  0.4778727E+02  0.7816164E-02  0.1312668E+00
        -11   -1    0    0    0    0  0.00000000000E+00  0.00000000000E+00  0.45593999997E+02  0.45594000000E+02  0.51100000000E-03 0.  1.
         11   -1    0    0    0    0 -0.00000000000E+00 -0.00000000000E+00 -0.45593999997E+02  0.45594000000E+02  0.51100000000E-03 0. -1.
    9900012    2    1    2    0    0  0.62875876265E+01 -0.19355226244E+02 -0.38333600972E+02  0.47787268387E+02  0.19999987882E+02 0.  0.
        -12    1    1    2    0    0 -0.62875876265E+01  0.19355226244E+02  0.38333600972E+02  0.43400731613E+02  0.00000000000E+00 0.  1.
         11    1    3    3    0    0  0.78115695496E+01 -0.91402469089E+01 -0.33506707376E+02  0.35598654073E+02  0.51100000000E-03 0.  1.
        -11    1    3    3    0    0 -0.13613750150E+01 -0.10434855560E+02 -0.51904178011E+01  0.11733711676E+02  0.51100000000E-03 0. -1.
        -12    1    3    3    0    0 -0.16260690822E+00  0.21987622467E+00  0.36352420579E+00  0.45490263681E+00  0.00000000000E+00 0.  1.
</event>
<event>
 7    1  0.2983653E-010  0.4778727E+02  0.7816164E-02  0.1312668E+00
        -11   -1    0    0    0    0  0.00000000000E+00  0.00000000000E+00  0.45593999997E+02  0.45594000000E+02  0.51100000000E-03 0. -1.
         11   -1    0    0    0    0 -0.00000000000E+00 -0.00000000000E+00 -0.45593999997E+02  0.45594000000E+02  0.51100000000E-03 0.  1.
    9900012    2    1    2    0    0 -0.31807224830E+02 -0.29523735066E+02  0.52274703770E+00  0.47787265581E+02  0.19999975090E+02 0.  0.
        -12    1    1    2    0    0  0.31807224830E+02  0.29523735066E+02 -0.52274703770E+00  0.43400734419E+02  0.00000000000E+00 0.  1.
         11    1    3    3    0    0 -0.42640299191E+01 -0.75960859990E+01  0.10184467620E+01  0.87703881170E+01  0.51100000000E-03 0.  1.
        -11    1    3    3    0    0 -0.25734647049E+02 -0.20705547997E+02  0.47173282234E+01  0.33365325750E+02  0.51100000000E-03 0. -1.
        -12    1    3    3    0    0 -0.18085478625E+01 -0.12221010702E+01 -0.52130279477E+01  0.56515517143E+01  0.00000000000E+00 0.  1.
</event>
<event>
 7    1  0.2983653E-010  0.4778726E+02  0.7816164E-02  0.1312668E+00
        -11   -1    0    0    0    0  0.00000000000E+00  0.00000000000E+00  0.45593999997E+02  0.45594000000E+02  0.51100000000E-03 0.  1.
         11   -1    0    0    0    0 -0.00000000000E+00 -0.00000000000E+00 -0.45593999997E+02  0.45594000000E+02  0.51100000000E-03 0. -1.
    9900012    2    1    2    0    0 -0.26962263582E+02 -0.32619646200E+02 -0.96238705467E+01  0.47787264292E+02  0.19999969214E+02 0.  0.
        -12    1    1    2    0    0  0.26962263582E+02  0.32619646200E+02  0.96238705467E+01  0.43400735708E+02  0.00000000000E+00 0.  1.
         11    1    3    3    0    0 -0.85089782690E+01 -0.39700293822E+01 -0.92856147605E+01  0.13205547555E+02  0.51100000000E-03 0. -1.
        -11    1    3    3    0    0 -0.10480807692E+02 -0.13662636073E+02  0.24022194290E+01  0.17386362840E+02  0.51100000000E-03 0.  1.
         12    1    3    3    0    0 -0.79724776202E+01 -0.14986980746E+02 -0.27404752152E+01  0.17195353898E+02  0.00000000000E+00 0. -1.
</event>
<event>
 7    1  0.3791460E-010  0.4778727E+02  0.7816164E-02  0.1312668E+00
        -11   -1    0    0    0    0  0.00000000000E+00  0.00000000000E+00  0.45593999997E+02  0.45594000000E+02  0.51100000000E-03 0.  1.
         11   -1    0    0    0    0 -0.00000000000E+00 -0.00000000000E+00 -0.45593999997E+02  0.45594000000E+02  0.51100000000E-03 0. -1.
    9900012    2    1    2    0    0  0.57199199828E+01 -0.41210065311E+02  0.12354614843E+02  0.47787268722E+02  0.19999989411E+02 0.  0.
        -12    1    1    2    0    0 -0.57199199828E+01  0.41210065311E+02 -0.12354614843E+02  0.43400731278E+02  0.00000000000E+00 0.  1.
         11    1    3    3    0    0  0.15538444742E+01 -0.28910650964E+02  0.68457987600E+01  0.29750716508E+02  0.51100000000E-03 0. -1.
        -11    1    3    3    0    0  0.10127539682E+01 -0.16994333626E+01 -0.33340277562E+01  0.38767880641E+01  0.51100000000E-03 0.  1.
        -12    1    3    3    0    0  0.31533215405E+01 -0.10599980984E+02  0.88428438396E+01  0.14159764150E+02  0.00000000000E+00 0.  1.
</event>
<event>
 7    1  0.2983653E-010  0.4778727E+02  0.7816164E-02  0.1312668E+00
        -11   -1    0    0    0    0  0.00000000000E+00  0.00000000000E+00  0.45593999997E+02  0.45594000000E+02  0.51100000000E-03 0. -1.
         11   -1    0    0    0    0 -0.00000000000E+00 -0.00000000000E+00 -0.45593999997E+02  0.45594000000E+02  0.51100000000E-03 0.  1.
    9900012    2    1    2    0    0  0.20852913838E+02  0.34015847724E+02  0.17079266300E+02  0.47787271328E+02  0.20000001291E+02 0.  0.
        -12    1    1    2    0    0 -0.20852913838E+02 -0.34015847724E+02 -0.17079266300E+02  0.43400728672E+02  0.00000000000E+00 0.  1.
         11    1    3    3    0    0  0.21550475568E+01  0.17528264427E+02  0.33336774463E+01  0.17972136472E+02  0.51100000000E-03 0. -1.
        -11    1    3    3    0    0  0.22808409517E+01  0.45809934207E+01 -0.33145538701E+00  0.51281184758E+01  0.51100000000E-03 0.  1.
         12    1    3    3    0    0  0.16417025330E+02  0.11906589877E+02  0.14077044241E+02  0.24687016380E+02  0.00000000000E+00 0. -1.
</event>
<event>
 7    1  0.2983653E-010  0.4778727E+02  0.7816164E-02  0.1312668E+00
        -11   -1    0    0    0    0  0.00000000000E+00  0.00000000000E+00  0.45593999997E+02  0.45594000000E+02  0.51100000000E-03 0. -1.
         11   -1    0    0    0    0 -0.00000000000E+00 -0.00000000000E+00 -0.45593999997E+02  0.45594000000E+02  0.51100000000E-03 0.  1.
    9900012    2    1    2    0    0  0.43101721655E+02  0.50843701111E+01 -0.11944474222E+00  0.47787268485E+02  0.19999988329E+02 0.  0.
        -12    1    1    2    0    0 -0.43101721655E+02 -0.50843701111E+01  0.11944474222E+00  0.43400731515E+02  0.00000000000E+00 0.  1.
         11    1    3    3    0    0  0.26691329143E+02 -0.60321938860E-01 -0.15183191598E+01  0.26734546629E+02  0.51100000000E-03 0. -1.
        -11    1    3    3    0    0 -0.16439864720E+01  0.16140283847E+01 -0.97914172743E+00  0.25032974115E+01  0.51100000000E-03 0.  1.
        -12    1    3    3    0    0  0.18054378984E+02  0.35306636652E+01  0.23780161450E+01  0.18549424444E+02  0.00000000000E+00 0.  1.
</event>
<event>
 7    1  0.2983653E-010  0.4778727E+02  0.7816164E-02  0.1312668E+00
        -11   -1    0    0    0    0  0.00000000000E+00  0.00000000000E+00  0.45593999997E+02  0.45594000000E+02  0.51100000000E-03 0. -1.
         11   -1    0    0    0    0 -0.00000000000E+00 -0.00000000000E+00 -0.45593999997E+02  0.45594000000E+02  0.51100000000E-03 0.  1.
    9900012    2    1    2    0    0 -0.39406144860E+02 -0.17360079747E+01  0.18104293121E+02  0.47787269524E+02  0.19999993069E+02 0.  0.
        -12    1    1    2    0    0  0.39406144860E+02  0.17360079747E+01 -0.18104293121E+02  0.43400730476E+02  0.00000000000E+00 0.  1.
         11    1    3    3    0    0 -0.23839869080E+02  0.40879299715E+01  0.16767888088E+02  0.29431489945E+02  0.51100000000E-03 0. -1.
        -11    1    3    3    0    0 -0.10401021798E+02 -0.35425163042E+00 -0.10582956785E+01  0.10460723620E+02  0.51100000000E-03 0.  1.
         12    1    3    3    0    0 -0.51652539822E+01 -0.54696863158E+01  0.23947007124E+01  0.78950559590E+01  0.00000000000E+00 0. -1.
</event>
<event>
 7    1  0.2983653E-010  0.4778734E+02  0.7816164E-02  0.1312667E+00
        -11   -1    0    0    0    0  0.00000000000E+00  0.00000000000E+00  0.45593999997E+02  0.45594000000E+02  0.51100000000E-03 0.  1.
         11   -1    0    0    0    0 -0.00000000000E+00 -0.00000000000E+00 -0.45593999997E+02  0.45594000000E+02  0.51100000000E-03 0. -1.
    9900012    2    1    2    0    0 -0.37882881056E+02  0.19474008208E+02 -0.83227336899E+01  0.47787336769E+02  0.20000299662E+02 0.  0.
        -12    1    1    2    0    0  0.37882881056E+02 -0.19474008208E+02  0.83227336899E+01  0.43400663231E+02  0.00000000000E+00 0.  1.
         11    1    3    3    0    0 -0.25053398677E+02  0.17594975558E+02 -0.31804528881E+00  0.30616288201E+02  0.51100000000E-03 0. -1.
        -11    1    3    3    0    0 -0.12577236040E+02  0.21620997046E+00 -0.46366192577E+01  0.13406410838E+02  0.51100000000E-03 0.  1.
         12    1    3    3    0    0 -0.25224633934E+00  0.16628226795E+01 -0.33680691435E+01  0.37646377295E+01  0.00000000000E+00 0. -1.
</event>
<event>
 7    1  0.2983653E-010  0.4778727E+02  0.7816164E-02  0.1312668E+00
        -11   -1    0    0    0    0  0.00000000000E+00  0.00000000000E+00  0.45593999997E+02  0.45594000000E+02  0.51100000000E-03 0.  1.
         11   -1    0    0    0    0 -0.00000000000E+00 -0.00000000000E+00 -0.45593999997E+02  0.45594000000E+02  0.51100000000E-03 0. -1.
    9900012    2    1    2    0    0 -0.32446110341E+02  0.11000454682E+02 -0.26643256710E+02  0.47787271808E+02  0.20000003481E+02 0.  0.
        -12    1    1    2    0    0  0.32446110341E+02 -0.11000454682E+02  0.26643256710E+02  0.43400728192E+02  0.00000000000E+00 0.  1.
         11    1    3    3    0    0 -0.20555582410E+02  0.37126887258E+01 -0.96436921166E+01  0.23006886441E+02  0.51100000000E-03 0. -1.
        -11    1    3    3    0    0 -0.14998726542E+01  0.60439796558E+01 -0.20977573850E+01  0.65711410247E+01  0.51100000000E-03 0.  1.
         12    1    3    3    0    0 -0.10390655277E+02  0.12437863003E+01 -0.14901807209E+02  0.18209244342E+02  0.00000000000E+00 0. -1.
</event>
<event>
 7    1  0.2983653E-010  0.4778727E+02  0.7816164E-02  0.1312668E+00
        -11   -1    0    0    0    0  0.00000000000E+00  0.00000000000E+00  0.45593999997E+02  0.45594000000E+02  0.51100000000E-03 0.  1.
         11   -1    0    0    0    0 -0.00000000000E+00 -0.00000000000E+00 -0.45593999997E+02  0.45594000000E+02  0.51100000000E-03 0. -1.
    9900012    2    1    2    0    0 -0.38085557382E+02  0.12389673220E+02 -0.16721534645E+02  0.47787269540E+02  0.19999993141E+02 0.  0.
        -12    1    1    2    0    0  0.38085557382E+02 -0.12389673220E+02  0.16721534645E+02  0.43400730460E+02  0.00000000000E+00 0.  1.
         11    1    3    3    0    0 -0.23703182218E+02  0.99027269039E+01 -0.18606467065E+02  0.31719165568E+02  0.51100000000E-03 0. -1.
        -11    1    3    3    0    0 -0.13748108130E+02  0.33422139585E+01  0.30670426515E+01  0.14477141368E+02  0.51100000000E-03 0.  1.
        -12    1    3    3    0    0 -0.63426703297E+00 -0.85526764236E+00 -0.11821102313E+01  0.15909626043E+01  0.00000000000E+00 0.  1.
</event>
<event>
 7    1  0.2983653E-010  0.4778727E+02  0.7816164E-02  0.1312668E+00
        -11   -1    0    0    0    0  0.00000000000E+00  0.00000000000E+00  0.45593999997E+02  0.45594000000E+02  0.51100000000E-03 0.  1.
         11   -1    0    0    0    0 -0.00000000000E+00 -0.00000000000E+00 -0.45593999997E+02  0.45594000000E+02  0.51100000000E-03 0. -1.
    9900012    2    1    2    0    0  0.24333633944E+01 -0.19642279271E+00 -0.43332014557E+02  0.47787270456E+02  0.19999997318E+02 0.  0.
        -12    1    1    2    0    0 -0.24333633944E+01  0.19642279271E+00  0.43332014557E+02  0.43400729544E+02  0.00000000000E+00 0.  1.
         11    1    3    3    0    0  0.73962996022E+01 -0.23505790243E+01 -0.29017332025E+02  0.30037244009E+02  0.51100000000E-03 0. -1.
        -11    1    3    3    0    0 -0.67221312230E+01  0.35977515670E+01 -0.80627049168E+01  0.11096759678E+02  0.51100000000E-03 0.  1.
        -12    1    3    3    0    0  0.17591950151E+01 -0.14435953354E+01 -0.62519776160E+01  0.66532667694E+01  0.00000000000E+00 0.  1.
</event>
<event>
 7    1  0.2983653E-010  0.4778727E+02  0.7816164E-02  0.1312668E+00
        -11   -1    0    0    0    0  0.00000000000E+00  0.00000000000E+00  0.45593999997E+02  0.45594000000E+02  0.51100000000E-03 0.  1.
         11   -1    0    0    0    0 -0.00000000000E+00 -0.00000000000E+00 -0.45593999997E+02  0.45594000000E+02  0.51100000000E-03 0. -1.
    9900012    2    1    2    0    0 -0.37311126079E+02  0.17290115441E+01 -0.22102350925E+02  0.47787268132E+02  0.19999986722E+02 0.  0.
        -12    1    1    2    0    0  0.37311126079E+02 -0.17290115441E+01  0.22102350925E+02  0.43400731868E+02  0.00000000000E+00 0.  1.
         11    1    3    3    0    0 -0.21210938193E+02  0.87899385476E+00 -0.19229031871E+02  0.28643187605E+02  0.51100000000E-03 0. -1.
        -11    1    3    3    0    0 -0.16635290423E+02  0.15947403803E+01 -0.63322276128E+00  0.16723547939E+02  0.51100000000E-03 0.  1.
         12    1    3    3    0    0  0.53510253605E+00 -0.74472269100E+00 -0.22400962927E+01  0.24205325883E+01  0.00000000000E+00 0. -1.
</event>
<event>
 7    1  0.2983653E-010  0.4778727E+02  0.7816164E-02  0.1312668E+00
        -11   -1    0    0    0    0  0.00000000000E+00  0.00000000000E+00  0.45593999997E+02  0.45594000000E+02  0.51100000000E-03 0. -1.
         11   -1    0    0    0    0 -0.00000000000E+00 -0.00000000000E+00 -0.45593999997E+02  0.45594000000E+02  0.51100000000E-03 0.  1.
    9900012    2    1    2    0    0 -0.21263729538E+02 -0.37626500033E+02  0.39652838583E+01  0.47787272187E+02  0.20000005211E+02 0.  0.
        -12    1    1    2    0    0  0.21263729538E+02  0.37626500033E+02 -0.39652838583E+01  0.43400727813E+02  0.00000000000E+00 0.  1.
         11    1    3    3    0    0 -0.12116195421E+02 -0.24170684986E+02  0.81559936616E+01  0.28240829256E+02  0.51100000000E-03 0. -1.
        -11    1    3    3    0    0 -0.46396406030E+01 -0.13642839864E+02 -0.42846903914E+01  0.15033692710E+02  0.51100000000E-03 0.  1.
         12    1    3    3    0    0 -0.45078935139E+01  0.18702481713E+00  0.93980588201E-01  0.45127502219E+01  0.00000000000E+00 0. -1.
</event>
<event>
 7    1  0.2983653E-010  0.4778727E+02  0.7816164E-02  0.1312668E+00
        -11   -1    0    0    0    0  0.00000000000E+00  0.00000000000E+00  0.45593999997E+02  0.45594000000E+02  0.51100000000E-03 0.  1.
         11   -1    0    0    0    0 -0.00000000000E+00 -0.00000000000E+00 -0.45593999997E+02  0.45594000000E+02  0.51100000000E-03 0. -1.
    9900012    2    1    2    0    0  0.83492329621E+01  0.15725863588E+02 -0.39580434249E+02  0.47787271296E+02  0.20000001149E+02 0.  0.
        -12    1    1    2    0    0 -0.83492329621E+01 -0.15725863588E+02  0.39580434249E+02  0.43400728704E+02  0.00000000000E+00 0.  1.
         11    1    3    3    0    0  0.48420517094E+01 -0.11656268874E+01 -0.14689571849E+02  0.15510888826E+02  0.51100000000E-03 0. -1.
        -11    1    3    3    0    0  0.35785659110E+01  0.82248315688E+00 -0.16606082031E+01  0.40299171688E+01  0.51100000000E-03 0.  1.
         12    1    3    3    0    0 -0.71384658260E-01  0.16069007319E+02 -0.23230254197E+02  0.28246465301E+02  0.00000000000E+00 0. -1.
</event>
<event>
 7    1  0.2983653E-010  0.4778727E+02  0.7816164E-02  0.1312668E+00
        -11   -1    0    0    0    0  0.00000000000E+00  0.00000000000E+00  0.45593999997E+02  0.45594000000E+02  0.51100000000E-03 0.  1.
         11   -1    0    0    0    0 -0.00000000000E+00 -0.00000000000E+00 -0.45593999997E+02  0.45594000000E+02  0.51100000000E-03 0. -1.
    9900012    2    1    2    0    0 -0.94854383906E+01  0.20226805552E+02 -0.37209220089E+02  0.47787271159E+02  0.20000000524E+02 0.  0.
        -12    1    1    2    0    0  0.94854383906E+01 -0.20226805552E+02  0.37209220089E+02  0.43400728841E+02  0.00000000000E+00 0.  1.
         11    1    3    3    0    0 -0.13625690253E+01 -0.23981784570E+01 -0.36918978896E+01  0.46084666158E+01  0.51100000000E-03 0.  1.
        -11    1    3    3    0    0 -0.10724521681E+02  0.17826428196E+02 -0.21181452767E+02  0.29689237934E+02  0.51100000000E-03 0. -1.
        -12    1    3    3    0    0  0.26016523161E+01  0.47985558128E+01 -0.12335869432E+02  0.13489566610E+02  0.00000000000E+00 0.  1.
</event>
<event>
 7    1  0.2983653E-010  0.4778727E+02  0.7816164E-02  0.1312668E+00
        -11   -1    0    0    0    0  0.00000000000E+00  0.00000000000E+00  0.45593999997E+02  0.45594000000E+02  0.51100000000E-03 0.  1.
         11   -1    0    0    0    0 -0.00000000000E+00 -0.00000000000E+00 -0.45593999997E+02  0.45594000000E+02  0.51100000000E-03 0. -1.
    9900012    2    1    2    0    0  0.87824627600E+01  0.28582584779E+02 -0.31456754087E+02  0.47787272097E+02  0.20000004800E+02 0.  0.
        -12    1    1    2    0    0 -0.87824627600E+01 -0.28582584779E+02  0.31456754087E+02  0.43400727903E+02  0.00000000000E+00 0.  1.
         11    1    3    3    0    0  0.70986538141E+00 -0.10255053538E+01 -0.10307554251E+02  0.10382737837E+02  0.51100000000E-03 0. -1.
        -11    1    3    3    0    0  0.21976090840E+01  0.12873703868E+02 -0.78635493303E+01  0.15244577570E+02  0.51100000000E-03 0.  1.
         12    1    3    3    0    0  0.58749882946E+01  0.16734386265E+02 -0.13285650506E+02  0.22159956690E+02  0.00000000000E+00 0. -1.
</event>
<event>
 7    1  0.2983653E-010  0.4778728E+02  0.7816164E-02  0.1312668E+00
        -11   -1    0    0    0    0  0.00000000000E+00  0.00000000000E+00  0.45593999997E+02  0.45594000000E+02  0.51100000000E-03 0.  1.
         11   -1    0    0    0    0 -0.00000000000E+00 -0.00000000000E+00 -0.45593999997E+02  0.45594000000E+02  0.51100000000E-03 0. -1.
    9900012    2    1    2    0    0 -0.13302213874E+02 -0.41306663228E+02  0.65830114857E+00  0.47787277871E+02  0.20000031123E+02 0.  0.
        -12    1    1    2    0    0  0.13302213874E+02  0.41306663228E+02 -0.65830114857E+00  0.43400722129E+02  0.00000000000E+00 0.  1.
         11    1    3    3    0    0 -0.51688236829E+01 -0.68737184192E+01 -0.69418617036E+01  0.11052338546E+02  0.51100000000E-03 0. -1.
        -11    1    3    3    0    0 -0.22871456178E+01 -0.10085315041E+02  0.52149885841E+01  0.11581913519E+02  0.51100000000E-03 0.  1.
         12    1    3    3    0    0 -0.58462445736E+01 -0.24347629767E+02  0.23851742680E+01  0.25153025806E+02  0.00000000000E+00 0. -1.
</event>
<event>
 7    1  0.2983653E-010  0.4778727E+02  0.7816164E-02  0.1312668E+00
        -11   -1    0    0    0    0  0.00000000000E+00  0.00000000000E+00  0.45593999997E+02  0.45594000000E+02  0.51100000000E-03 0.  1.
         11   -1    0    0    0    0 -0.00000000000E+00 -0.00000000000E+00 -0.45593999997E+02  0.45594000000E+02  0.51100000000E-03 0. -1.
    9900012    2    1    2    0    0 -0.13918185607E+02  0.39203813369E+02 -0.12368037213E+02  0.47787271691E+02  0.20000002947E+02 0.  0.
        -12    1    1    2    0    0  0.13918185607E+02 -0.39203813369E+02  0.12368037213E+02  0.43400728309E+02  0.00000000000E+00 0.  1.
         11    1    3    3    0    0 -0.27626446963E+01  0.15051264037E+02 -0.67563598263E+01  0.16727855607E+02  0.51100000000E-03 0. -1.
        -11    1    3    3    0    0 -0.32852821551E+01  0.15254906242E+02  0.36152487083E+01  0.16017966998E+02  0.51100000000E-03 0.  1.
        -12    1    3    3    0    0 -0.78702587553E+01  0.88976430904E+01 -0.92269260946E+01  0.15041449086E+02  0.00000000000E+00 0.  1.
</event>
<event>
 7    1  0.2983653E-010  0.4778727E+02  0.7816164E-02  0.1312668E+00
        -11   -1    0    0    0    0  0.00000000000E+00  0.00000000000E+00  0.45593999997E+02  0.45594000000E+02  0.51100000000E-03 0. -1.
         11   -1    0    0    0    0 -0.00000000000E+00 -0.00000000000E+00 -0.45593999997E+02  0.45594000000E+02  0.51100000000E-03 0.  1.
    9900012    2    1    2    0    0  0.64809088592E-01  0.43286742127E+02  0.31427639553E+01  0.47787271786E+02  0.20000003383E+02 0.  0.
        -12    1    1    2    0    0 -0.64809088592E-01 -0.43286742127E+02 -0.31427639553E+01  0.43400728214E+02  0.00000000000E+00 0.  1.
         11    1    3    3    0    0 -0.32257992805E+01  0.82005305307E+01  0.48145314858E+01  0.10041623159E+02  0.51100000000E-03 0. -1.
        -11    1    3    3    0    0  0.74000379216E+01  0.24497910665E+02  0.23452450660E+01  0.25698411680E+02  0.51100000000E-03 0.  1.
        -12    1    3    3    0    0 -0.41094295525E+01  0.10588300931E+02 -0.40170125965E+01  0.12047236947E+02  0.00000000000E+00 0.  1.
</event>
<event>
 7    1  0.2983653E-010  0.4778728E+02  0.7816164E-02  0.1312668E+00
        -11   -1    0    0    0    0  0.00000000000E+00  0.00000000000E+00  0.45593999997E+02  0.45594000000E+02  0.51100000000E-03 0.  1.
         11   -1    0    0    0    0 -0.00000000000E+00 -0.00000000000E+00 -0.45593999997E+02  0.45594000000E+02  0.51100000000E-03 0. -1.
    9900012    2    1    2    0    0 -0.48020056878E+01  0.87851226965E+01 -0.42230144982E+02  0.47787276681E+02  0.20000025698E+02 0.  0.
        -12    1    1    2    0    0  0.48020056878E+01 -0.87851226965E+01  0.42230144982E+02  0.43400723319E+02  0.00000000000E+00 0.  1.
         11    1    3    3    0    0 -0.62225891119E+01  0.25164188967E+01 -0.47420153689E+01  0.82182534239E+01  0.51100000000E-03 0. -1.
        -11    1    3    3    0    0  0.53547359799E+01  0.15385092422E+01 -0.25416666834E+02  0.26020129925E+02  0.51100000000E-03 0.  1.
        -12    1    3    3    0    0 -0.39341525557E+01  0.47301945576E+01 -0.12071462779E+02  0.13548893331E+02  0.00000000000E+00 0.  1.
</event>
<event>
 7    1  0.2983653E-010  0.4778727E+02  0.7816164E-02  0.1312668E+00
        -11   -1    0    0    0    0  0.00000000000E+00  0.00000000000E+00  0.45593999997E+02  0.45594000000E+02  0.51100000000E-03 0.  1.
         11   -1    0    0    0    0 -0.00000000000E+00 -0.00000000000E+00 -0.45593999997E+02  0.45594000000E+02  0.51100000000E-03 0. -1.
    9900012    2    1    2    0    0 -0.31312941387E+01  0.31379926665E+02 -0.29818094839E+02  0.47787267514E+02  0.19999983904E+02 0.  0.
        -12    1    1    2    0    0  0.31312941387E+01 -0.31379926665E+02  0.29818094839E+02  0.43400732486E+02  0.00000000000E+00 0.  1.
         11    1    3    3    0    0  0.56340524152E-01 -0.12510622582E+01  0.84387775890E+00  0.15101195190E+01  0.51100000000E-03 0. -1.
        -11    1    3    3    0    0 -0.71077365658E+01  0.25811081399E+02 -0.22975682837E+02  0.35279085082E+02  0.51100000000E-03 0.  1.
         12    1    3    3    0    0  0.39201019029E+01  0.68199075235E+01 -0.76862897610E+01  0.10998062913E+02  0.00000000000E+00 0. -1.
</event>
<event>
 7    1  0.2983653E-010  0.4778727E+02  0.7816164E-02  0.1312668E+00
        -11   -1    0    0    0    0  0.00000000000E+00  0.00000000000E+00  0.45593999997E+02  0.45594000000E+02  0.51100000000E-03 0.  1.
         11   -1    0    0    0    0 -0.00000000000E+00 -0.00000000000E+00 -0.45593999997E+02  0.45594000000E+02  0.51100000000E-03 0. -1.
    9900012    2    1    2    0    0 -0.10106232607E+02  0.28855637140E+02  0.30803235256E+02  0.47787273802E+02  0.20000012574E+02 0.  0.
        -12    1    1    2    0    0  0.10106232607E+02 -0.28855637140E+02 -0.30803235256E+02  0.43400726198E+02  0.00000000000E+00 0.  1.
         11    1    3    3    0    0 -0.18286999575E+01 -0.12979068291E+00  0.10607704029E+02  0.10764960483E+02  0.51100000000E-03 0. -1.
        -11    1    3    3    0    0 -0.15724693880E+01  0.32307114995E+01 -0.34153006243E-01  0.35932330092E+01  0.51100000000E-03 0.  1.
         12    1    3    3    0    0 -0.67050632613E+01  0.25754716323E+02  0.20229684233E+02  0.33429080311E+02  0.00000000000E+00 0. -1.
</event>
<event>
 7    1  0.2983653E-010  0.4778727E+02  0.7816164E-02  0.1312668E+00
        -11   -1    0    0    0    0  0.00000000000E+00  0.00000000000E+00  0.45593999997E+02  0.45594000000E+02  0.51100000000E-03 0.  1.
         11   -1    0    0    0    0 -0.00000000000E+00 -0.00000000000E+00 -0.45593999997E+02  0.45594000000E+02  0.51100000000E-03 0. -1.
    9900012    2    1    2    0    0 -0.10387301240E+02 -0.32102671445E+02 -0.27297356121E+02  0.47787271986E+02  0.20000004294E+02 0.  0.
        -12    1    1    2    0    0  0.10387301240E+02  0.32102671445E+02  0.27297356121E+02  0.43400728014E+02  0.00000000000E+00 0.  1.
         11    1    3    3    0    0  0.42956868104E+01 -0.13774004327E+02 -0.64928461918E+01  0.15821920626E+02  0.51100000000E-03 0. -1.
        -11    1    3    3    0    0 -0.13544410871E+02 -0.15331869246E+02 -0.20106804447E+02  0.28684505675E+02  0.51100000000E-03 0.  1.
         12    1    3    3    0    0 -0.11385771788E+01 -0.29967978709E+01 -0.69770548184E+00  0.32808456853E+01  0.00000000000E+00 0. -1.
</event>
<event>
 7    1  0.2983653E-010  0.4778727E+02  0.7816164E-02  0.1312668E+00
        -11   -1    0    0    0    0  0.00000000000E+00  0.00000000000E+00  0.45593999997E+02  0.45594000000E+02  0.51100000000E-03 0. -1.
         11   -1    0    0    0    0 -0.00000000000E+00 -0.00000000000E+00 -0.45593999997E+02  0.45594000000E+02  0.51100000000E-03 0.  1.
    9900012    2    1    2    0    0  0.12841391585E+02  0.97265107216E+00  0.41446061414E+02  0.47787269653E+02  0.19999993654E+02 0.  0.
        -12    1    1    2    0    0 -0.12841391585E+02 -0.97265107216E+00 -0.41446061414E+02  0.43400730347E+02  0.00000000000E+00 0.  1.
         11    1    3    3    0    0  0.76847472376E+01 -0.35688870918E-01  0.33424971916E+01  0.83802685839E+01  0.51100000000E-03 0. -1.
        -11    1    3    3    0    0  0.30550133794E+01 -0.33036774927E+01  0.26018461771E+02  0.26404691722E+02  0.51100000000E-03 0.  1.
        -12    1    3    3    0    0  0.21016309684E+01  0.43120174358E+01  0.12085102451E+02  0.13002309347E+02  0.00000000000E+00 0.  1.
</event>
<event>
 7    1  0.2983653E-010  0.4778729E+02  0.7816164E-02  0.1312668E+00
        -11   -1    0    0    0    0  0.00000000000E+00  0.00000000000E+00  0.45593999997E+02  0.45594000000E+02  0.51100000000E-03 0.  1.
         11   -1    0    0    0    0 -0.00000000000E+00 -0.00000000000E+00 -0.45593999997E+02  0.45594000000E+02  0.51100000000E-03 0. -1.
    9900012    2    1    2    0    0 -0.37366287096E+02 -0.91668551982E+01 -0.20083592679E+02  0.47787293318E+02  0.20000101555E+02 0.  0.
        -12    1    1    2    0    0  0.37366287096E+02  0.91668551982E+01  0.20083592679E+02  0.43400706682E+02  0.00000000000E+00 0.  1.
         11    1    3    3    0    0 -0.13818006379E+02 -0.73037629843E+00 -0.16694947400E+02  0.21683911520E+02  0.51100000000E-03 0. -1.
        -11    1    3    3    0    0 -0.23886543384E+02 -0.85812722793E+01 -0.36633391303E+01  0.25644204854E+02  0.51100000000E-03 0.  1.
         12    1    3    3    0    0  0.33826266665E+00  0.14479337945E+00  0.27469385171E+00  0.45917694470E+00  0.00000000000E+00 0. -1.
</event>
<event>
 7    1  0.2983653E-010  0.4778728E+02  0.7816164E-02  0.1312668E+00
        -11   -1    0    0    0    0  0.00000000000E+00  0.00000000000E+00  0.45593999997E+02  0.45594000000E+02  0.51100000000E-03 0. -1.
         11   -1    0    0    0    0 -0.00000000000E+00 -0.00000000000E+00 -0.45593999997E+02  0.45594000000E+02  0.51100000000E-03 0.  1.
    9900012    2    1    2    0    0  0.35321657120E+02 -0.17724175426E+02  0.17940370381E+02  0.47787277130E+02  0.20000027746E+02 0.  0.
        -12    1    1    2    0    0 -0.35321657120E+02  0.17724175426E+02 -0.17940370381E+02  0.43400722870E+02  0.00000000000E+00 0.  1.
         11    1    3    3    0    0  0.44485428560E+01 -0.35152796539E+01  0.26229650912E+01  0.62471329999E+01  0.51100000000E-03 0. -1.
        -11    1    3    3    0    0  0.89316136008E+01 -0.83917686012E+01  0.14278614440E+02  0.18816862978E+02  0.51100000000E-03 0.  1.
        -12    1    3    3    0    0  0.21941500663E+02 -0.58171271712E+01  0.10387908507E+01  0.22723281152E+02  0.00000000000E+00 0.  1.
</event>
<event>
 7    1  0.2983653E-010  0.4778727E+02  0.7816164E-02  0.1312668E+00
        -11   -1    0    0    0    0  0.00000000000E+00  0.00000000000E+00  0.45593999997E+02  0.45594000000E+02  0.51100000000E-03 0.  1.
         11   -1    0    0    0    0 -0.00000000000E+00 -0.00000000000E+00 -0.45593999997E+02  0.45594000000E+02  0.51100000000E-03 0. -1.
    9900012    2    1    2    0    0  0.30523056866E+02 -0.23479058419E+02 -0.20017501078E+02  0.47787268047E+02  0.19999986332E+02 0.  0.
        -12    1    1    2    0    0 -0.30523056866E+02  0.23479058419E+02  0.20017501078E+02  0.43400731953E+02  0.00000000000E+00 0.  1.
         11    1    3    3    0    0  0.25050494603E+02 -0.21490474722E+02 -0.11122475123E+02  0.34829258344E+02  0.51100000000E-03 0. -1.
        -11    1    3    3    0    0 -0.84315742827E-01  0.23627799355E+01 -0.22973683192E+01  0.32966254903E+01  0.51100000000E-03 0.  1.
        -12    1    3    3    0    0  0.55568780052E+01 -0.43513636319E+01 -0.65976576359E+01  0.96613842126E+01  0.00000000000E+00 0.  1.
</event>
<event>
 7    1  0.2983653E-010  0.4778727E+02  0.7816164E-02  0.1312668E+00
        -11   -1    0    0    0    0  0.00000000000E+00  0.00000000000E+00  0.45593999997E+02  0.45594000000E+02  0.51100000000E-03 0.  1.
         11   -1    0    0    0    0 -0.00000000000E+00 -0.00000000000E+00 -0.45593999997E+02  0.45594000000E+02  0.51100000000E-03 0. -1.
    9900012    2    1    2    0    0 -0.51560777092E+01  0.22941264507E+02 -0.36479262896E+02  0.47787269868E+02  0.19999994635E+02 0.  0.
        -12    1    1    2    0    0  0.51560777092E+01 -0.22941264507E+02  0.36479262896E+02  0.43400730132E+02  0.00000000000E+00 0.  1.
         11    1    3    3    0    0  0.67735619549E+01  0.83127885908E+01 -0.10088351229E+02  0.14722718040E+02  0.51100000000E-03 0.  1.
        -11    1    3    3    0    0  0.18555356019E+00 -0.47270058777E+00 -0.11216664805E+01  0.12312643599E+01  0.51100000000E-03 0. -1.
         12    1    3    3    0    0 -0.12115193224E+02  0.15101176504E+02 -0.25269245187E+02  0.31833287467E+02  0.00000000000E+00 0. -1.
</event>
<event>
 7    1  0.2983653E-010  0.4778727E+02  0.7816164E-02  0.1312668E+00
        -11   -1    0    0    0    0  0.00000000000E+00  0.00000000000E+00  0.45593999997E+02  0.45594000000E+02  0.51100000000E-03 0.  1.
         11   -1    0    0    0    0 -0.00000000000E+00 -0.00000000000E+00 -0.45593999997E+02  0.45594000000E+02  0.51100000000E-03 0. -1.
    9900012    2    1    2    0    0 -0.23236502070E+02 -0.20901615149E+02 -0.30113305179E+02  0.47787266215E+02  0.19999977982E+02 0.  0.
        -12    1    1    2    0    0  0.23236502070E+02  0.20901615149E+02  0.30113305179E+02  0.43400733785E+02  0.00000000000E+00 0.  1.
         11    1    3    3    0    0 -0.71229636974E+01 -0.53467046181E+00  0.98121881134E+00  0.72100814804E+01  0.51100000000E-03 0. -1.
        -11    1    3    3    0    0 -0.95752307193E+01 -0.10309637935E+02 -0.16439917246E+02  0.21638959240E+02  0.51100000000E-03 0.  1.
         12    1    3    3    0    0 -0.65383076529E+01 -0.10057306752E+02 -0.14654606744E+02  0.18938225495E+02  0.00000000000E+00 0. -1.
</event>
<event>
 7    1  0.2983653E-010  0.4778727E+02  0.7816164E-02  0.1312668E+00
        -11   -1    0    0    0    0  0.00000000000E+00  0.00000000000E+00  0.45593999997E+02  0.45594000000E+02  0.51100000000E-03 0.  1.
         11   -1    0    0    0    0 -0.00000000000E+00 -0.00000000000E+00 -0.45593999997E+02  0.45594000000E+02  0.51100000000E-03 0. -1.
    9900012    2    1    2    0    0 -0.30109631942E+02 -0.53438991224E+01 -0.30797340457E+02  0.47787269906E+02  0.19999994808E+02 0.  0.
        -12    1    1    2    0    0  0.30109631942E+02  0.53438991224E+01  0.30797340457E+02  0.43400730094E+02  0.00000000000E+00 0.  1.
         11    1    3    3    0    0 -0.14602814909E+02 -0.66591376744E+01 -0.68931341392E+01  0.17467158223E+02  0.51100000000E-03 0. -1.
        -11    1    3    3    0    0 -0.27754512304E+01 -0.13127700228E+00 -0.13590500562E+02  0.13871628201E+02  0.51100000000E-03 0.  1.
         12    1    3    3    0    0 -0.12731365802E+02  0.14465155543E+01 -0.10313705756E+02  0.16448483482E+02  0.00000000000E+00 0. -1.
</event>
<event>
 7    1  0.2983653E-010  0.4778727E+02  0.7816164E-02  0.1312668E+00
        -11   -1    0    0    0    0  0.00000000000E+00  0.00000000000E+00  0.45593999997E+02  0.45594000000E+02  0.51100000000E-03 0.  1.
         11   -1    0    0    0    0 -0.00000000000E+00 -0.00000000000E+00 -0.45593999997E+02  0.45594000000E+02  0.51100000000E-03 0. -1.
    9900012    2    1    2    0    0 -0.81848944430E+01 -0.59645631335E+01 -0.42202550641E+02  0.47787265086E+02  0.19999972834E+02 0.  0.
        -12    1    1    2    0    0  0.81848944430E+01  0.59645631335E+01  0.42202550641E+02  0.43400734914E+02  0.00000000000E+00 0.  1.
         11    1    3    3    0    0 -0.13934814715E+01  0.31358744612E+01 -0.41851083196E+01  0.54120819613E+01  0.51100000000E-03 0. -1.
        -11    1    3    3    0    0 -0.75813036057E+01  0.12122718665E+01 -0.22070706766E+02  0.23367966639E+02  0.51100000000E-03 0.  1.
        -12    1    3    3    0    0  0.78989063428E+00 -0.10312709461E+02 -0.15946735556E+02  0.19007216486E+02  0.00000000000E+00 0.  1.
</event>
<event>
 7    1  0.2983653E-010  0.4778727E+02  0.7816164E-02  0.1312668E+00
        -11   -1    0    0    0    0  0.00000000000E+00  0.00000000000E+00  0.45593999997E+02  0.45594000000E+02  0.51100000000E-03 0. -1.
         11   -1    0    0    0    0 -0.00000000000E+00 -0.00000000000E+00 -0.45593999997E+02  0.45594000000E+02  0.51100000000E-03 0.  1.
    9900012    2    1    2    0    0  0.32938273681E+02 -0.12105397706E+02  0.25537279281E+02  0.47787272359E+02  0.20000005992E+02 0.  0.
        -12    1    1    2    0    0 -0.32938273681E+02  0.12105397706E+02 -0.25537279281E+02  0.43400727641E+02  0.00000000000E+00 0.  1.
         11    1    3    3    0    0  0.94876733188E+00  0.30342790797E+01 -0.27405390370E+00  0.31909426173E+01  0.51100000000E-03 0. -1.
        -11    1    3    3    0    0  0.45477098002E+01 -0.53079004665E+01  0.31138947327E+01  0.76519156069E+01  0.51100000000E-03 0.  1.
         12    1    3    3    0    0  0.27441796549E+02 -0.98317763192E+01  0.22697438452E+02  0.36944414134E+02  0.00000000000E+00 0. -1.
</event>
<event>
 7    1  0.2983653E-010  0.4778727E+02  0.7816164E-02  0.1312668E+00
        -11   -1    0    0    0    0  0.00000000000E+00  0.00000000000E+00  0.45593999997E+02  0.45594000000E+02  0.51100000000E-03 0.  1.
         11   -1    0    0    0    0 -0.00000000000E+00 -0.00000000000E+00 -0.45593999997E+02  0.45594000000E+02  0.51100000000E-03 0. -1.
    9900012    2    1    2    0    0  0.32649516284E+02 -0.86781948812E+00 -0.28581106932E+02  0.47787266162E+02  0.19999977737E+02 0.  0.
        -12    1    1    2    0    0 -0.32649516284E+02  0.86781948812E+00  0.28581106932E+02  0.43400733838E+02  0.00000000000E+00 0.  1.
         11    1    3    3    0    0  0.45968337073E+01 -0.59299525378E+01 -0.43460113561E+01  0.86708149676E+01  0.51100000000E-03 0. -1.
        -11    1    3    3    0    0  0.12356710860E+02  0.38920469226E+01 -0.18021474955E+02  0.22194816790E+02  0.51100000000E-03 0.  1.
         12    1    3    3    0    0  0.15695971717E+02  0.11700861271E+01 -0.62136206211E+01  0.16921634404E+02  0.00000000000E+00 0. -1.
</event>
<event>
 7    1  0.2983653E-010  0.4778725E+02  0.7816164E-02  0.1312668E+00
        -11   -1    0    0    0    0  0.00000000000E+00  0.00000000000E+00  0.45593999997E+02  0.45594000000E+02  0.51100000000E-03 0.  1.
         11   -1    0    0    0    0 -0.00000000000E+00 -0.00000000000E+00 -0.45593999997E+02  0.45594000000E+02  0.51100000000E-03 0. -1.
    9900012    2    1    2    0    0 -0.21756948734E+02 -0.22184878989E+02 -0.30300016466E+02  0.47787254939E+02  0.19999926570E+02 0.  0.
        -12    1    1    2    0    0  0.21756948734E+02  0.22184878989E+02  0.30300016466E+02  0.43400745061E+02  0.00000000000E+00 0.  1.
         11    1    3    3    0    0 -0.71385451573E+01 -0.17675904350E+02 -0.15956514950E+02  0.24859742380E+02  0.51100000000E-03 0. -1.
        -11    1    3    3    0    0 -0.76877585941E+00  0.84919177560E+00  0.10390702958E+01  0.15465478766E+01  0.51100000000E-03 0.  1.
         12    1    3    3    0    0 -0.13849627717E+02 -0.53581664146E+01 -0.15382571812E+02  0.21380964683E+02  0.00000000000E+00 0. -1.
</event>
<event>
 7    1  0.2983653E-010  0.4778727E+02  0.7816164E-02  0.1312668E+00
        -11   -1    0    0    0    0  0.00000000000E+00  0.00000000000E+00  0.45593999997E+02  0.45594000000E+02  0.51100000000E-03 0.  1.
         11   -1    0    0    0    0 -0.00000000000E+00 -0.00000000000E+00 -0.45593999997E+02  0.45594000000E+02  0.51100000000E-03 0. -1.
    9900012    2    1    2    0    0  0.18216533947E+02  0.22650805025E+02 -0.32229213639E+02  0.47787270869E+02  0.19999999200E+02 0.  0.
        -12    1    1    2    0    0 -0.18216533947E+02 -0.22650805025E+02  0.32229213639E+02  0.43400729131E+02  0.00000000000E+00 0.  1.
         11    1    3    3    0    0  0.65734053871E+01  0.11220136084E+02 -0.17147634717E+02  0.21520745544E+02  0.51100000000E-03 0. -1.
        -11    1    3    3    0    0  0.58043731451E+01  0.59022586676E+01  0.94902510018E+00  0.83323498419E+01  0.51100000000E-03 0.  1.
        -12    1    3    3    0    0  0.58387554147E+01  0.55284102742E+01 -0.16030604022E+02  0.17934175483E+02  0.00000000000E+00 0.  1.
</event>
<event>
 7    1  0.3468211E-010  0.4778727E+02  0.7816164E-02  0.1312668E+00
        -11   -1    0    0    0    0  0.00000000000E+00  0.00000000000E+00  0.45593999997E+02  0.45594000000E+02  0.51100000000E-03 0. -1.
         11   -1    0    0    0    0 -0.00000000000E+00 -0.00000000000E+00 -0.45593999997E+02  0.45594000000E+02  0.51100000000E-03 0.  1.
    9900012    2    1    2    0    0  0.15303902666E+02 -0.25412753439E+02  0.31679739619E+02  0.47787269863E+02  0.19999994613E+02 0.  0.
        -12    1    1    2    0    0 -0.15303902666E+02  0.25412753439E+02 -0.31679739619E+02  0.43400730137E+02  0.00000000000E+00 0.  1.
         11    1    3    3    0    0  0.14469777720E+02 -0.13029999311E+02  0.24599241343E+02  0.31373205514E+02  0.51100000000E-03 0. -1.
        -11    1    3    3    0    0 -0.24231986211E+01 -0.91032472768E+01  0.70926147841E+01  0.11791784737E+02  0.51100000000E-03 0.  1.
        -12    1    3    3    0    0  0.32573235664E+01 -0.32795068512E+01 -0.12116508726E-01  0.46222796122E+01  0.00000000000E+00 0.  1.
</event>
<event>
 7    1  0.2983653E-010  0.4778726E+02  0.7816164E-02  0.1312668E+00
        -11   -1    0    0    0    0  0.00000000000E+00  0.00000000000E+00  0.45593999997E+02  0.45594000000E+02  0.51100000000E-03 0. -1.
         11   -1    0    0    0    0 -0.00000000000E+00 -0.00000000000E+00 -0.45593999997E+02  0.45594000000E+02  0.51100000000E-03 0.  1.
    9900012    2    1    2    0    0 -0.12699901907E+02  0.31564109237E+02  0.26945191171E+02  0.47787264665E+02  0.19999970913E+02 0.  0.
        -12    1    1    2    0    0  0.12699901907E+02 -0.31564109237E+02 -0.26945191171E+02  0.43400735335E+02  0.00000000000E+00 0.  1.
         11    1    3    3    0    0 -0.11713536942E+02  0.10695456147E+02  0.88327944808E+01  0.18155384559E+02  0.51100000000E-03 0.  1.
        -11    1    3    3    0    0 -0.32748589135E+01  0.19573666148E+02  0.18300624788E+02  0.26995665861E+02  0.51100000000E-03 0. -1.
         12    1    3    3    0    0  0.22884939481E+01  0.12949869421E+01 -0.18822809731E+00  0.26362142453E+01  0.00000000000E+00 0. -1.
</event>
<event>
 7    1  0.2983653E-010  0.4778727E+02  0.7816164E-02  0.1312668E+00
        -11   -1    0    0    0    0  0.00000000000E+00  0.00000000000E+00  0.45593999997E+02  0.45594000000E+02  0.51100000000E-03 0.  1.
         11   -1    0    0    0    0 -0.00000000000E+00 -0.00000000000E+00 -0.45593999997E+02  0.45594000000E+02  0.51100000000E-03 0. -1.
    9900012    2    1    2    0    0 -0.26342552479E+02 -0.31122860013E+02 -0.14868102358E+02  0.47787274727E+02  0.20000016789E+02 0.  0.
        -12    1    1    2    0    0  0.26342552479E+02  0.31122860013E+02  0.14868102358E+02  0.43400725273E+02  0.00000000000E+00 0.  1.
         11    1    3    3    0    0 -0.16918302643E+02 -0.10955104700E+02 -0.24372579282E+01  0.20302303066E+02  0.51100000000E-03 0. -1.
        -11    1    3    3    0    0 -0.36756005483E+01 -0.21294267951E+01 -0.62740558070E+01  0.75768248229E+01  0.51100000000E-03 0.  1.
         12    1    3    3    0    0 -0.57486492875E+01 -0.18038328518E+02 -0.61567886232E+01  0.19908146838E+02  0.00000000000E+00 0. -1.
</event>
<event>
 7    1  0.2983653E-010  0.4778727E+02  0.7816164E-02  0.1312668E+00
        -11   -1    0    0    0    0  0.00000000000E+00  0.00000000000E+00  0.45593999997E+02  0.45594000000E+02  0.51100000000E-03 0. -1.
         11   -1    0    0    0    0 -0.00000000000E+00 -0.00000000000E+00 -0.45593999997E+02  0.45594000000E+02  0.51100000000E-03 0.  1.
    9900012    2    1    2    0    0  0.39401453420E+02 -0.17654460366E+02 -0.44123305752E+01  0.47787272316E+02  0.20000005796E+02 0.  0.
        -12    1    1    2    0    0 -0.39401453420E+02  0.17654460366E+02  0.44123305752E+01  0.43400727684E+02  0.00000000000E+00 0.  1.
         11    1    3    3    0    0  0.21235344887E+02  0.10085816201E+00  0.18121246660E+01  0.21312762395E+02  0.51100000000E-03 0. -1.
        -11    1    3    3    0    0  0.15198988903E+02 -0.12700128408E+02 -0.40096989472E+01  0.20208419314E+02  0.51100000000E-03 0.  1.
         12    1    3    3    0    0  0.29671196301E+01 -0.50551901207E+01 -0.22147562940E+01  0.62660906072E+01  0.00000000000E+00 0. -1.
</event>
<event>
 7    1  0.2983653E-010  0.4778727E+02  0.7816164E-02  0.1312668E+00
        -11   -1    0    0    0    0  0.00000000000E+00  0.00000000000E+00  0.45593999997E+02  0.45594000000E+02  0.51100000000E-03 0.  1.
         11   -1    0    0    0    0 -0.00000000000E+00 -0.00000000000E+00 -0.45593999997E+02  0.45594000000E+02  0.51100000000E-03 0. -1.
    9900012    2    1    2    0    0 -0.31539235426E+02  0.21459784192E+02 -0.20697281938E+02  0.47787272029E+02  0.20000004489E+02 0.  0.
        -12    1    1    2    0    0  0.31539235426E+02 -0.21459784192E+02  0.20697281938E+02  0.43400727971E+02  0.00000000000E+00 0.  1.
         11    1    3    3    0    0 -0.27763794179E+02  0.13767652247E+02 -0.15073943327E+02  0.34461576913E+02  0.51100000000E-03 0. -1.
        -11    1    3    3    0    0  0.23026273680E-01  0.73042725727E+01 -0.60489702571E+01  0.94838267307E+01  0.51100000000E-03 0.  1.
         12    1    3    3    0    0 -0.37984675199E+01  0.38785937198E+00  0.42563164627E+00  0.38418683853E+01  0.00000000000E+00 0. -1.
</event>
<event>
 7    1  0.2983653E-010  0.4778727E+02  0.7816164E-02  0.1312668E+00
        -11   -1    0    0    0    0  0.00000000000E+00  0.00000000000E+00  0.45593999997E+02  0.45594000000E+02  0.51100000000E-03 0.  1.
         11   -1    0    0    0    0 -0.00000000000E+00 -0.00000000000E+00 -0.45593999997E+02  0.45594000000E+02  0.51100000000E-03 0. -1.
    9900012    2    1    2    0    0  0.34914421553E+02 -0.27333436985E+01 -0.25634650396E+02  0.47787270731E+02  0.19999998570E+02 0.  0.
        -12    1    1    2    0    0 -0.34914421553E+02  0.27333436985E+01  0.25634650396E+02  0.43400729269E+02  0.00000000000E+00 0.  1.
         11    1    3    3    0    0  0.15742741357E+02  0.29643646207E+01 -0.33612594138E+01  0.16368244504E+02  0.51100000000E-03 0. -1.
        -11    1    3    3    0    0  0.93114427861E-01  0.11059766364E+01  0.23921917614E+00  0.11353768944E+01  0.51100000000E-03 0.  1.
         12    1    3    3    0    0  0.19078565769E+02 -0.68036849556E+01 -0.22512610158E+02  0.30283649333E+02  0.00000000000E+00 0. -1.
</event>
<event>
 7    1  0.2983653E-010  0.4778727E+02  0.7816164E-02  0.1312668E+00
        -11   -1    0    0    0    0  0.00000000000E+00  0.00000000000E+00  0.45593999997E+02  0.45594000000E+02  0.51100000000E-03 0.  1.
         11   -1    0    0    0    0 -0.00000000000E+00 -0.00000000000E+00 -0.45593999997E+02  0.45594000000E+02  0.51100000000E-03 0. -1.
    9900012    2    1    2    0    0 -0.28214490589E+02  0.12286736200E+02 -0.30603950708E+02  0.47787272303E+02  0.20000005738E+02 0.  0.
        -12    1    1    2    0    0  0.28214490589E+02 -0.12286736200E+02  0.30603950708E+02  0.43400727697E+02  0.00000000000E+00 0.  1.
         11    1    3    3    0    0 -0.18148034148E+02  0.41103552206E+01 -0.17000822846E+02  0.25204645231E+02  0.51100000000E-03 0. -1.
        -11    1    3    3    0    0  0.77692293242E+00 -0.25346862084E+01 -0.30662863774E+01  0.40534375322E+01  0.51100000000E-03 0.  1.
        -12    1    3    3    0    0 -0.10843379374E+02  0.10711067188E+02 -0.10536841485E+02  0.18529189540E+02  0.00000000000E+00 0.  1.
</event>
<event>
 7    1  0.2983653E-010  0.4778727E+02  0.7816164E-02  0.1312668E+00
        -11   -1    0    0    0    0  0.00000000000E+00  0.00000000000E+00  0.45593999997E+02  0.45594000000E+02  0.51100000000E-03 0.  1.
         11   -1    0    0    0    0 -0.00000000000E+00 -0.00000000000E+00 -0.45593999997E+02  0.45594000000E+02  0.51100000000E-03 0. -1.
    9900012    2    1    2    0    0  0.33408523888E+02  0.11236958762E+02  0.25322419782E+02  0.47787266663E+02  0.19999980023E+02 0.  0.
        -12    1    1    2    0    0 -0.33408523888E+02 -0.11236958762E+02 -0.25322419782E+02  0.43400733337E+02  0.00000000000E+00 0.  1.
         11    1    3    3    0    0  0.12149714427E+02 -0.84215907713E+00  0.15211994120E+02  0.19486650763E+02  0.51100000000E-03 0. -1.
        -11    1    3    3    0    0  0.16211462019E+01 -0.16167029033E+01  0.19464663506E+01  0.30050914796E+01  0.51100000000E-03 0.  1.
         12    1    3    3    0    0  0.19637663259E+02  0.13695820742E+02  0.81639593106E+01  0.25295524421E+02  0.00000000000E+00 0. -1.
</event>
<event>
 7    1  0.2983653E-010  0.4778727E+02  0.7816164E-02  0.1312668E+00
        -11   -1    0    0    0    0  0.00000000000E+00  0.00000000000E+00  0.45593999997E+02  0.45594000000E+02  0.51100000000E-03 0.  1.
         11   -1    0    0    0    0 -0.00000000000E+00 -0.00000000000E+00 -0.45593999997E+02  0.45594000000E+02  0.51100000000E-03 0. -1.
    9900012    2    1    2    0    0  0.37135165748E+02  0.22074860366E+02  0.41597344184E+01  0.47787269756E+02  0.19999994124E+02 0.  0.
        -12    1    1    2    0    0 -0.37135165748E+02 -0.22074860366E+02 -0.41597344184E+01  0.43400730244E+02  0.00000000000E+00 0.  1.
         11    1    3    3    0    0  0.52768533746E+01  0.25330527012E+01 -0.59533400144E+01  0.83488798718E+01  0.51100000000E-03 0. -1.
        -11    1    3    3    0    0  0.11360761648E+02  0.93740518745E+01  0.71300925889E+01  0.16363922951E+02  0.51100000000E-03 0.  1.
         12    1    3    3    0    0  0.20497550726E+02  0.10167755790E+02  0.29829818439E+01  0.23074466933E+02  0.00000000000E+00 0. -1.
</event>
<event>
 7    1  0.2983653E-010  0.4778727E+02  0.7816164E-02  0.1312668E+00
        -11   -1    0    0    0    0  0.00000000000E+00  0.00000000000E+00  0.45593999997E+02  0.45594000000E+02  0.51100000000E-03 0.  1.
         11   -1    0    0    0    0 -0.00000000000E+00 -0.00000000000E+00 -0.45593999997E+02  0.45594000000E+02  0.51100000000E-03 0. -1.
    9900012    2    1    2    0    0  0.38543367696E+02  0.44314808916E+01 -0.19452362306E+02  0.47787267109E+02  0.19999982056E+02 0.  0.
        -12    1    1    2    0    0 -0.38543367696E+02 -0.44314808916E+01  0.19452362306E+02  0.43400732891E+02  0.00000000000E+00 0.  1.
         11    1    3    3    0    0  0.32651518882E+02 -0.28243710020E+01 -0.11275838987E+02  0.34658957024E+02  0.51100000000E-03 0. -1.
        -11    1    3    3    0    0 -0.27033005670E+00  0.24279391064E+01 -0.19460026539E+01  0.31232824454E+01  0.51100000000E-03 0.  1.
         12    1    3    3    0    0  0.61621788706E+01  0.48279127872E+01 -0.62305206648E+01  0.10005027640E+02  0.00000000000E+00 0. -1.
</event>
<event>
 7    1  0.2983653E-010  0.4778727E+02  0.7816164E-02  0.1312668E+00
        -11   -1    0    0    0    0  0.00000000000E+00  0.00000000000E+00  0.45593999997E+02  0.45594000000E+02  0.51100000000E-03 0.  1.
         11   -1    0    0    0    0 -0.00000000000E+00 -0.00000000000E+00 -0.45593999997E+02  0.45594000000E+02  0.51100000000E-03 0. -1.
    9900012    2    1    2    0    0 -0.37096113038E+02  0.92354143343E+01 -0.20547724489E+02  0.47787268876E+02  0.19999990114E+02 0.  0.
        -12    1    1    2    0    0  0.37096113038E+02 -0.92354143343E+01  0.20547724489E+02  0.43400731124E+02  0.00000000000E+00 0.  1.
         11    1    3    3    0    0 -0.10309098089E+02  0.15074540963E+01  0.22416166520E+00  0.10421140531E+02  0.51100000000E-03 0. -1.
        -11    1    3    3    0    0 -0.14959549620E+02 -0.65188929859E-01 -0.17127282667E+02  0.22740628537E+02  0.51100000000E-03 0.  1.
        -12    1    3    3    0    0 -0.11827465329E+02  0.77931491679E+01 -0.36446034865E+01  0.14625499808E+02  0.00000000000E+00 0.  1.
</event>
<event>
 7    1  0.2983653E-010  0.4778728E+02  0.7816164E-02  0.1312668E+00
        -11   -1    0    0    0    0  0.00000000000E+00  0.00000000000E+00  0.45593999997E+02  0.45594000000E+02  0.51100000000E-03 0. -1.
         11   -1    0    0    0    0 -0.00000000000E+00 -0.00000000000E+00 -0.45593999997E+02  0.45594000000E+02  0.51100000000E-03 0.  1.
    9900012    2    1    2    0    0  0.36499691933E+02 -0.21487648075E+01  0.23383286064E+02  0.47787276866E+02  0.20000026545E+02 0.  0.
        -12    1    1    2    0    0 -0.36499691933E+02  0.21487648075E+01 -0.23383286064E+02  0.43400723134E+02  0.00000000000E+00 0.  1.
         11    1    3    3    0    0  0.12083622668E+02  0.51390332228E+01  0.25495117295E+01  0.13376233011E+02  0.51100000000E-03 0. -1.
        -11    1    3    3    0    0  0.44671429723E+01 -0.33986228534E+01  0.97770147691E+01  0.11273687138E+02  0.51100000000E-03 0.  1.
         12    1    3    3    0    0  0.19948926292E+02 -0.38891751769E+01  0.11056759565E+02  0.23137356717E+02  0.00000000000E+00 0. -1.
</event>
<event>
 7    1  0.2983653E-010  0.4778728E+02  0.7816164E-02  0.1312668E+00
        -11   -1    0    0    0    0  0.00000000000E+00  0.00000000000E+00  0.45593999997E+02  0.45594000000E+02  0.51100000000E-03 0.  1.
         11   -1    0    0    0    0 -0.00000000000E+00 -0.00000000000E+00 -0.45593999997E+02  0.45594000000E+02  0.51100000000E-03 0. -1.
    9900012    2    1    2    0    0 -0.28739689443E+02  0.31002716152E+02 -0.98226321349E+01  0.47787282723E+02  0.20000053248E+02 0.  0.
        -12    1    1    2    0    0  0.28739689443E+02 -0.31002716152E+02  0.98226321349E+01  0.43400717277E+02  0.00000000000E+00 0.  1.
         11    1    3    3    0    0 -0.27696503245E+02  0.24696904620E+02 -0.76264029427E+01  0.37883973022E+02  0.51100000000E-03 0. -1.
        -11    1    3    3    0    0 -0.28466784413E+01  0.66784362032E+01 -0.30893659022E+00  0.72663973430E+01  0.51100000000E-03 0.  1.
         12    1    3    3    0    0  0.18034922438E+01 -0.37262467080E+00 -0.18872926020E+01  0.26369123581E+01  0.00000000000E+00 0. -1.
</event>
<event>
 7    1  0.2983653E-010  0.4778728E+02  0.7816164E-02  0.1312668E+00
        -11   -1    0    0    0    0  0.00000000000E+00  0.00000000000E+00  0.45593999997E+02  0.45594000000E+02  0.51100000000E-03 0.  1.
         11   -1    0    0    0    0 -0.00000000000E+00 -0.00000000000E+00 -0.45593999997E+02  0.45594000000E+02  0.51100000000E-03 0. -1.
    9900012    2    1    2    0    0  0.75381111712E+01 -0.36791944380E+02 -0.21752066293E+02  0.47787277894E+02  0.20000031230E+02 0.  0.
        -12    1    1    2    0    0 -0.75381111712E+01  0.36791944380E+02  0.21752066293E+02  0.43400722106E+02  0.00000000000E+00 0.  1.
         11    1    3    3    0    0  0.37370189617E+01 -0.14222522313E+02 -0.12735715896E+00  0.14705838017E+02  0.51100000000E-03 0. -1.
        -11    1    3    3    0    0 -0.21511215340E+01 -0.47222729106E+01 -0.12269167607E+01  0.53322143894E+01  0.51100000000E-03 0.  1.
         12    1    3    3    0    0  0.59522137436E+01 -0.17847149156E+02 -0.20397792373E+02  0.27749225488E+02  0.00000000000E+00 0. -1.
</event>
<event>
 7    1  0.2983653E-010  0.4778729E+02  0.7816164E-02  0.1312668E+00
        -11   -1    0    0    0    0  0.00000000000E+00  0.00000000000E+00  0.45593999997E+02  0.45594000000E+02  0.51100000000E-03 0. -1.
         11   -1    0    0    0    0 -0.00000000000E+00 -0.00000000000E+00 -0.45593999997E+02  0.45594000000E+02  0.51100000000E-03 0.  1.
    9900012    2    1    2    0    0  0.40029772489E+02  0.69631446255E+01  0.15256263161E+02  0.47787289934E+02  0.20000086126E+02 0.  0.
        -12    1    1    2    0    0 -0.40029772489E+02 -0.69631446255E+01 -0.15256263161E+02  0.43400710066E+02  0.00000000000E+00 0.  1.
         11    1    3    3    0    0  0.34874205964E+01 -0.75673282467E-01 -0.35765895566E+01  0.49959805824E+01  0.51100000000E-03 0. -1.
        -11    1    3    3    0    0  0.31722344340E+00  0.14667779104E+01 -0.16377803340E+00  0.15095998333E+01  0.51100000000E-03 0.  1.
         12    1    3    3    0    0  0.36225128449E+02  0.55720399976E+01  0.18996630751E+02  0.41281709518E+02  0.00000000000E+00 0. -1.
</event>
<event>
 7    1  0.2983653E-010  0.4778727E+02  0.7816164E-02  0.1312668E+00
        -11   -1    0    0    0    0  0.00000000000E+00  0.00000000000E+00  0.45593999997E+02  0.45594000000E+02  0.51100000000E-03 0.  1.
         11   -1    0    0    0    0 -0.00000000000E+00 -0.00000000000E+00 -0.45593999997E+02  0.45594000000E+02  0.51100000000E-03 0. -1.
    9900012    2    1    2    0    0 -0.80402793491E+01  0.41710500470E+02 -0.89000590749E+01  0.47787274280E+02  0.20000014753E+02 0.  0.
        -12    1    1    2    0    0  0.80402793491E+01 -0.41710500470E+02  0.89000590749E+01  0.43400725720E+02  0.00000000000E+00 0.  1.
         11    1    3    3    0    0 -0.33969291288E+01  0.18718634914E+02 -0.48010621790E+01  0.19620821055E+02  0.51100000000E-03 0. -1.
        -11    1    3    3    0    0  0.18677909564E+01  0.12555870690E+02  0.41508829355E+01  0.13355461851E+02  0.51100000000E-03 0.  1.
        -12    1    3    3    0    0 -0.65111411768E+01  0.10435994866E+02 -0.82498798314E+01  0.14810991375E+02  0.00000000000E+00 0.  1.
</event>
<event>
 7    1  0.2983653E-010  0.4778727E+02  0.7816164E-02  0.1312668E+00
        -11   -1    0    0    0    0  0.00000000000E+00  0.00000000000E+00  0.45593999997E+02  0.45594000000E+02  0.51100000000E-03 0.  1.
         11   -1    0    0    0    0 -0.00000000000E+00 -0.00000000000E+00 -0.45593999997E+02  0.45594000000E+02  0.51100000000E-03 0. -1.
    9900012    2    1    2    0    0  0.71813310171E-01 -0.74608547022E+01 -0.42754578423E+02  0.47787268599E+02  0.19999988849E+02 0.  0.
        -12    1    1    2    0    0 -0.71813310171E-01  0.74608547022E+01  0.42754578423E+02  0.43400731401E+02  0.00000000000E+00 0.  1.
         11    1    3    3    0    0 -0.43277167878E+01 -0.25014206978E+00 -0.78832935122E+01  0.89965560361E+01  0.51100000000E-03 0. -1.
        -11    1    3    3    0    0  0.91399389957E+01 -0.80471183411E+01 -0.25094817569E+02  0.27893448470E+02  0.51100000000E-03 0.  1.
        -12    1    3    3    0    0 -0.47404088978E+01  0.83640570869E+00 -0.97764673417E+01  0.10897264093E+02  0.00000000000E+00 0.  1.
</event>
<event>
 7    1  0.2983653E-010  0.4778728E+02  0.7816164E-02  0.1312668E+00
        -11   -1    0    0    0    0  0.00000000000E+00  0.00000000000E+00  0.45593999997E+02  0.45594000000E+02  0.51100000000E-03 0.  1.
         11   -1    0    0    0    0 -0.00000000000E+00 -0.00000000000E+00 -0.45593999997E+02  0.45594000000E+02  0.51100000000E-03 0. -1.
    9900012    2    1    2    0    0 -0.42842519526E+02 -0.16252286356E+01 -0.67453688225E+01  0.47787275951E+02  0.20000022371E+02 0.  0.
        -12    1    1    2    0    0  0.42842519526E+02  0.16252286356E+01  0.67453688225E+01  0.43400724049E+02  0.00000000000E+00 0.  1.
         11    1    3    3    0    0 -0.34622857163E+02 -0.28597565359E+01 -0.10493760826E+01  0.34756605645E+02  0.51100000000E-03 0. -1.
        -11    1    3    3    0    0 -0.63870337121E+01  0.44259689733E+01 -0.51196987139E+01  0.93056281988E+01  0.51100000000E-03 0.  1.
         12    1    3    3    0    0 -0.18326286508E+01 -0.31914410730E+01 -0.57629402600E+00  0.37250421069E+01  0.00000000000E+00 0. -1.
</event>
<event>
 7    1  0.2983653E-010  0.4778727E+02  0.7816164E-02  0.1312668E+00
        -11   -1    0    0    0    0  0.00000000000E+00  0.00000000000E+00  0.45593999997E+02  0.45594000000E+02  0.51100000000E-03 0.  1.
         11   -1    0    0    0    0 -0.00000000000E+00 -0.00000000000E+00 -0.45593999997E+02  0.45594000000E+02  0.51100000000E-03 0. -1.
    9900012    2    1    2    0    0  0.69506103113E+00 -0.80997085810E+01 -0.42632555945E+02  0.47787271719E+02  0.20000003077E+02 0.  0.
        -12    1    1    2    0    0 -0.69506103113E+00  0.80997085810E+01  0.42632555945E+02  0.43400728281E+02  0.00000000000E+00 0.  1.
         11    1    3    3    0    0  0.19173004069E+01 -0.11136081179E+02 -0.17300061009E+02  0.20663505416E+02  0.51100000000E-03 0. -1.
        -11    1    3    3    0    0 -0.24153849859E+01  0.59748752363E+01 -0.15299648755E+02  0.16601580377E+02  0.51100000000E-03 0.  1.
         12    1    3    3    0    0  0.11931456101E+01 -0.29385026380E+01 -0.10032846180E+02  0.10522185927E+02  0.00000000000E+00 0. -1.
</event>
<event>
 7    1  0.2983653E-010  0.4778727E+02  0.7816164E-02  0.1312668E+00
        -11   -1    0    0    0    0  0.00000000000E+00  0.00000000000E+00  0.45593999997E+02  0.45594000000E+02  0.51100000000E-03 0. -1.
         11   -1    0    0    0    0 -0.00000000000E+00 -0.00000000000E+00 -0.45593999997E+02  0.45594000000E+02  0.51100000000E-03 0.  1.
    9900012    2    1    2    0    0 -0.32425247212E+01  0.36122234419E+02 -0.23838917297E+02  0.47787265400E+02  0.19999974264E+02 0.  0.
        -12    1    1    2    0    0  0.32425247212E+01 -0.36122234419E+02  0.23838917297E+02  0.43400734600E+02  0.00000000000E+00 0.  1.
         11    1    3    3    0    0  0.64983296990E+01  0.17409264799E+02 -0.12078434213E+02  0.22163017913E+02  0.51100000000E-03 0.  1.
        -11    1    3    3    0    0  0.38758359033E+00  0.48738318548E+01 -0.10779400732E+00  0.48904067108E+01  0.51100000000E-03 0. -1.
         12    1    3    3    0    0 -0.10128438011E+02  0.13839137765E+02 -0.11652689076E+02  0.20733840776E+02  0.00000000000E+00 0. -1.
</event>
<event>
 7    1  0.2983653E-010  0.4778727E+02  0.7816164E-02  0.1312668E+00
        -11   -1    0    0    0    0  0.00000000000E+00  0.00000000000E+00  0.45593999997E+02  0.45594000000E+02  0.51100000000E-03 0.  1.
         11   -1    0    0    0    0 -0.00000000000E+00 -0.00000000000E+00 -0.45593999997E+02  0.45594000000E+02  0.51100000000E-03 0. -1.
    9900012    2    1    2    0    0 -0.15359665934E+02 -0.38011711868E+01 -0.40413549415E+02  0.47787271707E+02  0.20000003022E+02 0.  0.
        -12    1    1    2    0    0  0.15359665934E+02  0.38011711868E+01  0.40413549415E+02  0.43400728293E+02  0.00000000000E+00 0.  1.
         11    1    3    3    0    0 -0.11604801547E+02 -0.96780564464E+01 -0.29711906635E+02  0.33333670540E+02  0.51100000000E-03 0. -1.
        -11    1    3    3    0    0 -0.47301403215E+01  0.66472637461E+01 -0.10316232132E+02  0.13152375772E+02  0.51100000000E-03 0.  1.
        -12    1    3    3    0    0  0.97527593519E+00 -0.77037848650E+00 -0.38541064818E+00  0.13012253955E+01  0.00000000000E+00 0.  1.
</event>
<event>
 7    1  0.2983653E-010  0.4778728E+02  0.7816164E-02  0.1312668E+00
        -11   -1    0    0    0    0  0.00000000000E+00  0.00000000000E+00  0.45593999997E+02  0.45594000000E+02  0.51100000000E-03 0.  1.
         11   -1    0    0    0    0 -0.00000000000E+00 -0.00000000000E+00 -0.45593999997E+02  0.45594000000E+02  0.51100000000E-03 0. -1.
    9900012    2    1    2    0    0  0.42631528231E+01  0.26244277756E+02 -0.34302856481E+02  0.47787279388E+02  0.20000038039E+02 0.  0.
        -12    1    1    2    0    0 -0.42631528231E+01 -0.26244277756E+02  0.34302856481E+02  0.43400720612E+02  0.00000000000E+00 0.  1.
         11    1    3    3    0    0  0.76952411799E+01  0.18554504260E+02 -0.25808218274E+02  0.32703982875E+02  0.51100000000E-03 0. -1.
        -11    1    3    3    0    0 -0.36583987897E+01 -0.77173965462E+00 -0.12516261750E+01  0.39428456909E+01  0.51100000000E-03 0.  1.
         12    1    3    3    0    0  0.22631043291E+00  0.84615131512E+01 -0.72430120319E+01  0.11140450822E+02  0.00000000000E+00 0. -1.
</event>
<event>
 7    1  0.2983653E-010  0.4778726E+02  0.7816164E-02  0.1312668E+00
        -11   -1    0    0    0    0  0.00000000000E+00  0.00000000000E+00  0.45593999997E+02  0.45594000000E+02  0.51100000000E-03 0. -1.
         11   -1    0    0    0    0 -0.00000000000E+00 -0.00000000000E+00 -0.45593999997E+02  0.45594000000E+02  0.51100000000E-03 0.  1.
    9900012    2    1    2    0    0 -0.89813789947E+01 -0.39467533865E+02  0.15661177367E+02  0.47787264124E+02  0.19999968448E+02 0.  0.
        -12    1    1    2    0    0  0.89813789947E+01  0.39467533865E+02 -0.15661177367E+02  0.43400735876E+02  0.00000000000E+00 0.  1.
         11    1    3    3    0    0 -0.38599835356E+01 -0.19055376718E+02  0.16527854739E+02  0.25518166809E+02  0.51100000000E-03 0. -1.
        -11    1    3    3    0    0  0.20937792185E+00 -0.11402518918E+02 -0.24963190952E+01  0.11674454423E+02  0.51100000000E-03 0.  1.
         12    1    3    3    0    0 -0.53307733810E+01 -0.90096382289E+01  0.16296417230E+01  0.10594642892E+02  0.00000000000E+00 0. -1.
</event>
<event>
 7    1  0.2983653E-010  0.4778727E+02  0.7816164E-02  0.1312668E+00
        -11   -1    0    0    0    0  0.00000000000E+00  0.00000000000E+00  0.45593999997E+02  0.45594000000E+02  0.51100000000E-03 0.  1.
         11   -1    0    0    0    0 -0.00000000000E+00 -0.00000000000E+00 -0.45593999997E+02  0.45594000000E+02  0.51100000000E-03 0. -1.
    9900012    2    1    2    0    0 -0.25799947479E+02 -0.49947114506E+01 -0.34540394122E+02  0.47787271222E+02  0.20000000810E+02 0.  0.
        -12    1    1    2    0    0  0.25799947479E+02  0.49947114506E+01  0.34540394122E+02  0.43400728778E+02  0.00000000000E+00 0.  1.
         11    1    3    3    0    0 -0.20744508600E+01  0.44151739460E+00 -0.19513454011E+01  0.28820189306E+01  0.51100000000E-03 0. -1.
        -11    1    3    3    0    0 -0.57651280555E+01 -0.99214169063E+01 -0.74327499003E+01  0.13671758712E+02  0.51100000000E-03 0.  1.
        -12    1    3    3    0    0 -0.17960368563E+02  0.44851880611E+01 -0.25156298820E+02  0.31233493580E+02  0.00000000000E+00 0.  1.
</event>
<event>
 7    1  0.2983653E-010  0.4778727E+02  0.7816164E-02  0.1312668E+00
        -11   -1    0    0    0    0  0.00000000000E+00  0.00000000000E+00  0.45593999997E+02  0.45594000000E+02  0.51100000000E-03 0. -1.
         11   -1    0    0    0    0 -0.00000000000E+00 -0.00000000000E+00 -0.45593999997E+02  0.45594000000E+02  0.51100000000E-03 0.  1.
    9900012    2    1    2    0    0 -0.40951201020E+02  0.14358231518E+02 -0.68103927843E+00  0.47787268533E+02  0.19999988551E+02 0.  0.
        -12    1    1    2    0    0  0.40951201020E+02 -0.14358231518E+02  0.68103927843E+00  0.43400731467E+02  0.00000000000E+00 0.  1.
         11    1    3    3    0    0 -0.65410508144E+01 -0.17724007554E+01 -0.39597182476E+00  0.67884861450E+01  0.51100000000E-03 0. -1.
        -11    1    3    3    0    0 -0.97328490572E+01 -0.19813077167E+01  0.25574683978E+01  0.10256440704E+02  0.51100000000E-03 0.  1.
        -12    1    3    3    0    0 -0.24677301149E+02  0.18111939990E+02 -0.28425358515E+01  0.30742341685E+02  0.00000000000E+00 0.  1.
</event>
<event>
 7    1  0.2983653E-010  0.4778727E+02  0.7816164E-02  0.1312668E+00
        -11   -1    0    0    0    0  0.00000000000E+00  0.00000000000E+00  0.45593999997E+02  0.45594000000E+02  0.51100000000E-03 0.  1.
         11   -1    0    0    0    0 -0.00000000000E+00 -0.00000000000E+00 -0.45593999997E+02  0.45594000000E+02  0.51100000000E-03 0. -1.
    9900012    2    1    2    0    0 -0.69737969542E+00  0.99568834285E+01 -0.42237396749E+02  0.47787267861E+02  0.19999985487E+02 0.  0.
        -12    1    1    2    0    0  0.69737969542E+00 -0.99568834285E+01  0.42237396749E+02  0.43400732139E+02  0.00000000000E+00 0.  1.
         11    1    3    3    0    0  0.10334631644E+01 -0.34628732999E+01 -0.17598625617E+02  0.17965833169E+02  0.51100000000E-03 0. -1.
        -11    1    3    3    0    0 -0.56419080743E+00  0.71424100476E+00 -0.11395845456E+02  0.11432136520E+02  0.51100000000E-03 0.  1.
         12    1    3    3    0    0 -0.11666520524E+01  0.12705515724E+02 -0.13242925676E+02  0.18389298173E+02  0.00000000000E+00 0. -1.
</event>
<event>
 7    1  0.2983653E-010  0.4778727E+02  0.7816164E-02  0.1312668E+00
        -11   -1    0    0    0    0  0.00000000000E+00  0.00000000000E+00  0.45593999997E+02  0.45594000000E+02  0.51100000000E-03 0.  1.
         11   -1    0    0    0    0 -0.00000000000E+00 -0.00000000000E+00 -0.45593999997E+02  0.45594000000E+02  0.51100000000E-03 0. -1.
    9900012    2    1    2    0    0  0.12778246307E+02 -0.39087986233E+02  0.13873318409E+02  0.47787271779E+02  0.20000003350E+02 0.  0.
        -12    1    1    2    0    0 -0.12778246307E+02  0.39087986233E+02 -0.13873318409E+02  0.43400728221E+02  0.00000000000E+00 0.  1.
         11    1    3    3    0    0 -0.71906979508E+00 -0.16208205982E+02  0.78217492652E+01  0.18011184424E+02  0.51100000000E-03 0. -1.
        -11    1    3    3    0    0  0.10401254727E+02 -0.67275347760E+01  0.42731558514E+00  0.12394693337E+02  0.51100000000E-03 0.  1.
        -12    1    3    3    0    0  0.30960613755E+01 -0.16152245474E+02  0.56242535586E+01  0.17381394018E+02  0.00000000000E+00 0.  1.
</event>
<event>
 7    1  0.2983653E-010  0.4778727E+02  0.7816164E-02  0.1312668E+00
        -11   -1    0    0    0    0  0.00000000000E+00  0.00000000000E+00  0.45593999997E+02  0.45594000000E+02  0.51100000000E-03 0. -1.
         11   -1    0    0    0    0 -0.00000000000E+00 -0.00000000000E+00 -0.45593999997E+02  0.45594000000E+02  0.51100000000E-03 0.  1.
    9900012    2    1    2    0    0  0.12256337641E+02  0.31685947820E+02  0.27007520755E+02  0.47787270986E+02  0.19999999735E+02 0.  0.
        -12    1    1    2    0    0 -0.12256337641E+02 -0.31685947820E+02 -0.27007520755E+02  0.43400729014E+02  0.00000000000E+00 0.  1.
         11    1    3    3    0    0  0.31039106531E+01  0.88517996277E+01  0.10218007326E+02  0.13870699044E+02  0.51100000000E-03 0. -1.
        -11    1    3    3    0    0  0.75353532186E+01  0.70383506483E+01  0.14620508715E+02  0.17890757484E+02  0.51100000000E-03 0.  1.
        -12    1    3    3    0    0  0.16170737689E+01  0.15795797544E+02  0.21690047136E+01  0.16025814459E+02  0.00000000000E+00 0.  1.
</event>
<event>
 7    1  0.2983653E-010  0.4778727E+02  0.7816164E-02  0.1312668E+00
        -11   -1    0    0    0    0  0.00000000000E+00  0.00000000000E+00  0.45593999997E+02  0.45594000000E+02  0.51100000000E-03 0. -1.
         11   -1    0    0    0    0 -0.00000000000E+00 -0.00000000000E+00 -0.45593999997E+02  0.45594000000E+02  0.51100000000E-03 0.  1.
    9900012    2    1    2    0    0  0.20159754427E+02 -0.36919892811E+02 -0.10683138226E+02  0.47787266987E+02  0.19999981498E+02 0.  0.
        -12    1    1    2    0    0 -0.20159754427E+02  0.36919892811E+02  0.10683138226E+02  0.43400733013E+02  0.00000000000E+00 0.  1.
         11    1    3    3    0    0  0.36708628959E+01 -0.90103316992E+01 -0.45508731826E+01  0.10741124649E+02  0.51100000000E-03 0. -1.
        -11    1    3    3    0    0  0.87653747293E+01 -0.27267910945E+02 -0.34701968289E+01  0.28851568896E+02  0.51100000000E-03 0.  1.
        -12    1    3    3    0    0  0.77235168017E+01 -0.64165016715E+00 -0.26620682147E+01  0.81945734424E+01  0.00000000000E+00 0.  1.
</event>
<event>
 7    1  0.2983653E-010  0.4778727E+02  0.7816164E-02  0.1312668E+00
        -11   -1    0    0    0    0  0.00000000000E+00  0.00000000000E+00  0.45593999997E+02  0.45594000000E+02  0.51100000000E-03 0. -1.
         11   -1    0    0    0    0 -0.00000000000E+00 -0.00000000000E+00 -0.45593999997E+02  0.45594000000E+02  0.51100000000E-03 0.  1.
    9900012    2    1    2    0    0 -0.20157385199E+01 -0.41266897228E+02 -0.13289214186E+02  0.47787271639E+02  0.20000002711E+02 0.  0.
        -12    1    1    2    0    0  0.20157385199E+01  0.41266897228E+02  0.13289214186E+02  0.43400728361E+02  0.00000000000E+00 0.  1.
         11    1    3    3    0    0  0.26301414954E+01 -0.25528436665E+01 -0.65989867343E+00  0.37242612142E+01  0.51100000000E-03 0. -1.
        -11    1    3    3    0    0 -0.33167977889E+00  0.16073681812E+01 -0.77004445528E+00  0.18129017265E+01  0.51100000000E-03 0.  1.
        -12    1    3    3    0    0 -0.43142002364E+01 -0.40321421742E+02 -0.11859271057E+02  0.42250108698E+02  0.00000000000E+00 0.  1.
</event>
<event>
 7    1  0.2983653E-010  0.4778729E+02  0.7816164E-02  0.1312668E+00
        -11   -1    0    0    0    0  0.00000000000E+00  0.00000000000E+00  0.45593999997E+02  0.45594000000E+02  0.51100000000E-03 0.  1.
         11   -1    0    0    0    0 -0.00000000000E+00 -0.00000000000E+00 -0.45593999997E+02  0.45594000000E+02  0.51100000000E-03 0. -1.
    9900012    2    1    2    0    0  0.33639557087E+01 -0.41418535041E+02 -0.12522403599E+02  0.47787287622E+02  0.20000075585E+02 0.  0.
        -12    1    1    2    0    0 -0.33639557087E+01  0.41418535041E+02  0.12522403599E+02  0.43400712378E+02  0.00000000000E+00 0.  1.
         11    1    3    3    0    0 -0.62221907992E+00 -0.26070516431E+02 -0.16644953153E+02  0.30937250189E+02  0.51100000000E-03 0. -1.
        -11    1    3    3    0    0  0.22691439451E+01 -0.13899855867E+02  0.33735484461E+01  0.14482259380E+02  0.51100000000E-03 0.  1.
         12    1    3    3    0    0  0.17170308435E+01 -0.14481627441E+01  0.74900110798E+00  0.23677780535E+01  0.00000000000E+00 0. -1.
</event>
<event>
 7    1  0.2983653E-010  0.4778727E+02  0.7816164E-02  0.1312668E+00
        -11   -1    0    0    0    0  0.00000000000E+00  0.00000000000E+00  0.45593999997E+02  0.45594000000E+02  0.51100000000E-03 0.  1.
         11   -1    0    0    0    0 -0.00000000000E+00 -0.00000000000E+00 -0.45593999997E+02  0.45594000000E+02  0.51100000000E-03 0. -1.
    9900012    2    1    2    0    0  0.34558795572E+02  0.20431268997E+01 -0.26175154782E+02  0.47787269052E+02  0.19999990918E+02 0.  0.
        -12    1    1    2    0    0 -0.34558795572E+02 -0.20431268997E+01  0.26175154782E+02  0.43400730948E+02  0.00000000000E+00 0.  1.
         11    1    3    3    0    0  0.13086843700E+02  0.56276370534E+01 -0.15614847967E+02  0.21136680301E+02  0.51100000000E-03 0. -1.
        -11    1    3    3    0    0  0.10759210885E+02 -0.65231847774E+01 -0.89161050311E+01  0.15421072845E+02  0.51100000000E-03 0.  1.
        -12    1    3    3    0    0  0.10712740987E+02  0.29386746237E+01 -0.16442017840E+01  0.11229515907E+02  0.00000000000E+00 0.  1.
</event>
<event>
 7    1  0.2983653E-010  0.4778727E+02  0.7816164E-02  0.1312668E+00
        -11   -1    0    0    0    0  0.00000000000E+00  0.00000000000E+00  0.45593999997E+02  0.45594000000E+02  0.51100000000E-03 0.  1.
         11   -1    0    0    0    0 -0.00000000000E+00 -0.00000000000E+00 -0.45593999997E+02  0.45594000000E+02  0.51100000000E-03 0. -1.
    9900012    2    1    2    0    0  0.29139326348E+02  0.31688864969E+02  0.55080570942E+01  0.47787271942E+02  0.20000004092E+02 0.  0.
        -12    1    1    2    0    0 -0.29139326348E+02 -0.31688864969E+02 -0.55080570942E+01  0.43400728058E+02  0.00000000000E+00 0.  1.
         11    1    3    3    0    0  0.15690710397E+02  0.13736065656E+02 -0.18229861575E+00  0.20854522903E+02  0.51100000000E-03 0. -1.
        -11    1    3    3    0    0  0.10928386837E+01  0.11641196797E+02  0.58130981743E+01  0.13057713043E+02  0.51100000000E-03 0.  1.
        -12    1    3    3    0    0  0.12355777267E+02  0.63116025162E+01 -0.12274246432E+00  0.13875035997E+02  0.00000000000E+00 0.  1.
</event>
<event>
 7    1  0.2983653E-010  0.4778727E+02  0.7816164E-02  0.1312668E+00
        -11   -1    0    0    0    0  0.00000000000E+00  0.00000000000E+00  0.45593999997E+02  0.45594000000E+02  0.51100000000E-03 0.  1.
         11   -1    0    0    0    0 -0.00000000000E+00 -0.00000000000E+00 -0.45593999997E+02  0.45594000000E+02  0.51100000000E-03 0. -1.
    9900012    2    1    2    0    0  0.16074110519E+02  0.25475458554E+02 -0.31244953379E+02  0.47787272711E+02  0.20000007600E+02 0.  0.
        -12    1    1    2    0    0 -0.16074110519E+02 -0.25475458554E+02  0.31244953379E+02  0.43400727289E+02  0.00000000000E+00 0.  1.
         11    1    3    3    0    0  0.20132414480E+01  0.70463856687E+01 -0.12075735655E+02  0.14125441020E+02  0.51100000000E-03 0. -1.
        -11    1    3    3    0    0 -0.11399575557E+01  0.43706850237E+01  0.11404237625E+01  0.46586433030E+01  0.51100000000E-03 0.  1.
        -12    1    3    3    0    0  0.15200826627E+02  0.14058387861E+02 -0.20309641486E+02  0.29003188389E+02  0.00000000000E+00 0.  1.
</event>
<event>
 7    1  0.3546023E-010  0.4778727E+02  0.7816164E-02  0.1312668E+00
        -11   -1    0    0    0    0  0.00000000000E+00  0.00000000000E+00  0.45593999997E+02  0.45594000000E+02  0.51100000000E-03 0.  1.
         11   -1    0    0    0    0 -0.00000000000E+00 -0.00000000000E+00 -0.45593999997E+02  0.45594000000E+02  0.51100000000E-03 0. -1.
    9900012    2    1    2    0    0  0.11559224488E+02  0.38479627380E+02 -0.16411148845E+02  0.47787271890E+02  0.20000003857E+02 0.  0.
        -12    1    1    2    0    0 -0.11559224488E+02 -0.38479627380E+02  0.16411148845E+02  0.43400728110E+02  0.00000000000E+00 0.  1.
         11    1    3    3    0    0  0.84498104246E+01  0.19532265621E+02 -0.90149752688E+01  0.23112301396E+02  0.51100000000E-03 0. -1.
        -11    1    3    3    0    0  0.99508301693E+00  0.11133646397E+02  0.29286090412E+01  0.11555302829E+02  0.51100000000E-03 0.  1.
        -12    1    3    3    0    0  0.21143310461E+01  0.78137153626E+01 -0.10324782617E+02  0.13119667665E+02  0.00000000000E+00 0.  1.
</event>
<event>
 7    1  0.2983653E-010  0.4778727E+02  0.7816164E-02  0.1312668E+00
        -11   -1    0    0    0    0  0.00000000000E+00  0.00000000000E+00  0.45593999997E+02  0.45594000000E+02  0.51100000000E-03 0.  1.
         11   -1    0    0    0    0 -0.00000000000E+00 -0.00000000000E+00 -0.45593999997E+02  0.45594000000E+02  0.51100000000E-03 0. -1.
    9900012    2    1    2    0    0 -0.25497654780E+01  0.50816883633E+01 -0.43026719152E+02  0.47787269342E+02  0.19999992240E+02 0.  0.
        -12    1    1    2    0    0  0.25497654780E+01 -0.50816883633E+01  0.43026719152E+02  0.43400730658E+02  0.00000000000E+00 0.  1.
         11    1    3    3    0    0 -0.75190772103E+01  0.89288837105E+00 -0.86159587939E+01  0.11470332076E+02  0.51100000000E-03 0. -1.
        -11    1    3    3    0    0 -0.28440065520E+01  0.49536684842E+00 -0.68656552978E+01  0.74478845662E+01  0.51100000000E-03 0.  1.
         12    1    3    3    0    0  0.78133182843E+01  0.36934331438E+01 -0.27545105061E+02  0.28869052700E+02  0.00000000000E+00 0. -1.
</event>
<event>
 7    1  0.2983653E-010  0.4778727E+02  0.7816164E-02  0.1312668E+00
        -11   -1    0    0    0    0  0.00000000000E+00  0.00000000000E+00  0.45593999997E+02  0.45594000000E+02  0.51100000000E-03 0.  1.
         11   -1    0    0    0    0 -0.00000000000E+00 -0.00000000000E+00 -0.45593999997E+02  0.45594000000E+02  0.51100000000E-03 0. -1.
    9900012    2    1    2    0    0  0.32553481959E+02 -0.82177786454E+01 -0.27502036821E+02  0.47787273015E+02  0.20000008985E+02 0.  0.
        -12    1    1    2    0    0 -0.32553481959E+02  0.82177786454E+01  0.27502036821E+02  0.43400726985E+02  0.00000000000E+00 0.  1.
         11    1    3    3    0    0  0.15917642750E+02  0.24928960175E+01 -0.71419690676E+01  0.17623666012E+02  0.51100000000E-03 0. -1.
        -11    1    3    3    0    0  0.49227604375E+01  0.54201617654E+00 -0.12975463633E+01  0.51196658764E+01  0.51100000000E-03 0.  1.
         12    1    3    3    0    0  0.11713078772E+02 -0.11252690839E+02 -0.19062521390E+02  0.25043941127E+02  0.00000000000E+00 0. -1.
</event>
<event>
 7    1  0.2983653E-010  0.4778728E+02  0.7816164E-02  0.1312668E+00
        -11   -1    0    0    0    0  0.00000000000E+00  0.00000000000E+00  0.45593999997E+02  0.45594000000E+02  0.51100000000E-03 0.  1.
         11   -1    0    0    0    0 -0.00000000000E+00 -0.00000000000E+00 -0.45593999997E+02  0.45594000000E+02  0.51100000000E-03 0. -1.
    9900012    2    1    2    0    0 -0.37132263760E+02 -0.57906744903E+01 -0.21709121481E+02  0.47787275600E+02  0.20000020770E+02 0.  0.
        -12    1    1    2    0    0  0.37132263760E+02  0.57906744903E+01  0.21709121481E+02  0.43400724400E+02  0.00000000000E+00 0.  1.
         11    1    3    3    0    0 -0.43947716497E+01 -0.56800670498E+01 -0.25116970976E+01  0.76082719532E+01  0.51100000000E-03 0. -1.
        -11    1    3    3    0    0 -0.25825382696E+01 -0.39294092767E+01 -0.41080501808E+01  0.62438640061E+01  0.51100000000E-03 0.  1.
         12    1    3    3    0    0 -0.30154953841E+02  0.38188018361E+01 -0.15089374202E+02  0.33935139640E+02  0.00000000000E+00 0. -1.
</event>
<event>
 7    1  0.2983653E-010  0.4778724E+02  0.7816164E-02  0.1312668E+00
        -11   -1    0    0    0    0  0.00000000000E+00  0.00000000000E+00  0.45593999997E+02  0.45594000000E+02  0.51100000000E-03 0.  1.
         11   -1    0    0    0    0 -0.00000000000E+00 -0.00000000000E+00 -0.45593999997E+02  0.45594000000E+02  0.51100000000E-03 0. -1.
    9900012    2    1    2    0    0  0.33276151710E+02  0.24458094614E+02 -0.13346362737E+02  0.47787238911E+02  0.19999853490E+02 0.  0.
        -12    1    1    2    0    0 -0.33276151710E+02 -0.24458094614E+02  0.13346362737E+02  0.43400761089E+02  0.00000000000E+00 0.  1.
         11    1    3    3    0    0  0.28731664751E+01 -0.12622499310E+01  0.21883164122E+01  0.38258449345E+01  0.51100000000E-03 0. -1.
        -11    1    3    3    0    0  0.53695591150E+00  0.22222120683E+01 -0.33464533198E+01  0.40528136165E+01  0.51100000000E-03 0.  1.
         12    1    3    3    0    0  0.29866029324E+02  0.23498132477E+02 -0.12188225829E+02  0.39908580360E+02  0.00000000000E+00 0. -1.
</event>
<event>
 7    1  0.2983653E-010  0.4778727E+02  0.7816164E-02  0.1312668E+00
        -11   -1    0    0    0    0  0.00000000000E+00  0.00000000000E+00  0.45593999997E+02  0.45594000000E+02  0.51100000000E-03 0. -1.
         11   -1    0    0    0    0 -0.00000000000E+00 -0.00000000000E+00 -0.45593999997E+02  0.45594000000E+02  0.51100000000E-03 0.  1.
    9900012    2    1    2    0    0  0.27370097228E+02  0.32210699169E+02  0.98474243730E+01  0.47787272702E+02  0.20000007556E+02 0.  0.
        -12    1    1    2    0    0 -0.27370097228E+02 -0.32210699169E+02 -0.98474243730E+01  0.43400727298E+02  0.00000000000E+00 0.  1.
         11    1    3    3    0    0  0.67754898455E+01  0.11216864607E+02 -0.42132475706E+01  0.13765056106E+02  0.51100000000E-03 0. -1.
        -11    1    3    3    0    0  0.61575942604E+01  0.11230653765E+02  0.23416416100E+01  0.13020247185E+02  0.51100000000E-03 0.  1.
         12    1    3    3    0    0  0.14437013122E+02  0.97631807979E+01  0.11719030334E+02  0.21001969411E+02  0.00000000000E+00 0. -1.
</event>
<event>
 7    1  0.3744471E-010  0.4778728E+02  0.7816164E-02  0.1312668E+00
        -11   -1    0    0    0    0  0.00000000000E+00  0.00000000000E+00  0.45593999997E+02  0.45594000000E+02  0.51100000000E-03 0.  1.
         11   -1    0    0    0    0 -0.00000000000E+00 -0.00000000000E+00 -0.45593999997E+02  0.45594000000E+02  0.51100000000E-03 0. -1.
    9900012    2    1    2    0    0  0.34216999124E+02  0.26233409881E+02 -0.49626642109E+01  0.47787275822E+02  0.20000021784E+02 0.  0.
        -12    1    1    2    0    0 -0.34216999124E+02 -0.26233409881E+02  0.49626642109E+01  0.43400724178E+02  0.00000000000E+00 0.  1.
         11    1    3    3    0    0  0.62420196801E+01  0.76259778857E+01 -0.68444107273E+00  0.98786035573E+01  0.51100000000E-03 0. -1.
        -11    1    3    3    0    0  0.19915256222E+02  0.20601015595E+02 -0.18991373038E+00  0.28654063262E+02  0.51100000000E-03 0.  1.
        -12    1    3    3    0    0  0.80597232222E+01 -0.19935835994E+01 -0.40883094078E+01  0.92546090031E+01  0.00000000000E+00 0.  1.
</event>
<event>
 7    1  0.2983653E-010  0.4778728E+02  0.7816164E-02  0.1312668E+00
        -11   -1    0    0    0    0  0.00000000000E+00  0.00000000000E+00  0.45593999997E+02  0.45594000000E+02  0.51100000000E-03 0.  1.
         11   -1    0    0    0    0 -0.00000000000E+00 -0.00000000000E+00 -0.45593999997E+02  0.45594000000E+02  0.51100000000E-03 0. -1.
    9900012    2    1    2    0    0  0.32273197899E-01  0.22584042487E+02 -0.37061874582E+02  0.47787279221E+02  0.20000037280E+02 0.  0.
        -12    1    1    2    0    0 -0.32273197899E-01 -0.22584042487E+02  0.37061874582E+02  0.43400720779E+02  0.00000000000E+00 0.  1.
         11    1    3    3    0    0  0.54966359421E+01  0.18375145991E+02 -0.17786209343E+02  0.26157374484E+02  0.51100000000E-03 0. -1.
        -11    1    3    3    0    0 -0.34014088403E+01  0.16446517177E+00 -0.24308952114E+01  0.41840031886E+01  0.51100000000E-03 0.  1.
         12    1    3    3    0    0 -0.20629539038E+01  0.40444313249E+01 -0.16844770027E+02  0.17445901548E+02  0.00000000000E+00 0. -1.
</event>
<event>
 7    1  0.2983653E-010  0.4778727E+02  0.7816164E-02  0.1312668E+00
        -11   -1    0    0    0    0  0.00000000000E+00  0.00000000000E+00  0.45593999997E+02  0.45594000000E+02  0.51100000000E-03 0.  1.
         11   -1    0    0    0    0 -0.00000000000E+00 -0.00000000000E+00 -0.45593999997E+02  0.45594000000E+02  0.51100000000E-03 0. -1.
    9900012    2    1    2    0    0  0.33133276620E+02 -0.67832392701E+01 -0.27199207846E+02  0.47787271181E+02  0.20000000621E+02 0.  0.
        -12    1    1    2    0    0 -0.33133276620E+02  0.67832392701E+01  0.27199207846E+02  0.43400728819E+02  0.00000000000E+00 0.  1.
         11    1    3    3    0    0  0.19461023052E+02 -0.10373732871E+02 -0.13259181114E+02  0.25732307242E+02  0.51100000000E-03 0. -1.
        -11    1    3    3    0    0  0.20999616091E+01  0.38198820282E+01 -0.78424910897E+01  0.89725138185E+01  0.51100000000E-03 0.  1.
         12    1    3    3    0    0  0.11572291959E+02 -0.22938842718E+00 -0.60975356426E+01  0.13082450120E+02  0.00000000000E+00 0. -1.
</event>
<event>
 7    1  0.2983653E-010  0.4778727E+02  0.7816164E-02  0.1312668E+00
        -11   -1    0    0    0    0  0.00000000000E+00  0.00000000000E+00  0.45593999997E+02  0.45594000000E+02  0.51100000000E-03 0. -1.
         11   -1    0    0    0    0 -0.00000000000E+00 -0.00000000000E+00 -0.45593999997E+02  0.45594000000E+02  0.51100000000E-03 0.  1.
    9900012    2    1    2    0    0  0.33458241753E+02  0.14219178243E+02  0.23706216896E+02  0.47787266244E+02  0.19999978111E+02 0.  0.
        -12    1    1    2    0    0 -0.33458241753E+02 -0.14219178243E+02 -0.23706216896E+02  0.43400733756E+02  0.00000000000E+00 0.  1.
         11    1    3    3    0    0  0.17058938240E+02  0.12075091152E+01  0.15985024797E+02  0.23409110837E+02  0.51100000000E-03 0. -1.
        -11    1    3    3    0    0  0.32518371578E+01  0.30086246386E+01 -0.23654304761E+01  0.50221040128E+01  0.51100000000E-03 0.  1.
         12    1    3    3    0    0  0.13147466354E+02  0.10003044489E+02  0.10086622575E+02  0.19356051394E+02  0.00000000000E+00 0. -1.
</event>
<event>
 7    1  0.2983653E-010  0.4778722E+02  0.7816164E-02  0.1312668E+00
        -11   -1    0    0    0    0  0.00000000000E+00  0.00000000000E+00  0.45593999997E+02  0.45594000000E+02  0.51100000000E-03 0.  1.
         11   -1    0    0    0    0 -0.00000000000E+00 -0.00000000000E+00 -0.45593999997E+02  0.45594000000E+02  0.51100000000E-03 0. -1.
    9900012    2    1    2    0    0  0.24466831539E+02  0.34643894660E+02  0.92088450667E+01  0.47787215327E+02  0.19999745961E+02 0.  0.
        -12    1    1    2    0    0 -0.24466831539E+02 -0.34643894660E+02 -0.92088450667E+01  0.43400784673E+02  0.00000000000E+00 0.  1.
         11    1    3    3    0    0  0.92113013755E+01  0.22087329389E+02  0.10934888790E+02  0.26311024034E+02  0.51100000000E-03 0.  1.
        -11    1    3    3    0    0  0.28635713814E+01  0.62307830676E+01  0.18662994041E+01  0.71067413361E+01  0.51100000000E-03 0. -1.
         12    1    3    3    0    0  0.12391958782E+02  0.63257822027E+01 -0.35923431275E+01  0.14369449957E+02  0.00000000000E+00 0. -1.
</event>
<event>
 7    1  0.2983653E-010  0.4778727E+02  0.7816164E-02  0.1312668E+00
        -11   -1    0    0    0    0  0.00000000000E+00  0.00000000000E+00  0.45593999997E+02  0.45594000000E+02  0.51100000000E-03 0. -1.
         11   -1    0    0    0    0 -0.00000000000E+00 -0.00000000000E+00 -0.45593999997E+02  0.45594000000E+02  0.51100000000E-03 0.  1.
    9900012    2    1    2    0    0 -0.27259688400E+02 -0.86888191032E+01  0.32634913439E+02  0.47787265395E+02  0.19999974244E+02 0.  0.
        -12    1    1    2    0    0  0.27259688400E+02  0.86888191032E+01 -0.32634913439E+02  0.43400734605E+02  0.00000000000E+00 0.  1.
         11    1    3    3    0    0 -0.20752995164E+02 -0.11069726550E+02  0.22400616501E+02  0.32480967874E+02  0.51100000000E-03 0. -1.
        -11    1    3    3    0    0 -0.34377570549E+00  0.39874059522E+01  0.10638198142E+01  0.41411714311E+01  0.51100000000E-03 0.  1.
         12    1    3    3    0    0 -0.61629175310E+01 -0.16064985059E+01  0.91704771230E+01  0.11165126090E+02  0.00000000000E+00 0. -1.
</event>
<event>
 7    1  0.2983653E-010  0.4778727E+02  0.7816164E-02  0.1312668E+00
        -11   -1    0    0    0    0  0.00000000000E+00  0.00000000000E+00  0.45593999997E+02  0.45594000000E+02  0.51100000000E-03 0.  1.
         11   -1    0    0    0    0 -0.00000000000E+00 -0.00000000000E+00 -0.45593999997E+02  0.45594000000E+02  0.51100000000E-03 0. -1.
    9900012    2    1    2    0    0  0.34193701184E+02 -0.20812000212E+02  0.16771250074E+02  0.47787269793E+02  0.19999994292E+02 0.  0.
        -12    1    1    2    0    0 -0.34193701184E+02  0.20812000212E+02 -0.16771250074E+02  0.43400730207E+02  0.00000000000E+00 0.  1.
         11    1    3    3    0    0  0.16195730728E+02 -0.13332721355E+02  0.14854460039E+02  0.25704438058E+02  0.51100000000E-03 0. -1.
        -11    1    3    3    0    0  0.37234927805E+01  0.23890783381E+01  0.16664563214E+01  0.47274909545E+01  0.51100000000E-03 0.  1.
         12    1    3    3    0    0  0.14274477675E+02 -0.98683571950E+01  0.25033371334E+00  0.17355340780E+02  0.00000000000E+00 0. -1.
</event>
<event>
 7    1  0.2983653E-010  0.4778727E+02  0.7816164E-02  0.1312668E+00
        -11   -1    0    0    0    0  0.00000000000E+00  0.00000000000E+00  0.45593999997E+02  0.45594000000E+02  0.51100000000E-03 0. -1.
         11   -1    0    0    0    0 -0.00000000000E+00 -0.00000000000E+00 -0.45593999997E+02  0.45594000000E+02  0.51100000000E-03 0.  1.
    9900012    2    1    2    0    0 -0.19424259793E+01  0.32304058836E+02  0.28918826570E+02  0.47787265373E+02  0.19999974143E+02 0.  0.
        -12    1    1    2    0    0  0.19424259793E+01 -0.32304058836E+02 -0.28918826570E+02  0.43400734627E+02  0.00000000000E+00 0.  1.
         11    1    3    3    0    0 -0.51912689788E+01  0.10357609281E+01  0.71615571530E+01  0.89056148259E+01  0.51100000000E-03 0. -1.
        -11    1    3    3    0    0  0.14227996665E+01  0.24053493324E+02  0.19797854596E+02  0.31185733066E+02  0.51100000000E-03 0.  1.
        -12    1    3    3    0    0  0.18260433330E+01  0.72148045845E+01  0.19594148202E+01  0.76959174816E+01  0.00000000000E+00 0.  1.
</event>
<event>
 7    1  0.2983653E-010  0.4778727E+02  0.7816164E-02  0.1312668E+00
        -11   -1    0    0    0    0  0.00000000000E+00  0.00000000000E+00  0.45593999997E+02  0.45594000000E+02  0.51100000000E-03 0.  1.
         11   -1    0    0    0    0 -0.00000000000E+00 -0.00000000000E+00 -0.45593999997E+02  0.45594000000E+02  0.51100000000E-03 0. -1.
    9900012    2    1    2    0    0  0.12143027924E+02  0.40186677394E+02 -0.11009142555E+02  0.47787269742E+02  0.19999994062E+02 0.  0.
        -12    1    1    2    0    0 -0.12143027924E+02 -0.40186677394E+02  0.11009142555E+02  0.43400730258E+02  0.00000000000E+00 0.  1.
         11    1    3    3    0    0  0.28918686561E+01  0.16822503912E+02  0.40885463108E+00  0.17074153114E+02  0.51100000000E-03 0. -1.
        -11    1    3    3    0    0  0.89519609447E+01  0.85410942112E+01 -0.98295863552E+01  0.15802172738E+02  0.51100000000E-03 0.  1.
        -12    1    3    3    0    0  0.29919832278E+00  0.14823079271E+02 -0.15884108310E+01  0.14910943890E+02  0.00000000000E+00 0.  1.
</event>
<event>
 7    1  0.2983653E-010  0.4778727E+02  0.7816164E-02  0.1312668E+00
        -11   -1    0    0    0    0  0.00000000000E+00  0.00000000000E+00  0.45593999997E+02  0.45594000000E+02  0.51100000000E-03 0. -1.
         11   -1    0    0    0    0 -0.00000000000E+00 -0.00000000000E+00 -0.45593999997E+02  0.45594000000E+02  0.51100000000E-03 0.  1.
    9900012    2    1    2    0    0  0.34518684270E+02 -0.23358288802E+02  0.12102647500E+02  0.47787270790E+02  0.19999998838E+02 0.  0.
        -12    1    1    2    0    0 -0.34518684270E+02  0.23358288802E+02 -0.12102647500E+02  0.43400729210E+02  0.00000000000E+00 0.  1.
         11    1    3    3    0    0  0.18093541477E+02 -0.19351157737E+02  0.18314828401E+01  0.26555562103E+02  0.51100000000E-03 0. -1.
        -11    1    3    3    0    0  0.11187580412E+02 -0.44257897554E+01  0.10505349779E+02  0.15972224162E+02  0.51100000000E-03 0.  1.
         12    1    3    3    0    0  0.52375623812E+01  0.41865869068E+00 -0.23418511935E+00  0.52594845248E+01  0.00000000000E+00 0. -1.
</event>
<event>
 7    1  0.2983653E-010  0.4778727E+02  0.7816164E-02  0.1312668E+00
        -11   -1    0    0    0    0  0.00000000000E+00  0.00000000000E+00  0.45593999997E+02  0.45594000000E+02  0.51100000000E-03 0.  1.
         11   -1    0    0    0    0 -0.00000000000E+00 -0.00000000000E+00 -0.45593999997E+02  0.45594000000E+02  0.51100000000E-03 0. -1.
    9900012    2    1    2    0    0 -0.39620505363E+02 -0.17115151785E+02 -0.45728048062E+01  0.47787269480E+02  0.19999992867E+02 0.  0.
        -12    1    1    2    0    0  0.39620505363E+02  0.17115151785E+02  0.45728048062E+01  0.43400730520E+02  0.00000000000E+00 0.  1.
         11    1    3    3    0    0 -0.10437438911E+02 -0.11573666523E+02  0.16623226646E+01  0.15673327812E+02  0.51100000000E-03 0. -1.
        -11    1    3    3    0    0 -0.71736792348E+01 -0.20314688707E+00  0.28369475852E+01  0.77169433251E+01  0.51100000000E-03 0.  1.
         12    1    3    3    0    0 -0.22009387218E+02 -0.53383383747E+01 -0.90720750560E+01  0.24396998342E+02  0.00000000000E+00 0. -1.
</event>
<event>
 7    1  0.2983653E-010  0.4778730E+02  0.7816164E-02  0.1312668E+00
        -11   -1    0    0    0    0  0.00000000000E+00  0.00000000000E+00  0.45593999997E+02  0.45594000000E+02  0.51100000000E-03 0.  1.
         11   -1    0    0    0    0 -0.00000000000E+00 -0.00000000000E+00 -0.45593999997E+02  0.45594000000E+02  0.51100000000E-03 0. -1.
    9900012    2    1    2    0    0  0.36040194492E+02 -0.11709419164E+02 -0.21156912346E+02  0.47787296593E+02  0.20000116486E+02 0.  0.
        -12    1    1    2    0    0 -0.36040194492E+02  0.11709419164E+02  0.21156912346E+02  0.43400703407E+02  0.00000000000E+00 0.  1.
         11    1    3    3    0    0  0.17885592230E+02 -0.12272743474E+02 -0.17367175789E+02  0.27787289125E+02  0.51100000000E-03 0. -1.
        -11    1    3    3    0    0  0.13908454996E+02  0.34558956533E+01 -0.16192027019E+01  0.14422557082E+02  0.51100000000E-03 0.  1.
        -12    1    3    3    0    0  0.42461472666E+01 -0.28925713440E+01 -0.21705338554E+01  0.55774503859E+01  0.00000000000E+00 0.  1.
</event>
<event>
 7    1  0.2983653E-010  0.4778727E+02  0.7816164E-02  0.1312668E+00
        -11   -1    0    0    0    0  0.00000000000E+00  0.00000000000E+00  0.45593999997E+02  0.45594000000E+02  0.51100000000E-03 0.  1.
         11   -1    0    0    0    0 -0.00000000000E+00 -0.00000000000E+00 -0.45593999997E+02  0.45594000000E+02  0.51100000000E-03 0. -1.
    9900012    2    1    2    0    0  0.33472565141E+02  0.25452605919E+02 -0.10741299559E+02  0.47787270957E+02  0.19999999602E+02 0.  0.
        -12    1    1    2    0    0 -0.33472565141E+02 -0.25452605919E+02  0.10741299559E+02  0.43400729043E+02  0.00000000000E+00 0.  1.
         11    1    3    3    0    0  0.17687627457E+02  0.47565435566E+01  0.11179900628E+01  0.18350116449E+02  0.51100000000E-03 0. -1.
        -11    1    3    3    0    0  0.23813269546E+01  0.84744366780E+01 -0.39871780756E+01  0.96635596103E+01  0.51100000000E-03 0.  1.
         12    1    3    3    0    0  0.13403610730E+02  0.12221625685E+02 -0.78721115463E+01  0.19773594898E+02  0.00000000000E+00 0. -1.
</event>
<event>
 7    1  0.2983653E-010  0.4778728E+02  0.7816164E-02  0.1312668E+00
        -11   -1    0    0    0    0  0.00000000000E+00  0.00000000000E+00  0.45593999997E+02  0.45594000000E+02  0.51100000000E-03 0.  1.
         11   -1    0    0    0    0 -0.00000000000E+00 -0.00000000000E+00 -0.45593999997E+02  0.45594000000E+02  0.51100000000E-03 0. -1.
    9900012    2    1    2    0    0 -0.43054937079E+02 -0.16094721381E+01 -0.52254102305E+01  0.47787275127E+02  0.20000018616E+02 0.  0.
        -12    1    1    2    0    0  0.43054937079E+02  0.16094721381E+01  0.52254102305E+01  0.43400724873E+02  0.00000000000E+00 0.  1.
         11    1    3    3    0    0 -0.27139695607E+02 -0.65652456686E+00 -0.86120344162E+01  0.28480892528E+02  0.51100000000E-03 0. -1.
        -11    1    3    3    0    0 -0.69859100769E+01 -0.33737660531E+01 -0.27201611497E+01  0.82209801073E+01  0.51100000000E-03 0.  1.
         12    1    3    3    0    0 -0.89293313949E+01  0.24208184819E+01  0.61067853354E+01  0.11085402492E+02  0.00000000000E+00 0. -1.
</event>
<event>
 7    1  0.2983653E-010  0.4778727E+02  0.7816164E-02  0.1312668E+00
        -11   -1    0    0    0    0  0.00000000000E+00  0.00000000000E+00  0.45593999997E+02  0.45594000000E+02  0.51100000000E-03 0. -1.
         11   -1    0    0    0    0 -0.00000000000E+00 -0.00000000000E+00 -0.45593999997E+02  0.45594000000E+02  0.51100000000E-03 0.  1.
    9900012    2    1    2    0    0  0.56413608643E+01  0.61628896651E+00  0.43028113933E+02  0.47787270132E+02  0.19999995838E+02 0.  0.
        -12    1    1    2    0    0 -0.56413608643E+01 -0.61628896651E+00 -0.43028113933E+02  0.43400729868E+02  0.00000000000E+00 0.  1.
         11    1    3    3    0    0  0.10474526980E+02  0.14251885220E+01  0.37449243370E+02  0.38912629146E+02  0.51100000000E-03 0. -1.
        -11    1    3    3    0    0 -0.18994381624E+01  0.41283074996E+00 -0.50714966099E+00  0.20088543005E+01  0.51100000000E-03 0.  1.
         12    1    3    3    0    0 -0.29337279535E+01 -0.12217303055E+01  0.60860202239E+01  0.68657866855E+01  0.00000000000E+00 0. -1.
</event>
<event>
 7    1  0.3814635E-010  0.4778727E+02  0.7816164E-02  0.1312668E+00
        -11   -1    0    0    0    0  0.00000000000E+00  0.00000000000E+00  0.45593999997E+02  0.45594000000E+02  0.51100000000E-03 0. -1.
         11   -1    0    0    0    0 -0.00000000000E+00 -0.00000000000E+00 -0.45593999997E+02  0.45594000000E+02  0.51100000000E-03 0.  1.
    9900012    2    1    2    0    0  0.41434211253E+02  0.12906468283E+02 -0.50239132098E+00  0.47787272095E+02  0.20000004789E+02 0.  0.
        -12    1    1    2    0    0 -0.41434211253E+02 -0.12906468283E+02  0.50239132098E+00  0.43400727905E+02  0.00000000000E+00 0.  1.
         11    1    3    3    0    0  0.24113055735E+02  0.84185078959E+01  0.10592092077E+01  0.25562328855E+02  0.51100000000E-03 0. -1.
        -11    1    3    3    0    0  0.21621574316E+00  0.28788076701E+01 -0.39359503534E+01  0.48811871809E+01  0.51100000000E-03 0.  1.
        -12    1    3    3    0    0  0.17104939775E+02  0.16091527168E+01  0.23743498248E+01  0.17343756059E+02  0.00000000000E+00 0.  1.
</event>
<event>
 7    1  0.2983653E-010  0.4778725E+02  0.7816164E-02  0.1312668E+00
        -11   -1    0    0    0    0  0.00000000000E+00  0.00000000000E+00  0.45593999997E+02  0.45594000000E+02  0.51100000000E-03 0.  1.
         11   -1    0    0    0    0 -0.00000000000E+00 -0.00000000000E+00 -0.45593999997E+02  0.45594000000E+02  0.51100000000E-03 0. -1.
    9900012    2    1    2    0    0  0.31485480670E+02  0.81289031815E+01 -0.28743883128E+02  0.47787246813E+02  0.19999889518E+02 0.  0.
        -12    1    1    2    0    0 -0.31485480670E+02 -0.81289031815E+01  0.28743883128E+02  0.43400753187E+02  0.00000000000E+00 0.  1.
         11    1    3    3    0    0  0.55669096504E+01  0.10177434145E+02 -0.84909777700E+01  0.14375929625E+02  0.51100000000E-03 0. -1.
        -11    1    3    3    0    0  0.18949405631E+02 -0.38347779415E+01 -0.13877663063E+02  0.23798635002E+02  0.51100000000E-03 0.  1.
         12    1    3    3    0    0  0.69691653890E+01  0.17862469775E+01 -0.63752422944E+01  0.96126821854E+01  0.00000000000E+00 0. -1.
</event>
<event>
 7    1  0.2983653E-010  0.4778727E+02  0.7816164E-02  0.1312668E+00
        -11   -1    0    0    0    0  0.00000000000E+00  0.00000000000E+00  0.45593999997E+02  0.45594000000E+02  0.51100000000E-03 0. -1.
         11   -1    0    0    0    0 -0.00000000000E+00 -0.00000000000E+00 -0.45593999997E+02  0.45594000000E+02  0.51100000000E-03 0.  1.
    9900012    2    1    2    0    0 -0.30356820966E+02 -0.19419745003E+02  0.24185950948E+02  0.47787270762E+02  0.19999998713E+02 0.  0.
        -12    1    1    2    0    0  0.30356820966E+02  0.19419745003E+02 -0.24185950948E+02  0.43400729238E+02  0.00000000000E+00 0.  1.
         11    1    3    3    0    0 -0.16271445791E+02 -0.17758551214E+02  0.14206713182E+02  0.27963490288E+02  0.51100000000E-03 0. -1.
        -11    1    3    3    0    0 -0.15411423699E+02 -0.10928083147E+01  0.99574493508E+01  0.18380887037E+02  0.51100000000E-03 0.  1.
         12    1    3    3    0    0  0.13260485244E+01 -0.56838547485E+00  0.21788414574E-01  0.14428934375E+01  0.00000000000E+00 0. -1.
</event>
<event>
 7    1  0.2983653E-010  0.4778727E+02  0.7816164E-02  0.1312668E+00
        -11   -1    0    0    0    0  0.00000000000E+00  0.00000000000E+00  0.45593999997E+02  0.45594000000E+02  0.51100000000E-03 0.  1.
         11   -1    0    0    0    0 -0.00000000000E+00 -0.00000000000E+00 -0.45593999997E+02  0.45594000000E+02  0.51100000000E-03 0. -1.
    9900012    2    1    2    0    0 -0.75153203111E+01 -0.42743628952E+02  0.35422524470E+00  0.47787270388E+02  0.19999997005E+02 0.  0.
        -12    1    1    2    0    0  0.75153203111E+01  0.42743628952E+02 -0.35422524470E+00  0.43400729612E+02  0.00000000000E+00 0.  1.
         11    1    3    3    0    0 -0.18843841952E+01 -0.11626758174E+02  0.16589731213E+01  0.11894729989E+02  0.51100000000E-03 0. -1.
        -11    1    3    3    0    0  0.58091775362E+01 -0.11156100416E+02  0.16928648584E+01  0.12691371550E+02  0.51100000000E-03 0.  1.
        -12    1    3    3    0    0 -0.11440113652E+02 -0.19960770363E+02 -0.29976127350E+01  0.23201168849E+02  0.00000000000E+00 0.  1.
</event>
<event>
 7    1  0.2983653E-010  0.4778728E+02  0.7816164E-02  0.1312668E+00
        -11   -1    0    0    0    0  0.00000000000E+00  0.00000000000E+00  0.45593999997E+02  0.45594000000E+02  0.51100000000E-03 0.  1.
         11   -1    0    0    0    0 -0.00000000000E+00 -0.00000000000E+00 -0.45593999997E+02  0.45594000000E+02  0.51100000000E-03 0. -1.
    9900012    2    1    2    0    0  0.12210347511E+02  0.30451881701E+02 -0.28411491725E+02  0.47787279412E+02  0.20000038152E+02 0.  0.
        -12    1    1    2    0    0 -0.12210347511E+02 -0.30451881701E+02  0.28411491725E+02  0.43400720588E+02  0.00000000000E+00 0.  1.
         11    1    3    3    0    0  0.92034910748E+01  0.22346625229E+02 -0.11000454377E+02  0.26553453709E+02  0.51100000000E-03 0.  1.
        -11    1    3    3    0    0  0.43864563539E+01  0.16306734724E+01 -0.11274570657E+02  0.12207212584E+02  0.51100000000E-03 0. -1.
         12    1    3    3    0    0 -0.13795999174E+01  0.64745829997E+01 -0.61364666913E+01  0.90266131193E+01  0.00000000000E+00 0. -1.
</event>
<event>
 7    1  0.2983653E-010  0.4778727E+02  0.7816164E-02  0.1312668E+00
        -11   -1    0    0    0    0  0.00000000000E+00  0.00000000000E+00  0.45593999997E+02  0.45594000000E+02  0.51100000000E-03 0.  1.
         11   -1    0    0    0    0 -0.00000000000E+00 -0.00000000000E+00 -0.45593999997E+02  0.45594000000E+02  0.51100000000E-03 0. -1.
    9900012    2    1    2    0    0  0.23568467642E+02  0.23305853305E+02 -0.28017636177E+02  0.47787269566E+02  0.19999993261E+02 0.  0.
        -12    1    1    2    0    0 -0.23568467642E+02 -0.23305853305E+02  0.28017636177E+02  0.43400730434E+02  0.00000000000E+00 0.  1.
         11    1    3    3    0    0  0.72286637416E+01  0.60318435492E+00 -0.61145598259E+01  0.94871098329E+01  0.51100000000E-03 0. -1.
        -11    1    3    3    0    0  0.42787033563E+01 -0.12852896996E+01 -0.42576826896E+01  0.61714774705E+01  0.51100000000E-03 0.  1.
        -12    1    3    3    0    0  0.12061100544E+02  0.23987958650E+02 -0.17645393661E+02  0.32128682263E+02  0.00000000000E+00 0.  1.
</event>
<event>
 7    1  0.2983653E-010  0.4778727E+02  0.7816164E-02  0.1312668E+00
        -11   -1    0    0    0    0  0.00000000000E+00  0.00000000000E+00  0.45593999997E+02  0.45594000000E+02  0.51100000000E-03 0. -1.
         11   -1    0    0    0    0 -0.00000000000E+00 -0.00000000000E+00 -0.45593999997E+02  0.45594000000E+02  0.51100000000E-03 0.  1.
    9900012    2    1    2    0    0 -0.22813620808E+02  0.13702614705E+01  0.36895587407E+02  0.47787270962E+02  0.19999999625E+02 0.  0.
        -12    1    1    2    0    0  0.22813620808E+02 -0.13702614705E+01 -0.36895587407E+02  0.43400729038E+02  0.00000000000E+00 0.  1.
         11    1    3    3    0    0 -0.17416362231E+02 -0.58119250672E+00  0.29197342111E+02  0.34002238819E+02  0.51100000000E-03 0. -1.
        -11    1    3    3    0    0 -0.58473667787E+00 -0.37190827504E+01  0.13270987752E+01  0.39918272641E+01  0.51100000000E-03 0.  1.
        -12    1    3    3    0    0 -0.48125218994E+01  0.56705367276E+01  0.63711465210E+01  0.97932048790E+01  0.00000000000E+00 0.  1.
</event>
<event>
 7    1  0.2983653E-010  0.4778727E+02  0.7816164E-02  0.1312668E+00
        -11   -1    0    0    0    0  0.00000000000E+00  0.00000000000E+00  0.45593999997E+02  0.45594000000E+02  0.51100000000E-03 0.  1.
         11   -1    0    0    0    0 -0.00000000000E+00 -0.00000000000E+00 -0.45593999997E+02  0.45594000000E+02  0.51100000000E-03 0. -1.
    9900012    2    1    2    0    0 -0.27699209670E+02 -0.34153790366E+01 -0.33237213141E+02  0.47787269964E+02  0.19999995074E+02 0.  0.
        -12    1    1    2    0    0  0.27699209670E+02  0.34153790366E+01  0.33237213141E+02  0.43400730036E+02  0.00000000000E+00 0.  1.
         11    1    3    3    0    0 -0.29311417025E+02 -0.24315940602E+01 -0.23979398777E+02  0.37948430582E+02  0.51100000000E-03 0. -1.
        -11    1    3    3    0    0  0.10371569842E+01  0.64993958893E+00 -0.62437480104E+01  0.63625863890E+01  0.51100000000E-03 0.  1.
         12    1    3    3    0    0  0.57505037117E+00 -0.16337245654E+01 -0.30140663536E+01  0.34762529926E+01  0.00000000000E+00 0. -1.
</event>
<event>
 7    1  0.2983653E-010  0.4778728E+02  0.7816164E-02  0.1312668E+00
        -11   -1    0    0    0    0  0.00000000000E+00  0.00000000000E+00  0.45593999997E+02  0.45594000000E+02  0.51100000000E-03 0. -1.
         11   -1    0    0    0    0 -0.00000000000E+00 -0.00000000000E+00 -0.45593999997E+02  0.45594000000E+02  0.51100000000E-03 0.  1.
    9900012    2    1    2    0    0 -0.34963711848E+01  0.31178358712E+02  0.29988464135E+02  0.47787278294E+02  0.20000033052E+02 0.  0.
        -12    1    1    2    0    0  0.34963711848E+01 -0.31178358712E+02 -0.29988464135E+02  0.43400721706E+02  0.00000000000E+00 0.  1.
         11    1    3    3    0    0 -0.27498971404E+01  0.29293077466E+02  0.29962145482E+02  0.41992576533E+02  0.51100000000E-03 0. -1.
        -11    1    3    3    0    0  0.76493602163E+00  0.22523976395E+01 -0.20912553920E+01  0.31672972105E+01  0.51100000000E-03 0.  1.
        -12    1    3    3    0    0 -0.15114100660E+01 -0.36711639350E+00  0.21175740452E+01  0.26274045503E+01  0.00000000000E+00 0.  1.
</event>
<event>
 7    1  0.2983653E-010  0.4778727E+02  0.7816164E-02  0.1312668E+00
        -11   -1    0    0    0    0  0.00000000000E+00  0.00000000000E+00  0.45593999997E+02  0.45594000000E+02  0.51100000000E-03 0. -1.
         11   -1    0    0    0    0 -0.00000000000E+00 -0.00000000000E+00 -0.45593999997E+02  0.45594000000E+02  0.51100000000E-03 0.  1.
    9900012    2    1    2    0    0  0.30986668839E+02 -0.26869414085E+02  0.14194519917E+02  0.47787268962E+02  0.19999990504E+02 0.  0.
        -12    1    1    2    0    0 -0.30986668839E+02  0.26869414085E+02 -0.14194519917E+02  0.43400731038E+02  0.00000000000E+00 0.  1.
         11    1    3    3    0    0  0.14290552937E+02 -0.77056768828E+01  0.11894325745E+02  0.20126409134E+02  0.51100000000E-03 0. -1.
        -11    1    3    3    0    0  0.19805554708E+01 -0.69949806654E+01 -0.29676803937E+01  0.78523551666E+01  0.51100000000E-03 0.  1.
         12    1    3    3    0    0  0.14715560431E+02 -0.12168756537E+02  0.52678745660E+01  0.19808504661E+02  0.00000000000E+00 0. -1.
</event>
<event>
 7    1  0.2983653E-010  0.4778727E+02  0.7816164E-02  0.1312668E+00
        -11   -1    0    0    0    0  0.00000000000E+00  0.00000000000E+00  0.45593999997E+02  0.45594000000E+02  0.51100000000E-03 0. -1.
         11   -1    0    0    0    0 -0.00000000000E+00 -0.00000000000E+00 -0.45593999997E+02  0.45594000000E+02  0.51100000000E-03 0.  1.
    9900012    2    1    2    0    0 -0.24605524424E+02 -0.16254900692E+02  0.31842890614E+02  0.47787270613E+02  0.19999998032E+02 0.  0.
        -12    1    1    2    0    0  0.24605524424E+02  0.16254900692E+02 -0.31842890614E+02  0.43400729387E+02  0.00000000000E+00 0.  1.
         11    1    3    3    0    0 -0.18886204740E+01 -0.11990633714E+01  0.95658406539E+01  0.98239476760E+01  0.51100000000E-03 0. -1.
        -11    1    3    3    0    0 -0.18379528912E+02 -0.16660889759E+02  0.14008162145E+02  0.28488961679E+02  0.51100000000E-03 0.  1.
        -12    1    3    3    0    0 -0.43373750378E+01  0.16050524384E+01  0.82688878155E+01  0.94743612584E+01  0.00000000000E+00 0.  1.
</event>
<event>
 7    1  0.2983653E-010  0.4778727E+02  0.7816164E-02  0.1312668E+00
        -11   -1    0    0    0    0  0.00000000000E+00  0.00000000000E+00  0.45593999997E+02  0.45594000000E+02  0.51100000000E-03 0.  1.
         11   -1    0    0    0    0 -0.00000000000E+00 -0.00000000000E+00 -0.45593999997E+02  0.45594000000E+02  0.51100000000E-03 0. -1.
    9900012    2    1    2    0    0  0.11210042115E+02  0.10613536894E+02 -0.40562431928E+02  0.47787273122E+02  0.20000009472E+02 0.  0.
        -12    1    1    2    0    0 -0.11210042115E+02 -0.10613536894E+02  0.40562431928E+02  0.43400726878E+02  0.00000000000E+00 0.  1.
         11    1    3    3    0    0  0.18002719200E+01  0.11257311855E+02 -0.27357353726E+02  0.29637693101E+02  0.51100000000E-03 0. -1.
        -11    1    3    3    0    0 -0.84244812452E+00 -0.37746842743E+00 -0.48050013576E+01  0.48928764100E+01  0.51100000000E-03 0.  1.
         12    1    3    3    0    0  0.10252218320E+02 -0.26630653324E+00 -0.84000768442E+01  0.13256703611E+02  0.00000000000E+00 0. -1.
</event>
<event>
 7    1  0.2983653E-010  0.4778727E+02  0.7816164E-02  0.1312668E+00
        -11   -1    0    0    0    0  0.00000000000E+00  0.00000000000E+00  0.45593999997E+02  0.45594000000E+02  0.51100000000E-03 0.  1.
         11   -1    0    0    0    0 -0.00000000000E+00 -0.00000000000E+00 -0.45593999997E+02  0.45594000000E+02  0.51100000000E-03 0. -1.
    9900012    2    1    2    0    0  0.26711817548E+02 -0.23242464748E+02 -0.25097615149E+02  0.47787266706E+02  0.19999980220E+02 0.  0.
        -12    1    1    2    0    0 -0.26711817548E+02  0.23242464748E+02  0.25097615149E+02  0.43400733294E+02  0.00000000000E+00 0.  1.
         11    1    3    3    0    0  0.16135636161E+02 -0.20605993823E+02 -0.23977547669E+02  0.35494908483E+02  0.51100000000E-03 0. -1.
        -11    1    3    3    0    0  0.11873197479E+00  0.11157535388E+01 -0.23909879934E+00  0.11472452825E+01  0.51100000000E-03 0.  1.
         12    1    3    3    0    0  0.10457449412E+02 -0.37522244639E+01 -0.88096868017E+00  0.11145112940E+02  0.00000000000E+00 0. -1.
</event>
<event>
 7    1  0.2983653E-010  0.4778727E+02  0.7816164E-02  0.1312668E+00
        -11   -1    0    0    0    0  0.00000000000E+00  0.00000000000E+00  0.45593999997E+02  0.45594000000E+02  0.51100000000E-03 0.  1.
         11   -1    0    0    0    0 -0.00000000000E+00 -0.00000000000E+00 -0.45593999997E+02  0.45594000000E+02  0.51100000000E-03 0. -1.
    9900012    2    1    2    0    0  0.27466580444E+02  0.31778505514E+02 -0.10924143025E+02  0.47787270112E+02  0.19999995746E+02 0.  0.
        -12    1    1    2    0    0 -0.27466580444E+02 -0.31778505514E+02  0.10924143025E+02  0.43400729888E+02  0.00000000000E+00 0.  1.
         11    1    3    3    0    0 -0.21266769096E+00  0.96093216283E+01 -0.45800607128E+01  0.10647123842E+02  0.51100000000E-03 0. -1.
        -11    1    3    3    0    0  0.44400947227E+01  0.22016560471E+01 -0.40765364489E+01  0.64171551467E+01  0.51100000000E-03 0.  1.
         12    1    3    3    0    0  0.23239153412E+02  0.19967527839E+02 -0.22675458635E+01  0.30722991123E+02  0.00000000000E+00 0. -1.
</event>
<event>
 7    1  0.4760514E-010  0.4778726E+02  0.7816164E-02  0.1312668E+00
        -11   -1    0    0    0    0  0.00000000000E+00  0.00000000000E+00  0.45593999997E+02  0.45594000000E+02  0.51100000000E-03 0. -1.
         11   -1    0    0    0    0 -0.00000000000E+00 -0.00000000000E+00 -0.45593999997E+02  0.45594000000E+02  0.51100000000E-03 0.  1.
    9900012    2    1    2    0    0 -0.10476030855E+02  0.17346272417E+02  0.38379474292E+02  0.47787257654E+02  0.19999938947E+02 0.  0.
        -12    1    1    2    0    0  0.10476030855E+02 -0.17346272417E+02 -0.38379474292E+02  0.43400742346E+02  0.00000000000E+00 0.  1.
         11    1    3    3    0    0 -0.40834566148E+00  0.27321154545E+01  0.19300269495E+02  0.19496963966E+02  0.51100000000E-03 0. -1.
        -11    1    3    3    0    0 -0.23587596804E+01  0.42748317724E+01 -0.43246507713E+00  0.49015263150E+01  0.51100000000E-03 0.  1.
        -12    1    3    3    0    0 -0.77089255131E+01  0.10339325190E+02  0.19511669875E+02  0.23388767373E+02  0.00000000000E+00 0.  1.
</event>
<event>
 7    1  0.2983653E-010  0.4778727E+02  0.7816164E-02  0.1312668E+00
        -11   -1    0    0    0    0  0.00000000000E+00  0.00000000000E+00  0.45593999997E+02  0.45594000000E+02  0.51100000000E-03 0.  1.
         11   -1    0    0    0    0 -0.00000000000E+00 -0.00000000000E+00 -0.45593999997E+02  0.45594000000E+02  0.51100000000E-03 0. -1.
    9900012    2    1    2    0    0  0.12978840629E+01 -0.17362365082E+02 -0.39755339627E+02  0.47787271283E+02  0.20000001089E+02 0.  0.
        -12    1    1    2    0    0 -0.12978840629E+01  0.17362365082E+02  0.39755339627E+02  0.43400728717E+02  0.00000000000E+00 0.  1.
         11    1    3    3    0    0  0.87665972162E+00 -0.83515466414E+01 -0.14311967382E+02  0.16593651623E+02  0.51100000000E-03 0.  1.
        -11    1    3    3    0    0  0.20495759861E+01 -0.12154354483E+02 -0.24658274232E+02  0.27567364455E+02  0.51100000000E-03 0. -1.
        -12    1    3    3    0    0 -0.16283516448E+01  0.31435360421E+01 -0.78509801272E+00  0.36262552057E+01  0.00000000000E+00 0.  1.
</event>
<event>
 7    1  0.2983653E-010  0.4778728E+02  0.7816164E-02  0.1312668E+00
        -11   -1    0    0    0    0  0.00000000000E+00  0.00000000000E+00  0.45593999997E+02  0.45594000000E+02  0.51100000000E-03 0.  1.
         11   -1    0    0    0    0 -0.00000000000E+00 -0.00000000000E+00 -0.45593999997E+02  0.45594000000E+02  0.51100000000E-03 0. -1.
    9900012    2    1    2    0    0 -0.35155991952E+02 -0.20126663054E+02  0.15575510715E+02  0.47787275699E+02  0.20000021221E+02 0.  0.
        -12    1    1    2    0    0  0.35155991952E+02  0.20126663054E+02 -0.15575510715E+02  0.43400724301E+02  0.00000000000E+00 0.  1.
         11    1    3    3    0    0 -0.12049180154E+02 -0.14335831665E+02  0.10354979348E+02  0.21399168429E+02  0.51100000000E-03 0. -1.
        -11    1    3    3    0    0 -0.24062507903E+02 -0.60376189234E+01  0.46265681661E+01  0.25236130093E+02  0.51100000000E-03 0.  1.
        -12    1    3    3    0    0  0.95569610410E+00  0.24678753453E+00  0.59396320053E+00  0.11519771761E+01  0.00000000000E+00 0.  1.
</event>
<event>
 7    1  0.2983653E-010  0.4778727E+02  0.7816164E-02  0.1312668E+00
        -11   -1    0    0    0    0  0.00000000000E+00  0.00000000000E+00  0.45593999997E+02  0.45594000000E+02  0.51100000000E-03 0. -1.
         11   -1    0    0    0    0 -0.00000000000E+00 -0.00000000000E+00 -0.45593999997E+02  0.45594000000E+02  0.51100000000E-03 0.  1.
    9900012    2    1    2    0    0 -0.35179522593E+02 -0.25394590642E+02  0.10675120700E+01  0.47787266991E+02  0.19999981519E+02 0.  0.
        -12    1    1    2    0    0  0.35179522593E+02  0.25394590642E+02 -0.10675120700E+01  0.43400733009E+02  0.00000000000E+00 0.  1.
         11    1    3    3    0    0 -0.54533565034E+01 -0.12507865203E+01  0.56886348621E+01  0.79789805695E+01  0.51100000000E-03 0. -1.
        -11    1    3    3    0    0 -0.24152660986E+02 -0.13872576221E+02 -0.32487274835E+01  0.28041997686E+02  0.51100000000E-03 0.  1.
         12    1    3    3    0    0 -0.55735051030E+01 -0.10271227900E+02 -0.13723953086E+01  0.11766288735E+02  0.00000000000E+00 0. -1.
</event>
<event>
 7    1  0.2983653E-010  0.4778725E+02  0.7816164E-02  0.1312668E+00
        -11   -1    0    0    0    0  0.00000000000E+00  0.00000000000E+00  0.45593999997E+02  0.45594000000E+02  0.51100000000E-03 0.  1.
         11   -1    0    0    0    0 -0.00000000000E+00 -0.00000000000E+00 -0.45593999997E+02  0.45594000000E+02  0.51100000000E-03 0. -1.
    9900012    2    1    2    0    0 -0.41875969152E+01  0.25809849731E+02 -0.34640157315E+02  0.47787253349E+02  0.19999919321E+02 0.  0.
        -12    1    1    2    0    0  0.41875969152E+01 -0.25809849731E+02  0.34640157315E+02  0.43400746651E+02  0.00000000000E+00 0.  1.
         11    1    3    3    0    0 -0.57222334592E+01  0.66263619736E+01 -0.57150282339E+01  0.10455342019E+02  0.51100000000E-03 0. -1.
        -11    1    3    3    0    0  0.51914747806E+01  0.18242541400E+02 -0.19615674899E+02  0.27285828356E+02  0.51100000000E-03 0.  1.
        -12    1    3    3    0    0 -0.36568382367E+01  0.94094635750E+00 -0.93094541824E+01  0.10046082973E+02  0.00000000000E+00 0.  1.
</event>
<event>
 7    1  0.2983653E-010  0.4778727E+02  0.7816164E-02  0.1312668E+00
        -11   -1    0    0    0    0  0.00000000000E+00  0.00000000000E+00  0.45593999997E+02  0.45594000000E+02  0.51100000000E-03 0.  1.
         11   -1    0    0    0    0 -0.00000000000E+00 -0.00000000000E+00 -0.45593999997E+02  0.45594000000E+02  0.51100000000E-03 0. -1.
    9900012    2    1    2    0    0  0.20230536806E+02 -0.23054546636E+02 -0.30705642166E+02  0.47787271886E+02  0.20000003835E+02 0.  0.
        -12    1    1    2    0    0 -0.20230536806E+02  0.23054546636E+02  0.30705642166E+02  0.43400728114E+02  0.00000000000E+00 0.  1.
         11    1    3    3    0    0  0.15223252359E+02 -0.14137580968E+02 -0.21470395216E+02  0.29876353174E+02  0.51100000000E-03 0. -1.
        -11    1    3    3    0    0 -0.34503066748E+01 -0.37967160501E+01 -0.49716683966E+01  0.71440293828E+01  0.51100000000E-03 0.  1.
        -12    1    3    3    0    0  0.84575911218E+01 -0.51202496181E+01 -0.42635785532E+01  0.10766889329E+02  0.00000000000E+00 0.  1.
</event>
<event>
 7    1  0.2983653E-010  0.4778727E+02  0.7816164E-02  0.1312668E+00
        -11   -1    0    0    0    0  0.00000000000E+00  0.00000000000E+00  0.45593999997E+02  0.45594000000E+02  0.51100000000E-03 0.  1.
         11   -1    0    0    0    0 -0.00000000000E+00 -0.00000000000E+00 -0.45593999997E+02  0.45594000000E+02  0.51100000000E-03 0. -1.
    9900012    2    1    2    0    0 -0.83746471880E+01  0.25737632059E+02 -0.33927322702E+02  0.47787266766E+02  0.19999980493E+02 0.  0.
        -12    1    1    2    0    0  0.83746471880E+01 -0.25737632059E+02  0.33927322702E+02  0.43400733234E+02  0.00000000000E+00 0.  1.
         11    1    3    3    0    0  0.17117062708E+01  0.26445498698E+01  0.36284216057E+00  0.31709993797E+01  0.51100000000E-03 0. -1.
        -11    1    3    3    0    0  0.12312415744E+01  0.32865116098E+01 -0.95649947150E-01  0.35108778887E+01  0.51100000000E-03 0.  1.
         12    1    3    3    0    0 -0.11317595033E+02  0.19806570580E+02 -0.34194514915E+02  0.41105389498E+02  0.00000000000E+00 0. -1.
</event>
<event>
 7    1  0.3565919E-010  0.4778728E+02  0.7816164E-02  0.1312668E+00
        -11   -1    0    0    0    0  0.00000000000E+00  0.00000000000E+00  0.45593999997E+02  0.45594000000E+02  0.51100000000E-03 0.  1.
         11   -1    0    0    0    0 -0.00000000000E+00 -0.00000000000E+00 -0.45593999997E+02  0.45594000000E+02  0.51100000000E-03 0. -1.
    9900012    2    1    2    0    0  0.40258132963E+02  0.69430108053E+01  0.14652643140E+02  0.47787278580E+02  0.20000034360E+02 0.  0.
        -12    1    1    2    0    0 -0.40258132963E+02 -0.69430108053E+01 -0.14652643140E+02  0.43400721420E+02  0.00000000000E+00 0.  1.
         11    1    3    3    0    0  0.14804944342E+02  0.81397512602E+01  0.10136364232E+02  0.19702482271E+02  0.51100000000E-03 0. -1.
        -11    1    3    3    0    0  0.13773565908E+02 -0.47888136318E+01  0.60141166358E+01  0.15773821763E+02  0.51100000000E-03 0.  1.
        -12    1    3    3    0    0  0.11679622713E+02  0.35920731769E+01 -0.14978377274E+01  0.12310974547E+02  0.00000000000E+00 0.  1.
</event>
<event>
 7    1  0.2983653E-010  0.4778727E+02  0.7816164E-02  0.1312668E+00
        -11   -1    0    0    0    0  0.00000000000E+00  0.00000000000E+00  0.45593999997E+02  0.45594000000E+02  0.51100000000E-03 0.  1.
         11   -1    0    0    0    0 -0.00000000000E+00 -0.00000000000E+00 -0.45593999997E+02  0.45594000000E+02  0.51100000000E-03 0. -1.
    9900012    2    1    2    0    0 -0.33223398320E+01  0.10250333704E+01 -0.43261236536E+02  0.47787271642E+02  0.20000002724E+02 0.  0.
        -12    1    1    2    0    0  0.33223398320E+01 -0.10250333704E+01  0.43261236536E+02  0.43400728358E+02  0.00000000000E+00 0.  1.
         11    1    3    3    0    0 -0.68193748137E+01 -0.52425066057E+01 -0.18310157165E+02  0.20229918538E+02  0.51100000000E-03 0. -1.
        -11    1    3    3    0    0 -0.11646735921E+01 -0.18590767229E+01 -0.32591535858E+01  0.39287037550E+01  0.51100000000E-03 0.  1.
         12    1    3    3    0    0  0.46617085738E+01  0.81266166989E+01 -0.21691925785E+02  0.23628649349E+02  0.00000000000E+00 0. -1.
</event>
<event>
 7    1  0.2983653E-010  0.4778727E+02  0.7816164E-02  0.1312668E+00
        -11   -1    0    0    0    0  0.00000000000E+00  0.00000000000E+00  0.45593999997E+02  0.45594000000E+02  0.51100000000E-03 0.  1.
         11   -1    0    0    0    0 -0.00000000000E+00 -0.00000000000E+00 -0.45593999997E+02  0.45594000000E+02  0.51100000000E-03 0. -1.
    9900012    2    1    2    0    0 -0.20785044248E+02 -0.21396940184E+02 -0.31524213784E+02  0.47787272261E+02  0.20000005546E+02 0.  0.
        -12    1    1    2    0    0  0.20785044248E+02  0.21396940184E+02  0.31524213784E+02  0.43400727739E+02  0.00000000000E+00 0.  1.
         11    1    3    3    0    0 -0.88505640133E+00 -0.58008014662E+01 -0.13010808684E+02  0.14272833123E+02  0.51100000000E-03 0. -1.
        -11    1    3    3    0    0 -0.47598070732E+01 -0.85412425848E+00  0.78196665329E+00  0.48986491741E+01  0.51100000000E-03 0.  1.
        -12    1    3    3    0    0 -0.15140180773E+02 -0.14742014459E+02 -0.19295371753E+02  0.28615789964E+02  0.00000000000E+00 0.  1.
</event>
<event>
 7    1  0.2983653E-010  0.4778727E+02  0.7816164E-02  0.1312668E+00
        -11   -1    0    0    0    0  0.00000000000E+00  0.00000000000E+00  0.45593999997E+02  0.45594000000E+02  0.51100000000E-03 0.  1.
         11   -1    0    0    0    0 -0.00000000000E+00 -0.00000000000E+00 -0.45593999997E+02  0.45594000000E+02  0.51100000000E-03 0. -1.
    9900012    2    1    2    0    0 -0.32524066289E+02  0.19523323783E+02 -0.21086684070E+02  0.47787270691E+02  0.19999998388E+02 0.  0.
        -12    1    1    2    0    0  0.32524066289E+02 -0.19523323783E+02  0.21086684070E+02  0.43400729309E+02  0.00000000000E+00 0.  1.
         11    1    3    3    0    0 -0.96076695146E+01  0.75446372676E+01 -0.12816906716E+02  0.17705986643E+02  0.51100000000E-03 0. -1.
        -11    1    3    3    0    0 -0.24241829624E+02  0.96245260695E+01 -0.83256035121E+01  0.27379070103E+02  0.51100000000E-03 0.  1.
        -12    1    3    3    0    0  0.13254328497E+01  0.23541604457E+01  0.55826157913E-01  0.27022139447E+01  0.00000000000E+00 0.  1.
</event>
<event>
 7    1  0.2983653E-010  0.4778727E+02  0.7816164E-02  0.1312668E+00
        -11   -1    0    0    0    0  0.00000000000E+00  0.00000000000E+00  0.45593999997E+02  0.45594000000E+02  0.51100000000E-03 0.  1.
         11   -1    0    0    0    0 -0.00000000000E+00 -0.00000000000E+00 -0.45593999997E+02  0.45594000000E+02  0.51100000000E-03 0. -1.
    9900012    2    1    2    0    0 -0.76704309402E+01  0.39102642708E+02 -0.17197997174E+02  0.47787270924E+02  0.19999999450E+02 0.  0.
        -12    1    1    2    0    0  0.76704309402E+01 -0.39102642708E+02  0.17197997174E+02  0.43400729076E+02  0.00000000000E+00 0.  1.
         11    1    3    3    0    0 -0.73815853589E+01  0.29329722706E+02 -0.16343448991E+02  0.34377736424E+02  0.51100000000E-03 0. -1.
        -11    1    3    3    0    0 -0.26296710219E+01  0.10823715214E+01 -0.30244368263E+01  0.41513752144E+01  0.51100000000E-03 0.  1.
         12    1    3    3    0    0  0.23408254405E+01  0.86905484805E+01  0.21698886433E+01  0.92581592857E+01  0.00000000000E+00 0. -1.
</event>
<event>
 7    1  0.2983653E-010  0.4778727E+02  0.7816164E-02  0.1312668E+00
        -11   -1    0    0    0    0  0.00000000000E+00  0.00000000000E+00  0.45593999997E+02  0.45594000000E+02  0.51100000000E-03 0.  1.
         11   -1    0    0    0    0 -0.00000000000E+00 -0.00000000000E+00 -0.45593999997E+02  0.45594000000E+02  0.51100000000E-03 0. -1.
    9900012    2    1    2    0    0  0.30728606319E+02 -0.22971032322E+02 -0.20290579556E+02  0.47787272000E+02  0.20000004358E+02 0.  0.
        -12    1    1    2    0    0 -0.30728606319E+02  0.22971032322E+02  0.20290579556E+02  0.43400728000E+02  0.00000000000E+00 0.  1.
         11    1    3    3    0    0  0.24561051745E+02 -0.75302987066E+01 -0.12642395509E+02  0.28631814925E+02  0.51100000000E-03 0. -1.
        -11    1    3    3    0    0 -0.91128444482E+00 -0.35969909524E+01 -0.10213739044E+01  0.38486345845E+01  0.51100000000E-03 0.  1.
         12    1    3    3    0    0  0.70788390189E+01 -0.11843742663E+02 -0.66268101423E+01  0.15306822491E+02  0.00000000000E+00 0. -1.
</event>
<event>
 7    1  0.2983653E-010  0.4778727E+02  0.7816164E-02  0.1312668E+00
        -11   -1    0    0    0    0  0.00000000000E+00  0.00000000000E+00  0.45593999997E+02  0.45594000000E+02  0.51100000000E-03 0.  1.
         11   -1    0    0    0    0 -0.00000000000E+00 -0.00000000000E+00 -0.45593999997E+02  0.45594000000E+02  0.51100000000E-03 0. -1.
    9900012    2    1    2    0    0 -0.39268264360E+01 -0.26858168038E+02 -0.33865064258E+02  0.47787265750E+02  0.19999975862E+02 0.  0.
        -12    1    1    2    0    0  0.39268264360E+01  0.26858168038E+02  0.33865064258E+02  0.43400734250E+02  0.00000000000E+00 0.  1.
         11    1    3    3    0    0  0.14070338407E+01 -0.33424633209E+01 -0.14423190057E+02  0.14872128865E+02  0.51100000000E-03 0. -1.
        -11    1    3    3    0    0  0.30753730438E+01 -0.55901547282E+01 -0.72715992270E+01  0.96738774451E+01  0.51100000000E-03 0.  1.
         12    1    3    3    0    0 -0.84092333204E+01 -0.17925549989E+02 -0.12170274974E+02  0.23241259440E+02  0.00000000000E+00 0. -1.
</event>
<event>
 7    1  0.3441997E-010  0.4778727E+02  0.7816164E-02  0.1312668E+00
        -11   -1    0    0    0    0  0.00000000000E+00  0.00000000000E+00  0.45593999997E+02  0.45594000000E+02  0.51100000000E-03 0. -1.
         11   -1    0    0    0    0 -0.00000000000E+00 -0.00000000000E+00 -0.45593999997E+02  0.45594000000E+02  0.51100000000E-03 0.  1.
    9900012    2    1    2    0    0  0.34632859870E+02 -0.24389671948E+02 -0.94515793853E+01  0.47787269207E+02  0.19999991624E+02 0.  0.
        -12    1    1    2    0    0 -0.34632859870E+02  0.24389671948E+02  0.94515793853E+01  0.43400730793E+02  0.00000000000E+00 0.  1.
         11    1    3    3    0    0  0.19808403957E+02 -0.18644300832E+02 -0.69387633623E+01  0.28073639916E+02  0.51100000000E-03 0. -1.
        -11    1    3    3    0    0  0.14399695123E+02 -0.70198065778E+00 -0.10990002204E+01  0.14458623663E+02  0.51100000000E-03 0.  1.
        -12    1    3    3    0    0  0.42476078960E+00 -0.50433904573E+01 -0.14138158026E+01  0.52550056287E+01  0.00000000000E+00 0.  1.
</event>
<event>
 7    1  0.2983653E-010  0.4778727E+02  0.7816164E-02  0.1312668E+00
        -11   -1    0    0    0    0  0.00000000000E+00  0.00000000000E+00  0.45593999997E+02  0.45594000000E+02  0.51100000000E-03 0.  1.
         11   -1    0    0    0    0 -0.00000000000E+00 -0.00000000000E+00 -0.45593999997E+02  0.45594000000E+02  0.51100000000E-03 0. -1.
    9900012    2    1    2    0    0 -0.94613302351E+01 -0.21697595559E+02 -0.36377474090E+02  0.47787273692E+02  0.20000012071E+02 0.  0.
        -12    1    1    2    0    0  0.94613302351E+01  0.21697595559E+02  0.36377474090E+02  0.43400726308E+02  0.00000000000E+00 0.  1.
         11    1    3    3    0    0  0.68840537309E+00 -0.13456850345E+02 -0.24641154722E+02  0.28084644015E+02  0.51100000000E-03 0. -1.
        -11    1    3    3    0    0 -0.20933710525E+01  0.26643786548E+00 -0.65646084329E+01  0.68954532584E+01  0.51100000000E-03 0.  1.
         12    1    3    3    0    0 -0.80563645557E+01 -0.85071830801E+01 -0.51717109355E+01  0.12807176418E+02  0.00000000000E+00 0. -1.
</event>
<event>
 7    1  0.2983653E-010  0.4778726E+02  0.7816164E-02  0.1312668E+00
        -11   -1    0    0    0    0  0.00000000000E+00  0.00000000000E+00  0.45593999997E+02  0.45594000000E+02  0.51100000000E-03 0.  1.
         11   -1    0    0    0    0 -0.00000000000E+00 -0.00000000000E+00 -0.45593999997E+02  0.45594000000E+02  0.51100000000E-03 0. -1.
    9900012    2    1    2    0    0  0.26726499309E+02 -0.20644912009E+02 -0.27259966344E+02  0.47787263575E+02  0.19999965942E+02 0.  0.
        -12    1    1    2    0    0 -0.26726499309E+02  0.20644912009E+02  0.27259966344E+02  0.43400736425E+02  0.00000000000E+00 0.  1.
         11    1    3    3    0    0  0.11627269981E+02 -0.54357339826E+01 -0.73762569025E+01  0.14803708228E+02  0.51100000000E-03 0. -1.
        -11    1    3    3    0    0  0.87658849243E+01 -0.10351165160E+02 -0.24148190457E+01  0.13777471102E+02  0.51100000000E-03 0.  1.
        -12    1    3    3    0    0  0.63333444036E+01 -0.48580128655E+01 -0.17468890396E+02  0.19206084245E+02  0.00000000000E+00 0.  1.
</event>
<event>
 7    1  0.2983653E-010  0.4778727E+02  0.7816164E-02  0.1312668E+00
        -11   -1    0    0    0    0  0.00000000000E+00  0.00000000000E+00  0.45593999997E+02  0.45594000000E+02  0.51100000000E-03 0.  1.
         11   -1    0    0    0    0 -0.00000000000E+00 -0.00000000000E+00 -0.45593999997E+02  0.45594000000E+02  0.51100000000E-03 0. -1.
    9900012    2    1    2    0    0  0.31583671680E+02 -0.16523761694E+02 -0.24760055042E+02  0.47787270248E+02  0.19999996369E+02 0.  0.
        -12    1    1    2    0    0 -0.31583671680E+02  0.16523761694E+02  0.24760055042E+02  0.43400729752E+02  0.00000000000E+00 0.  1.
         11    1    3    3    0    0  0.11097521299E+02 -0.45507126314E+01 -0.16656840638E+02  0.20525942237E+02  0.51100000000E-03 0. -1.
        -11    1    3    3    0    0  0.88157831362E+00 -0.23451530894E+01  0.19912226418E+01  0.32002954873E+01  0.51100000000E-03 0.  1.
        -12    1    3    3    0    0  0.19604572067E+02 -0.96278959730E+01 -0.10094437046E+02  0.24061032524E+02  0.00000000000E+00 0.  1.
</event>
<event>
 7    1  0.2983653E-010  0.4778727E+02  0.7816164E-02  0.1312668E+00
        -11   -1    0    0    0    0  0.00000000000E+00  0.00000000000E+00  0.45593999997E+02  0.45594000000E+02  0.51100000000E-03 0.  1.
         11   -1    0    0    0    0 -0.00000000000E+00 -0.00000000000E+00 -0.45593999997E+02  0.45594000000E+02  0.51100000000E-03 0. -1.
    9900012    2    1    2    0    0  0.80673172519E+01  0.36297101260E+02 -0.22384416252E+02  0.47787271222E+02  0.20000000809E+02 0.  0.
        -12    1    1    2    0    0 -0.80673172519E+01 -0.36297101260E+02  0.22384416252E+02  0.43400728778E+02  0.00000000000E+00 0.  1.
         11    1    3    3    0    0  0.36065360683E+01  0.23035373823E+02 -0.21551481014E+02  0.31750620211E+02  0.51100000000E-03 0. -1.
        -11    1    3    3    0    0  0.32687219460E+01  0.17647187897E+01 -0.23247285057E+01  0.43821385708E+01  0.51100000000E-03 0.  1.
         12    1    3    3    0    0  0.11920592376E+01  0.11497008648E+02  0.14917932684E+01  0.11654512440E+02  0.00000000000E+00 0. -1.
</event>
<event>
 7    1  0.2983653E-010  0.4778727E+02  0.7816164E-02  0.1312668E+00
        -11   -1    0    0    0    0  0.00000000000E+00  0.00000000000E+00  0.45593999997E+02  0.45594000000E+02  0.51100000000E-03 0.  1.
         11   -1    0    0    0    0 -0.00000000000E+00 -0.00000000000E+00 -0.45593999997E+02  0.45594000000E+02  0.51100000000E-03 0. -1.
    9900012    2    1    2    0    0  0.17171563670E+02  0.36692880441E+02 -0.15568993260E+02  0.47787266999E+02  0.19999981554E+02 0.  0.
        -12    1    1    2    0    0 -0.17171563670E+02 -0.36692880441E+02  0.15568993260E+02  0.43400733001E+02  0.00000000000E+00 0.  1.
         11    1    3    3    0    0  0.70789901426E+01  0.39354030914E+01 -0.85213868882E+01  0.11756425209E+02  0.51100000000E-03 0. -1.
        -11    1    3    3    0    0  0.82427530487E+01  0.32382618616E+02 -0.70124078294E+01  0.34143093446E+02  0.51100000000E-03 0.  1.
        -12    1    3    3    0    0  0.18498204783E+01  0.37485873348E+00 -0.35198542580E-01  0.18877483438E+01  0.00000000000E+00 0.  1.
</event>
<event>
 7    1  0.2983653E-010  0.4778727E+02  0.7816164E-02  0.1312668E+00
        -11   -1    0    0    0    0  0.00000000000E+00  0.00000000000E+00  0.45593999997E+02  0.45594000000E+02  0.51100000000E-03 0.  1.
         11   -1    0    0    0    0 -0.00000000000E+00 -0.00000000000E+00 -0.45593999997E+02  0.45594000000E+02  0.51100000000E-03 0. -1.
    9900012    2    1    2    0    0 -0.14743666689E+01 -0.82608471388E+01 -0.42581778581E+02  0.47787271669E+02  0.20000002849E+02 0.  0.
        -12    1    1    2    0    0  0.14743666689E+01  0.82608471388E+01  0.42581778581E+02  0.43400728331E+02  0.00000000000E+00 0.  1.
         11    1    3    3    0    0  0.22971949179E+01 -0.46537710380E+01 -0.79896411865E+01  0.95272795653E+01  0.51100000000E-03 0. -1.
        -11    1    3    3    0    0 -0.87389093340E+01 -0.55855079578E+01 -0.27406680609E+02  0.29303456755E+02  0.51100000000E-03 0.  1.
        -12    1    3    3    0    0  0.49673477472E+01  0.19784318570E+01 -0.71854567850E+01  0.89565353493E+01  0.00000000000E+00 0.  1.
</event>
<event>
 7    1  0.2983653E-010  0.4778727E+02  0.7816164E-02  0.1312668E+00
        -11   -1    0    0    0    0  0.00000000000E+00  0.00000000000E+00  0.45593999997E+02  0.45594000000E+02  0.51100000000E-03 0.  1.
         11   -1    0    0    0    0 -0.00000000000E+00 -0.00000000000E+00 -0.45593999997E+02  0.45594000000E+02  0.51100000000E-03 0. -1.
    9900012    2    1    2    0    0  0.97278847058E+01  0.41867213039E+01 -0.42088747534E+02  0.47787273680E+02  0.20000012016E+02 0.  0.
        -12    1    1    2    0    0 -0.97278847058E+01 -0.41867213039E+01  0.42088747534E+02  0.43400726320E+02  0.00000000000E+00 0.  1.
         11    1    3    3    0    0 -0.25150031868E+01  0.14148719885E+01 -0.49628903796E+01  0.57408522846E+01  0.51100000000E-03 0. -1.
        -11    1    3    3    0    0  0.11427658666E+02  0.75803034371E+01 -0.20074308270E+02  0.24311113417E+02  0.51100000000E-03 0.  1.
        -12    1    3    3    0    0  0.81522922627E+00 -0.48084541217E+01 -0.17051548884E+02  0.17735307978E+02  0.00000000000E+00 0.  1.
</event>
<event>
 7    1  0.2983653E-010  0.4778727E+02  0.7816164E-02  0.1312668E+00
        -11   -1    0    0    0    0  0.00000000000E+00  0.00000000000E+00  0.45593999997E+02  0.45594000000E+02  0.51100000000E-03 0. -1.
         11   -1    0    0    0    0 -0.00000000000E+00 -0.00000000000E+00 -0.45593999997E+02  0.45594000000E+02  0.51100000000E-03 0.  1.
    9900012    2    1    2    0    0  0.23501433077E+02  0.67112489087E+00  0.36480888343E+02  0.47787274435E+02  0.20000015459E+02 0.  0.
        -12    1    1    2    0    0 -0.23501433077E+02 -0.67112489087E+00 -0.36480888343E+02  0.43400725565E+02  0.00000000000E+00 0.  1.
         11    1    3    3    0    0  0.28850870859E+01 -0.18599627838E+01  0.74625813841E+01  0.82142139140E+01  0.51100000000E-03 0. -1.
        -11    1    3    3    0    0  0.14039170891E+02  0.57076111829E+01  0.76207624387E+01  0.16963229797E+02  0.51100000000E-03 0.  1.
        -12    1    3    3    0    0  0.65771750996E+01 -0.31765235083E+01  0.21397544520E+02  0.22609830724E+02  0.00000000000E+00 0.  1.
</event>
<event>
 7    1  0.2983653E-010  0.4778727E+02  0.7816164E-02  0.1312668E+00
        -11   -1    0    0    0    0  0.00000000000E+00  0.00000000000E+00  0.45593999997E+02  0.45594000000E+02  0.51100000000E-03 0.  1.
         11   -1    0    0    0    0 -0.00000000000E+00 -0.00000000000E+00 -0.45593999997E+02  0.45594000000E+02  0.51100000000E-03 0. -1.
    9900012    2    1    2    0    0 -0.33715325542E+02 -0.24802013116E+02 -0.11478693684E+02  0.47787269134E+02  0.19999991289E+02 0.  0.
        -12    1    1    2    0    0  0.33715325542E+02  0.24802013116E+02  0.11478693684E+02  0.43400730866E+02  0.00000000000E+00 0.  1.
         11    1    3    3    0    0 -0.68504108070E+01 -0.15042540112E+02 -0.51198579733E+01  0.17303730441E+02  0.51100000000E-03 0.  1.
        -11    1    3    3    0    0 -0.18146287265E+02 -0.10313831289E+02 -0.28383407927E+01  0.21064639472E+02  0.51100000000E-03 0. -1.
         12    1    3    3    0    0 -0.87186274699E+01  0.55435828497E+00 -0.35204949182E+01  0.94188992211E+01  0.00000000000E+00 0. -1.
</event>
<event>
 7    1  0.2983653E-010  0.4778727E+02  0.7816164E-02  0.1312668E+00
        -11   -1    0    0    0    0  0.00000000000E+00  0.00000000000E+00  0.45593999997E+02  0.45594000000E+02  0.51100000000E-03 0.  1.
         11   -1    0    0    0    0 -0.00000000000E+00 -0.00000000000E+00 -0.45593999997E+02  0.45594000000E+02  0.51100000000E-03 0. -1.
    9900012    2    1    2    0    0  0.39431938284E+02 -0.18055429141E+02 -0.16574330105E+01  0.47787270023E+02  0.19999995345E+02 0.  0.
        -12    1    1    2    0    0 -0.39431938284E+02  0.18055429141E+02  0.16574330105E+01  0.43400729977E+02  0.00000000000E+00 0.  1.
         11    1    3    3    0    0 -0.84026683635E+00  0.36465618420E-01 -0.91552863963E+00  0.12432099777E+01  0.51100000000E-03 0. -1.
        -11    1    3    3    0    0  0.41378338670E+02 -0.17577668072E+02  0.27192748351E+00  0.44957927786E+02  0.51100000000E-03 0.  1.
        -12    1    3    3    0    0 -0.11061335500E+01 -0.51422668770E+00 -0.10138318544E+01  0.15861322599E+01  0.00000000000E+00 0.  1.
</event>
<event>
 7    1  0.2983653E-010  0.4778727E+02  0.7816164E-02  0.1312668E+00
        -11   -1    0    0    0    0  0.00000000000E+00  0.00000000000E+00  0.45593999997E+02  0.45594000000E+02  0.51100000000E-03 0.  1.
         11   -1    0    0    0    0 -0.00000000000E+00 -0.00000000000E+00 -0.45593999997E+02  0.45594000000E+02  0.51100000000E-03 0. -1.
    9900012    2    1    2    0    0 -0.19602008774E+02 -0.17091500323E+02 -0.34745723031E+02  0.47787269589E+02  0.19999993366E+02 0.  0.
        -12    1    1    2    0    0  0.19602008774E+02  0.17091500323E+02  0.34745723031E+02  0.43400730411E+02  0.00000000000E+00 0.  1.
         11    1    3    3    0    0 -0.92681200266E+01 -0.12213449810E+02 -0.17628272646E+02  0.23362842332E+02  0.51100000000E-03 0. -1.
        -11    1    3    3    0    0 -0.11083284688E+02 -0.47081785714E+01 -0.18941467261E+02  0.22445162668E+02  0.51100000000E-03 0.  1.
        -12    1    3    3    0    0  0.74939594066E+00 -0.16987194121E+00  0.18240168760E+01  0.19792645897E+01  0.00000000000E+00 0.  1.
</event>
<event>
 7    1  0.2983653E-010  0.4778727E+02  0.7816164E-02  0.1312668E+00
        -11   -1    0    0    0    0  0.00000000000E+00  0.00000000000E+00  0.45593999997E+02  0.45594000000E+02  0.51100000000E-03 0. -1.
         11   -1    0    0    0    0 -0.00000000000E+00 -0.00000000000E+00 -0.45593999997E+02  0.45594000000E+02  0.51100000000E-03 0.  1.
    9900012    2    1    2    0    0  0.32008832479E+02 -0.28933135108E+02 -0.46831443352E+01  0.47787268386E+02  0.19999987877E+02 0.  0.
        -12    1    1    2    0    0 -0.32008832479E+02  0.28933135108E+02  0.46831443352E+01  0.43400731614E+02  0.00000000000E+00 0.  1.
         11    1    3    3    0    0  0.13332393717E+02 -0.12962584799E+02  0.27269778935E+01  0.18794087782E+02  0.51100000000E-03 0. -1.
        -11    1    3    3    0    0  0.18652947222E+02 -0.11376962285E+02 -0.96471524789E+01  0.23883786595E+02  0.51100000000E-03 0.  1.
        -12    1    3    3    0    0  0.23491539531E-01 -0.45935880243E+01  0.22370302502E+01  0.51093940081E+01  0.00000000000E+00 0.  1.
</event>
<event>
 7    1  0.2983653E-010  0.4778727E+02  0.7816164E-02  0.1312668E+00
        -11   -1    0    0    0    0  0.00000000000E+00  0.00000000000E+00  0.45593999997E+02  0.45594000000E+02  0.51100000000E-03 0. -1.
         11   -1    0    0    0    0 -0.00000000000E+00 -0.00000000000E+00 -0.45593999997E+02  0.45594000000E+02  0.51100000000E-03 0.  1.
    9900012    2    1    2    0    0  0.10346040580E+02 -0.42069110192E+02 -0.26023858287E+01  0.47787274199E+02  0.20000014383E+02 0.  0.
        -12    1    1    2    0    0 -0.10346040580E+02  0.42069110192E+02  0.26023858287E+01  0.43400725801E+02  0.00000000000E+00 0.  1.
         11    1    3    3    0    0  0.30665301047E+01 -0.13750354528E+02 -0.86181875454E+01  0.16515114694E+02  0.51100000000E-03 0. -1.
        -11    1    3    3    0    0  0.83167979894E+00 -0.20283482046E+02  0.50854235964E+01  0.20927801333E+02  0.51100000000E-03 0.  1.
        -12    1    3    3    0    0  0.64478306766E+01 -0.80352736177E+01  0.93037812032E+00  0.10344358172E+02  0.00000000000E+00 0.  1.
</event>
<event>
 7    1  0.2983653E-010  0.4778727E+02  0.7816164E-02  0.1312668E+00
        -11   -1    0    0    0    0  0.00000000000E+00  0.00000000000E+00  0.45593999997E+02  0.45594000000E+02  0.51100000000E-03 0.  1.
         11   -1    0    0    0    0 -0.00000000000E+00 -0.00000000000E+00 -0.45593999997E+02  0.45594000000E+02  0.51100000000E-03 0. -1.
    9900012    2    1    2    0    0 -0.12856670888E+02 -0.11089708576E+02 -0.39941800758E+02  0.47787273389E+02  0.20000010689E+02 0.  0.
        -12    1    1    2    0    0  0.12856670888E+02  0.11089708576E+02  0.39941800758E+02  0.43400726611E+02  0.00000000000E+00 0.  1.
         11    1    3    3    0    0 -0.29061201370E+01 -0.10017408968E+02 -0.20408286922E+02  0.22919253741E+02  0.51100000000E-03 0. -1.
        -11    1    3    3    0    0 -0.45401613417E+01  0.37825104961E+01 -0.15424733559E+02  0.16517955573E+02  0.51100000000E-03 0.  1.
         12    1    3    3    0    0 -0.54103894089E+01 -0.48548101040E+01 -0.41087802761E+01  0.83500640752E+01  0.00000000000E+00 0. -1.
</event>
<event>
 7    1  0.2983653E-010  0.4778727E+02  0.7816164E-02  0.1312668E+00
        -11   -1    0    0    0    0  0.00000000000E+00  0.00000000000E+00  0.45593999997E+02  0.45594000000E+02  0.51100000000E-03 0. -1.
         11   -1    0    0    0    0 -0.00000000000E+00 -0.00000000000E+00 -0.45593999997E+02  0.45594000000E+02  0.51100000000E-03 0.  1.
    9900012    2    1    2    0    0  0.34404780384E+02 -0.26326848843E+02 -0.26136990518E+01  0.47787270674E+02  0.19999998311E+02 0.  0.
        -12    1    1    2    0    0 -0.34404780384E+02  0.26326848843E+02  0.26136990518E+01  0.43400729326E+02  0.00000000000E+00 0.  1.
         11    1    3    3    0    0  0.29796737012E+02 -0.27327748908E+02 -0.57103608777E+01  0.40832090548E+02  0.51100000000E-03 0. -1.
        -11    1    3    3    0    0  0.42392093814E+01  0.23227998867E+01  0.26460457756E+01  0.55107035849E+01  0.51100000000E-03 0.  1.
         12    1    3    3    0    0  0.36883399110E+00 -0.13218998222E+01  0.45061605023E+00  0.14444765411E+01  0.00000000000E+00 0. -1.
</event>
<event>
 7    1  0.2983653E-010  0.4778729E+02  0.7816164E-02  0.1312668E+00
        -11   -1    0    0    0    0  0.00000000000E+00  0.00000000000E+00  0.45593999997E+02  0.45594000000E+02  0.51100000000E-03 0.  1.
         11   -1    0    0    0    0 -0.00000000000E+00 -0.00000000000E+00 -0.45593999997E+02  0.45594000000E+02  0.51100000000E-03 0. -1.
    9900012    2    1    2    0    0  0.34889864816E+02  0.90433075872E+01 -0.24177212224E+02  0.47787289522E+02  0.20000084248E+02 0.  0.
        -12    1    1    2    0    0 -0.34889864816E+02 -0.90433075872E+01  0.24177212224E+02  0.43400710478E+02  0.00000000000E+00 0.  1.
         11    1    3    3    0    0  0.10436104595E+02  0.43599906204E+01 -0.19088172036E+02  0.22187386265E+02  0.51100000000E-03 0. -1.
        -11    1    3    3    0    0  0.19191657264E+02  0.25201910219E+01 -0.45578268798E+01  0.19885795368E+02  0.51100000000E-03 0.  1.
         12    1    3    3    0    0  0.52621029575E+01  0.21631259449E+01 -0.53121330875E+00  0.57141078891E+01  0.00000000000E+00 0. -1.
</event>
<event>
 7    1  0.2983653E-010  0.4778727E+02  0.7816164E-02  0.1312668E+00
        -11   -1    0    0    0    0  0.00000000000E+00  0.00000000000E+00  0.45593999997E+02  0.45594000000E+02  0.51100000000E-03 0.  1.
         11   -1    0    0    0    0 -0.00000000000E+00 -0.00000000000E+00 -0.45593999997E+02  0.45594000000E+02  0.51100000000E-03 0. -1.
    9900012    2    1    2    0    0 -0.28764114714E+02 -0.11116744461E+02 -0.30539594212E+02  0.47787272848E+02  0.20000008221E+02 0.  0.
        -12    1    1    2    0    0  0.28764114714E+02  0.11116744461E+02  0.30539594212E+02  0.43400727152E+02  0.00000000000E+00 0.  1.
         11    1    3    3    0    0 -0.12061658564E+02 -0.28806499934E+01 -0.99172507690E+01  0.15878715779E+02  0.51100000000E-03 0. -1.
        -11    1    3    3    0    0 -0.13532910988E+02 -0.12173718517E+02 -0.19604865031E+02  0.26752379997E+02  0.51100000000E-03 0.  1.
        -12    1    3    3    0    0 -0.31695451618E+01  0.39376240486E+01 -0.10174784119E+01  0.51561770721E+01  0.00000000000E+00 0.  1.
</event>
<event>
 7    1  0.2983653E-010  0.4778727E+02  0.7816164E-02  0.1312668E+00
        -11   -1    0    0    0    0  0.00000000000E+00  0.00000000000E+00  0.45593999997E+02  0.45594000000E+02  0.51100000000E-03 0.  1.
         11   -1    0    0    0    0 -0.00000000000E+00 -0.00000000000E+00 -0.45593999997E+02  0.45594000000E+02  0.51100000000E-03 0. -1.
    9900012    2    1    2    0    0  0.32454722228E+00  0.60029605506E+01 -0.42982346698E+02  0.47787274269E+02  0.20000014702E+02 0.  0.
        -12    1    1    2    0    0 -0.32454722228E+00 -0.60029605506E+01  0.42982346698E+02  0.43400725731E+02  0.00000000000E+00 0.  1.
         11    1    3    3    0    0  0.62005257758E+01  0.66565655746E+01 -0.23153100374E+02  0.24876142031E+02  0.51100000000E-03 0. -1.
        -11    1    3    3    0    0  0.13999906842E+01  0.13817400225E+01 -0.32371576634E+00  0.19934822708E+01  0.51100000000E-03 0.  1.
         12    1    3    3    0    0 -0.72759692377E+01 -0.20353450466E+01 -0.19505530558E+02  0.20917649967E+02  0.00000000000E+00 0. -1.
</event>
<event>
 7    1  0.2983653E-010  0.4778727E+02  0.7816164E-02  0.1312668E+00
        -11   -1    0    0    0    0  0.00000000000E+00  0.00000000000E+00  0.45593999997E+02  0.45594000000E+02  0.51100000000E-03 0.  1.
         11   -1    0    0    0    0 -0.00000000000E+00 -0.00000000000E+00 -0.45593999997E+02  0.45594000000E+02  0.51100000000E-03 0. -1.
    9900012    2    1    2    0    0 -0.34565633643E+02 -0.20510039324E+02  0.16376149928E+02  0.47787273869E+02  0.20000012878E+02 0.  0.
        -12    1    1    2    0    0  0.34565633643E+02  0.20510039324E+02 -0.16376149928E+02  0.43400726131E+02  0.00000000000E+00 0.  1.
         11    1    3    3    0    0 -0.30073833870E+01  0.24676642231E+01 -0.15185639315E+00  0.38931712241E+01  0.51100000000E-03 0. -1.
        -11    1    3    3    0    0 -0.29278330728E+02 -0.17123515289E+02  0.16238789401E+02  0.37604969187E+02  0.51100000000E-03 0.  1.
        -12    1    3    3    0    0 -0.22799195280E+01 -0.58541882588E+01  0.28921691962E+00  0.62891334578E+01  0.00000000000E+00 0.  1.
</event>
<event>
 7    1  0.2983653E-010  0.4778727E+02  0.7816164E-02  0.1312668E+00
        -11   -1    0    0    0    0  0.00000000000E+00  0.00000000000E+00  0.45593999997E+02  0.45594000000E+02  0.51100000000E-03 0.  1.
         11   -1    0    0    0    0 -0.00000000000E+00 -0.00000000000E+00 -0.45593999997E+02  0.45594000000E+02  0.51100000000E-03 0. -1.
    9900012    2    1    2    0    0 -0.20671103417E+02  0.22630189040E+02 -0.30727891795E+02  0.47787270667E+02  0.19999998280E+02 0.  0.
        -12    1    1    2    0    0  0.20671103417E+02 -0.22630189040E+02  0.30727891795E+02  0.43400729333E+02  0.00000000000E+00 0.  1.
         11    1    3    3    0    0 -0.64919243574E+01 -0.13595463043E+01 -0.12048906641E+02  0.13753893976E+02  0.51100000000E-03 0. -1.
        -11    1    3    3    0    0 -0.60275637637E+01  0.15439941258E+02 -0.12002265986E+02  0.20464058738E+02  0.51100000000E-03 0.  1.
         12    1    3    3    0    0 -0.81516152962E+01  0.85497940861E+01 -0.66767191679E+01  0.13569317953E+02  0.00000000000E+00 0. -1.
</event>
<event>
 7    1  0.2983653E-010  0.4778726E+02  0.7816164E-02  0.1312668E+00
        -11   -1    0    0    0    0  0.00000000000E+00  0.00000000000E+00  0.45593999997E+02  0.45594000000E+02  0.51100000000E-03 0. -1.
         11   -1    0    0    0    0 -0.00000000000E+00 -0.00000000000E+00 -0.45593999997E+02  0.45594000000E+02  0.51100000000E-03 0.  1.
    9900012    2    1    2    0    0 -0.34462629295E+02 -0.19836897207E+02  0.17391047677E+02  0.47787264430E+02  0.19999969842E+02 0.  0.
        -12    1    1    2    0    0  0.34462629295E+02  0.19836897207E+02 -0.17391047677E+02  0.43400735570E+02  0.00000000000E+00 0.  1.
         11    1    3    3    0    0 -0.19747255122E+02 -0.12372365931E+01  0.52054093021E+01  0.20459255253E+02  0.51100000000E-03 0. -1.
        -11    1    3    3    0    0 -0.32531141031E+01 -0.85738088454E+01  0.36436709950E+01  0.98675877532E+01  0.51100000000E-03 0.  1.
         12    1    3    3    0    0 -0.11462260070E+02 -0.10025851768E+02  0.85419673795E+01  0.17460421424E+02  0.00000000000E+00 0. -1.
</event>
<event>
 7    1  0.2983653E-010  0.4778727E+02  0.7816164E-02  0.1312668E+00
        -11   -1    0    0    0    0  0.00000000000E+00  0.00000000000E+00  0.45593999997E+02  0.45594000000E+02  0.51100000000E-03 0.  1.
         11   -1    0    0    0    0 -0.00000000000E+00 -0.00000000000E+00 -0.45593999997E+02  0.45594000000E+02  0.51100000000E-03 0. -1.
    9900012    2    1    2    0    0 -0.58266168137E+01 -0.67183400379E+01 -0.42479853049E+02  0.47787268768E+02  0.19999989622E+02 0.  0.
        -12    1    1    2    0    0  0.58266168137E+01  0.67183400379E+01  0.42479853049E+02  0.43400731232E+02  0.00000000000E+00 0.  1.
         11    1    3    3    0    0 -0.29177901908E+01  0.11595581004E+01 -0.19023851310E+02  0.19281208300E+02  0.51100000000E-03 0. -1.
        -11    1    3    3    0    0  0.19829329293E+01  0.20567347086E+01 -0.34330934047E+00  0.28775062516E+01  0.51100000000E-03 0.  1.
        -12    1    3    3    0    0 -0.48917595522E+01 -0.99346328468E+01 -0.23112692399E+02  0.25628554217E+02  0.00000000000E+00 0.  1.
</event>
<event>
 7    1  0.2983653E-010  0.4778727E+02  0.7816164E-02  0.1312668E+00
        -11   -1    0    0    0    0  0.00000000000E+00  0.00000000000E+00  0.45593999997E+02  0.45594000000E+02  0.51100000000E-03 0.  1.
         11   -1    0    0    0    0 -0.00000000000E+00 -0.00000000000E+00 -0.45593999997E+02  0.45594000000E+02  0.51100000000E-03 0. -1.
    9900012    2    1    2    0    0 -0.14123967144E+02  0.74647762675E+01 -0.40353612976E+02  0.47787269444E+02  0.19999992702E+02 0.  0.
        -12    1    1    2    0    0  0.14123967144E+02 -0.74647762675E+01  0.40353612976E+02  0.43400730556E+02  0.00000000000E+00 0.  1.
         11    1    3    3    0    0 -0.10996486333E+02  0.40649522029E+01 -0.16329226169E+02  0.20101994320E+02  0.51100000000E-03 0. -1.
        -11    1    3    3    0    0 -0.49693796345E+01  0.12092226350E+00 -0.20262304246E+01  0.53679573527E+01  0.51100000000E-03 0.  1.
         12    1    3    3    0    0  0.18418988236E+01  0.32789018011E+01 -0.21998156382E+02  0.22317317772E+02  0.00000000000E+00 0. -1.
</event>
<event>
 7    1  0.2983653E-010  0.4778727E+02  0.7816164E-02  0.1312668E+00
        -11   -1    0    0    0    0  0.00000000000E+00  0.00000000000E+00  0.45593999997E+02  0.45594000000E+02  0.51100000000E-03 0.  1.
         11   -1    0    0    0    0 -0.00000000000E+00 -0.00000000000E+00 -0.45593999997E+02  0.45594000000E+02  0.51100000000E-03 0. -1.
    9900012    2    1    2    0    0 -0.16273890457E+02  0.30397456492E+02 -0.26358648816E+02  0.47787271444E+02  0.20000001820E+02 0.  0.
        -12    1    1    2    0    0  0.16273890457E+02 -0.30397456492E+02  0.26358648816E+02  0.43400728556E+02  0.00000000000E+00 0.  1.
         11    1    3    3    0    0 -0.99846961320E+01  0.10610262634E+02 -0.19919663222E+02  0.24679238504E+02  0.51100000000E-03 0. -1.
        -11    1    3    3    0    0 -0.81638998794E+01  0.16395829923E+02 -0.54280189834E+01  0.19103295277E+02  0.51100000000E-03 0.  1.
        -12    1    3    3    0    0  0.18747055541E+01  0.33913639358E+01 -0.10109666113E+01  0.40047376630E+01  0.00000000000E+00 0.  1.
</event>
<event>
 7    1  0.2983653E-010  0.4778727E+02  0.7816164E-02  0.1312668E+00
        -11   -1    0    0    0    0  0.00000000000E+00  0.00000000000E+00  0.45593999997E+02  0.45594000000E+02  0.51100000000E-03 0. -1.
         11   -1    0    0    0    0 -0.00000000000E+00 -0.00000000000E+00 -0.45593999997E+02  0.45594000000E+02  0.51100000000E-03 0.  1.
    9900012    2    1    2    0    0 -0.20142896064E+02 -0.37042758324E+02  0.10282080597E+02  0.47787269736E+02  0.19999994032E+02 0.  0.
        -12    1    1    2    0    0  0.20142896064E+02  0.37042758324E+02 -0.10282080597E+02  0.43400730264E+02  0.00000000000E+00 0.  1.
         11    1    3    3    0    0 -0.61558749724E+01 -0.95685898867E+01  0.24633510839E+01  0.11641340469E+02  0.51100000000E-03 0. -1.
        -11    1    3    3    0    0 -0.12771583256E+02 -0.66846235545E+01  0.41454150214E+01  0.14999399884E+02  0.51100000000E-03 0.  1.
        -12    1    3    3    0    0 -0.12154378362E+01 -0.20789544883E+02  0.36733144916E+01  0.21146529382E+02  0.00000000000E+00 0.  1.
</event>
<event>
 7    1  0.2983653E-010  0.4778726E+02  0.7816164E-02  0.1312668E+00
        -11   -1    0    0    0    0  0.00000000000E+00  0.00000000000E+00  0.45593999997E+02  0.45594000000E+02  0.51100000000E-03 0.  1.
         11   -1    0    0    0    0 -0.00000000000E+00 -0.00000000000E+00 -0.45593999997E+02  0.45594000000E+02  0.51100000000E-03 0. -1.
    9900012    2    1    2    0    0  0.38279031707E+01 -0.24997464301E+02 -0.35271779958E+02  0.47787256624E+02  0.19999934250E+02 0.  0.
        -12    1    1    2    0    0 -0.38279031707E+01  0.24997464301E+02  0.35271779958E+02  0.43400743376E+02  0.00000000000E+00 0.  1.
         11    1    3    3    0    0  0.40840104145E+01 -0.63421085962E+01 -0.23640788932E+02  0.24815083802E+02  0.51100000000E-03 0. -1.
        -11    1    3    3    0    0  0.18870450946E+01 -0.12496936677E+01 -0.15624899933E+01  0.27502815661E+01  0.51100000000E-03 0.  1.
         12    1    3    3    0    0 -0.21431523384E+01 -0.17405662037E+02 -0.10068501034E+02  0.20221891256E+02  0.00000000000E+00 0. -1.
</event>
<event>
 7    1  0.2983653E-010  0.4778727E+02  0.7816164E-02  0.1312668E+00
        -11   -1    0    0    0    0  0.00000000000E+00  0.00000000000E+00  0.45593999997E+02  0.45594000000E+02  0.51100000000E-03 0.  1.
         11   -1    0    0    0    0 -0.00000000000E+00 -0.00000000000E+00 -0.45593999997E+02  0.45594000000E+02  0.51100000000E-03 0. -1.
    9900012    2    1    2    0    0  0.33446759355E+02 -0.34234681251E+01 -0.27444809289E+02  0.47787269565E+02  0.19999993257E+02 0.  0.
        -12    1    1    2    0    0 -0.33446759355E+02  0.34234681251E+01  0.27444809289E+02  0.43400730435E+02  0.00000000000E+00 0.  1.
         11    1    3    3    0    0  0.19735933731E+02 -0.91263039656E+01 -0.22780260716E+02  0.31491852642E+02  0.51100000000E-03 0. -1.
        -11    1    3    3    0    0  0.13177850882E+02  0.42898636271E+01 -0.50274932616E+01  0.14742264838E+02  0.51100000000E-03 0.  1.
        -12    1    3    3    0    0  0.53297474202E+00  0.14129722134E+01  0.36294468862E+00  0.15531520847E+01  0.00000000000E+00 0.  1.
</event>
<event>
 7    1  0.2983653E-010  0.4778728E+02  0.7816164E-02  0.1312668E+00
        -11   -1    0    0    0    0  0.00000000000E+00  0.00000000000E+00  0.45593999997E+02  0.45594000000E+02  0.51100000000E-03 0. -1.
         11   -1    0    0    0    0 -0.00000000000E+00 -0.00000000000E+00 -0.45593999997E+02  0.45594000000E+02  0.51100000000E-03 0.  1.
    9900012    2    1    2    0    0 -0.32438268318E+02  0.28796794342E+02 -0.14579591227E+01  0.47787282717E+02  0.20000053220E+02 0.  0.
        -12    1    1    2    0    0  0.32438268318E+02 -0.28796794342E+02  0.14579591227E+01  0.43400717283E+02  0.00000000000E+00 0.  1.
         11    1    3    3    0    0 -0.17092328841E+02  0.67916611872E+01  0.54643935827E+01  0.19186817463E+02  0.51100000000E-03 0. -1.
        -11    1    3    3    0    0 -0.86440457805E+01  0.17934183965E+02 -0.49774368274E+01  0.20521436587E+02  0.51100000000E-03 0.  1.
         12    1    3    3    0    0 -0.67018936972E+01  0.40709491897E+01 -0.19449158780E+01  0.80790286673E+01  0.00000000000E+00 0. -1.
</event>
<event>
 7    1  0.2983653E-010  0.4778727E+02  0.7816164E-02  0.1312668E+00
        -11   -1    0    0    0    0  0.00000000000E+00  0.00000000000E+00  0.45593999997E+02  0.45594000000E+02  0.51100000000E-03 0.  1.
         11   -1    0    0    0    0 -0.00000000000E+00 -0.00000000000E+00 -0.45593999997E+02  0.45594000000E+02  0.51100000000E-03 0. -1.
    9900012    2    1    2    0    0 -0.37624717698E+02  0.10486595720E+02 -0.18921816775E+02  0.47787271645E+02  0.20000002738E+02 0.  0.
        -12    1    1    2    0    0  0.37624717698E+02 -0.10486595720E+02  0.18921816775E+02  0.43400728355E+02  0.00000000000E+00 0.  1.
         11    1    3    3    0    0 -0.17770838140E+02  0.26242801904E+01 -0.11285148134E+02  0.21214242936E+02  0.51100000000E-03 0. -1.
        -11    1    3    3    0    0 -0.18147930458E+01  0.65730103648E+01 -0.46235536784E+01  0.82386399323E+01  0.51100000000E-03 0.  1.
        -12    1    3    3    0    0 -0.18039086513E+02  0.12893051652E+01 -0.30131149629E+01  0.18334388776E+02  0.00000000000E+00 0.  1.
</event>
<event>
 7    1  0.2983653E-010  0.4778727E+02  0.7816164E-02  0.1312668E+00
        -11   -1    0    0    0    0  0.00000000000E+00  0.00000000000E+00  0.45593999997E+02  0.45594000000E+02  0.51100000000E-03 0. -1.
         11   -1    0    0    0    0 -0.00000000000E+00 -0.00000000000E+00 -0.45593999997E+02  0.45594000000E+02  0.51100000000E-03 0.  1.
    9900012    2    1    2    0    0  0.28685955634E+02 -0.25918349270E+02  0.19722528828E+02  0.47787273936E+02  0.20000013184E+02 0.  0.
        -12    1    1    2    0    0 -0.28685955634E+02  0.25918349270E+02 -0.19722528828E+02  0.43400726064E+02  0.00000000000E+00 0.  1.
         11    1    3    3    0    0  0.24806805988E+02 -0.26428638182E+02  0.11712872009E+02  0.38092544027E+02  0.51100000000E-03 0. -1.
        -11    1    3    3    0    0  0.69747683348E+00  0.18026731183E+01  0.20580283102E+01  0.28233995628E+01  0.51100000000E-03 0.  1.
         12    1    3    3    0    0  0.31816728121E+01 -0.12923842063E+01  0.59516285090E+01  0.68713303464E+01  0.00000000000E+00 0. -1.
</event>
<event>
 7    1  0.2983653E-010  0.4778727E+02  0.7816164E-02  0.1312668E+00
        -11   -1    0    0    0    0  0.00000000000E+00  0.00000000000E+00  0.45593999997E+02  0.45594000000E+02  0.51100000000E-03 0. -1.
         11   -1    0    0    0    0 -0.00000000000E+00 -0.00000000000E+00 -0.45593999997E+02  0.45594000000E+02  0.51100000000E-03 0.  1.
    9900012    2    1    2    0    0 -0.29827166003E+02 -0.21168356328E+02 -0.23363739961E+02  0.47787268596E+02  0.19999988837E+02 0.  0.
        -12    1    1    2    0    0  0.29827166003E+02  0.21168356328E+02  0.23363739961E+02  0.43400731404E+02  0.00000000000E+00 0.  1.
         11    1    3    3    0    0 -0.21675550916E+02 -0.91434253291E+01 -0.85599712415E+01  0.25034073623E+02  0.51100000000E-03 0. -1.
        -11    1    3    3    0    0 -0.29863047387E+01 -0.52274855712E+01 -0.12556337373E+02  0.13925021719E+02  0.51100000000E-03 0.  1.
         12    1    3    3    0    0 -0.51653103480E+01 -0.67974454279E+01 -0.22474313468E+01  0.88281732536E+01  0.00000000000E+00 0. -1.
</event>
<event>
 7    1  0.2983653E-010  0.4778727E+02  0.7816164E-02  0.1312668E+00
        -11   -1    0    0    0    0  0.00000000000E+00  0.00000000000E+00  0.45593999997E+02  0.45594000000E+02  0.51100000000E-03 0. -1.
         11   -1    0    0    0    0 -0.00000000000E+00 -0.00000000000E+00 -0.45593999997E+02  0.45594000000E+02  0.51100000000E-03 0.  1.
    9900012    2    1    2    0    0 -0.13762074275E+01  0.26225348165E+02  0.34553732737E+02  0.47787270982E+02  0.19999999715E+02 0.  0.
        -12    1    1    2    0    0  0.13762074275E+01 -0.26225348165E+02 -0.34553732737E+02  0.43400729018E+02  0.00000000000E+00 0.  1.
         11    1    3    3    0    0 -0.59499981795E+01  0.23254635665E+02  0.30058312838E+02  0.38466644371E+02  0.51100000000E-03 0. -1.
        -11    1    3    3    0    0  0.46452739430E+01  0.18979979174E+00  0.45954065871E+01  0.65369990002E+01  0.51100000000E-03 0.  1.
         12    1    3    3    0    0 -0.71483191038E-01  0.27809127084E+01 -0.99986688225E-01  0.27836276109E+01  0.00000000000E+00 0. -1.
</event>
<event>
 7    1  0.2983653E-010  0.4778727E+02  0.7816164E-02  0.1312668E+00
        -11   -1    0    0    0    0  0.00000000000E+00  0.00000000000E+00  0.45593999997E+02  0.45594000000E+02  0.51100000000E-03 0.  1.
         11   -1    0    0    0    0 -0.00000000000E+00 -0.00000000000E+00 -0.45593999997E+02  0.45594000000E+02  0.51100000000E-03 0. -1.
    9900012    2    1    2    0    0  0.50034882468E+01  0.14522513667E+02 -0.40591687574E+02  0.47787269615E+02  0.19999993482E+02 0.  0.
        -12    1    1    2    0    0 -0.50034882468E+01 -0.14522513667E+02  0.40591687574E+02  0.43400730385E+02  0.00000000000E+00 0.  1.
         11    1    3    3    0    0  0.42111380478E+01  0.18379943561E+01 -0.26926043523E+02  0.27315265457E+02  0.51100000000E-03 0. -1.
        -11    1    3    3    0    0  0.12471646296E+01  0.13876261471E+02 -0.12881379023E+02  0.18974614036E+02  0.51100000000E-03 0.  1.
        -12    1    3    3    0    0 -0.45481443054E+00 -0.11917421601E+01 -0.78426502796E+00  0.14973901217E+01  0.00000000000E+00 0.  1.
</event>
<event>
 7    1  0.2983653E-010  0.4778727E+02  0.7816164E-02  0.1312668E+00
        -11   -1    0    0    0    0  0.00000000000E+00  0.00000000000E+00  0.45593999997E+02  0.45594000000E+02  0.51100000000E-03 0. -1.
         11   -1    0    0    0    0 -0.00000000000E+00 -0.00000000000E+00 -0.45593999997E+02  0.45594000000E+02  0.51100000000E-03 0.  1.
    9900012    2    1    2    0    0  0.52059527210E+01 -0.30313375310E+02  0.30620590174E+02  0.47787271792E+02  0.20000003409E+02 0.  0.
        -12    1    1    2    0    0 -0.52059527210E+01  0.30313375310E+02 -0.30620590174E+02  0.43400728208E+02  0.00000000000E+00 0.  1.
         11    1    3    3    0    0  0.49616772970E+01 -0.32081056698E+02  0.31621109439E+02  0.45317844199E+02  0.51100000000E-03 0. -1.
        -11    1    3    3    0    0  0.79705837808E+00  0.78451295011E+00 -0.37438356301E+00  0.11793752330E+01  0.51100000000E-03 0.  1.
         12    1    3    3    0    0 -0.55278295408E+00  0.98316843852E+00 -0.62613570225E+00  0.12900523596E+01  0.00000000000E+00 0. -1.
</event>
<event>
 7    1  0.2983653E-010  0.4778726E+02  0.7816164E-02  0.1312668E+00
        -11   -1    0    0    0    0  0.00000000000E+00  0.00000000000E+00  0.45593999997E+02  0.45594000000E+02  0.51100000000E-03 0. -1.
         11   -1    0    0    0    0 -0.00000000000E+00 -0.00000000000E+00 -0.45593999997E+02  0.45594000000E+02  0.51100000000E-03 0.  1.
    9900012    2    1    2    0    0  0.42797765546E+02 -0.62552843637E+01  0.35841992851E+01  0.47787264952E+02  0.19999972220E+02 0.  0.
        -12    1    1    2    0    0 -0.42797765546E+02  0.62552843637E+01 -0.35841992851E+01  0.43400735048E+02  0.00000000000E+00 0.  1.
         11    1    3    3    0    0  0.32200534138E+02 -0.29733011653E+01 -0.21819996362E+01  0.32411048136E+02  0.51100000000E-03 0. -1.
        -11    1    3    3    0    0  0.88376509938E+01  0.13039901889E+01  0.19193804191E+01  0.91372034537E+01  0.51100000000E-03 0.  1.
         12    1    3    3    0    0  0.17595804147E+01 -0.45859733872E+01  0.38468185022E+01  0.62390133621E+01  0.00000000000E+00 0. -1.
</event>
<event>
 7    1  0.2983653E-010  0.4778727E+02  0.7816164E-02  0.1312668E+00
        -11   -1    0    0    0    0  0.00000000000E+00  0.00000000000E+00  0.45593999997E+02  0.45594000000E+02  0.51100000000E-03 0.  1.
         11   -1    0    0    0    0 -0.00000000000E+00 -0.00000000000E+00 -0.45593999997E+02  0.45594000000E+02  0.51100000000E-03 0. -1.
    9900012    2    1    2    0    0  0.90367439531E+01 -0.37496191102E+02 -0.19899656553E+02  0.47787269369E+02  0.19999992360E+02 0.  0.
        -12    1    1    2    0    0 -0.90367439531E+01  0.37496191102E+02  0.19899656553E+02  0.43400730631E+02  0.00000000000E+00 0.  1.
         11    1    3    3    0    0  0.71174555749E+01 -0.21303933448E+02 -0.41787594725E+01  0.22846833155E+02  0.51100000000E-03 0. -1.
        -11    1    3    3    0    0  0.27013620592E+01 -0.60313524225E+01 -0.50614543436E+00  0.66280277973E+01  0.51100000000E-03 0.  1.
         12    1    3    3    0    0 -0.78207368106E+00 -0.10160905231E+02 -0.15214751646E+02  0.18312408416E+02  0.00000000000E+00 0. -1.
</event>
<event>
 7    1  0.2983653E-010  0.4778727E+02  0.7816164E-02  0.1312668E+00
        -11   -1    0    0    0    0  0.00000000000E+00  0.00000000000E+00  0.45593999997E+02  0.45594000000E+02  0.51100000000E-03 0.  1.
         11   -1    0    0    0    0 -0.00000000000E+00 -0.00000000000E+00 -0.45593999997E+02  0.45594000000E+02  0.51100000000E-03 0. -1.
    9900012    2    1    2    0    0 -0.26194980954E+02  0.34600151329E+02  0.52515068266E+00  0.47787270946E+02  0.19999999553E+02 0.  0.
        -12    1    1    2    0    0  0.26194980954E+02 -0.34600151329E+02 -0.52515068266E+00  0.43400729054E+02  0.00000000000E+00 0.  1.
         11    1    3    3    0    0 -0.14276346251E+02  0.18448719242E+02 -0.62508646803E+01  0.24150416424E+02  0.51100000000E-03 0. -1.
        -11    1    3    3    0    0 -0.28523877824E+01 -0.87505566803E-01  0.38767730130E+01  0.48138490359E+01  0.51100000000E-03 0.  1.
        -12    1    3    3    0    0 -0.90662469204E+01  0.16238937653E+02  0.28992423500E+01  0.18823005486E+02  0.00000000000E+00 0.  1.
</event>
<event>
 7    1  0.2983653E-010  0.4778727E+02  0.7816164E-02  0.1312668E+00
        -11   -1    0    0    0    0  0.00000000000E+00  0.00000000000E+00  0.45593999997E+02  0.45594000000E+02  0.51100000000E-03 0. -1.
         11   -1    0    0    0    0 -0.00000000000E+00 -0.00000000000E+00 -0.45593999997E+02  0.45594000000E+02  0.51100000000E-03 0.  1.
    9900012    2    1    2    0    0  0.10871798847E+02  0.13667574636E+02  0.39731906214E+02  0.47787274453E+02  0.20000015541E+02 0.  0.
        -12    1    1    2    0    0 -0.10871798847E+02 -0.13667574636E+02 -0.39731906214E+02  0.43400725547E+02  0.00000000000E+00 0.  1.
         11    1    3    3    0    0  0.93734417384E+01  0.12922927413E+02  0.20423668047E+02  0.25922763736E+02  0.51100000000E-03 0. -1.
        -11    1    3    3    0    0  0.41354896599E+01 -0.33174762847E+01  0.84550048984E+01  0.99797310445E+01  0.51100000000E-03 0.  1.
         12    1    3    3    0    0 -0.26371325517E+01  0.40621235079E+01  0.10853233268E+02  0.11884779673E+02  0.00000000000E+00 0. -1.
</event>
<event>
 7    1  0.2983653E-010  0.4778726E+02  0.7816164E-02  0.1312668E+00
        -11   -1    0    0    0    0  0.00000000000E+00  0.00000000000E+00  0.45593999997E+02  0.45594000000E+02  0.51100000000E-03 0.  1.
         11   -1    0    0    0    0 -0.00000000000E+00 -0.00000000000E+00 -0.45593999997E+02  0.45594000000E+02  0.51100000000E-03 0. -1.
    9900012    2    1    2    0    0  0.16827858256E+02  0.23569106673E+02 -0.32325598228E+02  0.47787263789E+02  0.19999966919E+02 0.  0.
        -12    1    1    2    0    0 -0.16827858256E+02 -0.23569106673E+02  0.32325598228E+02  0.43400736211E+02  0.00000000000E+00 0.  1.
         11    1    3    3    0    0 -0.20019873543E+01  0.24846913937E+01 -0.99746574904E+01  0.10472604117E+02  0.51100000000E-03 0. -1.
        -11    1    3    3    0    0  0.27476823091E+01  0.64212298946E+01 -0.10278995071E+02  0.12427376689E+02  0.51100000000E-03 0.  1.
         12    1    3    3    0    0  0.16082163302E+02  0.14663185385E+02 -0.12071945667E+02  0.24887282983E+02  0.00000000000E+00 0. -1.
</event>
<event>
 7    1  0.2983653E-010  0.4778727E+02  0.7816164E-02  0.1312668E+00
        -11   -1    0    0    0    0  0.00000000000E+00  0.00000000000E+00  0.45593999997E+02  0.45594000000E+02  0.51100000000E-03 0.  1.
         11   -1    0    0    0    0 -0.00000000000E+00 -0.00000000000E+00 -0.45593999997E+02  0.45594000000E+02  0.51100000000E-03 0. -1.
    9900012    2    1    2    0    0 -0.39523388234E+02 -0.84483637850E+01 -0.15816141735E+02  0.47787269505E+02  0.19999992979E+02 0.  0.
        -12    1    1    2    0    0  0.39523388234E+02  0.84483637850E+01  0.15816141735E+02  0.43400730495E+02  0.00000000000E+00 0.  1.
         11    1    3    3    0    0 -0.11523630258E+02 -0.70837083762E+01 -0.51859865659E+01  0.14486802118E+02  0.51100000000E-03 0. -1.
        -11    1    3    3    0    0 -0.22637901975E+00 -0.19777367293E+01 -0.44013403628E+01  0.48305783589E+01  0.51100000000E-03 0.  1.
        -12    1    3    3    0    0 -0.27773378956E+02  0.61308132050E+00 -0.62288148067E+01  0.28469889028E+02  0.00000000000E+00 0.  1.
</event>
<event>
 7    1  0.2983653E-010  0.4778727E+02  0.7816164E-02  0.1312668E+00
        -11   -1    0    0    0    0  0.00000000000E+00  0.00000000000E+00  0.45593999997E+02  0.45594000000E+02  0.51100000000E-03 0.  1.
         11   -1    0    0    0    0 -0.00000000000E+00 -0.00000000000E+00 -0.45593999997E+02  0.45594000000E+02  0.51100000000E-03 0. -1.
    9900012    2    1    2    0    0 -0.31719026897E+02 -0.17087828460E+02 -0.24197782067E+02  0.47787271830E+02  0.20000003580E+02 0.  0.
        -12    1    1    2    0    0  0.31719026897E+02  0.17087828460E+02  0.24197782067E+02  0.43400728170E+02  0.00000000000E+00 0.  1.
         11    1    3    3    0    0 -0.46597166779E+01 -0.21111276987E+01 -0.61058336791E+01  0.79656151587E+01  0.51100000000E-03 0. -1.
        -11    1    3    3    0    0 -0.13538235172E+02 -0.82402401881E+00 -0.14620216467E+02  0.19942757004E+02  0.51100000000E-03 0.  1.
        -12    1    3    3    0    0 -0.13521075048E+02 -0.14152676742E+02 -0.34717319209E+01  0.19878899666E+02  0.00000000000E+00 0.  1.
</event>
<event>
 7    1  0.2983653E-010  0.4778727E+02  0.7816164E-02  0.1312668E+00
        -11   -1    0    0    0    0  0.00000000000E+00  0.00000000000E+00  0.45593999997E+02  0.45594000000E+02  0.51100000000E-03 0.  1.
         11   -1    0    0    0    0 -0.00000000000E+00 -0.00000000000E+00 -0.45593999997E+02  0.45594000000E+02  0.51100000000E-03 0. -1.
    9900012    2    1    2    0    0 -0.27557222750E+02 -0.30357535477E+02 -0.14235260624E+02  0.47787272691E+02  0.20000007509E+02 0.  0.
        -12    1    1    2    0    0  0.27557222750E+02  0.30357535477E+02  0.14235260624E+02  0.43400727309E+02  0.00000000000E+00 0.  1.
         11    1    3    3    0    0 -0.12886043801E+02 -0.16273530698E+02 -0.14517648884E+02  0.25330614987E+02  0.51100000000E-03 0. -1.
        -11    1    3    3    0    0 -0.62244186529E+01 -0.74413016564E+01  0.47709627310E+01  0.10811033417E+02  0.51100000000E-03 0.  1.
        -12    1    3    3    0    0 -0.84467602952E+01 -0.66427031226E+01 -0.44885744706E+01  0.11645624287E+02  0.00000000000E+00 0.  1.
</event>
<event>
 7    1  0.2983653E-010  0.4778727E+02  0.7816164E-02  0.1312668E+00
        -11   -1    0    0    0    0  0.00000000000E+00  0.00000000000E+00  0.45593999997E+02  0.45594000000E+02  0.51100000000E-03 0.  1.
         11   -1    0    0    0    0 -0.00000000000E+00 -0.00000000000E+00 -0.45593999997E+02  0.45594000000E+02  0.51100000000E-03 0. -1.
    9900012    2    1    2    0    0 -0.18883162459E+02 -0.21356934133E+01 -0.39019076581E+02  0.47787270190E+02  0.19999996104E+02 0.  0.
        -12    1    1    2    0    0  0.18883162459E+02  0.21356934133E+01  0.39019076581E+02  0.43400729810E+02  0.00000000000E+00 0.  1.
         11    1    3    3    0    0 -0.10514385063E+02 -0.74699921521E+01 -0.28042154493E+02  0.30866089887E+02  0.51100000000E-03 0.  1.
        -11    1    3    3    0    0 -0.27936042991E+01  0.51720344883E+01 -0.94658959948E+01  0.11142591843E+02  0.51100000000E-03 0. -1.
         12    1    3    3    0    0 -0.55751730965E+01  0.16226425053E+00 -0.15110260931E+01  0.57785884606E+01  0.00000000000E+00 0. -1.
</event>
<event>
 7    1  0.2983653E-010  0.4778727E+02  0.7816164E-02  0.1312668E+00
        -11   -1    0    0    0    0  0.00000000000E+00  0.00000000000E+00  0.45593999997E+02  0.45594000000E+02  0.51100000000E-03 0.  1.
         11   -1    0    0    0    0 -0.00000000000E+00 -0.00000000000E+00 -0.45593999997E+02  0.45594000000E+02  0.51100000000E-03 0. -1.
    9900012    2    1    2    0    0  0.21218189072E+02  0.36194325811E+02  0.11107753540E+02  0.47787274694E+02  0.20000016640E+02 0.  0.
        -12    1    1    2    0    0 -0.21218189072E+02 -0.36194325811E+02 -0.11107753540E+02  0.43400725306E+02  0.00000000000E+00 0.  1.
         11    1    3    3    0    0  0.11210125692E+02  0.16106613469E+02 -0.38163613747E+01  0.19991361382E+02  0.51100000000E-03 0. -1.
        -11    1    3    3    0    0  0.10045819000E+02  0.17462404372E+02  0.15081584204E+02  0.25165615991E+02  0.51100000000E-03 0.  1.
        -12    1    3    3    0    0 -0.37755621224E-01  0.26253079692E+01 -0.15746928972E+00  0.26302973211E+01  0.00000000000E+00 0.  1.
</event>
<event>
 7    1  0.2983653E-010  0.4778727E+02  0.7816164E-02  0.1312668E+00
        -11   -1    0    0    0    0  0.00000000000E+00  0.00000000000E+00  0.45593999997E+02  0.45594000000E+02  0.51100000000E-03 0.  1.
         11   -1    0    0    0    0 -0.00000000000E+00 -0.00000000000E+00 -0.45593999997E+02  0.45594000000E+02  0.51100000000E-03 0. -1.
    9900012    2    1    2    0    0  0.12707554205E+02  0.27213093087E+02 -0.31330319178E+02  0.47787271100E+02  0.20000000253E+02 0.  0.
        -12    1    1    2    0    0 -0.12707554205E+02 -0.27213093087E+02  0.31330319178E+02  0.43400728900E+02  0.00000000000E+00 0.  1.
         11    1    3    3    0    0  0.46450604930E+01  0.11283940272E+02 -0.23892886315E+02  0.26828602493E+02  0.51100000000E-03 0. -1.
        -11    1    3    3    0    0  0.76098021941E+01  0.69806274378E+01 -0.21274703690E+01  0.10543451963E+02  0.51100000000E-03 0.  1.
        -12    1    3    3    0    0  0.45269151754E+00  0.89485253777E+01 -0.53099624943E+01  0.10415216644E+02  0.00000000000E+00 0.  1.
</event>
<event>
 7    1  0.2983653E-010  0.4778727E+02  0.7816164E-02  0.1312668E+00
        -11   -1    0    0    0    0  0.00000000000E+00  0.00000000000E+00  0.45593999997E+02  0.45594000000E+02  0.51100000000E-03 0.  1.
         11   -1    0    0    0    0 -0.00000000000E+00 -0.00000000000E+00 -0.45593999997E+02  0.45594000000E+02  0.51100000000E-03 0. -1.
    9900012    2    1    2    0    0 -0.11664587933E+01 -0.26459964569E+02 -0.34382161390E+02  0.47787269903E+02  0.19999994797E+02 0.  0.
        -12    1    1    2    0    0  0.11664587933E+01  0.26459964569E+02  0.34382161390E+02  0.43400730097E+02  0.00000000000E+00 0.  1.
         11    1    3    3    0    0  0.11545583774E+01 -0.32270308290E+01 -0.32662467110E+01  0.47344588769E+01  0.51100000000E-03 0. -1.
        -11    1    3    3    0    0  0.10765136617E+01 -0.24738047617E+02 -0.30500407480E+02  0.39286190173E+02  0.51100000000E-03 0.  1.
        -12    1    3    3    0    0 -0.33975308325E+01  0.15051138772E+01 -0.61550719797E+00  0.37666208532E+01  0.00000000000E+00 0.  1.
</event>
<event>
 7    1  0.2983653E-010  0.4778727E+02  0.7816164E-02  0.1312668E+00
        -11   -1    0    0    0    0  0.00000000000E+00  0.00000000000E+00  0.45593999997E+02  0.45594000000E+02  0.51100000000E-03 0.  1.
         11   -1    0    0    0    0 -0.00000000000E+00 -0.00000000000E+00 -0.45593999997E+02  0.45594000000E+02  0.51100000000E-03 0. -1.
    9900012    2    1    2    0    0  0.34138213159E+02 -0.23749299941E+02  0.12416781966E+02  0.47787270516E+02  0.19999997589E+02 0.  0.
        -12    1    1    2    0    0 -0.34138213159E+02  0.23749299941E+02 -0.12416781966E+02  0.43400729484E+02  0.00000000000E+00 0.  1.
         11    1    3    3    0    0  0.11897170724E+02 -0.40598850247E+01  0.31192022429E+01  0.12952017624E+02  0.51100000000E-03 0. -1.
        -11    1    3    3    0    0  0.21218309961E+02 -0.21749205075E+02  0.62562632387E+01  0.31022337580E+02  0.51100000000E-03 0.  1.
        -12    1    3    3    0    0  0.10227324743E+01  0.20597901583E+01  0.30413164841E+01  0.38129153107E+01  0.00000000000E+00 0.  1.
</event>
<event>
 7    1  0.2983653E-010  0.4778725E+02  0.7816164E-02  0.1312668E+00
        -11   -1    0    0    0    0  0.00000000000E+00  0.00000000000E+00  0.45593999997E+02  0.45594000000E+02  0.51100000000E-03 0. -1.
         11   -1    0    0    0    0 -0.00000000000E+00 -0.00000000000E+00 -0.45593999997E+02  0.45594000000E+02  0.51100000000E-03 0.  1.
    9900012    2    1    2    0    0  0.31137995530E+02  0.45621724960E+01 -0.29887067109E+02  0.47787251575E+02  0.19999911229E+02 0.  0.
        -12    1    1    2    0    0 -0.31137995530E+02 -0.45621724960E+01  0.29887067109E+02  0.43400748425E+02  0.00000000000E+00 0.  1.
         11    1    3    3    0    0  0.13910743246E+01 -0.57594238673E-01  0.85043812957E+00  0.16314564494E+01  0.51100000000E-03 0. -1.
        -11    1    3    3    0    0  0.75261596004E+01 -0.56744606597E+01 -0.51635648690E+01  0.10747324529E+02  0.51100000000E-03 0.  1.
        -12    1    3    3    0    0  0.22220761605E+02  0.10294227394E+02 -0.25573940370E+02  0.35408470596E+02  0.00000000000E+00 0.  1.
</event>
<event>
 7    1  0.2983653E-010  0.4778727E+02  0.7816164E-02  0.1312668E+00
        -11   -1    0    0    0    0  0.00000000000E+00  0.00000000000E+00  0.45593999997E+02  0.45594000000E+02  0.51100000000E-03 0.  1.
         11   -1    0    0    0    0 -0.00000000000E+00 -0.00000000000E+00 -0.45593999997E+02  0.45594000000E+02  0.51100000000E-03 0. -1.
    9900012    2    1    2    0    0  0.34718775875E+02  0.11099562485E+02 -0.23559064715E+02  0.47787271713E+02  0.20000003050E+02 0.  0.
        -12    1    1    2    0    0 -0.34718775875E+02 -0.11099562485E+02  0.23559064715E+02  0.43400728287E+02  0.00000000000E+00 0.  1.
         11    1    3    3    0    0  0.12511658230E+02  0.14285165151E+02 -0.99480941108E+01  0.21437633073E+02  0.51100000000E-03 0. -1.
        -11    1    3    3    0    0  0.10353994680E+02 -0.20088509538E+01 -0.51372822183E+01  0.11731681757E+02  0.51100000000E-03 0.  1.
         12    1    3    3    0    0  0.11853122964E+02 -0.11767517127E+01 -0.84736883854E+01  0.14617956884E+02  0.00000000000E+00 0. -1.
</event>
<event>
 7    1  0.3295233E-010  0.4778727E+02  0.7816164E-02  0.1312668E+00
        -11   -1    0    0    0    0  0.00000000000E+00  0.00000000000E+00  0.45593999997E+02  0.45594000000E+02  0.51100000000E-03 0.  1.
         11   -1    0    0    0    0 -0.00000000000E+00 -0.00000000000E+00 -0.45593999997E+02  0.45594000000E+02  0.51100000000E-03 0. -1.
    9900012    2    1    2    0    0 -0.14670514176E+02  0.35462146887E+02 -0.20269078812E+02  0.47787269546E+02  0.19999993169E+02 0.  0.
        -12    1    1    2    0    0  0.14670514176E+02 -0.35462146887E+02  0.20269078812E+02  0.43400730454E+02  0.00000000000E+00 0.  1.
         11    1    3    3    0    0 -0.10295643722E+02  0.25393747364E+02 -0.10633637277E+02  0.29392463777E+02  0.51100000000E-03 0. -1.
        -11    1    3    3    0    0 -0.57448787230E+01  0.19206237540E+01 -0.78954692964E+01  0.99514251651E+01  0.51100000000E-03 0.  1.
        -12    1    3    3    0    0  0.13700082695E+01  0.81477757690E+01 -0.17399722390E+01  0.84433806045E+01  0.00000000000E+00 0.  1.
</event>
<event>
 7    1  0.2983653E-010  0.4778727E+02  0.7816164E-02  0.1312668E+00
        -11   -1    0    0    0    0  0.00000000000E+00  0.00000000000E+00  0.45593999997E+02  0.45594000000E+02  0.51100000000E-03 0.  1.
         11   -1    0    0    0    0 -0.00000000000E+00 -0.00000000000E+00 -0.45593999997E+02  0.45594000000E+02  0.51100000000E-03 0. -1.
    9900012    2    1    2    0    0 -0.20293515875E+02  0.90607140442E+01 -0.37278679000E+02  0.47787271509E+02  0.20000002118E+02 0.  0.
        -12    1    1    2    0    0  0.20293515875E+02 -0.90607140442E+01  0.37278679000E+02  0.43400728491E+02  0.00000000000E+00 0.  1.
         11    1    3    3    0    0 -0.47266061992E+01  0.10294898245E+02 -0.23954562129E+02  0.26498052439E+02  0.51100000000E-03 0. -1.
        -11    1    3    3    0    0 -0.77825668806E-01 -0.18171073923E+00  0.47733854700E+00  0.51665073024E+00  0.51100000000E-03 0.  1.
         12    1    3    3    0    0 -0.15489084007E+02 -0.10524734611E+01 -0.13801455418E+02  0.20772568340E+02  0.00000000000E+00 0. -1.
</event>
<event>
 7    1  0.2983653E-010  0.4778727E+02  0.7816164E-02  0.1312668E+00
        -11   -1    0    0    0    0  0.00000000000E+00  0.00000000000E+00  0.45593999997E+02  0.45594000000E+02  0.51100000000E-03 0.  1.
         11   -1    0    0    0    0 -0.00000000000E+00 -0.00000000000E+00 -0.45593999997E+02  0.45594000000E+02  0.51100000000E-03 0. -1.
    9900012    2    1    2    0    0 -0.10388831755E+02  0.30259871830E+02 -0.29326363965E+02  0.47787270838E+02  0.19999999058E+02 0.  0.
        -12    1    1    2    0    0  0.10388831755E+02 -0.30259871830E+02  0.29326363965E+02  0.43400729162E+02  0.00000000000E+00 0.  1.
         11    1    3    3    0    0 -0.74728796048E+01  0.22975028343E+02 -0.25616942309E+02  0.35212548765E+02  0.51100000000E-03 0. -1.
        -11    1    3    3    0    0  0.20030341505E+01 -0.59818242090E+00 -0.24134697535E+01  0.31929303984E+01  0.51100000000E-03 0.  1.
        -12    1    3    3    0    0 -0.49189863009E+01  0.78830259081E+01 -0.12959519016E+01  0.93817916747E+01  0.00000000000E+00 0.  1.
</event>
<event>
 7    1  0.2983653E-010  0.4778727E+02  0.7816164E-02  0.1312668E+00
        -11   -1    0    0    0    0  0.00000000000E+00  0.00000000000E+00  0.45593999997E+02  0.45594000000E+02  0.51100000000E-03 0.  1.
         11   -1    0    0    0    0 -0.00000000000E+00 -0.00000000000E+00 -0.45593999997E+02  0.45594000000E+02  0.51100000000E-03 0. -1.
    9900012    2    1    2    0    0  0.33815660761E+02  0.26511297079E+02  0.61053562275E+01  0.47787272354E+02  0.20000005973E+02 0.  0.
        -12    1    1    2    0    0 -0.33815660761E+02 -0.26511297079E+02 -0.61053562275E+01  0.43400727646E+02  0.00000000000E+00 0.  1.
         11    1    3    3    0    0  0.73950018752E+01  0.10250072529E+02  0.89668058117E+01  0.15496891505E+02  0.51100000000E-03 0. -1.
        -11    1    3    3    0    0  0.27625710886E+01 -0.10679842233E+00  0.15752730655E+01  0.31819318683E+01  0.51100000000E-03 0.  1.
         12    1    3    3    0    0  0.23658087797E+02  0.16368022972E+02 -0.44367226497E+01  0.29108448981E+02  0.00000000000E+00 0. -1.
</event>
<event>
 7    1  0.2983653E-010  0.4778727E+02  0.7816164E-02  0.1312668E+00
        -11   -1    0    0    0    0  0.00000000000E+00  0.00000000000E+00  0.45593999997E+02  0.45594000000E+02  0.51100000000E-03 0. -1.
         11   -1    0    0    0    0 -0.00000000000E+00 -0.00000000000E+00 -0.45593999997E+02  0.45594000000E+02  0.51100000000E-03 0.  1.
    9900012    2    1    2    0    0  0.29952987340E+02 -0.31268353291E+02 -0.29549402006E+01  0.47787273742E+02  0.20000012299E+02 0.  0.
        -12    1    1    2    0    0 -0.29952987340E+02  0.31268353291E+02  0.29549402006E+01  0.43400726258E+02  0.00000000000E+00 0.  1.
         11    1    3    3    0    0  0.20212190653E+02 -0.26601845945E+02 -0.18990205483E+01  0.33463370093E+02  0.51100000000E-03 0. -1.
        -11    1    3    3    0    0  0.37843910159E+00 -0.66199671764E+00  0.31984389259E+01  0.32880796267E+01  0.51100000000E-03 0.  1.
         12    1    3    3    0    0  0.93623575855E+01 -0.40045106284E+01 -0.42543585782E+01  0.11035824022E+02  0.00000000000E+00 0. -1.
</event>
<event>
 7    1  0.2983653E-010  0.4778727E+02  0.7816164E-02  0.1312668E+00
        -11   -1    0    0    0    0  0.00000000000E+00  0.00000000000E+00  0.45593999997E+02  0.45594000000E+02  0.51100000000E-03 0.  1.
         11   -1    0    0    0    0 -0.00000000000E+00 -0.00000000000E+00 -0.45593999997E+02  0.45594000000E+02  0.51100000000E-03 0. -1.
    9900012    2    1    2    0    0  0.28118407375E+02 -0.27362792769E+02 -0.18554134309E+02  0.47787272340E+02  0.20000005908E+02 0.  0.
        -12    1    1    2    0    0 -0.28118407375E+02  0.27362792769E+02  0.18554134309E+02  0.43400727660E+02  0.00000000000E+00 0.  1.
         11    1    3    3    0    0  0.12240344179E+02 -0.20329863218E+02 -0.11533100789E+02  0.26384498824E+02  0.51100000000E-03 0. -1.
        -11    1    3    3    0    0  0.10946191073E+02 -0.51627800298E+01  0.61948910465E+00  0.12118463750E+02  0.51100000000E-03 0.  1.
         12    1    3    3    0    0  0.49318721226E+01 -0.18701495213E+01 -0.76405226249E+01  0.92843097669E+01  0.00000000000E+00 0. -1.
</event>
<event>
 7    1  0.2983653E-010  0.4778727E+02  0.7816164E-02  0.1312668E+00
        -11   -1    0    0    0    0  0.00000000000E+00  0.00000000000E+00  0.45593999997E+02  0.45594000000E+02  0.51100000000E-03 0.  1.
         11   -1    0    0    0    0 -0.00000000000E+00 -0.00000000000E+00 -0.45593999997E+02  0.45594000000E+02  0.51100000000E-03 0. -1.
    9900012    2    1    2    0    0  0.34589647912E+02 -0.25845114021E+02  0.43829036424E+01  0.47787268372E+02  0.19999987817E+02 0.  0.
        -12    1    1    2    0    0 -0.34589647912E+02  0.25845114021E+02 -0.43829036424E+01  0.43400731628E+02  0.00000000000E+00 0.  1.
         11    1    3    3    0    0  0.23341212792E+02 -0.16801710061E+02  0.84711362514E+00  0.28771987719E+02  0.51100000000E-03 0. -1.
        -11    1    3    3    0    0 -0.11485197042E+00  0.17891847505E+01  0.27670755009E+01  0.32971321077E+01  0.51100000000E-03 0.  1.
        -12    1    3    3    0    0  0.11363287091E+02 -0.10832588711E+02  0.76871451641E+00  0.15718148545E+02  0.00000000000E+00 0.  1.
</event>
<event>
 7    1  0.2983653E-010  0.4778727E+02  0.7816164E-02  0.1312668E+00
        -11   -1    0    0    0    0  0.00000000000E+00  0.00000000000E+00  0.45593999997E+02  0.45594000000E+02  0.51100000000E-03 0.  1.
         11   -1    0    0    0    0 -0.00000000000E+00 -0.00000000000E+00 -0.45593999997E+02  0.45594000000E+02  0.51100000000E-03 0. -1.
    9900012    2    1    2    0    0  0.19163855046E+02 -0.74760699320E+01 -0.38216201711E+02  0.47787273796E+02  0.20000012545E+02 0.  0.
        -12    1    1    2    0    0 -0.19163855046E+02  0.74760699320E+01  0.38216201711E+02  0.43400726204E+02  0.00000000000E+00 0.  1.
         11    1    3    3    0    0 -0.23066883841E+01  0.56817535032E+00 -0.81030586259E+01  0.84441218540E+01  0.51100000000E-03 0.  1.
        -11    1    3    3    0    0  0.14752777816E+02 -0.10292624555E+02 -0.23952280987E+02  0.29954871695E+02  0.51100000000E-03 0. -1.
         12    1    3    3    0    0  0.67177656146E+01  0.22483792730E+01 -0.61608620976E+01  0.93882802469E+01  0.00000000000E+00 0. -1.
</event>
<event>
 7    1  0.2983653E-010  0.4778727E+02  0.7816164E-02  0.1312668E+00
        -11   -1    0    0    0    0  0.00000000000E+00  0.00000000000E+00  0.45593999997E+02  0.45594000000E+02  0.51100000000E-03 0. -1.
         11   -1    0    0    0    0 -0.00000000000E+00 -0.00000000000E+00 -0.45593999997E+02  0.45594000000E+02  0.51100000000E-03 0.  1.
    9900012    2    1    2    0    0  0.27132910543E+02 -0.31274830581E+02  0.13012042917E+02  0.47787272779E+02  0.20000007910E+02 0.  0.
        -12    1    1    2    0    0 -0.27132910543E+02  0.31274830581E+02 -0.13012042917E+02  0.43400727221E+02  0.00000000000E+00 0.  1.
         11    1    3    3    0    0  0.76424951205E+01 -0.20726717076E+02  0.56019663876E+01  0.22790053973E+02  0.51100000000E-03 0. -1.
        -11    1    3    3    0    0  0.17207359587E+02 -0.11060568139E+02  0.88083143344E+01  0.22271412016E+02  0.51100000000E-03 0.  1.
         12    1    3    3    0    0  0.22830558363E+01  0.51245463403E+00 -0.13982378046E+01  0.27258067910E+01  0.00000000000E+00 0. -1.
</event>
<event>
 7    1  0.2983653E-010  0.4778727E+02  0.7816164E-02  0.1312668E+00
        -11   -1    0    0    0    0  0.00000000000E+00  0.00000000000E+00  0.45593999997E+02  0.45594000000E+02  0.51100000000E-03 0. -1.
         11   -1    0    0    0    0 -0.00000000000E+00 -0.00000000000E+00 -0.45593999997E+02  0.45594000000E+02  0.51100000000E-03 0.  1.
    9900012    2    1    2    0    0 -0.31294626017E+02 -0.62945565509E+01  0.29404901175E+02  0.47787271056E+02  0.20000000055E+02 0.  0.
        -12    1    1    2    0    0  0.31294626017E+02  0.62945565509E+01 -0.29404901175E+02  0.43400728944E+02  0.00000000000E+00 0.  1.
         11    1    3    3    0    0 -0.19799812673E+02 -0.10935137838E+02  0.22037094882E+02  0.31579160414E+02  0.51100000000E-03 0. -1.
        -11    1    3    3    0    0 -0.34525439010E+01  0.49262177064E+01  0.49926998080E+01  0.78175911836E+01  0.51100000000E-03 0.  1.
        -12    1    3    3    0    0 -0.80422694435E+01 -0.28563641958E+00  0.23751064854E+01  0.83905194585E+01  0.00000000000E+00 0.  1.
</event>
<event>
 7    1  0.2983653E-010  0.4778727E+02  0.7816164E-02  0.1312668E+00
        -11   -1    0    0    0    0  0.00000000000E+00  0.00000000000E+00  0.45593999997E+02  0.45594000000E+02  0.51100000000E-03 0.  1.
         11   -1    0    0    0    0 -0.00000000000E+00 -0.00000000000E+00 -0.45593999997E+02  0.45594000000E+02  0.51100000000E-03 0. -1.
    9900012    2    1    2    0    0  0.35105485673E+02 -0.12065098556E+02 -0.22486919121E+02  0.47787271215E+02  0.20000000776E+02 0.  0.
        -12    1    1    2    0    0 -0.35105485673E+02  0.12065098556E+02  0.22486919121E+02  0.43400728785E+02  0.00000000000E+00 0.  1.
         11    1    3    3    0    0  0.15864729029E+02 -0.78036471245E+01 -0.16888535881E+02  0.24450136606E+02  0.51100000000E-03 0. -1.
        -11    1    3    3    0    0  0.26213181427E+01 -0.35014402877E+01  0.22762578161E+01  0.49307953517E+01  0.51100000000E-03 0.  1.
        -12    1    3    3    0    0  0.16619438502E+02 -0.76001114388E+00 -0.78746410562E+01  0.18406339257E+02  0.00000000000E+00 0.  1.
</event>
<event>
 7    1  0.2983653E-010  0.4778727E+02  0.7816164E-02  0.1312668E+00
        -11   -1    0    0    0    0  0.00000000000E+00  0.00000000000E+00  0.45593999997E+02  0.45594000000E+02  0.51100000000E-03 0.  1.
         11   -1    0    0    0    0 -0.00000000000E+00 -0.00000000000E+00 -0.45593999997E+02  0.45594000000E+02  0.51100000000E-03 0. -1.
    9900012    2    1    2    0    0 -0.21951225935E+01 -0.21835624762E+02 -0.37443428543E+02  0.47787269442E+02  0.19999992694E+02 0.  0.
        -12    1    1    2    0    0  0.21951225935E+01  0.21835624762E+02  0.37443428543E+02  0.43400730558E+02  0.00000000000E+00 0.  1.
         11    1    3    3    0    0  0.40371877661E+01 -0.78249246441E+00 -0.10663131791E+01  0.42483177344E+01  0.51100000000E-03 0. -1.
        -11    1    3    3    0    0 -0.10567198086E+01 -0.15804149401E+00  0.20996780203E+00  0.10889079882E+01  0.51100000000E-03 0.  1.
         12    1    3    3    0    0 -0.51755905510E+01 -0.20895090803E+02 -0.36587083166E+02  0.42450043720E+02  0.00000000000E+00 0. -1.
</event>
<event>
 7    1  0.2983653E-010  0.4778729E+02  0.7816164E-02  0.1312668E+00
        -11   -1    0    0    0    0  0.00000000000E+00  0.00000000000E+00  0.45593999997E+02  0.45594000000E+02  0.51100000000E-03 0. -1.
         11   -1    0    0    0    0 -0.00000000000E+00 -0.00000000000E+00 -0.45593999997E+02  0.45594000000E+02  0.51100000000E-03 0.  1.
    9900012    2    1    2    0    0  0.17071427062E+02 -0.25422320808E+02  0.30755385514E+02  0.47787288539E+02  0.20000079764E+02 0.  0.
        -12    1    1    2    0    0 -0.17071427062E+02  0.25422320808E+02 -0.30755385514E+02  0.43400711461E+02  0.00000000000E+00 0.  1.
         11    1    3    3    0    0  0.11781185563E+02 -0.95527336703E+01  0.98901685534E+01  0.18107083921E+02  0.51100000000E-03 0. -1.
        -11    1    3    3    0    0  0.34391995553E+01 -0.10874031296E+02  0.21477359864E+02  0.24317681576E+02  0.51100000000E-03 0.  1.
        -12    1    3    3    0    0  0.18510419443E+01 -0.49955558415E+01 -0.61214290381E+00  0.53625230423E+01  0.00000000000E+00 0.  1.
</event>
<event>
 7    1  0.2983653E-010  0.4778728E+02  0.7816164E-02  0.1312668E+00
        -11   -1    0    0    0    0  0.00000000000E+00  0.00000000000E+00  0.45593999997E+02  0.45594000000E+02  0.51100000000E-03 0.  1.
         11   -1    0    0    0    0 -0.00000000000E+00 -0.00000000000E+00 -0.45593999997E+02  0.45594000000E+02  0.51100000000E-03 0. -1.
    9900012    2    1    2    0    0 -0.89447829698E+01 -0.37603636510E+02 -0.19737788393E+02  0.47787275216E+02  0.20000019020E+02 0.  0.
        -12    1    1    2    0    0  0.89447829698E+01  0.37603636510E+02  0.19737788393E+02  0.43400724784E+02  0.00000000000E+00 0.  1.
         11    1    3    3    0    0 -0.12653810787E+02 -0.20210234278E+02 -0.74075976941E+01  0.24968880649E+02  0.51100000000E-03 0. -1.
        -11    1    3    3    0    0  0.39230916663E+01 -0.18064321843E+02 -0.12013731829E+02  0.22046317710E+02  0.51100000000E-03 0.  1.
        -12    1    3    3    0    0 -0.21406384960E+00  0.67091961135E+00 -0.31645886927E+00  0.77207685663E+00  0.00000000000E+00 0.  1.
</event>
<event>
 7    1  0.2983653E-010  0.4778727E+02  0.7816164E-02  0.1312668E+00
        -11   -1    0    0    0    0  0.00000000000E+00  0.00000000000E+00  0.45593999997E+02  0.45594000000E+02  0.51100000000E-03 0. -1.
         11   -1    0    0    0    0 -0.00000000000E+00 -0.00000000000E+00 -0.45593999997E+02  0.45594000000E+02  0.51100000000E-03 0.  1.
    9900012    2    1    2    0    0 -0.11799924644E+02  0.39281991541E+02  0.14188390065E+02  0.47787268513E+02  0.19999988456E+02 0.  0.
        -12    1    1    2    0    0  0.11799924644E+02 -0.39281991541E+02 -0.14188390065E+02  0.43400731487E+02  0.00000000000E+00 0.  1.
         11    1    3    3    0    0 -0.72633495141E+01  0.14118231385E+02  0.81104811786E+01  0.17828645737E+02  0.51100000000E-03 0. -1.
        -11    1    3    3    0    0 -0.10972485795E+01 -0.48877349039E+00 -0.24328044338E+01  0.27131884646E+01  0.51100000000E-03 0.  1.
        -12    1    3    3    0    0 -0.34393265504E+01  0.25652533646E+02  0.85107133202E+01  0.27245434311E+02  0.00000000000E+00 0.  1.
</event>
<event>
 7    1  0.2983653E-010  0.4778725E+02  0.7816164E-02  0.1312668E+00
        -11   -1    0    0    0    0  0.00000000000E+00  0.00000000000E+00  0.45593999997E+02  0.45594000000E+02  0.51100000000E-03 0.  1.
         11   -1    0    0    0    0 -0.00000000000E+00 -0.00000000000E+00 -0.45593999997E+02  0.45594000000E+02  0.51100000000E-03 0. -1.
    9900012    2    1    2    0    0 -0.54891914585E+00  0.41951571334E+02  0.11108071184E+02  0.47787252368E+02  0.19999914845E+02 0.  0.
        -12    1    1    2    0    0  0.54891914585E+00 -0.41951571334E+02 -0.11108071184E+02  0.43400747632E+02  0.00000000000E+00 0.  1.
         11    1    3    3    0    0  0.35999144277E+01  0.18208734208E+02 -0.43079045608E+01  0.19054538234E+02  0.51100000000E-03 0. -1.
        -11    1    3    3    0    0 -0.30103513894E+01  0.19194058720E+02  0.11192585325E+02  0.22422044335E+02  0.51100000000E-03 0.  1.
         12    1    3    3    0    0 -0.11384821842E+01  0.45487784059E+01  0.42233904198E+01  0.63106697987E+01  0.00000000000E+00 0. -1.
</event>
<event>
 7    1  0.4250041E-010  0.4778727E+02  0.7816164E-02  0.1312668E+00
        -11   -1    0    0    0    0  0.00000000000E+00  0.00000000000E+00  0.45593999997E+02  0.45594000000E+02  0.51100000000E-03 0. -1.
         11   -1    0    0    0    0 -0.00000000000E+00 -0.00000000000E+00 -0.45593999997E+02  0.45594000000E+02  0.51100000000E-03 0.  1.
    9900012    2    1    2    0    0 -0.35531416586E+02  0.24717309607E+02  0.31931415817E+01  0.47787272910E+02  0.20000008504E+02 0.  0.
        -12    1    1    2    0    0  0.35531416586E+02 -0.24717309607E+02 -0.31931415817E+01  0.43400727090E+02  0.00000000000E+00 0.  1.
         11    1    3    3    0    0 -0.17729232678E+02  0.10086106082E+02  0.21353184007E+01  0.20508895927E+02  0.51100000000E-03 0. -1.
        -11    1    3    3    0    0 -0.10608776010E+02  0.14173993910E+02 -0.43931513721E+01  0.18241381829E+02  0.51100000000E-03 0.  1.
        -12    1    3    3    0    0 -0.71934078986E+01  0.45720961540E+00  0.54509745531E+01  0.90369951536E+01  0.00000000000E+00 0.  1.
</event>
<event>
 7    1  0.2983653E-010  0.4778727E+02  0.7816164E-02  0.1312668E+00
        -11   -1    0    0    0    0  0.00000000000E+00  0.00000000000E+00  0.45593999997E+02  0.45594000000E+02  0.51100000000E-03 0.  1.
         11   -1    0    0    0    0 -0.00000000000E+00 -0.00000000000E+00 -0.45593999997E+02  0.45594000000E+02  0.51100000000E-03 0. -1.
    9900012    2    1    2    0    0  0.36591851065E+02  0.22635909834E+02 -0.56811503322E+01  0.47787269044E+02  0.19999990880E+02 0.  0.
        -12    1    1    2    0    0 -0.36591851065E+02 -0.22635909834E+02  0.56811503322E+01  0.43400730956E+02  0.00000000000E+00 0.  1.
         11    1    3    3    0    0  0.17492270189E+02  0.99901256686E+01 -0.10081987563E+01  0.20169248678E+02  0.51100000000E-03 0. -1.
        -11    1    3    3    0    0 -0.15504828835E+01  0.18006385409E+01 -0.35428799589E+01  0.42659459667E+01  0.51100000000E-03 0.  1.
        -12    1    3    3    0    0  0.20650063760E+02  0.10845145624E+02 -0.11300716171E+01  0.23352074400E+02  0.00000000000E+00 0.  1.
</event>
<event>
 7    1  0.2983653E-010  0.4778727E+02  0.7816164E-02  0.1312668E+00
        -11   -1    0    0    0    0  0.00000000000E+00  0.00000000000E+00  0.45593999997E+02  0.45594000000E+02  0.51100000000E-03 0. -1.
         11   -1    0    0    0    0 -0.00000000000E+00 -0.00000000000E+00 -0.45593999997E+02  0.45594000000E+02  0.51100000000E-03 0.  1.
    9900012    2    1    2    0    0  0.17747461140E+02  0.33239493050E+02  0.21535712939E+02  0.47787271816E+02  0.20000003519E+02 0.  0.
        -12    1    1    2    0    0 -0.17747461140E+02 -0.33239493050E+02 -0.21535712939E+02  0.43400728184E+02  0.00000000000E+00 0.  1.
         11    1    3    3    0    0  0.28715254993E+01  0.55505549937E+01 -0.82993579305E+00  0.63042139172E+01  0.51100000000E-03 0. -1.
        -11    1    3    3    0    0  0.16352212763E+01  0.12782632829E+02  0.21050368724E+01  0.13057596684E+02  0.51100000000E-03 0.  1.
         12    1    3    3    0    0  0.13240714364E+02  0.14906305227E+02  0.20260611859E+02  0.28425461215E+02  0.00000000000E+00 0. -1.
</event>
<event>
 7    1  0.2983653E-010  0.4778727E+02  0.7816164E-02  0.1312668E+00
        -11   -1    0    0    0    0  0.00000000000E+00  0.00000000000E+00  0.45593999997E+02  0.45594000000E+02  0.51100000000E-03 0.  1.
         11   -1    0    0    0    0 -0.00000000000E+00 -0.00000000000E+00 -0.45593999997E+02  0.45594000000E+02  0.51100000000E-03 0. -1.
    9900012    2    1    2    0    0  0.11157295790E+02 -0.28923554372E+02 -0.30373779253E+02  0.47787265986E+02  0.19999976935E+02 0.  0.
        -12    1    1    2    0    0 -0.11157295790E+02  0.28923554372E+02  0.30373779253E+02  0.43400734014E+02  0.00000000000E+00 0.  1.
         11    1    3    3    0    0  0.65905993314E+01 -0.15247843400E+02 -0.15763085672E+02  0.22899947556E+02  0.51100000000E-03 0. -1.
        -11    1    3    3    0    0 -0.52417732918E+00 -0.39075945560E+01  0.24044355120E+01  0.46179397440E+01  0.51100000000E-03 0.  1.
        -12    1    3    3    0    0  0.50908737879E+01 -0.97681164161E+01 -0.17015129093E+02  0.20269378686E+02  0.00000000000E+00 0.  1.
</event>
<event>
 7    1  0.2983653E-010  0.4778727E+02  0.7816164E-02  0.1312668E+00
        -11   -1    0    0    0    0  0.00000000000E+00  0.00000000000E+00  0.45593999997E+02  0.45594000000E+02  0.51100000000E-03 0. -1.
         11   -1    0    0    0    0 -0.00000000000E+00 -0.00000000000E+00 -0.45593999997E+02  0.45594000000E+02  0.51100000000E-03 0.  1.
    9900012    2    1    2    0    0 -0.62279986619E+01 -0.42926999728E+02 -0.14518482654E+01  0.47787272629E+02  0.20000007224E+02 0.  0.
        -12    1    1    2    0    0  0.62279986619E+01  0.42926999728E+02  0.14518482654E+01  0.43400727371E+02  0.00000000000E+00 0.  1.
         11    1    3    3    0    0 -0.15676951271E+01 -0.60369378997E+01  0.31974857550E+01  0.70090086767E+01  0.51100000000E-03 0. -1.
        -11    1    3    3    0    0  0.37985590736E+01 -0.15154560178E+01 -0.10909804391E+01  0.42327173963E+01  0.51100000000E-03 0.  1.
        -12    1    3    3    0    0 -0.84588626084E+01 -0.35374605810E+02 -0.35583535814E+01  0.36545546556E+02  0.00000000000E+00 0.  1.
</event>
<event>
 7    1  0.2983653E-010  0.4778726E+02  0.7816164E-02  0.1312668E+00
        -11   -1    0    0    0    0  0.00000000000E+00  0.00000000000E+00  0.45593999997E+02  0.45594000000E+02  0.51100000000E-03 0.  1.
         11   -1    0    0    0    0 -0.00000000000E+00 -0.00000000000E+00 -0.45593999997E+02  0.45594000000E+02  0.51100000000E-03 0. -1.
    9900012    2    1    2    0    0 -0.14870922893E+02  0.39400559869E+02 -0.10491713358E+02  0.47787256748E+02  0.19999934815E+02 0.  0.
        -12    1    1    2    0    0  0.14870922893E+02 -0.39400559869E+02  0.10491713358E+02  0.43400743252E+02  0.00000000000E+00 0.  1.
         11    1    3    3    0    0  0.27009451250E+01  0.79512118615E+01 -0.70241398497E+01  0.10947849813E+02  0.51100000000E-03 0.  1.
        -11    1    3    3    0    0 -0.17213143057E+02  0.29706087712E+02 -0.17677788517E+01  0.34378321417E+02  0.51100000000E-03 0. -1.
        -12    1    3    3    0    0 -0.35872496076E+00  0.17432602949E+01 -0.16997946568E+01  0.24610855183E+01  0.00000000000E+00 0.  1.
</event>
<event>
 7    1  0.2983653E-010  0.4778727E+02  0.7816164E-02  0.1312668E+00
        -11   -1    0    0    0    0  0.00000000000E+00  0.00000000000E+00  0.45593999997E+02  0.45594000000E+02  0.51100000000E-03 0.  1.
         11   -1    0    0    0    0 -0.00000000000E+00 -0.00000000000E+00 -0.45593999997E+02  0.45594000000E+02  0.51100000000E-03 0. -1.
    9900012    2    1    2    0    0 -0.13228349760E+02 -0.58545642915E+01 -0.40918917062E+02  0.47787274961E+02  0.20000017856E+02 0.  0.
        -12    1    1    2    0    0  0.13228349760E+02  0.58545642915E+01  0.40918917062E+02  0.43400725039E+02  0.00000000000E+00 0.  1.
         11    1    3    3    0    0 -0.27574218643E+01 -0.39062103114E+01 -0.53338939572E+01  0.71632589889E+01  0.51100000000E-03 0. -1.
        -11    1    3    3    0    0 -0.84959448184E+01 -0.23827906480E+00 -0.48651091189E+01  0.97932191985E+01  0.51100000000E-03 0.  1.
        -12    1    3    3    0    0 -0.19749830771E+01 -0.17100749153E+01 -0.30719913986E+02  0.30830796773E+02  0.00000000000E+00 0.  1.
</event>
<event>
 7    1  0.2983653E-010  0.4778726E+02  0.7816164E-02  0.1312668E+00
        -11   -1    0    0    0    0  0.00000000000E+00  0.00000000000E+00  0.45593999997E+02  0.45594000000E+02  0.51100000000E-03 0.  1.
         11   -1    0    0    0    0 -0.00000000000E+00 -0.00000000000E+00 -0.45593999997E+02  0.45594000000E+02  0.51100000000E-03 0. -1.
    9900012    2    1    2    0    0 -0.16627532622E+02 -0.27308446276E+02 -0.29349585682E+02  0.47787259698E+02  0.19999948265E+02 0.  0.
        -12    1    1    2    0    0  0.16627532622E+02  0.27308446276E+02  0.29349585682E+02  0.43400740302E+02  0.00000000000E+00 0.  1.
         11    1    3    3    0    0  0.67629105334E+00 -0.11680793015E+02 -0.37855635991E+01  0.12297511418E+02  0.51100000000E-03 0.  1.
        -11    1    3    3    0    0 -0.15540981198E+02 -0.10183676899E+02 -0.16961982338E+02  0.25158263391E+02  0.51100000000E-03 0. -1.
         12    1    3    3    0    0 -0.17628424774E+01 -0.54439763628E+01 -0.86020397446E+01  0.10331484889E+02  0.00000000000E+00 0. -1.
</event>
<event>
 7    1  0.2983653E-010  0.4778727E+02  0.7816164E-02  0.1312668E+00
        -11   -1    0    0    0    0  0.00000000000E+00  0.00000000000E+00  0.45593999997E+02  0.45594000000E+02  0.51100000000E-03 0.  1.
         11   -1    0    0    0    0 -0.00000000000E+00 -0.00000000000E+00 -0.45593999997E+02  0.45594000000E+02  0.51100000000E-03 0. -1.
    9900012    2    1    2    0    0 -0.14619849096E+02 -0.31183701794E+02 -0.26409474673E+02  0.47787267314E+02  0.19999982993E+02 0.  0.
        -12    1    1    2    0    0  0.14619849096E+02  0.31183701794E+02  0.26409474673E+02  0.43400732686E+02  0.00000000000E+00 0.  1.
         11    1    3    3    0    0 -0.15623611181E+02 -0.24099026417E+02 -0.13763244217E+02  0.31847875788E+02  0.51100000000E-03 0. -1.
        -11    1    3    3    0    0  0.28032426814E+01 -0.19601423810E+01 -0.19353002876E+01  0.39301037072E+01  0.51100000000E-03 0.  1.
         12    1    3    3    0    0 -0.17994805965E+01 -0.51245329954E+01 -0.10710930169E+02  0.12009287819E+02  0.00000000000E+00 0. -1.
</event>
<event>
 7    1  0.2983653E-010  0.4778727E+02  0.7816164E-02  0.1312668E+00
        -11   -1    0    0    0    0  0.00000000000E+00  0.00000000000E+00  0.45593999997E+02  0.45594000000E+02  0.51100000000E-03 0.  1.
         11   -1    0    0    0    0 -0.00000000000E+00 -0.00000000000E+00 -0.45593999997E+02  0.45594000000E+02  0.51100000000E-03 0. -1.
    9900012    2    1    2    0    0 -0.20158016797E+02  0.13275627827E+02 -0.36069863365E+02  0.47787274447E+02  0.20000015514E+02 0.  0.
        -12    1    1    2    0    0  0.20158016797E+02 -0.13275627827E+02  0.36069863365E+02  0.43400725553E+02  0.00000000000E+00 0.  1.
         11    1    3    3    0    0 -0.90209358973E+01  0.14779787075E+02 -0.16240552839E+02  0.23739733512E+02  0.51100000000E-03 0. -1.
        -11    1    3    3    0    0 -0.11596308017E+02 -0.25324535748E+01 -0.15212060978E+02  0.19294934055E+02  0.51100000000E-03 0.  1.
         12    1    3    3    0    0  0.45922711795E+00  0.10282943262E+01 -0.46172495478E+01  0.47526068798E+01  0.00000000000E+00 0. -1.
</event>
<event>
 7    1  0.2983653E-010  0.4778727E+02  0.7816164E-02  0.1312668E+00
        -11   -1    0    0    0    0  0.00000000000E+00  0.00000000000E+00  0.45593999997E+02  0.45594000000E+02  0.51100000000E-03 0. -1.
         11   -1    0    0    0    0 -0.00000000000E+00 -0.00000000000E+00 -0.45593999997E+02  0.45594000000E+02  0.51100000000E-03 0.  1.
    9900012    2    1    2    0    0  0.37993836749E+02  0.10888833235E+02  0.17931117693E+02  0.47787270722E+02  0.19999998532E+02 0.  0.
        -12    1    1    2    0    0 -0.37993836749E+02 -0.10888833235E+02 -0.17931117693E+02  0.43400729278E+02  0.00000000000E+00 0.  1.
         11    1    3    3    0    0  0.25961296807E+02  0.29418282238E+01  0.66257534498E+01  0.26954478186E+02  0.51100000000E-03 0. -1.
        -11    1    3    3    0    0  0.65254396395E+01  0.75787843901E+01  0.22864182682E+01  0.10258998201E+02  0.51100000000E-03 0.  1.
         12    1    3    3    0    0  0.55071003019E+01  0.36822062059E+00  0.90189459753E+01  0.10573794336E+02  0.00000000000E+00 0. -1.
</event>
<event>
 7    1  0.2983653E-010  0.4778727E+02  0.7816164E-02  0.1312668E+00
        -11   -1    0    0    0    0  0.00000000000E+00  0.00000000000E+00  0.45593999997E+02  0.45594000000E+02  0.51100000000E-03 0.  1.
         11   -1    0    0    0    0 -0.00000000000E+00 -0.00000000000E+00 -0.45593999997E+02  0.45594000000E+02  0.51100000000E-03 0. -1.
    9900012    2    1    2    0    0  0.27370403066E+02  0.86997000221E+01 -0.32539199922E+02  0.47787271019E+02  0.19999999886E+02 0.  0.
        -12    1    1    2    0    0 -0.27370403066E+02 -0.86997000221E+01  0.32539199922E+02  0.43400728981E+02  0.00000000000E+00 0.  1.
         11    1    3    3    0    0 -0.97307102548E+00  0.18936567943E+01  0.79871528630E+00  0.22739282409E+01  0.51100000000E-03 0.  1.
        -11    1    3    3    0    0  0.19498855005E+02  0.46754689341E+01 -0.29430573885E+02  0.35612133266E+02  0.51100000000E-03 0. -1.
         12    1    3    3    0    0  0.88446190857E+01  0.21305742937E+01 -0.39073413232E+01  0.99012095124E+01  0.00000000000E+00 0. -1.
</event>
<event>
 7    1  0.2983653E-010  0.4778727E+02  0.7816164E-02  0.1312668E+00
        -11   -1    0    0    0    0  0.00000000000E+00  0.00000000000E+00  0.45593999997E+02  0.45594000000E+02  0.51100000000E-03 0.  1.
         11   -1    0    0    0    0 -0.00000000000E+00 -0.00000000000E+00 -0.45593999997E+02  0.45594000000E+02  0.51100000000E-03 0. -1.
    9900012    2    1    2    0    0 -0.17770533841E+02  0.36116341198E+02  0.16230873337E+02  0.47787271621E+02  0.20000002628E+02 0.  0.
        -12    1    1    2    0    0  0.17770533841E+02 -0.36116341198E+02 -0.16230873337E+02  0.43400728379E+02  0.00000000000E+00 0.  1.
         11    1    3    3    0    0 -0.14421340623E+02  0.30823616696E+02  0.62933429527E+01  0.34607464186E+02  0.51100000000E-03 0. -1.
        -11    1    3    3    0    0 -0.49981751483E+01  0.33803313687E+01  0.60537376627E+01  0.85472881620E+01  0.51100000000E-03 0.  1.
         12    1    3    3    0    0  0.16489819306E+01  0.19123931336E+01  0.38837927220E+01  0.46325192728E+01  0.00000000000E+00 0. -1.
</event>
<event>
 7    1  0.2983653E-010  0.4778727E+02  0.7816164E-02  0.1312668E+00
        -11   -1    0    0    0    0  0.00000000000E+00  0.00000000000E+00  0.45593999997E+02  0.45594000000E+02  0.51100000000E-03 0. -1.
         11   -1    0    0    0    0 -0.00000000000E+00 -0.00000000000E+00 -0.45593999997E+02  0.45594000000E+02  0.51100000000E-03 0.  1.
    9900012    2    1    2    0    0 -0.36178485806E+02  0.81081745288E+01 -0.22560984854E+02  0.47787269972E+02  0.19999995110E+02 0.  0.
        -12    1    1    2    0    0  0.36178485806E+02 -0.81081745288E+01  0.22560984854E+02  0.43400730028E+02  0.00000000000E+00 0.  1.
         11    1    3    3    0    0 -0.11789923928E+02 -0.41078001082E+01 -0.38768715750E+01  0.13073119805E+02  0.51100000000E-03 0. -1.
        -11    1    3    3    0    0 -0.25293373751E+02  0.11831875117E+02 -0.18885613393E+02  0.33710746328E+02  0.51100000000E-03 0.  1.
        -12    1    3    3    0    0  0.90481187328E+00  0.38409952016E+00  0.20150011487E+00  0.10034038388E+01  0.00000000000E+00 0.  1.
</event>
<event>
 7    1  0.2983653E-010  0.4778727E+02  0.7816164E-02  0.1312668E+00
        -11   -1    0    0    0    0  0.00000000000E+00  0.00000000000E+00  0.45593999997E+02  0.45594000000E+02  0.51100000000E-03 0.  1.
         11   -1    0    0    0    0 -0.00000000000E+00 -0.00000000000E+00 -0.45593999997E+02  0.45594000000E+02  0.51100000000E-03 0. -1.
    9900012    2    1    2    0    0  0.43019699849E+01 -0.22024436397E+02 -0.37148895392E+02  0.47787272204E+02  0.20000005289E+02 0.  0.
        -12    1    1    2    0    0 -0.43019699849E+01  0.22024436397E+02  0.37148895392E+02  0.43400727796E+02  0.00000000000E+00 0.  1.
         11    1    3    3    0    0  0.19053358190E+01 -0.10963797363E+02 -0.19332410414E+02  0.22306439650E+02  0.51100000000E-03 0. -1.
        -11    1    3    3    0    0  0.43743258460E+01 -0.18284146161E+01  0.60613627221E+00  0.47796681953E+01  0.51100000000E-03 0.  1.
        -12    1    3    3    0    0 -0.19776916802E+01 -0.92322244180E+01 -0.18422621251E+02  0.20701164359E+02  0.00000000000E+00 0.  1.
</event>
<event>
 7    1  0.2983653E-010  0.4778727E+02  0.7816164E-02  0.1312668E+00
        -11   -1    0    0    0    0  0.00000000000E+00  0.00000000000E+00  0.45593999997E+02  0.45594000000E+02  0.51100000000E-03 0. -1.
         11   -1    0    0    0    0 -0.00000000000E+00 -0.00000000000E+00 -0.45593999997E+02  0.45594000000E+02  0.51100000000E-03 0.  1.
    9900012    2    1    2    0    0 -0.41570590721E+02  0.24314220857E+01 -0.12231007378E+02  0.47787269963E+02  0.19999995069E+02 0.  0.
        -12    1    1    2    0    0  0.41570590721E+02 -0.24314220857E+01  0.12231007378E+02  0.43400730037E+02  0.00000000000E+00 0.  1.
         11    1    3    3    0    0 -0.14476353417E+02  0.18466825928E+01 -0.44433869681E+01  0.15255121529E+02  0.51100000000E-03 0. -1.
        -11    1    3    3    0    0 -0.22696648745E+02  0.33800071871E+01  0.25579172150E+00  0.22948371238E+02  0.51100000000E-03 0.  1.
        -12    1    3    3    0    0 -0.43975885597E+01 -0.27952676942E+01 -0.80434121318E+01  0.95837771961E+01  0.00000000000E+00 0.  1.
</event>
<event>
 7    1  0.2983653E-010  0.4778727E+02  0.7816164E-02  0.1312668E+00
        -11   -1    0    0    0    0  0.00000000000E+00  0.00000000000E+00  0.45593999997E+02  0.45594000000E+02  0.51100000000E-03 0. -1.
         11   -1    0    0    0    0 -0.00000000000E+00 -0.00000000000E+00 -0.45593999997E+02  0.45594000000E+02  0.51100000000E-03 0.  1.
    9900012    2    1    2    0    0  0.53277743418E+01  0.14892815480E+02  0.40415862986E+02  0.47787272895E+02  0.20000008436E+02 0.  0.
        -12    1    1    2    0    0 -0.53277743418E+01 -0.14892815480E+02 -0.40415862986E+02  0.43400727105E+02  0.00000000000E+00 0.  1.
         11    1    3    3    0    0  0.71277465035E+01  0.11464148652E+02  0.12391050365E+02  0.18324017135E+02  0.51100000000E-03 0. -1.
        -11    1    3    3    0    0  0.87912038964E+00  0.36993425695E+01  0.50001915688E+01  0.62817118759E+01  0.51100000000E-03 0.  1.
         12    1    3    3    0    0 -0.26790925513E+01 -0.27067574148E+00  0.23024621052E+02  0.23181543884E+02  0.00000000000E+00 0. -1.
</event>
<event>
 7    1  0.2983653E-010  0.4778729E+02  0.7816164E-02  0.1312668E+00
        -11   -1    0    0    0    0  0.00000000000E+00  0.00000000000E+00  0.45593999997E+02  0.45594000000E+02  0.51100000000E-03 0.  1.
         11   -1    0    0    0    0 -0.00000000000E+00 -0.00000000000E+00 -0.45593999997E+02  0.45594000000E+02  0.51100000000E-03 0. -1.
    9900012    2    1    2    0    0 -0.30702001231E+02 -0.36752995673E+01 -0.30454902640E+02  0.47787288009E+02  0.20000077347E+02 0.  0.
        -12    1    1    2    0    0  0.30702001231E+02  0.36752995673E+01  0.30454902640E+02  0.43400711991E+02  0.00000000000E+00 0.  1.
         11    1    3    3    0    0 -0.24155223211E+02  0.41705398840E+00 -0.27801309594E+02  0.36831529398E+02  0.51100000000E-03 0. -1.
        -11    1    3    3    0    0 -0.69565475322E+01 -0.92000271595E+00 -0.37248899643E+00  0.70269984260E+01  0.51100000000E-03 0.  1.
         12    1    3    3    0    0  0.40976951178E+00 -0.31723508397E+01 -0.22811040499E+01  0.39287601848E+01  0.00000000000E+00 0. -1.
</event>
<event>
 7    1  0.2983653E-010  0.4778727E+02  0.7816164E-02  0.1312668E+00
        -11   -1    0    0    0    0  0.00000000000E+00  0.00000000000E+00  0.45593999997E+02  0.45594000000E+02  0.51100000000E-03 0. -1.
         11   -1    0    0    0    0 -0.00000000000E+00 -0.00000000000E+00 -0.45593999997E+02  0.45594000000E+02  0.51100000000E-03 0.  1.
    9900012    2    1    2    0    0  0.15600345374E+02  0.38436416094E+02  0.12763004732E+02  0.47787272498E+02  0.20000006625E+02 0.  0.
        -12    1    1    2    0    0 -0.15600345374E+02 -0.38436416094E+02 -0.12763004732E+02  0.43400727502E+02  0.00000000000E+00 0.  1.
         11    1    3    3    0    0  0.29872191897E+01  0.28587624738E+02  0.48883845399E+01  0.29155995444E+02  0.51100000000E-03 0. -1.
        -11    1    3    3    0    0  0.10970372634E+02  0.80134429788E+01  0.42231896739E+01  0.14226723987E+02  0.51100000000E-03 0.  1.
        -12    1    3    3    0    0  0.16427535494E+01  0.18353483774E+01  0.36514305180E+01  0.44045530668E+01  0.00000000000E+00 0.  1.
</event>
<event>
 7    1  0.2983653E-010  0.4778728E+02  0.7816164E-02  0.1312668E+00
        -11   -1    0    0    0    0  0.00000000000E+00  0.00000000000E+00  0.45593999997E+02  0.45594000000E+02  0.51100000000E-03 0.  1.
         11   -1    0    0    0    0 -0.00000000000E+00 -0.00000000000E+00 -0.45593999997E+02  0.45594000000E+02  0.51100000000E-03 0. -1.
    9900012    2    1    2    0    0 -0.24693569272E+02  0.34851538642E+02 -0.76954872954E+01  0.47787278418E+02  0.20000033618E+02 0.  0.
        -12    1    1    2    0    0  0.24693569272E+02 -0.34851538642E+02  0.76954872954E+01  0.43400721582E+02  0.00000000000E+00 0.  1.
         11    1    3    3    0    0 -0.19702569307E+02  0.16712102627E+02 -0.15588985751E+01  0.25882731242E+02  0.51100000000E-03 0. -1.
        -11    1    3    3    0    0 -0.18430266976E+00 -0.89362015391E+00 -0.14646898545E+01  0.17256422238E+01  0.51100000000E-03 0.  1.
         12    1    3    3    0    0 -0.48066972952E+01  0.19033056170E+02 -0.46718988658E+01  0.20178904952E+02  0.00000000000E+00 0. -1.
</event>
<event>
 7    1  0.2983653E-010  0.4778727E+02  0.7816164E-02  0.1312668E+00
        -11   -1    0    0    0    0  0.00000000000E+00  0.00000000000E+00  0.45593999997E+02  0.45594000000E+02  0.51100000000E-03 0.  1.
         11   -1    0    0    0    0 -0.00000000000E+00 -0.00000000000E+00 -0.45593999997E+02  0.45594000000E+02  0.51100000000E-03 0. -1.
    9900012    2    1    2    0    0 -0.17423389212E+02 -0.37449452336E+02 -0.13326190354E+02  0.47787270499E+02  0.19999997512E+02 0.  0.
        -12    1    1    2    0    0  0.17423389212E+02  0.37449452336E+02  0.13326190354E+02  0.43400729501E+02  0.00000000000E+00 0.  1.
         11    1    3    3    0    0 -0.50323102196E+01 -0.88838758277E+01 -0.55366838062E+01  0.11614743376E+02  0.51100000000E-03 0. -1.
        -11    1    3    3    0    0 -0.13648001902E+02 -0.11511833790E+02 -0.13697246432E+01  0.17907161109E+02  0.51100000000E-03 0.  1.
        -12    1    3    3    0    0  0.12569229100E+01 -0.17053742718E+02 -0.64197819042E+01  0.18265366013E+02  0.00000000000E+00 0.  1.
</event>
<event>
 7    1  0.3313966E-010  0.4778727E+02  0.7816164E-02  0.1312668E+00
        -11   -1    0    0    0    0  0.00000000000E+00  0.00000000000E+00  0.45593999997E+02  0.45594000000E+02  0.51100000000E-03 0. -1.
         11   -1    0    0    0    0 -0.00000000000E+00 -0.00000000000E+00 -0.45593999997E+02  0.45594000000E+02  0.51100000000E-03 0.  1.
    9900012    2    1    2    0    0 -0.32558202407E+02 -0.75661675724E+01  0.27682846945E+02  0.47787269007E+02  0.19999990712E+02 0.  0.
        -12    1    1    2    0    0  0.32558202407E+02  0.75661675724E+01 -0.27682846945E+02  0.43400730993E+02  0.00000000000E+00 0.  1.
         11    1    3    3    0    0 -0.12983494680E+02 -0.59878025661E+01  0.19022995220E+02  0.23797043117E+02  0.51100000000E-03 0. -1.
        -11    1    3    3    0    0 -0.19722986723E+02  0.71508349486E+00  0.89560373388E+01  0.21672982138E+02  0.51100000000E-03 0.  1.
        -12    1    3    3    0    0  0.14827899704E+00 -0.22934485012E+01 -0.29618561372E+00  0.23172437520E+01  0.00000000000E+00 0.  1.
</event>
<event>
 7    1  0.2983653E-010  0.4778727E+02  0.7816164E-02  0.1312668E+00
        -11   -1    0    0    0    0  0.00000000000E+00  0.00000000000E+00  0.45593999997E+02  0.45594000000E+02  0.51100000000E-03 0.  1.
         11   -1    0    0    0    0 -0.00000000000E+00 -0.00000000000E+00 -0.45593999997E+02  0.45594000000E+02  0.51100000000E-03 0. -1.
    9900012    2    1    2    0    0  0.41993758380E+01 -0.19824550883E+02 -0.38379362507E+02  0.47787273720E+02  0.20000012200E+02 0.  0.
        -12    1    1    2    0    0 -0.41993758380E+01  0.19824550883E+02  0.38379362507E+02  0.43400726280E+02  0.00000000000E+00 0.  1.
         11    1    3    3    0    0  0.69778635419E+01 -0.15985737748E+02 -0.29609983148E+02  0.34365469490E+02  0.51100000000E-03 0. -1.
        -11    1    3    3    0    0 -0.16999922128E+01 -0.28078308647E+01  0.10835242999E+01  0.34565753077E+01  0.51100000000E-03 0.  1.
         12    1    3    3    0    0 -0.10784954911E+01 -0.10309822697E+01 -0.98529036591E+01  0.99652289226E+01  0.00000000000E+00 0. -1.
</event>
<event>
 7    1  0.2983653E-010  0.4778728E+02  0.7816164E-02  0.1312668E+00
        -11   -1    0    0    0    0  0.00000000000E+00  0.00000000000E+00  0.45593999997E+02  0.45594000000E+02  0.51100000000E-03 0.  1.
         11   -1    0    0    0    0 -0.00000000000E+00 -0.00000000000E+00 -0.45593999997E+02  0.45594000000E+02  0.51100000000E-03 0. -1.
    9900012    2    1    2    0    0  0.26765069184E+01  0.14185628658E+02 -0.40929533462E+02  0.47787280431E+02  0.20000042798E+02 0.  0.
        -12    1    1    2    0    0 -0.26765069184E+01 -0.14185628658E+02  0.40929533462E+02  0.43400719569E+02  0.00000000000E+00 0.  1.
         11    1    3    3    0    0 -0.26185169273E+01  0.24490867800E+00 -0.25853204719E+02  0.25986627439E+02  0.51100000000E-03 0. -1.
        -11    1    3    3    0    0  0.41257725589E+01  0.40574848052E+01 -0.52028317152E+01  0.77816862099E+01  0.51100000000E-03 0.  1.
         12    1    3    3    0    0  0.11692512869E+01  0.98832351743E+01 -0.98734970273E+01  0.14018966782E+02  0.00000000000E+00 0. -1.
</event>
<event>
 7    1  0.2983653E-010  0.4778727E+02  0.7816164E-02  0.1312668E+00
        -11   -1    0    0    0    0  0.00000000000E+00  0.00000000000E+00  0.45593999997E+02  0.45594000000E+02  0.51100000000E-03 0.  1.
         11   -1    0    0    0    0 -0.00000000000E+00 -0.00000000000E+00 -0.45593999997E+02  0.45594000000E+02  0.51100000000E-03 0. -1.
    9900012    2    1    2    0    0 -0.14408508148E+02 -0.16928301865E+02 -0.37275341912E+02  0.47787266991E+02  0.19999981517E+02 0.  0.
        -12    1    1    2    0    0  0.14408508148E+02  0.16928301865E+02  0.37275341912E+02  0.43400733009E+02  0.00000000000E+00 0.  1.
         11    1    3    3    0    0 -0.50807816762E+01 -0.95445091241E+01 -0.14559732767E+02  0.18135540118E+02  0.51100000000E-03 0. -1.
        -11    1    3    3    0    0  0.11767031324E+01  0.16608268089E+01  0.93369111681E+00  0.22393649354E+01  0.51100000000E-03 0.  1.
        -12    1    3    3    0    0 -0.10504429604E+02 -0.90446195497E+01 -0.23649300261E+02  0.27412361937E+02  0.00000000000E+00 0.  1.
</event>
<event>
 7    1  0.2983653E-010  0.4778727E+02  0.7816164E-02  0.1312668E+00
        -11   -1    0    0    0    0  0.00000000000E+00  0.00000000000E+00  0.45593999997E+02  0.45594000000E+02  0.51100000000E-03 0.  1.
         11   -1    0    0    0    0 -0.00000000000E+00 -0.00000000000E+00 -0.45593999997E+02  0.45594000000E+02  0.51100000000E-03 0. -1.
    9900012    2    1    2    0    0  0.96880929424E+01 -0.44547686347E+01 -0.42070405338E+02  0.47787272889E+02  0.20000008409E+02 0.  0.
        -12    1    1    2    0    0 -0.96880929424E+01  0.44547686347E+01  0.42070405338E+02  0.43400727111E+02  0.00000000000E+00 0.  1.
         11    1    3    3    0    0  0.10658241808E+02 -0.33098116050E+01 -0.83932610664E+01  0.13964232986E+02  0.51100000000E-03 0. -1.
        -11    1    3    3    0    0 -0.14929455544E+01  0.21669824860E+00 -0.22597818901E+02  0.22648118330E+02  0.51100000000E-03 0.  1.
         12    1    3    3    0    0  0.52279668851E+00 -0.13616552783E+01 -0.11079325371E+02  0.11174921572E+02  0.00000000000E+00 0. -1.
</event>
<event>
 7    1  0.2983653E-010  0.4778729E+02  0.7816164E-02  0.1312668E+00
        -11   -1    0    0    0    0  0.00000000000E+00  0.00000000000E+00  0.45593999997E+02  0.45594000000E+02  0.51100000000E-03 0.  1.
         11   -1    0    0    0    0 -0.00000000000E+00 -0.00000000000E+00 -0.45593999997E+02  0.45594000000E+02  0.51100000000E-03 0. -1.
    9900012    2    1    2    0    0  0.25332993318E+02 -0.33653384785E+02  0.10455183008E+02  0.47787289065E+02  0.20000082162E+02 0.  0.
        -12    1    1    2    0    0 -0.25332993318E+02  0.33653384785E+02 -0.10455183008E+02  0.43400710935E+02  0.00000000000E+00 0.  1.
         11    1    3    3    0    0  0.13028035640E+02 -0.24609044654E+02 -0.47189379285E+00  0.27848832568E+02  0.51100000000E-03 0. -1.
        -11    1    3    3    0    0  0.55203980681E+00  0.49882656242E-01  0.30874254206E+01  0.31367869256E+01  0.51100000000E-03 0.  1.
         12    1    3    3    0    0  0.11752917871E+02 -0.90942227874E+01  0.78396513802E+01  0.16801669571E+02  0.00000000000E+00 0. -1.
</event>
<event>
 7    1  0.2983653E-010  0.4778727E+02  0.7816164E-02  0.1312668E+00
        -11   -1    0    0    0    0  0.00000000000E+00  0.00000000000E+00  0.45593999997E+02  0.45594000000E+02  0.51100000000E-03 0. -1.
         11   -1    0    0    0    0 -0.00000000000E+00 -0.00000000000E+00 -0.45593999997E+02  0.45594000000E+02  0.51100000000E-03 0.  1.
    9900012    2    1    2    0    0  0.37656096798E+02  0.39506441769E+01 -0.21214003736E+02  0.47787272241E+02  0.20000005457E+02 0.  0.
        -12    1    1    2    0    0 -0.37656096798E+02 -0.39506441769E+01  0.21214003736E+02  0.43400727759E+02  0.00000000000E+00 0.  1.
         11    1    3    3    0    0  0.14197456088E+01 -0.24113970992E+01  0.21631018075E+01  0.35368804411E+01  0.51100000000E-03 0. -1.
        -11    1    3    3    0    0  0.25364663852E+02  0.89632935337E+00 -0.16514317326E+02  0.30280228791E+02  0.51100000000E-03 0.  1.
         12    1    3    3    0    0  0.10871687337E+02  0.54657119228E+01 -0.68627882177E+01  0.13970163009E+02  0.00000000000E+00 0. -1.
</event>
<event>
 7    1  0.2983653E-010  0.4778727E+02  0.7816164E-02  0.1312668E+00
        -11   -1    0    0    0    0  0.00000000000E+00  0.00000000000E+00  0.45593999997E+02  0.45594000000E+02  0.51100000000E-03 0.  1.
         11   -1    0    0    0    0 -0.00000000000E+00 -0.00000000000E+00 -0.45593999997E+02  0.45594000000E+02  0.51100000000E-03 0. -1.
    9900012    2    1    2    0    0  0.24294550807E+02 -0.15225700093E+02 -0.32581836939E+02  0.47787271429E+02  0.20000001753E+02 0.  0.
        -12    1    1    2    0    0 -0.24294550807E+02  0.15225700093E+02  0.32581836939E+02  0.43400728571E+02  0.00000000000E+00 0.  1.
         11    1    3    3    0    0  0.11113010490E+02 -0.10193573186E+02 -0.15941163911E+02  0.21943760925E+02  0.51100000000E-03 0. -1.
        -11    1    3    3    0    0 -0.16619240027E+01  0.22129992350E+01 -0.62655392215E+00  0.28375917753E+01  0.51100000000E-03 0.  1.
        -12    1    3    3    0    0  0.14843464320E+02 -0.72451261418E+01 -0.16014119105E+02  0.23005918728E+02  0.00000000000E+00 0.  1.
</event>
<event>
 7    1  0.2983653E-010  0.4778727E+02  0.7816164E-02  0.1312668E+00
        -11   -1    0    0    0    0  0.00000000000E+00  0.00000000000E+00  0.45593999997E+02  0.45594000000E+02  0.51100000000E-03 0.  1.
         11   -1    0    0    0    0 -0.00000000000E+00 -0.00000000000E+00 -0.45593999997E+02  0.45594000000E+02  0.51100000000E-03 0. -1.
    9900012    2    1    2    0    0 -0.25824996429E+02 -0.45556441061E+01 -0.34582345752E+02  0.47787274528E+02  0.20000015884E+02 0.  0.
        -12    1    1    2    0    0  0.25824996429E+02  0.45556441061E+01  0.34582345752E+02  0.43400725472E+02  0.00000000000E+00 0.  1.
         11    1    3    3    0    0 -0.23004093083E+02 -0.67847712714E+01 -0.16019284836E+02  0.28841617616E+02  0.51100000000E-03 0. -1.
        -11    1    3    3    0    0 -0.61133690839E+00  0.36904167775E+00 -0.66159988204E+01  0.66544244852E+01  0.51100000000E-03 0.  1.
         12    1    3    3    0    0 -0.22095664373E+01  0.18600854875E+01 -0.11947062096E+02  0.12291232427E+02  0.00000000000E+00 0. -1.
</event>
<event>
 7    1  0.2983653E-010  0.4778727E+02  0.7816164E-02  0.1312668E+00
        -11   -1    0    0    0    0  0.00000000000E+00  0.00000000000E+00  0.45593999997E+02  0.45594000000E+02  0.51100000000E-03 0.  1.
         11   -1    0    0    0    0 -0.00000000000E+00 -0.00000000000E+00 -0.45593999997E+02  0.45594000000E+02  0.51100000000E-03 0. -1.
    9900012    2    1    2    0    0 -0.39469005773E+02 -0.16827963421E+02 -0.65299752804E+01  0.47787270205E+02  0.19999996171E+02 0.  0.
        -12    1    1    2    0    0  0.39469005773E+02  0.16827963421E+02  0.65299752804E+01  0.43400729795E+02  0.00000000000E+00 0.  1.
         11    1    3    3    0    0 -0.89750781265E+01 -0.32328194565E+01 -0.65329119324E+01  0.11562097024E+02  0.51100000000E-03 0. -1.
        -11    1    3    3    0    0 -0.92648950928E+01  0.85402613940E+00  0.41938377791E+01  0.10205680639E+02  0.51100000000E-03 0.  1.
        -12    1    3    3    0    0 -0.21229032554E+02 -0.14449170104E+02 -0.41909011271E+01  0.26019492541E+02  0.00000000000E+00 0.  1.
</event>
<event>
 7    1  0.2983653E-010  0.4778727E+02  0.7816164E-02  0.1312668E+00
        -11   -1    0    0    0    0  0.00000000000E+00  0.00000000000E+00  0.45593999997E+02  0.45594000000E+02  0.51100000000E-03 0.  1.
         11   -1    0    0    0    0 -0.00000000000E+00 -0.00000000000E+00 -0.45593999997E+02  0.45594000000E+02  0.51100000000E-03 0. -1.
    9900012    2    1    2    0    0 -0.40661815394E+01  0.31425698714E+02 -0.29656616291E+02  0.47787271184E+02  0.20000000635E+02 0.  0.
        -12    1    1    2    0    0  0.40661815394E+01 -0.31425698714E+02  0.29656616291E+02  0.43400728816E+02  0.00000000000E+00 0.  1.
         11    1    3    3    0    0  0.54238618955E+01  0.13634969609E+02 -0.67459206285E+01  0.16150483568E+02  0.51100000000E-03 0. -1.
        -11    1    3    3    0    0 -0.95502155762E+01  0.16858455459E+02 -0.23556419545E+02  0.30501131783E+02  0.51100000000E-03 0.  1.
        -12    1    3    3    0    0  0.60172141295E-01  0.93227364561E+00  0.64572388253E+00  0.11356558323E+01  0.00000000000E+00 0.  1.
</event>
<event>
 7    1  0.2983653E-010  0.4778727E+02  0.7816164E-02  0.1312668E+00
        -11   -1    0    0    0    0  0.00000000000E+00  0.00000000000E+00  0.45593999997E+02  0.45594000000E+02  0.51100000000E-03 0.  1.
         11   -1    0    0    0    0 -0.00000000000E+00 -0.00000000000E+00 -0.45593999997E+02  0.45594000000E+02  0.51100000000E-03 0. -1.
    9900012    2    1    2    0    0 -0.27497848014E+02  0.26817221672E+02 -0.20207132838E+02  0.47787271421E+02  0.20000001719E+02 0.  0.
        -12    1    1    2    0    0  0.27497848014E+02 -0.26817221672E+02  0.20207132838E+02  0.43400728579E+02  0.00000000000E+00 0.  1.
         11    1    3    3    0    0 -0.27923350048E+01  0.13894059620E+02 -0.10175131847E+02  0.17446355949E+02  0.51100000000E-03 0. -1.
        -11    1    3    3    0    0 -0.53366763345E+01  0.24313971895E+01  0.57438235193E+00  0.58925140594E+01  0.51100000000E-03 0.  1.
         12    1    3    3    0    0 -0.19368836675E+02  0.10491764862E+02 -0.10606383343E+02  0.24448401413E+02  0.00000000000E+00 0. -1.
</event>
<event>
 7    1  0.2983653E-010  0.4778721E+02  0.7816164E-02  0.1312668E+00
        -11   -1    0    0    0    0  0.00000000000E+00  0.00000000000E+00  0.45593999997E+02  0.45594000000E+02  0.51100000000E-03 0.  1.
         11   -1    0    0    0    0 -0.00000000000E+00 -0.00000000000E+00 -0.45593999997E+02  0.45594000000E+02  0.51100000000E-03 0. -1.
    9900012    2    1    2    0    0 -0.11993767667E+02 -0.37031257067E+02 -0.19195412442E+02  0.47787212892E+02  0.19999734857E+02 0.  0.
        -12    1    1    2    0    0  0.11993767667E+02  0.37031257067E+02  0.19195412442E+02  0.43400787108E+02  0.00000000000E+00 0.  1.
         11    1    3    3    0    0 -0.89128444576E+01 -0.17307619760E+02 -0.64613839197E+00  0.19478449455E+02  0.51100000000E-03 0. -1.
        -11    1    3    3    0    0 -0.26838578685E+01 -0.30584472015E+01 -0.67640065941E+01  0.78936036009E+01  0.51100000000E-03 0.  1.
         12    1    3    3    0    0 -0.39706534109E+00 -0.16665190105E+02 -0.11785267456E+02  0.20415159836E+02  0.00000000000E+00 0. -1.
</event>
<event>
 7    1  0.2983653E-010  0.4778728E+02  0.7816164E-02  0.1312668E+00
        -11   -1    0    0    0    0  0.00000000000E+00  0.00000000000E+00  0.45593999997E+02  0.45594000000E+02  0.51100000000E-03 0.  1.
         11   -1    0    0    0    0 -0.00000000000E+00 -0.00000000000E+00 -0.45593999997E+02  0.45594000000E+02  0.51100000000E-03 0. -1.
    9900012    2    1    2    0    0  0.24207695961E+02  0.10682411451E+02 -0.34401981757E+02  0.47787276424E+02  0.20000024525E+02 0.  0.
        -12    1    1    2    0    0 -0.24207695961E+02 -0.10682411451E+02  0.34401981757E+02  0.43400723576E+02  0.00000000000E+00 0.  1.
         11    1    3    3    0    0  0.20992712731E+02  0.11401829295E+02 -0.25274068584E+02  0.34777496202E+02  0.51100000000E-03 0. -1.
        -11    1    3    3    0    0 -0.27101661171E+01  0.12779192174E+01 -0.33746884492E+01  0.45129369925E+01  0.51100000000E-03 0.  1.
         12    1    3    3    0    0  0.59251493477E+01 -0.19973370613E+01 -0.57532247238E+01  0.84968432286E+01  0.00000000000E+00 0. -1.
</event>
<event>
 7    1  0.2983653E-010  0.4778727E+02  0.7816164E-02  0.1312668E+00
        -11   -1    0    0    0    0  0.00000000000E+00  0.00000000000E+00  0.45593999997E+02  0.45594000000E+02  0.51100000000E-03 0. -1.
         11   -1    0    0    0    0 -0.00000000000E+00 -0.00000000000E+00 -0.45593999997E+02  0.45594000000E+02  0.51100000000E-03 0.  1.
    9900012    2    1    2    0    0 -0.19530414125E+02 -0.33172300779E+02  0.20044567306E+02  0.47787270820E+02  0.19999998977E+02 0.  0.
        -12    1    1    2    0    0  0.19530414125E+02  0.33172300779E+02 -0.20044567306E+02  0.43400729180E+02  0.00000000000E+00 0.  1.
         11    1    3    3    0    0 -0.32151373623E+00 -0.17977158519E+02  0.11115205694E+02  0.21138339513E+02  0.51100000000E-03 0. -1.
        -11    1    3    3    0    0 -0.17268075148E+02 -0.10989703890E+02  0.75441524667E+01  0.21814542113E+02  0.51100000000E-03 0.  1.
        -12    1    3    3    0    0 -0.19408252414E+01 -0.42054383704E+01  0.13852091453E+01  0.48343891942E+01  0.00000000000E+00 0.  1.
</event>
<event>
 7    1  0.2983653E-010  0.4778727E+02  0.7816164E-02  0.1312668E+00
        -11   -1    0    0    0    0  0.00000000000E+00  0.00000000000E+00  0.45593999997E+02  0.45594000000E+02  0.51100000000E-03 0.  1.
         11   -1    0    0    0    0 -0.00000000000E+00 -0.00000000000E+00 -0.45593999997E+02  0.45594000000E+02  0.51100000000E-03 0. -1.
    9900012    2    1    2    0    0  0.39767779097E+02  0.47388138687E+01 -0.16723969315E+02  0.47787265434E+02  0.19999974420E+02 0.  0.
        -12    1    1    2    0    0 -0.39767779097E+02 -0.47388138687E+01  0.16723969315E+02  0.43400734566E+02  0.00000000000E+00 0.  1.
         11    1    3    3    0    0  0.25607918286E+02 -0.12021842535E+01 -0.81376797210E+01  0.26896701609E+02  0.51100000000E-03 0. -1.
        -11    1    3    3    0    0  0.67172367134E+00 -0.39408213844E+00 -0.56485307217E+01  0.57019657135E+01  0.51100000000E-03 0.  1.
         12    1    3    3    0    0  0.13488137140E+02  0.63350802606E+01 -0.29377588726E+01  0.15188598112E+02  0.00000000000E+00 0. -1.
</event>
<event>
 7    1  0.2983653E-010  0.4778727E+02  0.7816164E-02  0.1312668E+00
        -11   -1    0    0    0    0  0.00000000000E+00  0.00000000000E+00  0.45593999997E+02  0.45594000000E+02  0.51100000000E-03 0.  1.
         11   -1    0    0    0    0 -0.00000000000E+00 -0.00000000000E+00 -0.45593999997E+02  0.45594000000E+02  0.51100000000E-03 0. -1.
    9900012    2    1    2    0    0 -0.41226074602E+02  0.32189133157E+01 -0.13178483099E+02  0.47787273660E+02  0.20000011925E+02 0.  0.
        -12    1    1    2    0    0  0.41226074602E+02 -0.32189133157E+01  0.13178483099E+02  0.43400726340E+02  0.00000000000E+00 0.  1.
         11    1    3    3    0    0 -0.24589780609E+02  0.56568453114E+01 -0.13486618932E+02  0.28610244665E+02  0.51100000000E-03 0. -1.
        -11    1    3    3    0    0 -0.61624060607E+01 -0.51999982672E+01  0.17459359477E+01  0.82500620016E+01  0.51100000000E-03 0.  1.
         12    1    3    3    0    0 -0.10473887932E+02  0.27620662715E+01 -0.14378001143E+01  0.10926966994E+02  0.00000000000E+00 0. -1.
</event>
<event>
 7    1  0.2983653E-010  0.4778727E+02  0.7816164E-02  0.1312668E+00
        -11   -1    0    0    0    0  0.00000000000E+00  0.00000000000E+00  0.45593999997E+02  0.45594000000E+02  0.51100000000E-03 0.  1.
         11   -1    0    0    0    0 -0.00000000000E+00 -0.00000000000E+00 -0.45593999997E+02  0.45594000000E+02  0.51100000000E-03 0. -1.
    9900012    2    1    2    0    0  0.92305768929E+01  0.69201292382E+01 -0.41839358106E+02  0.47787266997E+02  0.19999981546E+02 0.  0.
        -12    1    1    2    0    0 -0.92305768929E+01 -0.69201292382E+01  0.41839358106E+02  0.43400733003E+02  0.00000000000E+00 0.  1.
         11    1    3    3    0    0 -0.46744920136E+01 -0.19868238793E+01 -0.15842826215E+02  0.16637111753E+02  0.51100000000E-03 0. -1.
        -11    1    3    3    0    0  0.17121636789E+00  0.12136970268E+01 -0.88262357617E+00  0.15104304538E+01  0.51100000000E-03 0.  1.
         12    1    3    3    0    0  0.13733852539E+02  0.76932560908E+01 -0.25113908315E+02  0.29639724791E+02  0.00000000000E+00 0. -1.
</event>
<event>
 7    1  0.2983653E-010  0.4778727E+02  0.7816164E-02  0.1312668E+00
        -11   -1    0    0    0    0  0.00000000000E+00  0.00000000000E+00  0.45593999997E+02  0.45594000000E+02  0.51100000000E-03 0.  1.
         11   -1    0    0    0    0 -0.00000000000E+00 -0.00000000000E+00 -0.45593999997E+02  0.45594000000E+02  0.51100000000E-03 0. -1.
    9900012    2    1    2    0    0 -0.30958218441E+02 -0.29513874084E+02 -0.73582181579E+01  0.47787269281E+02  0.19999991958E+02 0.  0.
        -12    1    1    2    0    0  0.30958218441E+02  0.29513874084E+02  0.73582181579E+01  0.43400730719E+02  0.00000000000E+00 0.  1.
         11    1    3    3    0    0 -0.23348638046E+02 -0.31298544666E+02 -0.47649526092E+01  0.39337800783E+02  0.51100000000E-03 0. -1.
        -11    1    3    3    0    0 -0.25214193914E+01  0.14615919646E+01 -0.60164506491E+00  0.29758669096E+01  0.51100000000E-03 0.  1.
         12    1    3    3    0    0 -0.50881610034E+01  0.32307861738E+00 -0.19916204838E+01  0.54736015878E+01  0.00000000000E+00 0. -1.
</event>
<event>
 7    1  0.3929949E-010  0.4778726E+02  0.7816164E-02  0.1312668E+00
        -11   -1    0    0    0    0  0.00000000000E+00  0.00000000000E+00  0.45593999997E+02  0.45594000000E+02  0.51100000000E-03 0. -1.
         11   -1    0    0    0    0 -0.00000000000E+00 -0.00000000000E+00 -0.45593999997E+02  0.45594000000E+02  0.51100000000E-03 0.  1.
    9900012    2    1    2    0    0 -0.36701744473E+02  0.18014234809E+02  0.14563427740E+02  0.47787261174E+02  0.19999954995E+02 0.  0.
        -12    1    1    2    0    0  0.36701744473E+02 -0.18014234809E+02 -0.14563427740E+02  0.43400738826E+02  0.00000000000E+00 0.  1.
         11    1    3    3    0    0 -0.13807978080E+02  0.10007996314E+02  0.93154583647E+01  0.19431881373E+02  0.51100000000E-03 0. -1.
        -11    1    3    3    0    0 -0.19993564836E+02  0.49096411581E+01 -0.12160045218E+01  0.20623430326E+02  0.51100000000E-03 0.  1.
        -12    1    3    3    0    0 -0.29002015570E+01  0.30965973368E+01  0.64639738970E+01  0.77319494747E+01  0.00000000000E+00 0.  1.
</event>
<event>
 7    1  0.2983653E-010  0.4778727E+02  0.7816164E-02  0.1312668E+00
        -11   -1    0    0    0    0  0.00000000000E+00  0.00000000000E+00  0.45593999997E+02  0.45594000000E+02  0.51100000000E-03 0.  1.
         11   -1    0    0    0    0 -0.00000000000E+00 -0.00000000000E+00 -0.45593999997E+02  0.45594000000E+02  0.51100000000E-03 0. -1.
    9900012    2    1    2    0    0  0.27927678045E+02  0.26797089265E+02 -0.19636303796E+02  0.47787267047E+02  0.19999981775E+02 0.  0.
        -12    1    1    2    0    0 -0.27927678045E+02 -0.26797089265E+02  0.19636303796E+02  0.43400732953E+02  0.00000000000E+00 0.  1.
         11    1    3    3    0    0  0.22781036421E+02  0.10682081234E+02 -0.13349070911E+02  0.28482980433E+02  0.51100000000E-03 0. -1.
        -11    1    3    3    0    0  0.36971608900E+01  0.15831271685E+02 -0.42781874600E+01  0.16810742102E+02  0.51100000000E-03 0.  1.
        -12    1    3    3    0    0  0.14494807344E+01  0.28373634568E+00 -0.20090454251E+01  0.24935445120E+01  0.00000000000E+00 0.  1.
</event>
<event>
 7    1  0.2983653E-010  0.4778727E+02  0.7816164E-02  0.1312668E+00
        -11   -1    0    0    0    0  0.00000000000E+00  0.00000000000E+00  0.45593999997E+02  0.45594000000E+02  0.51100000000E-03 0.  1.
         11   -1    0    0    0    0 -0.00000000000E+00 -0.00000000000E+00 -0.45593999997E+02  0.45594000000E+02  0.51100000000E-03 0. -1.
    9900012    2    1    2    0    0  0.19686589687E+01  0.41877659461E+02 -0.11225376468E+02  0.47787273544E+02  0.20000011395E+02 0.  0.
        -12    1    1    2    0    0 -0.19686589687E+01 -0.41877659461E+02  0.11225376468E+02  0.43400726456E+02  0.00000000000E+00 0.  1.
         11    1    3    3    0    0  0.98733257372E+00  0.11250871014E+02 -0.90787583438E+01  0.14490713492E+02  0.51100000000E-03 0. -1.
        -11    1    3    3    0    0 -0.33848597915E+01  0.26056386452E+02  0.87670924666E+00  0.26289944277E+02  0.51100000000E-03 0.  1.
        -12    1    3    3    0    0  0.43661861865E+01  0.45704019953E+01 -0.30233273707E+01  0.70066157740E+01  0.00000000000E+00 0.  1.
</event>
<event>
 7    1  0.2983653E-010  0.4778727E+02  0.7816164E-02  0.1312668E+00
        -11   -1    0    0    0    0  0.00000000000E+00  0.00000000000E+00  0.45593999997E+02  0.45594000000E+02  0.51100000000E-03 0.  1.
         11   -1    0    0    0    0 -0.00000000000E+00 -0.00000000000E+00 -0.45593999997E+02  0.45594000000E+02  0.51100000000E-03 0. -1.
    9900012    2    1    2    0    0  0.28379858040E+02  0.26119496719E+02  0.19899218174E+02  0.47787270338E+02  0.19999996781E+02 0.  0.
        -12    1    1    2    0    0 -0.28379858040E+02 -0.26119496719E+02 -0.19899218174E+02  0.43400729662E+02  0.00000000000E+00 0.  1.
         11    1    3    3    0    0  0.16285130468E+01  0.12026559509E+02  0.28220528430E+01  0.12460103165E+02  0.51100000000E-03 0. -1.
        -11    1    3    3    0    0  0.23316007413E+02  0.94943658161E+01  0.14258075314E+02  0.28932194799E+02  0.51100000000E-03 0.  1.
        -12    1    3    3    0    0  0.34353375801E+01  0.45985713945E+01  0.28190900164E+01  0.63949723752E+01  0.00000000000E+00 0.  1.
</event>
<event>
 7    1  0.2983653E-010  0.4778727E+02  0.7816164E-02  0.1312668E+00
        -11   -1    0    0    0    0  0.00000000000E+00  0.00000000000E+00  0.45593999997E+02  0.45594000000E+02  0.51100000000E-03 0.  1.
         11   -1    0    0    0    0 -0.00000000000E+00 -0.00000000000E+00 -0.45593999997E+02  0.45594000000E+02  0.51100000000E-03 0. -1.
    9900012    2    1    2    0    0  0.33832361910E+01 -0.43259409509E+02  0.89461188061E+00  0.47787272718E+02  0.20000007629E+02 0.  0.
        -12    1    1    2    0    0 -0.33832361910E+01  0.43259409509E+02 -0.89461188061E+00  0.43400727282E+02  0.00000000000E+00 0.  1.
         11    1    3    3    0    0  0.45478830634E+01 -0.20427428095E+02 -0.51299486006E+01  0.21547144401E+02  0.51100000000E-03 0. -1.
        -11    1    3    3    0    0  0.14949996662E+01 -0.22585336028E+02  0.64490219132E+01  0.23535554198E+02  0.51100000000E-03 0.  1.
        -12    1    3    3    0    0 -0.26596465385E+01 -0.24664538633E+00 -0.42446143206E+00  0.27045741188E+01  0.00000000000E+00 0.  1.
</event>
<event>
 7    1  0.2983653E-010  0.4778727E+02  0.7816164E-02  0.1312668E+00
        -11   -1    0    0    0    0  0.00000000000E+00  0.00000000000E+00  0.45593999997E+02  0.45594000000E+02  0.51100000000E-03 0.  1.
         11   -1    0    0    0    0 -0.00000000000E+00 -0.00000000000E+00 -0.45593999997E+02  0.45594000000E+02  0.51100000000E-03 0. -1.
    9900012    2    1    2    0    0 -0.33818513794E+02 -0.25920512228E+02 -0.82497854844E+01  0.47787265099E+02  0.19999972894E+02 0.  0.
        -12    1    1    2    0    0  0.33818513794E+02  0.25920512228E+02  0.82497854844E+01  0.43400734901E+02  0.00000000000E+00 0.  1.
         11    1    3    3    0    0 -0.45920366394E+01 -0.11195649780E+02 -0.22651492049E+01  0.12310981913E+02  0.51100000000E-03 0. -1.
        -11    1    3    3    0    0 -0.25461200389E+02 -0.72464327135E+01 -0.32653452446E+01  0.26672944947E+02  0.51100000000E-03 0.  1.
        -12    1    3    3    0    0 -0.37652767653E+01 -0.74784297346E+01 -0.27192910350E+01  0.88033382389E+01  0.00000000000E+00 0.  1.
</event>
<event>
 7    1  0.2983653E-010  0.4778727E+02  0.7816164E-02  0.1312668E+00
        -11   -1    0    0    0    0  0.00000000000E+00  0.00000000000E+00  0.45593999997E+02  0.45594000000E+02  0.51100000000E-03 0.  1.
         11   -1    0    0    0    0 -0.00000000000E+00 -0.00000000000E+00 -0.45593999997E+02  0.45594000000E+02  0.51100000000E-03 0. -1.
    9900012    2    1    2    0    0  0.27631797755E+02 -0.12384855207E+02 -0.31092161976E+02  0.47787269337E+02  0.19999992216E+02 0.  0.
        -12    1    1    2    0    0 -0.27631797755E+02  0.12384855207E+02  0.31092161976E+02  0.43400730663E+02  0.00000000000E+00 0.  1.
         11    1    3    3    0    0  0.11974962404E+01 -0.70422015706E+01 -0.35599156989E+01  0.79812029326E+01  0.51100000000E-03 0. -1.
        -11    1    3    3    0    0 -0.84497474586E+00 -0.37496949990E-01 -0.15285567087E+01  0.17469614235E+01  0.51100000000E-03 0.  1.
         12    1    3    3    0    0  0.27279276261E+02 -0.53051566868E+01 -0.26003689569E+02  0.38059104981E+02  0.00000000000E+00 0. -1.
</event>
<event>
 7    1  0.2983653E-010  0.4778727E+02  0.7816164E-02  0.1312668E+00
        -11   -1    0    0    0    0  0.00000000000E+00  0.00000000000E+00  0.45593999997E+02  0.45594000000E+02  0.51100000000E-03 0.  1.
         11   -1    0    0    0    0 -0.00000000000E+00 -0.00000000000E+00 -0.45593999997E+02  0.45594000000E+02  0.51100000000E-03 0. -1.
    9900012    2    1    2    0    0 -0.70206525348E+01  0.12276402863E+02 -0.41031988191E+02  0.47787266318E+02  0.19999978450E+02 0.  0.
        -12    1    1    2    0    0  0.70206525348E+01 -0.12276402863E+02  0.41031988191E+02  0.43400733682E+02  0.00000000000E+00 0.  1.
         11    1    3    3    0    0 -0.48743615854E+01  0.30223911554E+01 -0.28149099847E+01  0.63888940861E+01  0.51100000000E-03 0. -1.
        -11    1    3    3    0    0 -0.24434992783E+01  0.20155826702E+01 -0.31038094025E+02  0.31199303569E+02  0.51100000000E-03 0.  1.
        -12    1    3    3    0    0  0.29720832888E+00  0.72384290374E+01 -0.71789841806E+01  0.10199068663E+02  0.00000000000E+00 0.  1.
</event>
<event>
 7    1  0.2983653E-010  0.4778726E+02  0.7816164E-02  0.1312668E+00
        -11   -1    0    0    0    0  0.00000000000E+00  0.00000000000E+00  0.45593999997E+02  0.45594000000E+02  0.51100000000E-03 0.  1.
         11   -1    0    0    0    0 -0.00000000000E+00 -0.00000000000E+00 -0.45593999997E+02  0.45594000000E+02  0.51100000000E-03 0. -1.
    9900012    2    1    2    0    0  0.41961838182E+01 -0.22873881667E+02 -0.36644254847E+02  0.47787264587E+02  0.19999970557E+02 0.  0.
        -12    1    1    2    0    0 -0.41961838182E+01  0.22873881667E+02  0.36644254847E+02  0.43400735413E+02  0.00000000000E+00 0.  1.
         11    1    3    3    0    0  0.73970871422E+01 -0.13874774438E+02 -0.13848487997E+02  0.20952491115E+02  0.51100000000E-03 0. -1.
        -11    1    3    3    0    0  0.10432966582E+01 -0.18290456241E+01  0.43924060023E+00  0.21510017150E+01  0.51100000000E-03 0.  1.
         12    1    3    3    0    0 -0.42441999821E+01 -0.71700616054E+01 -0.23235007450E+02  0.24683771756E+02  0.00000000000E+00 0. -1.
</event>
<event>
 7    1  0.2983653E-010  0.4778726E+02  0.7816164E-02  0.1312668E+00
        -11   -1    0    0    0    0  0.00000000000E+00  0.00000000000E+00  0.45593999997E+02  0.45594000000E+02  0.51100000000E-03 0.  1.
         11   -1    0    0    0    0 -0.00000000000E+00 -0.00000000000E+00 -0.45593999997E+02  0.45594000000E+02  0.51100000000E-03 0. -1.
    9900012    2    1    2    0    0  0.34838758644E+02  0.70458342610E+00 -0.25872552335E+02  0.47787256850E+02  0.19999935281E+02 0.  0.
        -12    1    1    2    0    0 -0.34838758644E+02 -0.70458342610E+00  0.25872552335E+02  0.43400743150E+02  0.00000000000E+00 0.  1.
         11    1    3    3    0    0  0.29475611158E+02  0.99663338650E+00 -0.20619106328E+02  0.35985448132E+02  0.51100000000E-03 0. -1.
        -11    1    3    3    0    0  0.38246805217E+01 -0.27081461255E+01  0.11164515506E+01  0.48175409553E+01  0.51100000000E-03 0.  1.
         12    1    3    3    0    0  0.15384669641E+01  0.24160961651E+01 -0.63698975580E+01  0.69842677624E+01  0.00000000000E+00 0. -1.
</event>
<event>
 7    1  0.2983653E-010  0.4778727E+02  0.7816164E-02  0.1312668E+00
        -11   -1    0    0    0    0  0.00000000000E+00  0.00000000000E+00  0.45593999997E+02  0.45594000000E+02  0.51100000000E-03 0.  1.
         11   -1    0    0    0    0 -0.00000000000E+00 -0.00000000000E+00 -0.45593999997E+02  0.45594000000E+02  0.51100000000E-03 0. -1.
    9900012    2    1    2    0    0  0.10070055744E+02 -0.29239300546E+02 -0.30451280677E+02  0.47787271734E+02  0.20000003145E+02 0.  0.
        -12    1    1    2    0    0 -0.10070055744E+02  0.29239300546E+02  0.30451280677E+02  0.43400728266E+02  0.00000000000E+00 0.  1.
         11    1    3    3    0    0 -0.26909006251E+00 -0.19982335694E+02 -0.90846658610E+01  0.21952159422E+02  0.51100000000E-03 0. -1.
        -11    1    3    3    0    0  0.80674753340E+01 -0.63133375531E+01 -0.12122821164E+02  0.15871521116E+02  0.51100000000E-03 0.  1.
         12    1    3    3    0    0  0.22716704722E+01 -0.29436272995E+01 -0.92437936527E+01  0.99635911953E+01  0.00000000000E+00 0. -1.
</event>
<event>
 7    1  0.2983653E-010  0.4778727E+02  0.7816164E-02  0.1312668E+00
        -11   -1    0    0    0    0  0.00000000000E+00  0.00000000000E+00  0.45593999997E+02  0.45594000000E+02  0.51100000000E-03 0.  1.
         11   -1    0    0    0    0 -0.00000000000E+00 -0.00000000000E+00 -0.45593999997E+02  0.45594000000E+02  0.51100000000E-03 0. -1.
    9900012    2    1    2    0    0 -0.19745559514E+02 -0.91319757040E+00 -0.38638091518E+02  0.47787272282E+02  0.20000005641E+02 0.  0.
        -12    1    1    2    0    0  0.19745559514E+02  0.91319757040E+00  0.38638091518E+02  0.43400727718E+02  0.00000000000E+00 0.  1.
         11    1    3    3    0    0 -0.34330247840E+01  0.75489607992E+01 -0.69757772059E+01  0.10836693970E+02  0.51100000000E-03 0.  1.
        -11    1    3    3    0    0 -0.12744549306E+02 -0.85052873291E+01 -0.27388445675E+02  0.31382963632E+02  0.51100000000E-03 0. -1.
         12    1    3    3    0    0 -0.35679854243E+01  0.43128959465E-01 -0.42738686368E+01  0.55676146796E+01  0.00000000000E+00 0. -1.
</event>
<event>
 7    1  0.2983653E-010  0.4778727E+02  0.7816164E-02  0.1312668E+00
        -11   -1    0    0    0    0  0.00000000000E+00  0.00000000000E+00  0.45593999997E+02  0.45594000000E+02  0.51100000000E-03 0. -1.
         11   -1    0    0    0    0 -0.00000000000E+00 -0.00000000000E+00 -0.45593999997E+02  0.45594000000E+02  0.51100000000E-03 0.  1.
    9900012    2    1    2    0    0  0.39378525370E+02  0.16683433259E+02  0.73903815453E+01  0.47787274833E+02  0.20000017275E+02 0.  0.
        -12    1    1    2    0    0 -0.39378525370E+02 -0.16683433259E+02 -0.73903815453E+01  0.43400725167E+02  0.00000000000E+00 0.  1.
         11    1    3    3    0    0  0.28002276656E+01  0.45074101522E+00  0.34599664539E+01  0.44739032808E+01  0.51100000000E-03 0. -1.
        -11    1    3    3    0    0  0.60569522095E+01  0.95606104219E+01  0.41948174207E+01  0.12070146443E+02  0.51100000000E-03 0.  1.
        -12    1    3    3    0    0  0.30521345495E+02  0.66720818215E+01 -0.26440232935E+00  0.31243225109E+02  0.00000000000E+00 0.  1.
</event>
<event>
 7    1  0.2983653E-010  0.4778727E+02  0.7816164E-02  0.1312668E+00
        -11   -1    0    0    0    0  0.00000000000E+00  0.00000000000E+00  0.45593999997E+02  0.45594000000E+02  0.51100000000E-03 0. -1.
         11   -1    0    0    0    0 -0.00000000000E+00 -0.00000000000E+00 -0.45593999997E+02  0.45594000000E+02  0.51100000000E-03 0.  1.
    9900012    2    1    2    0    0 -0.24443897696E+02 -0.33768757580E+02  0.12074359887E+02  0.47787270861E+02  0.19999999165E+02 0.  0.
        -12    1    1    2    0    0  0.24443897696E+02  0.33768757580E+02 -0.12074359887E+02  0.43400729139E+02  0.00000000000E+00 0.  1.
         11    1    3    3    0    0 -0.32127287907E+01 -0.11929549322E+02 -0.38345627930E+00  0.12360534466E+02  0.51100000000E-03 0. -1.
        -11    1    3    3    0    0 -0.15563628837E+02 -0.16484334504E+02  0.15048320752E+02  0.27210508711E+02  0.51100000000E-03 0.  1.
        -12    1    3    3    0    0 -0.56675400685E+01 -0.53548737543E+01 -0.25905045852E+01  0.82162276842E+01  0.00000000000E+00 0.  1.
</event>
<event>
 7    1  0.2983653E-010  0.4778727E+02  0.7816164E-02  0.1312668E+00
        -11   -1    0    0    0    0  0.00000000000E+00  0.00000000000E+00  0.45593999997E+02  0.45594000000E+02  0.51100000000E-03 0.  1.
         11   -1    0    0    0    0 -0.00000000000E+00 -0.00000000000E+00 -0.45593999997E+02  0.45594000000E+02  0.51100000000E-03 0. -1.
    9900012    2    1    2    0    0 -0.14453805394E+02  0.27244225070E+02 -0.30536259437E+02  0.47787269241E+02  0.19999991775E+02 0.  0.
        -12    1    1    2    0    0  0.14453805394E+02 -0.27244225070E+02  0.30536259437E+02  0.43400730759E+02  0.00000000000E+00 0.  1.
         11    1    3    3    0    0 -0.15851536997E+02  0.16179563625E+02 -0.20967390260E+02  0.30865530270E+02  0.51100000000E-03 0. -1.
        -11    1    3    3    0    0 -0.46764365737E+00  0.15343051031E+01  0.15004199567E+01  0.21963704258E+01  0.51100000000E-03 0.  1.
         12    1    3    3    0    0  0.18653752594E+01  0.95303563416E+01 -0.11069289134E+02  0.14725368545E+02  0.00000000000E+00 0. -1.
</event>
<event>
 7    1  0.2983653E-010  0.4778728E+02  0.7816164E-02  0.1312668E+00
        -11   -1    0    0    0    0  0.00000000000E+00  0.00000000000E+00  0.45593999997E+02  0.45594000000E+02  0.51100000000E-03 0.  1.
         11   -1    0    0    0    0 -0.00000000000E+00 -0.00000000000E+00 -0.45593999997E+02  0.45594000000E+02  0.51100000000E-03 0. -1.
    9900012    2    1    2    0    0 -0.74024120961E+01 -0.29069014176E+02 -0.31365897945E+02  0.47787275998E+02  0.20000022584E+02 0.  0.
        -12    1    1    2    0    0  0.74024120961E+01  0.29069014176E+02  0.31365897945E+02  0.43400724002E+02  0.00000000000E+00 0.  1.
         11    1    3    3    0    0 -0.57251821650E+01 -0.38362001541E+01 -0.15386312848E+01  0.70612696406E+01  0.51100000000E-03 0. -1.
        -11    1    3    3    0    0 -0.15821226555E+01 -0.23427227454E+02 -0.30755018119E+02  0.38693788107E+02  0.51100000000E-03 0.  1.
        -12    1    3    3    0    0 -0.95107275547E-01 -0.18055865682E+01  0.92775145849E+00  0.20322182505E+01  0.00000000000E+00 0.  1.
</event>
<event>
 7    1  0.2983653E-010  0.4778727E+02  0.7816164E-02  0.1312668E+00
        -11   -1    0    0    0    0  0.00000000000E+00  0.00000000000E+00  0.45593999997E+02  0.45594000000E+02  0.51100000000E-03 0.  1.
         11   -1    0    0    0    0 -0.00000000000E+00 -0.00000000000E+00 -0.45593999997E+02  0.45594000000E+02  0.51100000000E-03 0. -1.
    9900012    2    1    2    0    0 -0.33324556636E+02 -0.25350232543E+02  0.11422052149E+02  0.47787266823E+02  0.19999980755E+02 0.  0.
        -12    1    1    2    0    0  0.33324556636E+02  0.25350232543E+02 -0.11422052149E+02  0.43400733177E+02  0.00000000000E+00 0.  1.
         11    1    3    3    0    0 -0.41114608652E+01 -0.60237419374E+01  0.12124155302E+01  0.73932083059E+01  0.51100000000E-03 0. -1.
        -11    1    3    3    0    0 -0.33319546737E+01 -0.11031144824E+02  0.56580708795E+01  0.12837517066E+02  0.51100000000E-03 0.  1.
        -12    1    3    3    0    0 -0.25881141097E+02 -0.82953457822E+01  0.45515657394E+01  0.27556541452E+02  0.00000000000E+00 0.  1.
</event>
<event>
 7    1  0.2983653E-010  0.4778727E+02  0.7816164E-02  0.1312668E+00
        -11   -1    0    0    0    0  0.00000000000E+00  0.00000000000E+00  0.45593999997E+02  0.45594000000E+02  0.51100000000E-03 0. -1.
         11   -1    0    0    0    0 -0.00000000000E+00 -0.00000000000E+00 -0.45593999997E+02  0.45594000000E+02  0.51100000000E-03 0.  1.
    9900012    2    1    2    0    0  0.33468407415E+02 -0.79361667124E+01  0.26467079065E+02  0.47787270614E+02  0.19999998039E+02 0.  0.
        -12    1    1    2    0    0 -0.33468407415E+02  0.79361667124E+01 -0.26467079065E+02  0.43400729386E+02  0.00000000000E+00 0.  1.
         11    1    3    3    0    0  0.49821724197E+01 -0.10954546323E+00  0.34910671426E+01  0.60845371462E+01  0.51100000000E-03 0.  1.
        -11    1    3    3    0    0  0.24330782819E+02 -0.10853654056E+02  0.11289016191E+02  0.28934938842E+02  0.51100000000E-03 0. -1.
        -12    1    3    3    0    0  0.41554521763E+01  0.30270328068E+01  0.11686995731E+02  0.12767794627E+02  0.00000000000E+00 0.  1.
</event>
<event>
 7    1  0.2983653E-010  0.4778727E+02  0.7816164E-02  0.1312668E+00
        -11   -1    0    0    0    0  0.00000000000E+00  0.00000000000E+00  0.45593999997E+02  0.45594000000E+02  0.51100000000E-03 0.  1.
         11   -1    0    0    0    0 -0.00000000000E+00 -0.00000000000E+00 -0.45593999997E+02  0.45594000000E+02  0.51100000000E-03 0. -1.
    9900012    2    1    2    0    0 -0.34991121703E+02  0.11781135125E+02 -0.22813361508E+02  0.47787271824E+02  0.20000003554E+02 0.  0.
        -12    1    1    2    0    0  0.34991121703E+02 -0.11781135125E+02  0.22813361508E+02  0.43400728176E+02  0.00000000000E+00 0.  1.
         11    1    3    3    0    0 -0.90156194982E+01  0.23153073516E+01 -0.15688184886E+02  0.18241743018E+02  0.51100000000E-03 0. -1.
        -11    1    3    3    0    0 -0.71191142505E+01  0.60155367325E+01 -0.77862412783E+00  0.93527924005E+01  0.51100000000E-03 0.  1.
         12    1    3    3    0    0 -0.18856387955E+02  0.34502910412E+01 -0.63465524949E+01  0.20192736405E+02  0.00000000000E+00 0. -1.
</event>
<event>
 7    1  0.2983653E-010  0.4778728E+02  0.7816164E-02  0.1312668E+00
        -11   -1    0    0    0    0  0.00000000000E+00  0.00000000000E+00  0.45593999997E+02  0.45594000000E+02  0.51100000000E-03 0.  1.
         11   -1    0    0    0    0 -0.00000000000E+00 -0.00000000000E+00 -0.45593999997E+02  0.45594000000E+02  0.51100000000E-03 0. -1.
    9900012    2    1    2    0    0  0.28827087624E+02  0.12928899405E+01 -0.32418363305E+02  0.47787276219E+02  0.20000023595E+02 0.  0.
        -12    1    1    2    0    0 -0.28827087624E+02 -0.12928899405E+01  0.32418363305E+02  0.43400723781E+02  0.00000000000E+00 0.  1.
         11    1    3    3    0    0  0.28829473018E+02  0.55846260945E+01 -0.23930156897E+02  0.37881116305E+02  0.51100000000E-03 0. -1.
        -11    1    3    3    0    0 -0.12719870585E+01 -0.15653635903E+01 -0.25639674033E+01  0.32622451399E+01  0.51100000000E-03 0.  1.
         12    1    3    3    0    0  0.12696016640E+01 -0.27263725637E+01 -0.59242390053E+01  0.66439147747E+01  0.00000000000E+00 0. -1.
</event>
<event>
 7    1  0.2983653E-010  0.4778727E+02  0.7816164E-02  0.1312668E+00
        -11   -1    0    0    0    0  0.00000000000E+00  0.00000000000E+00  0.45593999997E+02  0.45594000000E+02  0.51100000000E-03 0. -1.
         11   -1    0    0    0    0 -0.00000000000E+00 -0.00000000000E+00 -0.45593999997E+02  0.45594000000E+02  0.51100000000E-03 0.  1.
    9900012    2    1    2    0    0 -0.38843723713E+02 -0.18758638537E+02 -0.47855674163E+01  0.47787273657E+02  0.20000011910E+02 0.  0.
        -12    1    1    2    0    0  0.38843723713E+02  0.18758638537E+02  0.47855674163E+01  0.43400726343E+02  0.00000000000E+00 0.  1.
         11    1    3    3    0    0 -0.19307543255E+02 -0.27947921000E-01 -0.13120775154E+01  0.19352094339E+02  0.51100000000E-03 0. -1.
        -11    1    3    3    0    0 -0.68216129384E+00  0.37999092179E+00 -0.12808112456E+01  0.15000716115E+01  0.51100000000E-03 0.  1.
         12    1    3    3    0    0 -0.18854019163E+02 -0.19110681538E+02 -0.21926786553E+01  0.26935107706E+02  0.00000000000E+00 0. -1.
</event>
<event>
 7    1  0.2983653E-010  0.4778727E+02  0.7816164E-02  0.1312668E+00
        -11   -1    0    0    0    0  0.00000000000E+00  0.00000000000E+00  0.45593999997E+02  0.45594000000E+02  0.51100000000E-03 0.  1.
         11   -1    0    0    0    0 -0.00000000000E+00 -0.00000000000E+00 -0.45593999997E+02  0.45594000000E+02  0.51100000000E-03 0. -1.
    9900012    2    1    2    0    0 -0.24422964961E+02  0.23654397523E+02 -0.26974276139E+02  0.47787270595E+02  0.19999997952E+02 0.  0.
        -12    1    1    2    0    0  0.24422964961E+02 -0.23654397523E+02  0.26974276139E+02  0.43400729405E+02  0.00000000000E+00 0.  1.
         11    1    3    3    0    0 -0.57808299355E+01  0.12203771370E+02 -0.12627460700E+02  0.18487909411E+02  0.51100000000E-03 0. -1.
        -11    1    3    3    0    0 -0.18992561094E+02  0.61312205456E+01 -0.12941256590E+02  0.23786243181E+02  0.51100000000E-03 0.  1.
        -12    1    3    3    0    0  0.35042606808E+00  0.53194056071E+01 -0.14055588492E+01  0.55131180035E+01  0.00000000000E+00 0.  1.
</event>
<event>
 7    1  0.2983653E-010  0.4778727E+02  0.7816164E-02  0.1312668E+00
        -11   -1    0    0    0    0  0.00000000000E+00  0.00000000000E+00  0.45593999997E+02  0.45594000000E+02  0.51100000000E-03 0. -1.
         11   -1    0    0    0    0 -0.00000000000E+00 -0.00000000000E+00 -0.45593999997E+02  0.45594000000E+02  0.51100000000E-03 0.  1.
    9900012    2    1    2    0    0 -0.35821475508E+02  0.19057038631E+02  0.15403724229E+02  0.47787267874E+02  0.19999985546E+02 0.  0.
        -12    1    1    2    0    0  0.35821475508E+02 -0.19057038631E+02 -0.15403724229E+02  0.43400732126E+02  0.00000000000E+00 0.  1.
         11    1    3    3    0    0 -0.44471744162E+01  0.73715241649E+01  0.49635979617E+01  0.99375064170E+01  0.51100000000E-03 0. -1.
        -11    1    3    3    0    0 -0.27533042904E+02  0.44883722693E+01  0.59004758584E+01  0.28513673085E+02  0.51100000000E-03 0.  1.
        -12    1    3    3    0    0 -0.38412581877E+01  0.71971421964E+01  0.45396504090E+01  0.93360883723E+01  0.00000000000E+00 0.  1.
</event>
<event>
 7    1  0.2983653E-010  0.4778728E+02  0.7816164E-02  0.1312668E+00
        -11   -1    0    0    0    0  0.00000000000E+00  0.00000000000E+00  0.45593999997E+02  0.45594000000E+02  0.51100000000E-03 0. -1.
         11   -1    0    0    0    0 -0.00000000000E+00 -0.00000000000E+00 -0.45593999997E+02  0.45594000000E+02  0.51100000000E-03 0.  1.
    9900012    2    1    2    0    0 -0.41326431842E+02  0.12340447054E+02  0.48437464858E+01  0.47787280164E+02  0.20000041578E+02 0.  0.
        -12    1    1    2    0    0  0.41326431842E+02 -0.12340447054E+02 -0.48437464858E+01  0.43400719836E+02  0.00000000000E+00 0.  1.
         11    1    3    3    0    0 -0.23333145145E+02  0.11122971885E+02  0.48764929483E+01  0.26304683037E+02  0.51100000000E-03 0. -1.
        -11    1    3    3    0    0 -0.64038417329E+01 -0.33895613581E+01 -0.41488706462E+01  0.83493378804E+01  0.51100000000E-03 0.  1.
         12    1    3    3    0    0 -0.11589444965E+02  0.46070365263E+01  0.41161241838E+01  0.13133259247E+02  0.00000000000E+00 0. -1.
</event>
<event>
 7    1  0.2983653E-010  0.4778728E+02  0.7816164E-02  0.1312668E+00
        -11   -1    0    0    0    0  0.00000000000E+00  0.00000000000E+00  0.45593999997E+02  0.45594000000E+02  0.51100000000E-03 0.  1.
         11   -1    0    0    0    0 -0.00000000000E+00 -0.00000000000E+00 -0.45593999997E+02  0.45594000000E+02  0.51100000000E-03 0. -1.
    9900012    2    1    2    0    0  0.74978257899E+01 -0.32095931574E+02 -0.28235731660E+02  0.47787276993E+02  0.20000027120E+02 0.  0.
        -12    1    1    2    0    0 -0.74978257899E+01  0.32095931574E+02  0.28235731660E+02  0.43400723007E+02  0.00000000000E+00 0.  1.
         11    1    3    3    0    0  0.85407498270E+01 -0.47982245821E+01 -0.13474172297E+02  0.16658952130E+02  0.51100000000E-03 0. -1.
        -11    1    3    3    0    0 -0.90125029783E+00 -0.13747230371E+02 -0.62703611148E+01  0.15136578997E+02  0.51100000000E-03 0.  1.
         12    1    3    3    0    0 -0.14167373928E+00 -0.13550476621E+02 -0.84911982489E+01  0.15991745865E+02  0.00000000000E+00 0. -1.
</event>
<event>
 7    1  0.2983653E-010  0.4778727E+02  0.7816164E-02  0.1312668E+00
        -11   -1    0    0    0    0  0.00000000000E+00  0.00000000000E+00  0.45593999997E+02  0.45594000000E+02  0.51100000000E-03 0.  1.
         11   -1    0    0    0    0 -0.00000000000E+00 -0.00000000000E+00 -0.45593999997E+02  0.45594000000E+02  0.51100000000E-03 0. -1.
    9900012    2    1    2    0    0  0.57302046914E+01 -0.33843009458E+02 -0.26560096792E+02  0.47787271014E+02  0.19999999859E+02 0.  0.
        -12    1    1    2    0    0 -0.57302046914E+01  0.33843009458E+02  0.26560096792E+02  0.43400728986E+02  0.00000000000E+00 0.  1.
         11    1    3    3    0    0  0.10637936729E+02 -0.20654750259E+02 -0.11982466532E+02  0.26141230089E+02  0.51100000000E-03 0. -1.
        -11    1    3    3    0    0 -0.49846326536E+01 -0.13163075029E+02 -0.10481757387E+02  0.17549368795E+02  0.51100000000E-03 0.  1.
         12    1    3    3    0    0  0.76900616247E-01 -0.25184169487E-01 -0.40958728734E+01  0.40966721302E+01  0.00000000000E+00 0. -1.
</event>
<event>
 7    1  0.2983653E-010  0.4778727E+02  0.7816164E-02  0.1312668E+00
        -11   -1    0    0    0    0  0.00000000000E+00  0.00000000000E+00  0.45593999997E+02  0.45594000000E+02  0.51100000000E-03 0.  1.
         11   -1    0    0    0    0 -0.00000000000E+00 -0.00000000000E+00 -0.45593999997E+02  0.45594000000E+02  0.51100000000E-03 0. -1.
    9900012    2    1    2    0    0 -0.33021427905E+02 -0.28116617598E+02 -0.16323335379E+01  0.47787269605E+02  0.19999993439E+02 0.  0.
        -12    1    1    2    0    0  0.33021427905E+02  0.28116617598E+02  0.16323335379E+01  0.43400730395E+02  0.00000000000E+00 0.  1.
         11    1    3    3    0    0 -0.28092123662E+02 -0.20617164807E+02  0.44793291700E+01  0.35132595785E+02  0.51100000000E-03 0. -1.
        -11    1    3    3    0    0  0.94957294995E+00 -0.42602920516E+01 -0.25743752722E+01  0.50674634143E+01  0.51100000000E-03 0.  1.
         12    1    3    3    0    0 -0.58788771928E+01 -0.32391607389E+01 -0.35372874357E+01  0.75872104059E+01  0.00000000000E+00 0. -1.
</event>
<event>
 7    1  0.2983653E-010  0.4778727E+02  0.7816164E-02  0.1312668E+00
        -11   -1    0    0    0    0  0.00000000000E+00  0.00000000000E+00  0.45593999997E+02  0.45594000000E+02  0.51100000000E-03 0.  1.
         11   -1    0    0    0    0 -0.00000000000E+00 -0.00000000000E+00 -0.45593999997E+02  0.45594000000E+02  0.51100000000E-03 0. -1.
    9900012    2    1    2    0    0 -0.32211451785E+02 -0.26527579339E+02 -0.11930336329E+02  0.47787274008E+02  0.20000013512E+02 0.  0.
        -12    1    1    2    0    0  0.32211451785E+02  0.26527579339E+02  0.11930336329E+02  0.43400725992E+02  0.00000000000E+00 0.  1.
         11    1    3    3    0    0 -0.71912339508E+01 -0.11809304072E+01 -0.43832172287E+01  0.85041775556E+01  0.51100000000E-03 0. -1.
        -11    1    3    3    0    0 -0.36305146201E+01 -0.11386271680E+02  0.17966373326E+01  0.12085351677E+02  0.51100000000E-03 0.  1.
        -12    1    3    3    0    0 -0.21389703214E+02 -0.13960377252E+02 -0.93437564324E+01  0.27197744776E+02  0.00000000000E+00 0.  1.
</event>
<event>
 7    1  0.2983653E-010  0.4778727E+02  0.7816164E-02  0.1312668E+00
        -11   -1    0    0    0    0  0.00000000000E+00  0.00000000000E+00  0.45593999997E+02  0.45594000000E+02  0.51100000000E-03 0.  1.
         11   -1    0    0    0    0 -0.00000000000E+00 -0.00000000000E+00 -0.45593999997E+02  0.45594000000E+02  0.51100000000E-03 0. -1.
    9900012    2    1    2    0    0 -0.23077774040E+02  0.32848328583E+02 -0.16493231406E+02  0.47787273883E+02  0.20000012940E+02 0.  0.
        -12    1    1    2    0    0  0.23077774040E+02 -0.32848328583E+02  0.16493231406E+02  0.43400726117E+02  0.00000000000E+00 0.  1.
         11    1    3    3    0    0 -0.17726016986E+02  0.22092141101E+02 -0.14862522354E+02  0.31987012170E+02  0.51100000000E-03 0. -1.
        -11    1    3    3    0    0 -0.41726216785E+01  0.67862948721E+00  0.24247745102E+01  0.48734834912E+01  0.51100000000E-03 0.  1.
        -12    1    3    3    0    0 -0.11791353758E+01  0.10077557995E+02 -0.40554835620E+01  0.10926778221E+02  0.00000000000E+00 0.  1.
</event>
<event>
 7    1  0.2983653E-010  0.4778727E+02  0.7816164E-02  0.1312668E+00
        -11   -1    0    0    0    0  0.00000000000E+00  0.00000000000E+00  0.45593999997E+02  0.45594000000E+02  0.51100000000E-03 0.  1.
         11   -1    0    0    0    0 -0.00000000000E+00 -0.00000000000E+00 -0.45593999997E+02  0.45594000000E+02  0.51100000000E-03 0. -1.
    9900012    2    1    2    0    0 -0.83910057130E+01  0.67213065208E+01 -0.42048049561E+02  0.47787269475E+02  0.19999992844E+02 0.  0.
        -12    1    1    2    0    0  0.83910057130E+01 -0.67213065208E+01  0.42048049561E+02  0.43400730525E+02  0.00000000000E+00 0.  1.
         11    1    3    3    0    0 -0.48635004603E+01  0.90998482511E+01 -0.20994736250E+02  0.23393157662E+02  0.51100000000E-03 0. -1.
        -11    1    3    3    0    0 -0.90947482289E+00 -0.66265701609E+01 -0.80497610029E+01  0.10466003488E+02  0.51100000000E-03 0.  1.
        -12    1    3    3    0    0 -0.26180304298E+01  0.42480284305E+01 -0.13003552308E+02  0.13928108325E+02  0.00000000000E+00 0.  1.
</event>
<event>
 7    1  0.2983653E-010  0.4778727E+02  0.7816164E-02  0.1312668E+00
        -11   -1    0    0    0    0  0.00000000000E+00  0.00000000000E+00  0.45593999997E+02  0.45594000000E+02  0.51100000000E-03 0. -1.
         11   -1    0    0    0    0 -0.00000000000E+00 -0.00000000000E+00 -0.45593999997E+02  0.45594000000E+02  0.51100000000E-03 0.  1.
    9900012    2    1    2    0    0  0.22059620919E+02  0.36704776842E+02  0.70537833136E+01  0.47787269854E+02  0.19999994573E+02 0.  0.
        -12    1    1    2    0    0 -0.22059620919E+02 -0.36704776842E+02 -0.70537833136E+01  0.43400730146E+02  0.00000000000E+00 0.  1.
         11    1    3    3    0    0  0.10245917474E+02  0.19040343483E+02 -0.21089208996E+01  0.21724664611E+02  0.51100000000E-03 0. -1.
        -11    1    3    3    0    0  0.11366863138E+01  0.73297788625E+01  0.83676004747E+01  0.11181880518E+02  0.51100000000E-03 0.  1.
        -12    1    3    3    0    0  0.10677017132E+02  0.10334654497E+02  0.79510373849E+00  0.14880724726E+02  0.00000000000E+00 0.  1.
</event>
<event>
 7    1  0.2983653E-010  0.4778727E+02  0.7816164E-02  0.1312668E+00
        -11   -1    0    0    0    0  0.00000000000E+00  0.00000000000E+00  0.45593999997E+02  0.45594000000E+02  0.51100000000E-03 0.  1.
         11   -1    0    0    0    0 -0.00000000000E+00 -0.00000000000E+00 -0.45593999997E+02  0.45594000000E+02  0.51100000000E-03 0. -1.
    9900012    2    1    2    0    0 -0.41386742427E+02  0.28047248108E+01 -0.12763005424E+02  0.47787271465E+02  0.20000001916E+02 0.  0.
        -12    1    1    2    0    0  0.41386742427E+02 -0.28047248108E+01  0.12763005424E+02  0.43400728535E+02  0.00000000000E+00 0.  1.
         11    1    3    3    0    0 -0.12951151664E+02  0.55169604666E+01 -0.10353023319E+02  0.17474389097E+02  0.51100000000E-03 0. -1.
        -11    1    3    3    0    0 -0.59177931360E+01 -0.41327798449E+01  0.16089255265E+01  0.73951867088E+01  0.51100000000E-03 0.  1.
        -12    1    3    3    0    0 -0.22517797627E+02  0.14205441891E+01 -0.40189076314E+01  0.22917695659E+02  0.00000000000E+00 0.  1.
</event>
<event>
 7    1  0.2983653E-010  0.4778727E+02  0.7816164E-02  0.1312668E+00
        -11   -1    0    0    0    0  0.00000000000E+00  0.00000000000E+00  0.45593999997E+02  0.45594000000E+02  0.51100000000E-03 0.  1.
         11   -1    0    0    0    0 -0.00000000000E+00 -0.00000000000E+00 -0.45593999997E+02  0.45594000000E+02  0.51100000000E-03 0. -1.
    9900012    2    1    2    0    0 -0.38370220170E+01  0.42218678324E+02  0.92996610258E+01  0.47787271521E+02  0.20000002171E+02 0.  0.
        -12    1    1    2    0    0  0.38370220170E+01 -0.42218678324E+02 -0.92996610258E+01  0.43400728479E+02  0.00000000000E+00 0.  1.
         11    1    3    3    0    0  0.17421014889E+01  0.91442702591E+01 -0.41245210860E+01  0.10181565234E+02  0.51100000000E-03 0. -1.
        -11    1    3    3    0    0 -0.97473060822E+00  0.28325522831E+02  0.12300422561E+02  0.30896370966E+02  0.51100000000E-03 0.  1.
        -12    1    3    3    0    0 -0.46043928977E+01  0.47488852331E+01  0.11237595507E+01  0.67093353204E+01  0.00000000000E+00 0.  1.
</event>
<event>
 7    1  0.2983653E-010  0.4778727E+02  0.7816164E-02  0.1312668E+00
        -11   -1    0    0    0    0  0.00000000000E+00  0.00000000000E+00  0.45593999997E+02  0.45594000000E+02  0.51100000000E-03 0. -1.
         11   -1    0    0    0    0 -0.00000000000E+00 -0.00000000000E+00 -0.45593999997E+02  0.45594000000E+02  0.51100000000E-03 0.  1.
    9900012    2    1    2    0    0  0.35007171152E+02 -0.12197938939E+02  0.22568370619E+02  0.47787273062E+02  0.20000009197E+02 0.  0.
        -12    1    1    2    0    0 -0.35007171152E+02  0.12197938939E+02 -0.22568370619E+02  0.43400726938E+02  0.00000000000E+00 0.  1.
         11    1    3    3    0    0  0.37783641943E+01 -0.97231992077E+01  0.54810812314E+01  0.11783840229E+02  0.51100000000E-03 0.  1.
        -11    1    3    3    0    0  0.24495654066E+02 -0.80667365161E+00  0.11386777251E+02  0.27024923440E+02  0.51100000000E-03 0. -1.
        -12    1    3    3    0    0  0.67331528916E+01 -0.16680660794E+01  0.57005121360E+01  0.89785093930E+01  0.00000000000E+00 0.  1.
</event>
<event>
 7    1  0.2983653E-010  0.4778727E+02  0.7816164E-02  0.1312668E+00
        -11   -1    0    0    0    0  0.00000000000E+00  0.00000000000E+00  0.45593999997E+02  0.45594000000E+02  0.51100000000E-03 0.  1.
         11   -1    0    0    0    0 -0.00000000000E+00 -0.00000000000E+00 -0.45593999997E+02  0.45594000000E+02  0.51100000000E-03 0. -1.
    9900012    2    1    2    0    0  0.41772718882E+01 -0.31900655727E+02 -0.29129395703E+02  0.47787272699E+02  0.20000007543E+02 0.  0.
        -12    1    1    2    0    0 -0.41772718882E+01  0.31900655727E+02  0.29129395703E+02  0.43400727301E+02  0.00000000000E+00 0.  1.
         11    1    3    3    0    0 -0.17275811881E+00 -0.21895825693E+02 -0.15535007464E+02  0.26847597385E+02  0.51100000000E-03 0. -1.
        -11    1    3    3    0    0  0.60060611270E+01 -0.27518876915E+01 -0.15548245850E+01  0.67869828259E+01  0.51100000000E-03 0.  1.
         12    1    3    3    0    0 -0.16560311200E+01 -0.72529423424E+01 -0.12039563654E+02  0.14152692488E+02  0.00000000000E+00 0. -1.
</event>
<event>
 7    1  0.2983653E-010  0.4778727E+02  0.7816164E-02  0.1312668E+00
        -11   -1    0    0    0    0  0.00000000000E+00  0.00000000000E+00  0.45593999997E+02  0.45594000000E+02  0.51100000000E-03 0.  1.
         11   -1    0    0    0    0 -0.00000000000E+00 -0.00000000000E+00 -0.45593999997E+02  0.45594000000E+02  0.51100000000E-03 0. -1.
    9900012    2    1    2    0    0  0.25479988215E+02 -0.30807327371E+02 -0.16890884886E+02  0.47787271764E+02  0.20000003282E+02 0.  0.
        -12    1    1    2    0    0 -0.25479988215E+02  0.30807327371E+02  0.16890884886E+02  0.43400728236E+02  0.00000000000E+00 0.  1.
         11    1    3    3    0    0  0.14817150552E+02 -0.63307329869E+01 -0.45761382462E+01  0.16750139466E+02  0.51100000000E-03 0. -1.
        -11    1    3    3    0    0  0.21948309020E+01 -0.18393093794E+01 -0.50400938622E+01  0.57967998139E+01  0.51100000000E-03 0.  1.
         12    1    3    3    0    0  0.84680067613E+01 -0.22637285005E+02 -0.72746527772E+01  0.25240332484E+02  0.00000000000E+00 0. -1.
</event>
<event>
 7    1  0.2983653E-010  0.4778727E+02  0.7816164E-02  0.1312668E+00
        -11   -1    0    0    0    0  0.00000000000E+00  0.00000000000E+00  0.45593999997E+02  0.45594000000E+02  0.51100000000E-03 0.  1.
         11   -1    0    0    0    0 -0.00000000000E+00 -0.00000000000E+00 -0.45593999997E+02  0.45594000000E+02  0.51100000000E-03 0. -1.
    9900012    2    1    2    0    0  0.36026487133E+02  0.10817563680E+02 -0.21649381682E+02  0.47787272053E+02  0.20000004598E+02 0.  0.
        -12    1    1    2    0    0 -0.36026487133E+02 -0.10817563680E+02  0.21649381682E+02  0.43400727947E+02  0.00000000000E+00 0.  1.
         11    1    3    3    0    0  0.24745680208E+02  0.63315516421E+01 -0.21856461850E+02  0.33617587064E+02  0.51100000000E-03 0. -1.
        -11    1    3    3    0    0  0.32878650224E+01 -0.34528196886E+00  0.29551029230E+01  0.44341751872E+01  0.51100000000E-03 0.  1.
         12    1    3    3    0    0  0.79929419024E+01  0.48312940064E+01 -0.27480227551E+01  0.97355098014E+01  0.00000000000E+00 0. -1.
</event>
<event>
 7    1  0.2983653E-010  0.4778727E+02  0.7816164E-02  0.1312668E+00
        -11   -1    0    0    0    0  0.00000000000E+00  0.00000000000E+00  0.45593999997E+02  0.45594000000E+02  0.51100000000E-03 0.  1.
         11   -1    0    0    0    0 -0.00000000000E+00 -0.00000000000E+00 -0.45593999997E+02  0.45594000000E+02  0.51100000000E-03 0. -1.
    9900012    2    1    2    0    0  0.13930732753E+02  0.39086340012E+02 -0.12720700449E+02  0.47787268319E+02  0.19999987574E+02 0.  0.
        -12    1    1    2    0    0 -0.13930732753E+02 -0.39086340012E+02  0.12720700449E+02  0.43400731681E+02  0.00000000000E+00 0.  1.
         11    1    3    3    0    0 -0.95324881547E+00  0.11396233945E+02 -0.94432522879E-01  0.11436422046E+02  0.51100000000E-03 0. -1.
        -11    1    3    3    0    0  0.13591604944E+02  0.11630104682E+02 -0.53427651760E+01  0.18669124239E+02  0.51100000000E-03 0.  1.
        -12    1    3    3    0    0  0.12923766251E+01  0.16060001384E+02 -0.72835027496E+01  0.17681722034E+02  0.00000000000E+00 0.  1.
</event>
<event>
 7    1  0.2983653E-010  0.4778727E+02  0.7816164E-02  0.1312668E+00
        -11   -1    0    0    0    0  0.00000000000E+00  0.00000000000E+00  0.45593999997E+02  0.45594000000E+02  0.51100000000E-03 0. -1.
         11   -1    0    0    0    0 -0.00000000000E+00 -0.00000000000E+00 -0.45593999997E+02  0.45594000000E+02  0.51100000000E-03 0.  1.
    9900012    2    1    2    0    0  0.35729934904E+02  0.10012517764E+02  0.22510985282E+02  0.47787271681E+02  0.20000002902E+02 0.  0.
        -12    1    1    2    0    0 -0.35729934904E+02 -0.10012517764E+02 -0.22510985282E+02  0.43400728319E+02  0.00000000000E+00 0.  1.
         11    1    3    3    0    0  0.22714049599E+02  0.12113144095E+02  0.12797471875E+02  0.28747723313E+02  0.51100000000E-03 0. -1.
        -11    1    3    3    0    0  0.11190899971E+02  0.10767158612E+01  0.34098495655E+01  0.11748303432E+02  0.51100000000E-03 0.  1.
         12    1    3    3    0    0  0.18249853343E+01 -0.31773421923E+01  0.63036638420E+01  0.72912449356E+01  0.00000000000E+00 0. -1.
</event>
<event>
 7    1  0.2983653E-010  0.4778727E+02  0.7816164E-02  0.1312668E+00
        -11   -1    0    0    0    0  0.00000000000E+00  0.00000000000E+00  0.45593999997E+02  0.45594000000E+02  0.51100000000E-03 0.  1.
         11   -1    0    0    0    0 -0.00000000000E+00 -0.00000000000E+00 -0.45593999997E+02  0.45594000000E+02  0.51100000000E-03 0. -1.
    9900012    2    1    2    0    0 -0.39844082699E+02 -0.16022918009E+02 -0.62720480926E+01  0.47787269419E+02  0.19999992590E+02 0.  0.
        -12    1    1    2    0    0  0.39844082699E+02  0.16022918009E+02  0.62720480926E+01  0.43400730581E+02  0.00000000000E+00 0.  1.
         11    1    3    3    0    0 -0.47267924407E+01 -0.61408764335E+01 -0.60537223071E+00  0.77729920847E+01  0.51100000000E-03 0. -1.
        -11    1    3    3    0    0 -0.20116465422E+02 -0.12319093235E+02  0.54804379799E+00  0.23595181530E+02  0.51100000000E-03 0.  1.
        -12    1    3    3    0    0 -0.15000824837E+02  0.24370516593E+01 -0.62147196599E+01  0.16419095804E+02  0.00000000000E+00 0.  1.
</event>
<event>
 7    1  0.2983653E-010  0.4778727E+02  0.7816164E-02  0.1312668E+00
        -11   -1    0    0    0    0  0.00000000000E+00  0.00000000000E+00  0.45593999997E+02  0.45594000000E+02  0.51100000000E-03 0. -1.
         11   -1    0    0    0    0 -0.00000000000E+00 -0.00000000000E+00 -0.45593999997E+02  0.45594000000E+02  0.51100000000E-03 0.  1.
    9900012    2    1    2    0    0  0.13729314504E+01  0.37408386824E+02 -0.21962490037E+02  0.47787270581E+02  0.19999997885E+02 0.  0.
        -12    1    1    2    0    0 -0.13729314504E+01 -0.37408386824E+02  0.21962490037E+02  0.43400729419E+02  0.00000000000E+00 0.  1.
         11    1    3    3    0    0  0.22957891204E+01  0.88673984156E+01 -0.11874687559E+02  0.14996986605E+02  0.51100000000E-03 0. -1.
        -11    1    3    3    0    0 -0.44547634709E+01  0.63619369121E+01  0.84445514972E+00  0.78123148693E+01  0.51100000000E-03 0.  1.
        -12    1    3    3    0    0  0.35319058009E+01  0.22179051496E+02 -0.10932257628E+02  0.24977969106E+02  0.00000000000E+00 0.  1.
</event>
<event>
 7    1  0.2983653E-010  0.4778726E+02  0.7816164E-02  0.1312668E+00
        -11   -1    0    0    0    0  0.00000000000E+00  0.00000000000E+00  0.45593999997E+02  0.45594000000E+02  0.51100000000E-03 0.  1.
         11   -1    0    0    0    0 -0.00000000000E+00 -0.00000000000E+00 -0.45593999997E+02  0.45594000000E+02  0.51100000000E-03 0. -1.
    9900012    2    1    2    0    0 -0.38653092358E+02 -0.53540342167E+01 -0.18997284954E+02  0.47787261909E+02  0.19999958348E+02 0.  0.
        -12    1    1    2    0    0  0.38653092358E+02  0.53540342167E+01  0.18997284954E+02  0.43400738091E+02  0.00000000000E+00 0.  1.
         11    1    3    3    0    0 -0.30761625692E+02 -0.99956913707E+01 -0.13238793432E+02  0.34949350681E+02  0.51100000000E-03 0. -1.
        -11    1    3    3    0    0 -0.21902735316E+01  0.30901261374E+01  0.94340510699E+00  0.39033563949E+01  0.51100000000E-03 0.  1.
         12    1    3    3    0    0 -0.57011931340E+01  0.15515310166E+01 -0.67018966286E+01  0.89345548332E+01  0.00000000000E+00 0. -1.
</event>
<event>
 7    1  0.2983653E-010  0.4778727E+02  0.7816164E-02  0.1312668E+00
        -11   -1    0    0    0    0  0.00000000000E+00  0.00000000000E+00  0.45593999997E+02  0.45594000000E+02  0.51100000000E-03 0.  1.
         11   -1    0    0    0    0 -0.00000000000E+00 -0.00000000000E+00 -0.45593999997E+02  0.45594000000E+02  0.51100000000E-03 0. -1.
    9900012    2    1    2    0    0 -0.18246054576E+02  0.25024329371E+01 -0.39299395414E+02  0.47787272378E+02  0.20000006082E+02 0.  0.
        -12    1    1    2    0    0  0.18246054576E+02 -0.25024329371E+01  0.39299395414E+02  0.43400727622E+02  0.00000000000E+00 0.  1.
         11    1    3    3    0    0 -0.14030821729E+02  0.20992677810E+01 -0.26486899797E+02  0.30047075477E+02  0.51100000000E-03 0. -1.
        -11    1    3    3    0    0 -0.77381790286E-01  0.46231657664E+01 -0.13061855422E+01  0.48047654029E+01  0.51100000000E-03 0.  1.
        -12    1    3    3    0    0 -0.41378510566E+01 -0.42200006104E+01 -0.11506310074E+02  0.12935431498E+02  0.00000000000E+00 0.  1.
</event>
<event>
 7    1  0.2983653E-010  0.4778727E+02  0.7816164E-02  0.1312668E+00
        -11   -1    0    0    0    0  0.00000000000E+00  0.00000000000E+00  0.45593999997E+02  0.45594000000E+02  0.51100000000E-03 0.  1.
         11   -1    0    0    0    0 -0.00000000000E+00 -0.00000000000E+00 -0.45593999997E+02  0.45594000000E+02  0.51100000000E-03 0. -1.
    9900012    2    1    2    0    0  0.13041225753E+02 -0.33735094141E+02 -0.23989437410E+02  0.47787271284E+02  0.20000001091E+02 0.  0.
        -12    1    1    2    0    0 -0.13041225753E+02  0.33735094141E+02  0.23989437410E+02  0.43400728716E+02  0.00000000000E+00 0.  1.
         11    1    3    3    0    0  0.32850355195E+01 -0.11366501652E+01 -0.55113381834E+01  0.65160019026E+01  0.51100000000E-03 0. -1.
        -11    1    3    3    0    0  0.53819515701E+01 -0.12395476649E+02  0.47510758915E-01  0.13513530315E+02  0.51100000000E-03 0.  1.
        -12    1    3    3    0    0  0.43742386636E+01 -0.20202967327E+02 -0.18525609985E+02  0.27757739066E+02  0.00000000000E+00 0.  1.
</event>
<event>
 7    1  0.2983653E-010  0.4778721E+02  0.7816164E-02  0.1312668E+00
        -11   -1    0    0    0    0  0.00000000000E+00  0.00000000000E+00  0.45593999997E+02  0.45594000000E+02  0.51100000000E-03 0. -1.
         11   -1    0    0    0    0 -0.00000000000E+00 -0.00000000000E+00 -0.45593999997E+02  0.45594000000E+02  0.51100000000E-03 0.  1.
    9900012    2    1    2    0    0 -0.19644337739E+02  0.33296184668E+02  0.19725428736E+02  0.47787211327E+02  0.19999727722E+02 0.  0.
        -12    1    1    2    0    0  0.19644337739E+02 -0.33296184668E+02 -0.19725428736E+02  0.43400788673E+02  0.00000000000E+00 0.  1.
         11    1    3    3    0    0 -0.46864281514E+01  0.14335628934E+02  0.14667318864E+02  0.21038134629E+02  0.51100000000E-03 0. -1.
        -11    1    3    3    0    0 -0.15173886731E+02  0.12182826764E+02  0.32282525401E+01  0.19725357315E+02  0.51100000000E-03 0.  1.
         12    1    3    3    0    0  0.21597714294E+00  0.67777289697E+01  0.18298573318E+01  0.70237193827E+01  0.00000000000E+00 0. -1.
</event>
<event>
 7    1  0.2983653E-010  0.4778727E+02  0.7816164E-02  0.1312668E+00
        -11   -1    0    0    0    0  0.00000000000E+00  0.00000000000E+00  0.45593999997E+02  0.45594000000E+02  0.51100000000E-03 0.  1.
         11   -1    0    0    0    0 -0.00000000000E+00 -0.00000000000E+00 -0.45593999997E+02  0.45594000000E+02  0.51100000000E-03 0. -1.
    9900012    2    1    2    0    0  0.80939652584E+01  0.23177060826E+02 -0.35790149046E+02  0.47787272001E+02  0.20000004361E+02 0.  0.
        -12    1    1    2    0    0 -0.80939652584E+01 -0.23177060826E+02  0.35790149046E+02  0.43400727999E+02  0.00000000000E+00 0.  1.
         11    1    3    3    0    0 -0.34563931024E+01  0.41948227573E+01 -0.78191179349E+01  0.95226990283E+01  0.51100000000E-03 0.  1.
        -11    1    3    3    0    0  0.14224524117E+02  0.15464616014E+02 -0.25992711342E+02  0.33423232609E+02  0.51100000000E-03 0. -1.
         12    1    3    3    0    0 -0.26741657562E+01  0.35176220551E+01 -0.19783197684E+01  0.48413403640E+01  0.00000000000E+00 0. -1.
</event>
<event>
 7    1  0.2983653E-010  0.4778727E+02  0.7816164E-02  0.1312668E+00
        -11   -1    0    0    0    0  0.00000000000E+00  0.00000000000E+00  0.45593999997E+02  0.45594000000E+02  0.51100000000E-03 0.  1.
         11   -1    0    0    0    0 -0.00000000000E+00 -0.00000000000E+00 -0.45593999997E+02  0.45594000000E+02  0.51100000000E-03 0. -1.
    9900012    2    1    2    0    0  0.38826856757E+02  0.11394952512E+02 -0.15692468510E+02  0.47787270555E+02  0.19999997770E+02 0.  0.
        -12    1    1    2    0    0 -0.38826856757E+02 -0.11394952512E+02  0.15692468510E+02  0.43400729445E+02  0.00000000000E+00 0.  1.
         11    1    3    3    0    0  0.11787419454E+02  0.53492054456E+01 -0.35068499773E+01  0.13411012390E+02  0.51100000000E-03 0. -1.
        -11    1    3    3    0    0  0.55043797375E+01  0.69417968507E+01 -0.89283265824E+01  0.12577827938E+02  0.51100000000E-03 0.  1.
        -12    1    3    3    0    0  0.21535057565E+02 -0.89604978413E+00 -0.32572919502E+01  0.21798430228E+02  0.00000000000E+00 0.  1.
</event>
<event>
 7    1  0.2983653E-010  0.4778727E+02  0.7816164E-02  0.1312668E+00
        -11   -1    0    0    0    0  0.00000000000E+00  0.00000000000E+00  0.45593999997E+02  0.45594000000E+02  0.51100000000E-03 0.  1.
         11   -1    0    0    0    0 -0.00000000000E+00 -0.00000000000E+00 -0.45593999997E+02  0.45594000000E+02  0.51100000000E-03 0. -1.
    9900012    2    1    2    0    0 -0.14290181070E+02 -0.29380441112E+02 -0.28569277532E+02  0.47787271738E+02  0.20000003163E+02 0.  0.
        -12    1    1    2    0    0  0.14290181070E+02  0.29380441112E+02  0.28569277532E+02  0.43400728262E+02  0.00000000000E+00 0.  1.
         11    1    3    3    0    0 -0.10421615035E+02 -0.16158351733E+02 -0.16642183380E+02  0.25429602014E+02  0.51100000000E-03 0. -1.
        -11    1    3    3    0    0  0.19919675305E+01  0.13825126152E+01 -0.41447480944E+01  0.48018967920E+01  0.51100000000E-03 0.  1.
        -12    1    3    3    0    0 -0.58605335659E+01 -0.14604601994E+02 -0.77823460572E+01  0.17555772932E+02  0.00000000000E+00 0.  1.
</event>
<event>
 7    1  0.2983653E-010  0.4778727E+02  0.7816164E-02  0.1312668E+00
        -11   -1    0    0    0    0  0.00000000000E+00  0.00000000000E+00  0.45593999997E+02  0.45594000000E+02  0.51100000000E-03 0.  1.
         11   -1    0    0    0    0 -0.00000000000E+00 -0.00000000000E+00 -0.45593999997E+02  0.45594000000E+02  0.51100000000E-03 0. -1.
    9900012    2    1    2    0    0  0.11297883533E+02  0.26264357607E+02 -0.32652182856E+02  0.47787266157E+02  0.19999977717E+02 0.  0.
        -12    1    1    2    0    0 -0.11297883533E+02 -0.26264357607E+02  0.32652182856E+02  0.43400733843E+02  0.00000000000E+00 0.  1.
         11    1    3    3    0    0  0.26059397013E+01  0.16836193634E+02 -0.60242916925E+01  0.18070429670E+02  0.51100000000E-03 0. -1.
        -11    1    3    3    0    0  0.16111644150E+01  0.29797119213E+00 -0.33271646650E+01  0.37087278914E+01  0.51100000000E-03 0.  1.
         12    1    3    3    0    0  0.70807794162E+01  0.91301927808E+01 -0.23300726498E+02  0.26008108595E+02  0.00000000000E+00 0. -1.
</event>
<event>
 7    1  0.2983653E-010  0.4778727E+02  0.7816164E-02  0.1312668E+00
        -11   -1    0    0    0    0  0.00000000000E+00  0.00000000000E+00  0.45593999997E+02  0.45594000000E+02  0.51100000000E-03 0. -1.
         11   -1    0    0    0    0 -0.00000000000E+00 -0.00000000000E+00 -0.45593999997E+02  0.45594000000E+02  0.51100000000E-03 0.  1.
    9900012    2    1    2    0    0 -0.16593765772E+02  0.19257929961E+02  0.35176727542E+02  0.47787273169E+02  0.20000009686E+02 0.  0.
        -12    1    1    2    0    0  0.16593765772E+02 -0.19257929961E+02 -0.35176727542E+02  0.43400726831E+02  0.00000000000E+00 0.  1.
         11    1    3    3    0    0 -0.41264026877E+01 -0.13737250372E+01  0.20055884329E-01  0.43491058988E+01  0.51100000000E-03 0. -1.
        -11    1    3    3    0    0 -0.45890514330E+01  0.15350874910E+01  0.60905610029E+01  0.77788701140E+01  0.51100000000E-03 0.  1.
         12    1    3    3    0    0 -0.78783116516E+01  0.19096567508E+02  0.29066110655E+02  0.35659297156E+02  0.00000000000E+00 0. -1.
</event>
<event>
 7    1  0.2983653E-010  0.4778727E+02  0.7816164E-02  0.1312668E+00
        -11   -1    0    0    0    0  0.00000000000E+00  0.00000000000E+00  0.45593999997E+02  0.45594000000E+02  0.51100000000E-03 0. -1.
         11   -1    0    0    0    0 -0.00000000000E+00 -0.00000000000E+00 -0.45593999997E+02  0.45594000000E+02  0.51100000000E-03 0.  1.
    9900012    2    1    2    0    0  0.29552383084E+02  0.79523467964E+00  0.31774952849E+02  0.47787269906E+02  0.19999994808E+02 0.  0.
        -12    1    1    2    0    0 -0.29552383084E+02 -0.79523467964E+00 -0.31774952849E+02  0.43400730094E+02  0.00000000000E+00 0.  1.
         11    1    3    3    0    0  0.18842702042E+01  0.35507527350E+00  0.54324419724E+01  0.57609008581E+01  0.51100000000E-03 0. -1.
        -11    1    3    3    0    0  0.30039478489E+02  0.67086620949E+00  0.25750000883E+02  0.39571237978E+02  0.51100000000E-03 0.  1.
        -12    1    3    3    0    0 -0.23713656084E+01 -0.23070680335E+00  0.59250999334E+00  0.24551310698E+01  0.00000000000E+00 0.  1.
</event>
<event>
 7    1  0.2983653E-010  0.4778727E+02  0.7816164E-02  0.1312668E+00
        -11   -1    0    0    0    0  0.00000000000E+00  0.00000000000E+00  0.45593999997E+02  0.45594000000E+02  0.51100000000E-03 0.  1.
         11   -1    0    0    0    0 -0.00000000000E+00 -0.00000000000E+00 -0.45593999997E+02  0.45594000000E+02  0.51100000000E-03 0. -1.
    9900012    2    1    2    0    0 -0.19143651662E+02 -0.26284549395E+02 -0.28744850816E+02  0.47787269773E+02  0.19999994202E+02 0.  0.
        -12    1    1    2    0    0  0.19143651662E+02  0.26284549395E+02  0.28744850816E+02  0.43400730227E+02  0.00000000000E+00 0.  1.
         11    1    3    3    0    0 -0.15816969622E+02 -0.16878454168E+02 -0.19990418839E+02  0.30572464551E+02  0.51100000000E-03 0. -1.
        -11    1    3    3    0    0  0.13673974055E+00  0.23442483101E+01 -0.26072254456E+01  0.35088206966E+01  0.51100000000E-03 0.  1.
         12    1    3    3    0    0 -0.34634217802E+01 -0.11750343537E+02 -0.61472065318E+01  0.13705984525E+02  0.00000000000E+00 0. -1.
</event>
<event>
 7    1  0.2983653E-010  0.4778727E+02  0.7816164E-02  0.1312668E+00
        -11   -1    0    0    0    0  0.00000000000E+00  0.00000000000E+00  0.45593999997E+02  0.45594000000E+02  0.51100000000E-03 0.  1.
         11   -1    0    0    0    0 -0.00000000000E+00 -0.00000000000E+00 -0.45593999997E+02  0.45594000000E+02  0.51100000000E-03 0. -1.
    9900012    2    1    2    0    0 -0.31759934874E+02  0.96714167660E+00 -0.29563394411E+02  0.47787272870E+02  0.20000008325E+02 0.  0.
        -12    1    1    2    0    0  0.31759934874E+02 -0.96714167660E+00  0.29563394411E+02  0.43400727130E+02  0.00000000000E+00 0.  1.
         11    1    3    3    0    0 -0.12548374570E+02  0.24314358633E+01 -0.13603330560E+02  0.18666124057E+02  0.51100000000E-03 0. -1.
        -11    1    3    3    0    0 -0.11903512955E+02 -0.72256227072E+01 -0.51244288840E+01  0.14837891219E+02  0.51100000000E-03 0.  1.
        -12    1    3    3    0    0 -0.73080473501E+01  0.57613285205E+01 -0.10835634967E+02  0.14283257595E+02  0.00000000000E+00 0.  1.
</event>
<event>
 7    1  0.2983653E-010  0.4778727E+02  0.7816164E-02  0.1312668E+00
        -11   -1    0    0    0    0  0.00000000000E+00  0.00000000000E+00  0.45593999997E+02  0.45594000000E+02  0.51100000000E-03 0. -1.
         11   -1    0    0    0    0 -0.00000000000E+00 -0.00000000000E+00 -0.45593999997E+02  0.45594000000E+02  0.51100000000E-03 0.  1.
    9900012    2    1    2    0    0  0.15608116643E+02  0.24355645885E+02  0.32354481885E+02  0.47787270863E+02  0.19999999173E+02 0.  0.
        -12    1    1    2    0    0 -0.15608116643E+02 -0.24355645885E+02 -0.32354481885E+02  0.43400729137E+02  0.00000000000E+00 0.  1.
         11    1    3    3    0    0  0.70898865266E+01  0.29038389172E+01  0.11399970706E+02  0.13735286811E+02  0.51100000000E-03 0. -1.
        -11    1    3    3    0    0 -0.19721191763E+01  0.13301280124E+02  0.90010262309E+01  0.16181216903E+02  0.51100000000E-03 0.  1.
        -12    1    3    3    0    0  0.10490349293E+02  0.81505268433E+01  0.11953484947E+02  0.17870767149E+02  0.00000000000E+00 0.  1.
</event>
<event>
 7    1  0.2983653E-010  0.4778727E+02  0.7816164E-02  0.1312668E+00
        -11   -1    0    0    0    0  0.00000000000E+00  0.00000000000E+00  0.45593999997E+02  0.45594000000E+02  0.51100000000E-03 0. -1.
         11   -1    0    0    0    0 -0.00000000000E+00 -0.00000000000E+00 -0.45593999997E+02  0.45594000000E+02  0.51100000000E-03 0.  1.
    9900012    2    1    2    0    0  0.16162543052E+02  0.35525199929E+02  0.18983043449E+02  0.47787267673E+02  0.19999984628E+02 0.  0.
        -12    1    1    2    0    0 -0.16162543052E+02 -0.35525199929E+02 -0.18983043449E+02  0.43400732327E+02  0.00000000000E+00 0.  1.
         11    1    3    3    0    0  0.14633306104E+02  0.23172470336E+02  0.17351695411E+02  0.32437298946E+02  0.51100000000E-03 0. -1.
        -11    1    3    3    0    0 -0.48834948507E+00  0.12638781575E+02 -0.14142746183E+00  0.12649003396E+02  0.51100000000E-03 0.  1.
        -12    1    3    3    0    0  0.20175864326E+01 -0.28605198111E+00  0.17727754999E+01  0.27009653315E+01  0.00000000000E+00 0.  1.
</event>
<event>
 7    1  0.2983653E-010  0.4778728E+02  0.7816164E-02  0.1312668E+00
        -11   -1    0    0    0    0  0.00000000000E+00  0.00000000000E+00  0.45593999997E+02  0.45594000000E+02  0.51100000000E-03 0.  1.
         11   -1    0    0    0    0 -0.00000000000E+00 -0.00000000000E+00 -0.45593999997E+02  0.45594000000E+02  0.51100000000E-03 0. -1.
    9900012    2    1    2    0    0  0.24536929649E+02 -0.70285470831E+01 -0.35102154757E+02  0.47787278125E+02  0.20000032282E+02 0.  0.
        -12    1    1    2    0    0 -0.24536929649E+02  0.70285470831E+01  0.35102154757E+02  0.43400721875E+02  0.00000000000E+00 0.  1.
         11    1    3    3    0    0  0.17658075170E+02  0.43786565151E+00 -0.14858898020E+02  0.23082161850E+02  0.51100000000E-03 0. -1.
        -11    1    3    3    0    0  0.88320395694E+01 -0.81153396903E+01 -0.18259386494E+02  0.21846483851E+02  0.51100000000E-03 0.  1.
        -12    1    3    3    0    0 -0.19531850907E+01  0.64892695562E+00 -0.19838702432E+01  0.28586324238E+01  0.00000000000E+00 0.  1.
</event>
<event>
 7    1  0.2983653E-010  0.4778727E+02  0.7816164E-02  0.1312668E+00
        -11   -1    0    0    0    0  0.00000000000E+00  0.00000000000E+00  0.45593999997E+02  0.45594000000E+02  0.51100000000E-03 0.  1.
         11   -1    0    0    0    0 -0.00000000000E+00 -0.00000000000E+00 -0.45593999997E+02  0.45594000000E+02  0.51100000000E-03 0. -1.
    9900012    2    1    2    0    0  0.12706809796E+02  0.17274545360E+02 -0.37732616174E+02  0.47787271251E+02  0.20000000943E+02 0.  0.
        -12    1    1    2    0    0 -0.12706809796E+02 -0.17274545360E+02  0.37732616174E+02  0.43400728749E+02  0.00000000000E+00 0.  1.
         11    1    3    3    0    0  0.17175211735E+01  0.36098388861E+00 -0.36374986158E+01  0.40387603036E+01  0.51100000000E-03 0. -1.
        -11    1    3    3    0    0  0.15848611547E+01  0.16337102763E+02 -0.14075517005E+02  0.21622508893E+02  0.51100000000E-03 0.  1.
        -12    1    3    3    0    0  0.94044274682E+01  0.57645870761E+00 -0.20019600553E+02  0.22126002055E+02  0.00000000000E+00 0.  1.
</event>
<event>
 7    1  0.2983653E-010  0.4778728E+02  0.7816164E-02  0.1312668E+00
        -11   -1    0    0    0    0  0.00000000000E+00  0.00000000000E+00  0.45593999997E+02  0.45594000000E+02  0.51100000000E-03 0.  1.
         11   -1    0    0    0    0 -0.00000000000E+00 -0.00000000000E+00 -0.45593999997E+02  0.45594000000E+02  0.51100000000E-03 0. -1.
    9900012    2    1    2    0    0 -0.20971467516E+02  0.34660200631E+02 -0.15572117102E+02  0.47787276635E+02  0.20000025492E+02 0.  0.
        -12    1    1    2    0    0  0.20971467516E+02 -0.34660200631E+02  0.15572117102E+02  0.43400723365E+02  0.00000000000E+00 0.  1.
         11    1    3    3    0    0 -0.75699510560E-01  0.80937042622E+01 -0.75958858541E+01  0.11100056814E+02  0.51100000000E-03 0. -1.
        -11    1    3    3    0    0 -0.16431964152E+02  0.21897866602E+02 -0.13157198116E+01  0.27409070150E+02  0.51100000000E-03 0.  1.
        -12    1    3    3    0    0 -0.44638038525E+01  0.46686297670E+01 -0.66605114360E+01  0.92781496714E+01  0.00000000000E+00 0.  1.
</event>
<event>
 7    1  0.2983653E-010  0.4778727E+02  0.7816164E-02  0.1312668E+00
        -11   -1    0    0    0    0  0.00000000000E+00  0.00000000000E+00  0.45593999997E+02  0.45594000000E+02  0.51100000000E-03 0. -1.
         11   -1    0    0    0    0 -0.00000000000E+00 -0.00000000000E+00 -0.45593999997E+02  0.45594000000E+02  0.51100000000E-03 0.  1.
    9900012    2    1    2    0    0  0.41571390098E+02  0.76931527239E+01  0.98111477706E+01  0.47787266203E+02  0.19999977927E+02 0.  0.
        -12    1    1    2    0    0 -0.41571390098E+02 -0.76931527239E+01 -0.98111477706E+01  0.43400733797E+02  0.00000000000E+00 0.  1.
         11    1    3    3    0    0  0.24455811073E+01  0.27845335126E+01  0.42187605878E+01  0.56153748756E+01  0.51100000000E-03 0.  1.
        -11    1    3    3    0    0  0.28643916535E+02 -0.24176520352E+01  0.16648763217E+01  0.28793937022E+02  0.51100000000E-03 0. -1.
        -12    1    3    3    0    0  0.10481892456E+02  0.73262712465E+01  0.39275108610E+01  0.13377954306E+02  0.00000000000E+00 0.  1.
</event>
<event>
 7    1  0.2983653E-010  0.4778727E+02  0.7816164E-02  0.1312668E+00
        -11   -1    0    0    0    0  0.00000000000E+00  0.00000000000E+00  0.45593999997E+02  0.45594000000E+02  0.51100000000E-03 0.  1.
         11   -1    0    0    0    0 -0.00000000000E+00 -0.00000000000E+00 -0.45593999997E+02  0.45594000000E+02  0.51100000000E-03 0. -1.
    9900012    2    1    2    0    0  0.14576642594E+01  0.56573660707E+01 -0.43005729566E+02  0.47787270151E+02  0.19999995925E+02 0.  0.
        -12    1    1    2    0    0 -0.14576642594E+01 -0.56573660707E+01  0.43005729566E+02  0.43400729849E+02  0.00000000000E+00 0.  1.
         11    1    3    3    0    0  0.70509272681E+01 -0.91939717884E+00 -0.23315867876E+02  0.24376024319E+02  0.51100000000E-03 0. -1.
        -11    1    3    3    0    0 -0.38247493833E+01  0.17279552456E+01 -0.14267620748E+01  0.44328531957E+01  0.51100000000E-03 0.  1.
         12    1    3    3    0    0 -0.17685136255E+01  0.48488080040E+01 -0.18263099615E+02  0.18978392636E+02  0.00000000000E+00 0. -1.
</event>
<event>
 7    1  0.2983653E-010  0.4778727E+02  0.7816164E-02  0.1312668E+00
        -11   -1    0    0    0    0  0.00000000000E+00  0.00000000000E+00  0.45593999997E+02  0.45594000000E+02  0.51100000000E-03 0.  1.
         11   -1    0    0    0    0 -0.00000000000E+00 -0.00000000000E+00 -0.45593999997E+02  0.45594000000E+02  0.51100000000E-03 0. -1.
    9900012    2    1    2    0    0  0.30651238349E+02 -0.27542609419E+02  0.13620922563E+02  0.47787271004E+02  0.19999999814E+02 0.  0.
        -12    1    1    2    0    0 -0.30651238349E+02  0.27542609419E+02 -0.13620922563E+02  0.43400728996E+02  0.00000000000E+00 0.  1.
         11    1    3    3    0    0  0.10236554018E+02 -0.97829044189E+01  0.12137828459E+02  0.18649909838E+02  0.51100000000E-03 0. -1.
        -11    1    3    3    0    0  0.38378570541E+01 -0.51892393753E-01  0.29441041687E+01  0.48373121882E+01  0.51100000000E-03 0.  1.
         12    1    3    3    0    0  0.16576827277E+02 -0.17707812607E+02 -0.14610100646E+01  0.24300048977E+02  0.00000000000E+00 0. -1.
</event>
<event>
 7    1  0.2983653E-010  0.4778727E+02  0.7816164E-02  0.1312668E+00
        -11   -1    0    0    0    0  0.00000000000E+00  0.00000000000E+00  0.45593999997E+02  0.45594000000E+02  0.51100000000E-03 0.  1.
         11   -1    0    0    0    0 -0.00000000000E+00 -0.00000000000E+00 -0.45593999997E+02  0.45594000000E+02  0.51100000000E-03 0. -1.
    9900012    2    1    2    0    0  0.25007927416E+02 -0.32364676262E+02 -0.14517396209E+02  0.47787268487E+02  0.19999988339E+02 0.  0.
        -12    1    1    2    0    0 -0.25007927416E+02  0.32364676262E+02  0.14517396209E+02  0.43400731513E+02  0.00000000000E+00 0.  1.
         11    1    3    3    0    0  0.10858459638E+02 -0.97565025332E+01 -0.98923059911E+01  0.17633865301E+02  0.51100000000E-03 0. -1.
        -11    1    3    3    0    0  0.13866831662E+02 -0.16674351866E+02  0.13484807011E+01  0.21728815683E+02  0.51100000000E-03 0.  1.
        -12    1    3    3    0    0  0.28263611595E+00 -0.59338218631E+01 -0.59735709185E+01  0.84245875029E+01  0.00000000000E+00 0.  1.
</event>
<event>
 7    1  0.2983653E-010  0.4778727E+02  0.7816164E-02  0.1312668E+00
        -11   -1    0    0    0    0  0.00000000000E+00  0.00000000000E+00  0.45593999997E+02  0.45594000000E+02  0.51100000000E-03 0. -1.
         11   -1    0    0    0    0 -0.00000000000E+00 -0.00000000000E+00 -0.45593999997E+02  0.45594000000E+02  0.51100000000E-03 0.  1.
    9900012    2    1    2    0    0  0.29363649311E+02  0.18875797837E+02  0.25789603609E+02  0.47787270753E+02  0.19999998673E+02 0.  0.
        -12    1    1    2    0    0 -0.29363649311E+02 -0.18875797837E+02 -0.25789603609E+02  0.43400729247E+02  0.00000000000E+00 0.  1.
         11    1    3    3    0    0  0.82626131550E+01  0.96549118036E+01  0.70613413310E+01  0.14537903554E+02  0.51100000000E-03 0. -1.
        -11    1    3    3    0    0  0.53343350945E+01  0.63355158475E+01 -0.40186086471E+00  0.82918866593E+01  0.51100000000E-03 0.  1.
         12    1    3    3    0    0  0.15766701062E+02  0.28853701861E+01  0.19130123142E+02  0.24957480540E+02  0.00000000000E+00 0. -1.
</event>
<event>
 7    1  0.2983653E-010  0.4778726E+02  0.7816164E-02  0.1312668E+00
        -11   -1    0    0    0    0  0.00000000000E+00  0.00000000000E+00  0.45593999997E+02  0.45594000000E+02  0.51100000000E-03 0.  1.
         11   -1    0    0    0    0 -0.00000000000E+00 -0.00000000000E+00 -0.45593999997E+02  0.45594000000E+02  0.51100000000E-03 0. -1.
    9900012    2    1    2    0    0 -0.90923641404E+01  0.37388861286E+02  0.20075504750E+02  0.47787263545E+02  0.19999965805E+02 0.  0.
        -12    1    1    2    0    0  0.90923641404E+01 -0.37388861286E+02 -0.20075504750E+02  0.43400736455E+02  0.00000000000E+00 0.  1.
         11    1    3    3    0    0 -0.11375738716E+02  0.21995176090E+02  0.10265277681E+02  0.26806177062E+02  0.51100000000E-03 0. -1.
        -11    1    3    3    0    0 -0.39345400382E+01  0.71091716485E+01  0.51715794785E+01  0.96315191639E+01  0.51100000000E-03 0.  1.
         12    1    3    3    0    0  0.62179146134E+01  0.82845135470E+01  0.46386475909E+01  0.11349567319E+02  0.00000000000E+00 0. -1.
</event>
<event>
 7    1  0.2983653E-010  0.4778727E+02  0.7816164E-02  0.1312668E+00
        -11   -1    0    0    0    0  0.00000000000E+00  0.00000000000E+00  0.45593999997E+02  0.45594000000E+02  0.51100000000E-03 0. -1.
         11   -1    0    0    0    0 -0.00000000000E+00 -0.00000000000E+00 -0.45593999997E+02  0.45594000000E+02  0.51100000000E-03 0.  1.
    9900012    2    1    2    0    0  0.21404863816E+02  0.22446379031E+02  0.30358115925E+02  0.47787270408E+02  0.19999997098E+02 0.  0.
        -12    1    1    2    0    0 -0.21404863816E+02 -0.22446379031E+02 -0.30358115925E+02  0.43400729592E+02  0.00000000000E+00 0.  1.
         11    1    3    3    0    0  0.18741333534E+02  0.69526297494E+01  0.13145252536E+02  0.23924345499E+02  0.51100000000E-03 0.  1.
        -11    1    3    3    0    0  0.38327005252E+01  0.14164989405E+02  0.16039448152E+02  0.21739374771E+02  0.51100000000E-03 0. -1.
        -12    1    3    3    0    0 -0.11691702434E+01  0.13287598765E+01  0.11734152373E+01  0.21235501375E+01  0.00000000000E+00 0.  1.
</event>
<event>
 7    1  0.2983653E-010  0.4778726E+02  0.7816164E-02  0.1312668E+00
        -11   -1    0    0    0    0  0.00000000000E+00  0.00000000000E+00  0.45593999997E+02  0.45594000000E+02  0.51100000000E-03 0. -1.
         11   -1    0    0    0    0 -0.00000000000E+00 -0.00000000000E+00 -0.45593999997E+02  0.45594000000E+02  0.51100000000E-03 0.  1.
    9900012    2    1    2    0    0  0.41342499719E+02  0.94452020330E+01  0.92309263074E+01  0.47787261240E+02  0.19999955295E+02 0.  0.
        -12    1    1    2    0    0 -0.41342499719E+02 -0.94452020330E+01 -0.92309263074E+01  0.43400738760E+02  0.00000000000E+00 0.  1.
         11    1    3    3    0    0  0.28562878805E+02  0.10522630718E+02  0.30267348047E+00  0.30441015330E+02  0.51100000000E-03 0. -1.
        -11    1    3    3    0    0  0.10470969990E+02 -0.37696731479E+01  0.79193458877E+01  0.13658978283E+02  0.51100000000E-03 0.  1.
        -12    1    3    3    0    0  0.23086509241E+01  0.26922444630E+01  0.10089069393E+01  0.36872676266E+01  0.00000000000E+00 0.  1.
</event>
<event>
 7    1  0.2983653E-010  0.4778726E+02  0.7816164E-02  0.1312668E+00
        -11   -1    0    0    0    0  0.00000000000E+00  0.00000000000E+00  0.45593999997E+02  0.45594000000E+02  0.51100000000E-03 0.  1.
         11   -1    0    0    0    0 -0.00000000000E+00 -0.00000000000E+00 -0.45593999997E+02  0.45594000000E+02  0.51100000000E-03 0. -1.
    9900012    2    1    2    0    0 -0.37869144602E+02 -0.29016676724E+01 -0.21003145855E+02  0.47787263554E+02  0.19999965850E+02 0.  0.
        -12    1    1    2    0    0  0.37869144602E+02  0.29016676724E+01  0.21003145855E+02  0.43400736446E+02  0.00000000000E+00 0.  1.
         11    1    3    3    0    0 -0.33397963796E+02  0.58838075071E+00 -0.15356833372E+02  0.36764147060E+02  0.51100000000E-03 0. -1.
        -11    1    3    3    0    0  0.14486009106E+01 -0.14875775709E+01  0.62629980960E+00  0.21687746172E+01  0.51100000000E-03 0.  1.
         12    1    3    3    0    0 -0.59197817173E+01 -0.20024708522E+01 -0.62726122929E+01  0.88543418767E+01  0.00000000000E+00 0. -1.
</event>
<event>
 7    1  0.2983653E-010  0.4778727E+02  0.7816164E-02  0.1312668E+00
        -11   -1    0    0    0    0  0.00000000000E+00  0.00000000000E+00  0.45593999997E+02  0.45594000000E+02  0.51100000000E-03 0.  1.
         11   -1    0    0    0    0 -0.00000000000E+00 -0.00000000000E+00 -0.45593999997E+02  0.45594000000E+02  0.51100000000E-03 0. -1.
    9900012    2    1    2    0    0 -0.14280256049E+02  0.37112921400E+02  0.17387606708E+02  0.47787268270E+02  0.19999987351E+02 0.  0.
        -12    1    1    2    0    0  0.14280256049E+02 -0.37112921400E+02 -0.17387606708E+02  0.43400731730E+02  0.00000000000E+00 0.  1.
         11    1    3    3    0    0 -0.57620457203E+01  0.29779062016E+02  0.95189072450E+01  0.31789987431E+02  0.51100000000E-03 0. -1.
        -11    1    3    3    0    0 -0.69666919398E+01  0.63951910031E+01  0.96103222926E+01  0.13483010027E+02  0.51100000000E-03 0.  1.
         12    1    3    3    0    0 -0.15515183890E+01  0.93866838025E+00 -0.17416228294E+01  0.25142708126E+01  0.00000000000E+00 0. -1.
</event>
<event>
 7    1  0.2983653E-010  0.4778727E+02  0.7816164E-02  0.1312668E+00
        -11   -1    0    0    0    0  0.00000000000E+00  0.00000000000E+00  0.45593999997E+02  0.45594000000E+02  0.51100000000E-03 0.  1.
         11   -1    0    0    0    0 -0.00000000000E+00 -0.00000000000E+00 -0.45593999997E+02  0.45594000000E+02  0.51100000000E-03 0. -1.
    9900012    2    1    2    0    0 -0.35686996387E+02  0.47548115023E+01 -0.24237444727E+02  0.47787266476E+02  0.19999979170E+02 0.  0.
        -12    1    1    2    0    0  0.35686996387E+02 -0.47548115023E+01  0.24237444727E+02  0.43400733524E+02  0.00000000000E+00 0.  1.
         11    1    3    3    0    0 -0.28968800240E+02  0.50337862568E+01 -0.19727510164E+02  0.35407697595E+02  0.51100000000E-03 0. -1.
        -11    1    3    3    0    0 -0.19599073234E+01  0.17841585501E+01  0.25108882859E+01  0.36508928625E+01  0.51100000000E-03 0.  1.
        -12    1    3    3    0    0 -0.47582888236E+01 -0.20631333046E+01 -0.70208228491E+01  0.87286760187E+01  0.00000000000E+00 0.  1.
</event>
<event>
 7    1  0.2983653E-010  0.4778727E+02  0.7816164E-02  0.1312668E+00
        -11   -1    0    0    0    0  0.00000000000E+00  0.00000000000E+00  0.45593999997E+02  0.45594000000E+02  0.51100000000E-03 0.  1.
         11   -1    0    0    0    0 -0.00000000000E+00 -0.00000000000E+00 -0.45593999997E+02  0.45594000000E+02  0.51100000000E-03 0. -1.
    9900012    2    1    2    0    0 -0.22387404725E+02 -0.25311978256E+01 -0.37094750705E+02  0.47787269791E+02  0.19999994286E+02 0.  0.
        -12    1    1    2    0    0  0.22387404725E+02  0.25311978256E+01  0.37094750705E+02  0.43400730209E+02  0.00000000000E+00 0.  1.
         11    1    3    3    0    0 -0.90173671720E+01 -0.87282422131E+01 -0.12536061038E+02  0.17738318676E+02  0.51100000000E-03 0. -1.
        -11    1    3    3    0    0 -0.31564694969E+01  0.41991768486E+01 -0.28546033441E+01  0.59787244797E+01  0.51100000000E-03 0.  1.
         12    1    3    3    0    0 -0.10213568057E+02  0.19978675388E+01 -0.21704086323E+02  0.24070226635E+02  0.00000000000E+00 0. -1.
</event>
<event>
 7    1  0.2983653E-010  0.4778727E+02  0.7816164E-02  0.1312668E+00
        -11   -1    0    0    0    0  0.00000000000E+00  0.00000000000E+00  0.45593999997E+02  0.45594000000E+02  0.51100000000E-03 0. -1.
         11   -1    0    0    0    0 -0.00000000000E+00 -0.00000000000E+00 -0.45593999997E+02  0.45594000000E+02  0.51100000000E-03 0.  1.
    9900012    2    1    2    0    0  0.36979299107E+02 -0.22508749340E+02 -0.30839744550E+01  0.47787271230E+02  0.20000000846E+02 0.  0.
        -12    1    1    2    0    0 -0.36979299107E+02  0.22508749340E+02  0.30839744550E+01  0.43400728770E+02  0.00000000000E+00 0.  1.
         11    1    3    3    0    0  0.18127536954E+02 -0.16924908760E+02 -0.77980047282E+01  0.25997480850E+02  0.51100000000E-03 0. -1.
        -11    1    3    3    0    0  0.13275411934E+02 -0.20940162814E-01  0.18262118438E+01  0.13400449637E+02  0.51100000000E-03 0.  1.
         12    1    3    3    0    0  0.55763502193E+01 -0.55629004178E+01  0.28878184295E+01  0.83893407434E+01  0.00000000000E+00 0. -1.
</event>
<event>
 7    1  0.2983653E-010  0.4778727E+02  0.7816164E-02  0.1312668E+00
        -11   -1    0    0    0    0  0.00000000000E+00  0.00000000000E+00  0.45593999997E+02  0.45594000000E+02  0.51100000000E-03 0.  1.
         11   -1    0    0    0    0 -0.00000000000E+00 -0.00000000000E+00 -0.45593999997E+02  0.45594000000E+02  0.51100000000E-03 0. -1.
    9900012    2    1    2    0    0 -0.27876962553E+02  0.27061188450E+02 -0.19344002916E+02  0.47787269472E+02  0.19999992832E+02 0.  0.
        -12    1    1    2    0    0  0.27876962553E+02 -0.27061188450E+02  0.19344002916E+02  0.43400730528E+02  0.00000000000E+00 0.  1.
         11    1    3    3    0    0 -0.23170817689E+02  0.18154652110E+02 -0.15166473381E+02  0.33113442899E+02  0.51100000000E-03 0. -1.
        -11    1    3    3    0    0  0.28928635797E+01  0.90656817984E+00 -0.98052672710E+00  0.31862138156E+01  0.51100000000E-03 0.  1.
         12    1    3    3    0    0 -0.75990084444E+01  0.79999681603E+01 -0.31970028083E+01  0.11487612757E+02  0.00000000000E+00 0. -1.
</event>
<event>
 7    1  0.2983653E-010  0.4778727E+02  0.7816164E-02  0.1312668E+00
        -11   -1    0    0    0    0  0.00000000000E+00  0.00000000000E+00  0.45593999997E+02  0.45594000000E+02  0.51100000000E-03 0.  1.
         11   -1    0    0    0    0 -0.00000000000E+00 -0.00000000000E+00 -0.45593999997E+02  0.45594000000E+02  0.51100000000E-03 0. -1.
    9900012    2    1    2    0    0 -0.34294795148E+02 -0.24830690441E+02 -0.95355654976E+01  0.47787272225E+02  0.20000005385E+02 0.  0.
        -12    1    1    2    0    0  0.34294795148E+02  0.24830690441E+02  0.95355654976E+01  0.43400727775E+02  0.00000000000E+00 0.  1.
         11    1    3    3    0    0 -0.89484677487E+01 -0.16341226496E+02 -0.48633220327E+00  0.18637255102E+02  0.51100000000E-03 0.  1.
        -11    1    3    3    0    0 -0.18622348480E+02 -0.87733198890E+01 -0.88767395692E+01  0.22417839111E+02  0.51100000000E-03 0. -1.
         12    1    3    3    0    0 -0.67239789196E+01  0.28385594463E+00 -0.17249372508E+00  0.67321780126E+01  0.00000000000E+00 0. -1.
</event>
<event>
 7    1  0.2983653E-010  0.4778727E+02  0.7816164E-02  0.1312668E+00
        -11   -1    0    0    0    0  0.00000000000E+00  0.00000000000E+00  0.45593999997E+02  0.45594000000E+02  0.51100000000E-03 0. -1.
         11   -1    0    0    0    0 -0.00000000000E+00 -0.00000000000E+00 -0.45593999997E+02  0.45594000000E+02  0.51100000000E-03 0.  1.
    9900012    2    1    2    0    0 -0.58515410034E+00 -0.36274824505E+02  0.23820536121E+02  0.47787271443E+02  0.20000001817E+02 0.  0.
        -12    1    1    2    0    0  0.58515410034E+00  0.36274824505E+02 -0.23820536121E+02  0.43400728557E+02  0.00000000000E+00 0.  1.
         11    1    3    3    0    0  0.58233046680E+01 -0.67088929840E+01  0.33056931330E+00  0.88898480673E+01  0.51100000000E-03 0. -1.
        -11    1    3    3    0    0  0.79016431498E+00 -0.27770441520E+00  0.51215691965E+00  0.98172519493E+00  0.51100000000E-03 0.  1.
         12    1    3    3    0    0 -0.71986230834E+01 -0.29288227106E+02  0.22977809888E+02  0.37915698181E+02  0.00000000000E+00 0. -1.
</event>
<event>
 7    1  0.2983653E-010  0.4778727E+02  0.7816164E-02  0.1312668E+00
        -11   -1    0    0    0    0  0.00000000000E+00  0.00000000000E+00  0.45593999997E+02  0.45594000000E+02  0.51100000000E-03 0.  1.
         11   -1    0    0    0    0 -0.00000000000E+00 -0.00000000000E+00 -0.45593999997E+02  0.45594000000E+02  0.51100000000E-03 0. -1.
    9900012    2    1    2    0    0 -0.18262186754E+02  0.15162265055E+02 -0.36334852874E+02  0.47787270974E+02  0.19999999678E+02 0.  0.
        -12    1    1    2    0    0  0.18262186754E+02 -0.15162265055E+02  0.36334852874E+02  0.43400729026E+02  0.00000000000E+00 0.  1.
         11    1    3    3    0    0 -0.12186635582E+02 -0.20673520819E+01 -0.16091869931E+02  0.20291286543E+02  0.51100000000E-03 0. -1.
        -11    1    3    3    0    0 -0.38317804076E+00  0.59617075195E+01 -0.69199491812E+01  0.91419078365E+01  0.51100000000E-03 0.  1.
         12    1    3    3    0    0 -0.56923731314E+01  0.11267909618E+02 -0.13323033761E+02  0.18354076594E+02  0.00000000000E+00 0. -1.
</event>
<event>
 7    1  0.2983653E-010  0.4778727E+02  0.7816164E-02  0.1312668E+00
        -11   -1    0    0    0    0  0.00000000000E+00  0.00000000000E+00  0.45593999997E+02  0.45594000000E+02  0.51100000000E-03 0. -1.
         11   -1    0    0    0    0 -0.00000000000E+00 -0.00000000000E+00 -0.45593999997E+02  0.45594000000E+02  0.51100000000E-03 0.  1.
    9900012    2    1    2    0    0 -0.40693891765E+02 -0.37094281714E+01  0.14624310594E+02  0.47787272533E+02  0.20000006788E+02 0.  0.
        -12    1    1    2    0    0  0.40693891765E+02  0.37094281714E+01 -0.14624310594E+02  0.43400727467E+02  0.00000000000E+00 0.  1.
         11    1    3    3    0    0 -0.19301188166E+02 -0.47970757947E+01  0.15604186764E+02  0.25279209751E+02  0.51100000000E-03 0. -1.
        -11    1    3    3    0    0 -0.18283476555E+02  0.22140444028E+00  0.16299140893E+01  0.18357318842E+02  0.51100000000E-03 0.  1.
         12    1    3    3    0    0 -0.31092270429E+01  0.86624318300E+00 -0.26097902593E+01  0.41507439398E+01  0.00000000000E+00 0. -1.
</event>
<event>
 7    1  0.2983653E-010  0.4778727E+02  0.7816164E-02  0.1312668E+00
        -11   -1    0    0    0    0  0.00000000000E+00  0.00000000000E+00  0.45593999997E+02  0.45594000000E+02  0.51100000000E-03 0.  1.
         11   -1    0    0    0    0 -0.00000000000E+00 -0.00000000000E+00 -0.45593999997E+02  0.45594000000E+02  0.51100000000E-03 0. -1.
    9900012    2    1    2    0    0  0.37854539838E+02  0.18989417168E+02 -0.94899454488E+01  0.47787271718E+02  0.20000003072E+02 0.  0.
        -12    1    1    2    0    0 -0.37854539838E+02 -0.18989417168E+02  0.94899454488E+01  0.43400728282E+02  0.00000000000E+00 0.  1.
         11    1    3    3    0    0  0.30579494074E+02  0.16395919265E+02 -0.98069687374E+01  0.36057014053E+02  0.51100000000E-03 0. -1.
        -11    1    3    3    0    0  0.30014144948E+01  0.53488276631E+01 -0.15282760189E+01  0.63209235235E+01  0.51100000000E-03 0.  1.
         12    1    3    3    0    0  0.42736312697E+01 -0.27553297605E+01  0.18452993075E+01  0.54093341414E+01  0.00000000000E+00 0. -1.
</event>
<event>
 7    1  0.4026224E-010  0.4778728E+02  0.7816164E-02  0.1312668E+00
        -11   -1    0    0    0    0  0.00000000000E+00  0.00000000000E+00  0.45593999997E+02  0.45594000000E+02  0.51100000000E-03 0.  1.
         11   -1    0    0    0    0 -0.00000000000E+00 -0.00000000000E+00 -0.45593999997E+02  0.45594000000E+02  0.51100000000E-03 0. -1.
    9900012    2    1    2    0    0  0.36680475381E+02  0.11323604062E+02 -0.20247007496E+02  0.47787278857E+02  0.20000035622E+02 0.  0.
        -12    1    1    2    0    0 -0.36680475381E+02 -0.11323604062E+02  0.20247007496E+02  0.43400721143E+02  0.00000000000E+00 0.  1.
         11    1    3    3    0    0  0.23354245537E+02  0.47968624472E+01 -0.14571572320E+02  0.27942107903E+02  0.51100000000E-03 0. -1.
        -11    1    3    3    0    0  0.77302856712E+01  0.27324324979E+01  0.31015788122E+01  0.87660307610E+01  0.51100000000E-03 0.  1.
        -12    1    3    3    0    0  0.55959441731E+01  0.37943091170E+01 -0.87770139885E+01  0.11079140193E+02  0.00000000000E+00 0.  1.
</event>
<event>
 7    1  0.2983653E-010  0.4778727E+02  0.7816164E-02  0.1312668E+00
        -11   -1    0    0    0    0  0.00000000000E+00  0.00000000000E+00  0.45593999997E+02  0.45594000000E+02  0.51100000000E-03 0.  1.
         11   -1    0    0    0    0 -0.00000000000E+00 -0.00000000000E+00 -0.45593999997E+02  0.45594000000E+02  0.51100000000E-03 0. -1.
    9900012    2    1    2    0    0  0.22524722407E+02  0.98766541388E+01 -0.35759080299E+02  0.47787271431E+02  0.20000001764E+02 0.  0.
        -12    1    1    2    0    0 -0.22524722407E+02 -0.98766541388E+01  0.35759080299E+02  0.43400728569E+02  0.00000000000E+00 0.  1.
         11    1    3    3    0    0  0.14411769432E+02  0.43954624008E+01 -0.25784401177E+02  0.29863933636E+02  0.51100000000E-03 0. -1.
        -11    1    3    3    0    0  0.40061109298E+01 -0.27688583690E+01 -0.82925920681E+00  0.49399567349E+01  0.51100000000E-03 0.  1.
        -12    1    3    3    0    0  0.41068420448E+01  0.82500501070E+01 -0.91454199149E+01  0.12983381061E+02  0.00000000000E+00 0.  1.
</event>
<event>
 7    1  0.2983653E-010  0.4778727E+02  0.7816164E-02  0.1312668E+00
        -11   -1    0    0    0    0  0.00000000000E+00  0.00000000000E+00  0.45593999997E+02  0.45594000000E+02  0.51100000000E-03 0.  1.
         11   -1    0    0    0    0 -0.00000000000E+00 -0.00000000000E+00 -0.45593999997E+02  0.45594000000E+02  0.51100000000E-03 0. -1.
    9900012    2    1    2    0    0  0.11979540918E+02 -0.29032674217E+02 -0.29953593669E+02  0.47787270208E+02  0.19999996186E+02 0.  0.
        -12    1    1    2    0    0 -0.11979540918E+02  0.29032674217E+02  0.29953593669E+02  0.43400729792E+02  0.00000000000E+00 0.  1.
         11    1    3    3    0    0  0.11796638773E+02 -0.18656424011E+02 -0.99566116884E+01  0.24214808688E+02  0.51100000000E-03 0. -1.
        -11    1    3    3    0    0 -0.12029013677E+01 -0.18253383080E+01 -0.10471132099E+02  0.10696889237E+02  0.51100000000E-03 0.  1.
         12    1    3    3    0    0  0.13858035131E+01 -0.85509118974E+01 -0.95258498816E+01  0.12875572283E+02  0.00000000000E+00 0. -1.
</event>
<event>
 7    1  0.2983653E-010  0.4778727E+02  0.7816164E-02  0.1312668E+00
        -11   -1    0    0    0    0  0.00000000000E+00  0.00000000000E+00  0.45593999997E+02  0.45594000000E+02  0.51100000000E-03 0.  1.
         11   -1    0    0    0    0 -0.00000000000E+00 -0.00000000000E+00 -0.45593999997E+02  0.45594000000E+02  0.51100000000E-03 0. -1.
    9900012    2    1    2    0    0 -0.63426057313E+01  0.24116176656E+02 -0.35521889086E+02  0.47787271571E+02  0.20000002399E+02 0.  0.
        -12    1    1    2    0    0  0.63426057313E+01 -0.24116176656E+02  0.35521889086E+02  0.43400728429E+02  0.00000000000E+00 0.  1.
         11    1    3    3    0    0  0.27214762107E+01  0.11524189660E+02 -0.27964840835E+02  0.30368498535E+02  0.51100000000E-03 0. -1.
        -11    1    3    3    0    0 -0.44951875821E+01  0.78233706516E+01 -0.51533745819E+01  0.10390818524E+02  0.51100000000E-03 0.  1.
         12    1    3    3    0    0 -0.45688943599E+01  0.47686163450E+01 -0.24036736692E+01  0.70279545122E+01  0.00000000000E+00 0. -1.
</event>
<event>
 7    1  0.2983653E-010  0.4778726E+02  0.7816164E-02  0.1312668E+00
        -11   -1    0    0    0    0  0.00000000000E+00  0.00000000000E+00  0.45593999997E+02  0.45594000000E+02  0.51100000000E-03 0.  1.
         11   -1    0    0    0    0 -0.00000000000E+00 -0.00000000000E+00 -0.45593999997E+02  0.45594000000E+02  0.51100000000E-03 0. -1.
    9900012    2    1    2    0    0  0.12646320739E+02 -0.41239425474E+02 -0.47963364346E+01  0.47787257093E+02  0.19999936389E+02 0.  0.
        -12    1    1    2    0    0 -0.12646320739E+02  0.41239425474E+02  0.47963364346E+01  0.43400742907E+02  0.00000000000E+00 0.  1.
         11    1    3    3    0    0  0.32129138750E+01 -0.10577301251E+02  0.62477802782E+01  0.12697908331E+02  0.51100000000E-03 0. -1.
        -11    1    3    3    0    0  0.59335931351E+01 -0.63830101899E+01 -0.19707549318E+01  0.89349998232E+01  0.51100000000E-03 0.  1.
         12    1    3    3    0    0  0.34998137292E+01 -0.24279114034E+02 -0.90733617810E+01  0.26154348939E+02  0.00000000000E+00 0. -1.
</event>
<event>
 7    1  0.2983653E-010  0.4778727E+02  0.7816164E-02  0.1312668E+00
        -11   -1    0    0    0    0  0.00000000000E+00  0.00000000000E+00  0.45593999997E+02  0.45594000000E+02  0.51100000000E-03 0.  1.
         11   -1    0    0    0    0 -0.00000000000E+00 -0.00000000000E+00 -0.45593999997E+02  0.45594000000E+02  0.51100000000E-03 0. -1.
    9900012    2    1    2    0    0 -0.44926477915E+01  0.26921036562E+02 -0.33744589851E+02  0.47787269154E+02  0.19999991379E+02 0.  0.
        -12    1    1    2    0    0  0.44926477915E+01 -0.26921036562E+02  0.33744589851E+02  0.43400730846E+02  0.00000000000E+00 0.  1.
         11    1    3    3    0    0 -0.66998164253E+01  0.12214619201E+02 -0.18254978950E+02  0.22963639064E+02  0.51100000000E-03 0. -1.
        -11    1    3    3    0    0  0.73248595671E+01  0.10236588493E+02 -0.10534330466E+02  0.16413818272E+02  0.51100000000E-03 0.  1.
        -12    1    3    3    0    0 -0.51176909332E+01  0.44698288685E+01 -0.49552804362E+01  0.84098118173E+01  0.00000000000E+00 0.  1.
</event>
<event>
 7    1  0.2983653E-010  0.4778727E+02  0.7816164E-02  0.1312668E+00
        -11   -1    0    0    0    0  0.00000000000E+00  0.00000000000E+00  0.45593999997E+02  0.45594000000E+02  0.51100000000E-03 0.  1.
         11   -1    0    0    0    0 -0.00000000000E+00 -0.00000000000E+00 -0.45593999997E+02  0.45594000000E+02  0.51100000000E-03 0. -1.
    9900012    2    1    2    0    0 -0.19612875480E+02  0.89152649750E+01 -0.37675935313E+02  0.47787274939E+02  0.20000017755E+02 0.  0.
        -12    1    1    2    0    0  0.19612875480E+02 -0.89152649750E+01  0.37675935313E+02  0.43400725061E+02  0.00000000000E+00 0.  1.
         11    1    3    3    0    0 -0.13683428972E+02  0.92865039235E+01 -0.28059678140E+02  0.32570245948E+02  0.51100000000E-03 0. -1.
        -11    1    3    3    0    0 -0.51365802056E+01 -0.47793700506E+01 -0.41555185438E+01  0.81544569971E+01  0.51100000000E-03 0.  1.
        -12    1    3    3    0    0 -0.79286630316E+00  0.44081311022E+01 -0.54607386284E+01  0.70625719930E+01  0.00000000000E+00 0.  1.
</event>
<event>
 7    1  0.2983653E-010  0.4778726E+02  0.7816164E-02  0.1312668E+00
        -11   -1    0    0    0    0  0.00000000000E+00  0.00000000000E+00  0.45593999997E+02  0.45594000000E+02  0.51100000000E-03 0.  1.
         11   -1    0    0    0    0 -0.00000000000E+00 -0.00000000000E+00 -0.45593999997E+02  0.45594000000E+02  0.51100000000E-03 0. -1.
    9900012    2    1    2    0    0  0.25701132141E+02 -0.20483034397E+02 -0.28346444940E+02  0.47787264613E+02  0.19999970675E+02 0.  0.
        -12    1    1    2    0    0 -0.25701132141E+02  0.20483034397E+02  0.28346444940E+02  0.43400735387E+02  0.00000000000E+00 0.  1.
         11    1    3    3    0    0  0.48526967563E+01 -0.30303518048E+01 -0.39605992706E+01  0.69583076040E+01  0.51100000000E-03 0. -1.
        -11    1    3    3    0    0  0.68085493050E+01  0.33474871524E+01 -0.46051001736E+01  0.88751879836E+01  0.51100000000E-03 0.  1.
        -12    1    3    3    0    0  0.14039886080E+02 -0.20800169744E+02 -0.19780745496E+02  0.31953769025E+02  0.00000000000E+00 0.  1.
</event>
<event>
 7    1  0.2983653E-010  0.4778727E+02  0.7816164E-02  0.1312668E+00
        -11   -1    0    0    0    0  0.00000000000E+00  0.00000000000E+00  0.45593999997E+02  0.45594000000E+02  0.51100000000E-03 0. -1.
         11   -1    0    0    0    0 -0.00000000000E+00 -0.00000000000E+00 -0.45593999997E+02  0.45594000000E+02  0.51100000000E-03 0.  1.
    9900012    2    1    2    0    0 -0.30777996589E+02 -0.30244136528E+02 -0.46508423199E+01  0.47787271865E+02  0.20000003740E+02 0.  0.
        -12    1    1    2    0    0  0.30777996589E+02  0.30244136528E+02  0.46508423199E+01  0.43400728135E+02  0.00000000000E+00 0.  1.
         11    1    3    3    0    0 -0.16078762970E+02 -0.20367016120E+02 -0.24572136000E+01  0.26064916329E+02  0.51100000000E-03 0. -1.
        -11    1    3    3    0    0 -0.15515207166E+02 -0.44982883905E+01 -0.12683046428E+01  0.16203852899E+02  0.51100000000E-03 0.  1.
        -12    1    3    3    0    0  0.81597354705E+00 -0.53788320176E+01 -0.92532407713E+00  0.55185026366E+01  0.00000000000E+00 0.  1.
</event>
<event>
 7    1  0.2983653E-010  0.4778727E+02  0.7816164E-02  0.1312668E+00
        -11   -1    0    0    0    0  0.00000000000E+00  0.00000000000E+00  0.45593999997E+02  0.45594000000E+02  0.51100000000E-03 0. -1.
         11   -1    0    0    0    0 -0.00000000000E+00 -0.00000000000E+00 -0.45593999997E+02  0.45594000000E+02  0.51100000000E-03 0.  1.
    9900012    2    1    2    0    0  0.10586535615E+02 -0.31481698011E+02  0.27936555772E+02  0.47787271960E+02  0.20000004174E+02 0.  0.
        -12    1    1    2    0    0 -0.10586535615E+02  0.31481698011E+02 -0.27936555772E+02  0.43400728040E+02  0.00000000000E+00 0.  1.
         11    1    3    3    0    0  0.74387727894E+01 -0.19601072656E+02  0.91212557891E+01  0.22863392078E+02  0.51100000000E-03 0. -1.
        -11    1    3    3    0    0  0.23145712667E+01 -0.74679629768E+01  0.18877818342E+02  0.20432810301E+02  0.51100000000E-03 0.  1.
        -12    1    3    3    0    0  0.83319155903E+00 -0.44126623782E+01 -0.62518358900E-01  0.44910695812E+01  0.00000000000E+00 0.  1.
</event>
<event>
 7    1  0.2983653E-010  0.4778728E+02  0.7816164E-02  0.1312668E+00
        -11   -1    0    0    0    0  0.00000000000E+00  0.00000000000E+00  0.45593999997E+02  0.45594000000E+02  0.51100000000E-03 0. -1.
         11   -1    0    0    0    0 -0.00000000000E+00 -0.00000000000E+00 -0.45593999997E+02  0.45594000000E+02  0.51100000000E-03 0.  1.
    9900012    2    1    2    0    0  0.26367115336E+02 -0.25811014161E+02  0.22851462718E+02  0.47787279136E+02  0.20000036891E+02 0.  0.
        -12    1    1    2    0    0 -0.26367115336E+02  0.25811014161E+02 -0.22851462718E+02  0.43400720864E+02  0.00000000000E+00 0.  1.
         11    1    3    3    0    0  0.21593822647E+02 -0.17358017736E+02  0.13628316160E+02  0.30875960841E+02  0.51100000000E-03 0. -1.
        -11    1    3    3    0    0  0.73450755837E+01 -0.28423207129E+01  0.62820371923E+01  0.10074369157E+02  0.51100000000E-03 0.  1.
         12    1    3    3    0    0 -0.25717828950E+01 -0.56106757120E+01  0.29411093660E+01  0.68369491374E+01  0.00000000000E+00 0. -1.
</event>
<event>
 7    1  0.2983653E-010  0.4778727E+02  0.7816164E-02  0.1312668E+00
        -11   -1    0    0    0    0  0.00000000000E+00  0.00000000000E+00  0.45593999997E+02  0.45594000000E+02  0.51100000000E-03 0.  1.
         11   -1    0    0    0    0 -0.00000000000E+00 -0.00000000000E+00 -0.45593999997E+02  0.45594000000E+02  0.51100000000E-03 0. -1.
    9900012    2    1    2    0    0  0.37826983229E+02  0.21149958990E+02 -0.23285139038E+01  0.47787269563E+02  0.19999993244E+02 0.  0.
        -12    1    1    2    0    0 -0.37826983229E+02 -0.21149958990E+02  0.23285139038E+01  0.43400730437E+02  0.00000000000E+00 0.  1.
         11    1    3    3    0    0  0.16715890642E+02  0.36715578989E+01 -0.45924633271E+01  0.17719821021E+02  0.51100000000E-03 0.  1.
        -11    1    3    3    0    0  0.12500308094E+02  0.14819515196E+02  0.60250541153E+01  0.20302143001E+02  0.51100000000E-03 0. -1.
         12    1    3    3    0    0  0.86107844931E+01  0.26588858955E+01 -0.37611046920E+01  0.97653055403E+01  0.00000000000E+00 0. -1.
</event>
<event>
 7    1  0.2983653E-010  0.4778727E+02  0.7816164E-02  0.1312668E+00
        -11   -1    0    0    0    0  0.00000000000E+00  0.00000000000E+00  0.45593999997E+02  0.45594000000E+02  0.51100000000E-03 0.  1.
         11   -1    0    0    0    0 -0.00000000000E+00 -0.00000000000E+00 -0.45593999997E+02  0.45594000000E+02  0.51100000000E-03 0. -1.
    9900012    2    1    2    0    0  0.80192684494E+01  0.37353818294E+02 -0.20591429628E+02  0.47787269802E+02  0.19999994336E+02 0.  0.
        -12    1    1    2    0    0 -0.80192684494E+01 -0.37353818294E+02  0.20591429628E+02  0.43400730198E+02  0.00000000000E+00 0.  1.
         11    1    3    3    0    0  0.38128029651E+00  0.33787332759E+02 -0.16110772387E+02  0.37433757717E+02  0.51100000000E-03 0. -1.
        -11    1    3    3    0    0  0.63822224008E+01  0.15414070576E+01 -0.18871289990E+01  0.68315411593E+01  0.51100000000E-03 0.  1.
         12    1    3    3    0    0  0.12557657521E+01  0.20250784771E+01 -0.25935282419E+01  0.35219709261E+01  0.00000000000E+00 0. -1.
</event>
<event>
 7    1  0.2983653E-010  0.4778727E+02  0.7816164E-02  0.1312668E+00
        -11   -1    0    0    0    0  0.00000000000E+00  0.00000000000E+00  0.45593999997E+02  0.45594000000E+02  0.51100000000E-03 0.  1.
         11   -1    0    0    0    0 -0.00000000000E+00 -0.00000000000E+00 -0.45593999997E+02  0.45594000000E+02  0.51100000000E-03 0. -1.
    9900012    2    1    2    0    0  0.39851451749E+01  0.24758164143E+01 -0.43146407313E+02  0.47787268290E+02  0.19999987440E+02 0.  0.
        -12    1    1    2    0    0 -0.39851451749E+01 -0.24758164143E+01  0.43146407313E+02  0.43400731710E+02  0.00000000000E+00 0.  1.
         11    1    3    3    0    0 -0.11292103897E+01  0.97565543891E+00 -0.14652163676E+02  0.14727963888E+02  0.51100000000E-03 0. -1.
        -11    1    3    3    0    0  0.20596878906E+01  0.86090232104E+01 -0.12817336121E+02  0.15576960562E+02  0.51100000000E-03 0.  1.
        -12    1    3    3    0    0  0.30546676739E+01 -0.71088622350E+01 -0.15676907516E+02  0.17482343840E+02  0.00000000000E+00 0.  1.
</event>
<event>
 7    1  0.2983653E-010  0.4778727E+02  0.7816164E-02  0.1312668E+00
        -11   -1    0    0    0    0  0.00000000000E+00  0.00000000000E+00  0.45593999997E+02  0.45594000000E+02  0.51100000000E-03 0.  1.
         11   -1    0    0    0    0 -0.00000000000E+00 -0.00000000000E+00 -0.45593999997E+02  0.45594000000E+02  0.51100000000E-03 0. -1.
    9900012    2    1    2    0    0  0.24163086149E+02 -0.10265341300E+02 -0.34559964090E+02  0.47787273253E+02  0.20000010070E+02 0.  0.
        -12    1    1    2    0    0 -0.24163086149E+02  0.10265341300E+02  0.34559964090E+02  0.43400726747E+02  0.00000000000E+00 0.  1.
         11    1    3    3    0    0  0.23627774881E+02 -0.12057830317E+02 -0.35987483725E+02  0.44707516179E+02  0.51100000000E-03 0. -1.
        -11    1    3    3    0    0  0.88360168664E+00  0.14437982419E+00  0.99921298510E+00  0.13416498519E+01  0.51100000000E-03 0.  1.
         12    1    3    3    0    0 -0.34829041830E+00  0.16481091933E+01  0.42830665020E+00  0.17381072219E+01  0.00000000000E+00 0. -1.
</event>
<event>
 7    1  0.2983653E-010  0.4778727E+02  0.7816164E-02  0.1312668E+00
        -11   -1    0    0    0    0  0.00000000000E+00  0.00000000000E+00  0.45593999997E+02  0.45594000000E+02  0.51100000000E-03 0.  1.
         11   -1    0    0    0    0 -0.00000000000E+00 -0.00000000000E+00 -0.45593999997E+02  0.45594000000E+02  0.51100000000E-03 0. -1.
    9900012    2    1    2    0    0 -0.95619524515E+01 -0.28848987929E+02 -0.30982712467E+02  0.47787268313E+02  0.19999987545E+02 0.  0.
        -12    1    1    2    0    0  0.95619524515E+01  0.28848987929E+02  0.30982712467E+02  0.43400731687E+02  0.00000000000E+00 0.  1.
         11    1    3    3    0    0 -0.30859235173E+01  0.11123215813E+01 -0.56182099068E+01  0.65057256377E+01  0.51100000000E-03 0. -1.
        -11    1    3    3    0    0  0.22278069952E+01 -0.22453914708E+01 -0.86417857874E+00  0.32789802900E+01  0.51100000000E-03 0.  1.
         12    1    3    3    0    0 -0.87038359294E+01 -0.27715918039E+02 -0.24500323981E+02  0.38002562385E+02  0.00000000000E+00 0. -1.
</event>
<event>
 7    1  0.2983653E-010  0.4778727E+02  0.7816164E-02  0.1312668E+00
        -11   -1    0    0    0    0  0.00000000000E+00  0.00000000000E+00  0.45593999997E+02  0.45594000000E+02  0.51100000000E-03 0.  1.
         11   -1    0    0    0    0 -0.00000000000E+00 -0.00000000000E+00 -0.45593999997E+02  0.45594000000E+02  0.51100000000E-03 0. -1.
    9900012    2    1    2    0    0  0.11655225363E+02 -0.36129916791E+02 -0.21033509276E+02  0.47787266388E+02  0.19999978770E+02 0.  0.
        -12    1    1    2    0    0 -0.11655225363E+02  0.36129916791E+02  0.21033509276E+02  0.43400733612E+02  0.00000000000E+00 0.  1.
         11    1    3    3    0    0  0.23720983585E+01 -0.86089707740E+01 -0.34402467499E+01  0.95695624964E+01  0.51100000000E-03 0. -1.
        -11    1    3    3    0    0 -0.24293990698E+01 -0.18421223749E+02 -0.13049401137E+02  0.22705293095E+02  0.51100000000E-03 0.  1.
        -12    1    3    3    0    0  0.11712526074E+02 -0.90997222683E+01 -0.45438613888E+01  0.15512410797E+02  0.00000000000E+00 0.  1.
</event>
<event>
 7    1  0.2983653E-010  0.4778727E+02  0.7816164E-02  0.1312668E+00
        -11   -1    0    0    0    0  0.00000000000E+00  0.00000000000E+00  0.45593999997E+02  0.45594000000E+02  0.51100000000E-03 0.  1.
         11   -1    0    0    0    0 -0.00000000000E+00 -0.00000000000E+00 -0.45593999997E+02  0.45594000000E+02  0.51100000000E-03 0. -1.
    9900012    2    1    2    0    0  0.99299216249E+01  0.59809197068E+01 -0.41824020215E+02  0.47787269465E+02  0.19999992800E+02 0.  0.
        -12    1    1    2    0    0 -0.99299216249E+01 -0.59809197068E+01  0.41824020215E+02  0.43400730535E+02  0.00000000000E+00 0.  1.
         11    1    3    3    0    0  0.11092895610E+02  0.86656794140E+01 -0.37734559996E+02  0.40274599328E+02  0.51100000000E-03 0. -1.
        -11    1    3    3    0    0 -0.84697969436E+00 -0.37344527389E+00  0.13254217649E+01  0.16166567636E+01  0.51100000000E-03 0.  1.
         12    1    3    3    0    0 -0.31599429050E+00 -0.23113144333E+01 -0.54148819836E+01  0.58960133733E+01  0.00000000000E+00 0. -1.
</event>
<event>
 7    1  0.2983653E-010  0.4778727E+02  0.7816164E-02  0.1312668E+00
        -11   -1    0    0    0    0  0.00000000000E+00  0.00000000000E+00  0.45593999997E+02  0.45594000000E+02  0.51100000000E-03 0.  1.
         11   -1    0    0    0    0 -0.00000000000E+00 -0.00000000000E+00 -0.45593999997E+02  0.45594000000E+02  0.51100000000E-03 0. -1.
    9900012    2    1    2    0    0 -0.18940159272E+02  0.17050148184E+02 -0.35130990653E+02  0.47787266243E+02  0.19999978110E+02 0.  0.
        -12    1    1    2    0    0  0.18940159272E+02 -0.17050148184E+02  0.35130990653E+02  0.43400733757E+02  0.00000000000E+00 0.  1.
         11    1    3    3    0    0  0.26000277717E+01 -0.69750708574E+00 -0.78193894361E+01  0.82697951584E+01  0.51100000000E-03 0. -1.
        -11    1    3    3    0    0 -0.10664286674E+02  0.10191540717E+02 -0.10452519566E+02  0.18078984429E+02  0.51100000000E-03 0.  1.
         12    1    3    3    0    0 -0.10875900370E+02  0.75561145527E+01 -0.16859081651E+02  0.21438486656E+02  0.00000000000E+00 0. -1.
</event>
<event>
 7    1  0.2983653E-010  0.4778727E+02  0.7816164E-02  0.1312668E+00
        -11   -1    0    0    0    0  0.00000000000E+00  0.00000000000E+00  0.45593999997E+02  0.45594000000E+02  0.51100000000E-03 0.  1.
         11   -1    0    0    0    0 -0.00000000000E+00 -0.00000000000E+00 -0.45593999997E+02  0.45594000000E+02  0.51100000000E-03 0. -1.
    9900012    2    1    2    0    0  0.30001305241E+02 -0.21350666993E+02 -0.22971594712E+02  0.47787268891E+02  0.19999990179E+02 0.  0.
        -12    1    1    2    0    0 -0.30001305241E+02  0.21350666993E+02  0.22971594712E+02  0.43400731109E+02  0.00000000000E+00 0.  1.
         11    1    3    3    0    0  0.96085679331E+01 -0.32966693195E+01  0.25080428808E+00  0.10161471812E+02  0.51100000000E-03 0. -1.
        -11    1    3    3    0    0  0.62331458592E+01 -0.69804232580E+01 -0.15403339979E+02  0.18023354264E+02  0.51100000000E-03 0.  1.
         12    1    3    3    0    0  0.14159591449E+02 -0.11073574415E+02 -0.78190590218E+01  0.19602442815E+02  0.00000000000E+00 0. -1.
</event>
<event>
 7    1  0.3242085E-010  0.4778727E+02  0.7816164E-02  0.1312668E+00
        -11   -1    0    0    0    0  0.00000000000E+00  0.00000000000E+00  0.45593999997E+02  0.45594000000E+02  0.51100000000E-03 0.  1.
         11   -1    0    0    0    0 -0.00000000000E+00 -0.00000000000E+00 -0.45593999997E+02  0.45594000000E+02  0.51100000000E-03 0. -1.
    9900012    2    1    2    0    0 -0.15800321917E+02 -0.35793072897E+02 -0.18783743496E+02  0.47787271207E+02  0.20000000740E+02 0.  0.
        -12    1    1    2    0    0  0.15800321917E+02  0.35793072897E+02  0.18783743496E+02  0.43400728793E+02  0.00000000000E+00 0.  1.
         11    1    3    3    0    0 -0.11517440748E+02 -0.16235293220E+02 -0.97479120463E+01  0.22164340208E+02  0.51100000000E-03 0. -1.
        -11    1    3    3    0    0  0.20922362611E+01 -0.78175789656E+00 -0.48749886993E+01  0.53622861785E+01  0.51100000000E-03 0.  1.
        -12    1    3    3    0    0 -0.63751174295E+01 -0.18776021780E+02 -0.41608427500E+01  0.20260644820E+02  0.00000000000E+00 0.  1.
</event>
<event>
 7    1  0.2983653E-010  0.4778727E+02  0.7816164E-02  0.1312668E+00
        -11   -1    0    0    0    0  0.00000000000E+00  0.00000000000E+00  0.45593999997E+02  0.45594000000E+02  0.51100000000E-03 0.  1.
         11   -1    0    0    0    0 -0.00000000000E+00 -0.00000000000E+00 -0.45593999997E+02  0.45594000000E+02  0.51100000000E-03 0. -1.
    9900012    2    1    2    0    0  0.30519109292E+02  0.29187642038E+02 -0.10014427534E+02  0.47787271451E+02  0.20000001853E+02 0.  0.
        -12    1    1    2    0    0 -0.30519109292E+02 -0.29187642038E+02  0.10014427534E+02  0.43400728549E+02  0.00000000000E+00 0.  1.
         11    1    3    3    0    0  0.25870081067E+02  0.21927460674E+02  0.22399463577E+00  0.33913489940E+02  0.51100000000E-03 0. -1.
        -11    1    3    3    0    0  0.25761812035E+01  0.15966169568E+01 -0.51834940094E+01  0.60045404243E+01  0.51100000000E-03 0.  1.
         12    1    3    3    0    0  0.20728470219E+01  0.56635644074E+01 -0.50549281608E+01  0.78692410869E+01  0.00000000000E+00 0. -1.
</event>
<event>
 7    1  0.2983653E-010  0.4778727E+02  0.7816164E-02  0.1312668E+00
        -11   -1    0    0    0    0  0.00000000000E+00  0.00000000000E+00  0.45593999997E+02  0.45594000000E+02  0.51100000000E-03 0.  1.
         11   -1    0    0    0    0 -0.00000000000E+00 -0.00000000000E+00 -0.45593999997E+02  0.45594000000E+02  0.51100000000E-03 0. -1.
    9900012    2    1    2    0    0  0.30626501495E+02 -0.28399243674E+01 -0.30619857126E+02  0.47787269423E+02  0.19999992605E+02 0.  0.
        -12    1    1    2    0    0 -0.30626501495E+02  0.28399243674E+01  0.30619857126E+02  0.43400730577E+02  0.00000000000E+00 0.  1.
         11    1    3    3    0    0 -0.10732116067E+01  0.87490565187E+00 -0.65191861264E+01  0.66646103460E+01  0.51100000000E-03 0. -1.
        -11    1    3    3    0    0  0.18375927647E+02  0.10641470790E+01 -0.92265104551E+01  0.20589696970E+02  0.51100000000E-03 0.  1.
        -12    1    3    3    0    0  0.13323785455E+02 -0.47789770983E+01 -0.14874160544E+02  0.20532962106E+02  0.00000000000E+00 0.  1.
</event>
<event>
 7    1  0.2983653E-010  0.4778727E+02  0.7816164E-02  0.1312668E+00
        -11   -1    0    0    0    0  0.00000000000E+00  0.00000000000E+00  0.45593999997E+02  0.45594000000E+02  0.51100000000E-03 0.  1.
         11   -1    0    0    0    0 -0.00000000000E+00 -0.00000000000E+00 -0.45593999997E+02  0.45594000000E+02  0.51100000000E-03 0. -1.
    9900012    2    1    2    0    0 -0.43239995927E+02 -0.28862604710E+01 -0.23654191471E+01  0.47787274718E+02  0.20000016747E+02 0.  0.
        -12    1    1    2    0    0  0.43239995927E+02  0.28862604710E+01  0.23654191471E+01  0.43400725282E+02  0.00000000000E+00 0.  1.
         11    1    3    3    0    0 -0.14281604773E+02  0.18782717956E+01  0.58727001046E+01  0.15555730346E+02  0.51100000000E-03 0. -1.
        -11    1    3    3    0    0 -0.27082223656E+02 -0.12186323241E+01 -0.77141444822E+01  0.28185810761E+02  0.51100000000E-03 0.  1.
        -12    1    3    3    0    0 -0.18761674979E+01 -0.35458999425E+01 -0.52397476945E+00  0.40457336098E+01  0.00000000000E+00 0.  1.
</event>
<event>
 7    1  0.2983653E-010  0.4778727E+02  0.7816164E-02  0.1312668E+00
        -11   -1    0    0    0    0  0.00000000000E+00  0.00000000000E+00  0.45593999997E+02  0.45594000000E+02  0.51100000000E-03 0.  1.
         11   -1    0    0    0    0 -0.00000000000E+00 -0.00000000000E+00 -0.45593999997E+02  0.45594000000E+02  0.51100000000E-03 0. -1.
    9900012    2    1    2    0    0  0.16011939565E+02 -0.17963943593E+02 -0.36118388298E+02  0.47787269000E+02  0.19999990679E+02 0.  0.
        -12    1    1    2    0    0 -0.16011939565E+02  0.17963943593E+02  0.36118388298E+02  0.43400731000E+02  0.00000000000E+00 0.  1.
         11    1    3    3    0    0  0.41987650751E+00 -0.52238188885E+01 -0.84155506617E+01  0.99139332892E+01  0.51100000000E-03 0. -1.
        -11    1    3    3    0    0 -0.15335094009E+01  0.77422908347E+00  0.86898218099E+00  0.19251524741E+01  0.51100000000E-03 0.  1.
        -12    1    3    3    0    0  0.17125572459E+02 -0.13514353788E+02 -0.28571819817E+02  0.35948183237E+02  0.00000000000E+00 0.  1.
</event>
<event>
 7    1  0.2983653E-010  0.4778727E+02  0.7816164E-02  0.1312668E+00
        -11   -1    0    0    0    0  0.00000000000E+00  0.00000000000E+00  0.45593999997E+02  0.45594000000E+02  0.51100000000E-03 0.  1.
         11   -1    0    0    0    0 -0.00000000000E+00 -0.00000000000E+00 -0.45593999997E+02  0.45594000000E+02  0.51100000000E-03 0. -1.
    9900012    2    1    2    0    0 -0.35067911936E+02 -0.29079471791E+01 -0.25404901459E+02  0.47787267028E+02  0.19999981685E+02 0.  0.
        -12    1    1    2    0    0  0.35067911936E+02  0.29079471791E+01  0.25404901459E+02  0.43400732972E+02  0.00000000000E+00 0.  1.
         11    1    3    3    0    0 -0.25399183520E+02 -0.39764880671E+01 -0.24455677211E+02  0.35482546821E+02  0.51100000000E-03 0. -1.
        -11    1    3    3    0    0 -0.89651673988E+01  0.26919202397E+01  0.12919585650E+01  0.94493289846E+01  0.51100000000E-03 0.  1.
        -12    1    3    3    0    0 -0.70356101809E+00 -0.16233793518E+01 -0.22411828133E+01  0.28553912216E+01  0.00000000000E+00 0.  1.
</event>
<event>
 7    1  0.2983653E-010  0.4778727E+02  0.7816164E-02  0.1312668E+00
        -11   -1    0    0    0    0  0.00000000000E+00  0.00000000000E+00  0.45593999997E+02  0.45594000000E+02  0.51100000000E-03 0.  1.
         11   -1    0    0    0    0 -0.00000000000E+00 -0.00000000000E+00 -0.45593999997E+02  0.45594000000E+02  0.51100000000E-03 0. -1.
    9900012    2    1    2    0    0  0.62211990380E+01  0.11432997503E+02 -0.41402980095E+02  0.47787268323E+02  0.19999987593E+02 0.  0.
        -12    1    1    2    0    0 -0.62211990380E+01 -0.11432997503E+02  0.41402980095E+02  0.43400731677E+02  0.00000000000E+00 0.  1.
         11    1    3    3    0    0  0.48379154321E+00 -0.27896087208E+01 -0.15385550163E+02  0.15643884593E+02  0.51100000000E-03 0. -1.
        -11    1    3    3    0    0 -0.14807202847E+01  0.10580556475E+02 -0.16482712509E+02  0.19642314523E+02  0.51100000000E-03 0.  1.
        -12    1    3    3    0    0  0.72181277795E+01  0.36420497483E+01 -0.95347174225E+01  0.12501069208E+02  0.00000000000E+00 0.  1.
</event>
<event>
 7    1  0.2983653E-010  0.4778726E+02  0.7816164E-02  0.1312668E+00
        -11   -1    0    0    0    0  0.00000000000E+00  0.00000000000E+00  0.45593999997E+02  0.45594000000E+02  0.51100000000E-03 0.  1.
         11   -1    0    0    0    0 -0.00000000000E+00 -0.00000000000E+00 -0.45593999997E+02  0.45594000000E+02  0.51100000000E-03 0. -1.
    9900012    2    1    2    0    0  0.17793906524E+02  0.29261010218E+02 -0.26660722689E+02  0.47787263109E+02  0.19999963819E+02 0.  0.
        -12    1    1    2    0    0 -0.17793906524E+02 -0.29261010218E+02  0.26660722689E+02  0.43400736891E+02  0.00000000000E+00 0.  1.
         11    1    3    3    0    0  0.12515367798E+02  0.10047437097E+02 -0.30590419529E+01  0.16338395309E+02  0.51100000000E-03 0. -1.
        -11    1    3    3    0    0 -0.42752902350E+00  0.77027397422E+01 -0.66950201491E+01  0.10214610891E+02  0.51100000000E-03 0.  1.
         12    1    3    3    0    0  0.57060677495E+01  0.11510833379E+02 -0.16906660587E+02  0.21234256908E+02  0.00000000000E+00 0. -1.
</event>
<event>
 7    1  0.2983653E-010  0.4778728E+02  0.7816164E-02  0.1312668E+00
        -11   -1    0    0    0    0  0.00000000000E+00  0.00000000000E+00  0.45593999997E+02  0.45594000000E+02  0.51100000000E-03 0. -1.
         11   -1    0    0    0    0 -0.00000000000E+00 -0.00000000000E+00 -0.45593999997E+02  0.45594000000E+02  0.51100000000E-03 0.  1.
    9900012    2    1    2    0    0  0.38975680563E+02  0.27495181825E+01  0.18893367622E+02  0.47787275747E+02  0.20000021440E+02 0.  0.
        -12    1    1    2    0    0 -0.38975680563E+02 -0.27495181825E+01 -0.18893367622E+02  0.43400724253E+02  0.00000000000E+00 0.  1.
         11    1    3    3    0    0  0.11830097989E+02  0.33975935461E+01  0.13732874985E+02  0.18441440181E+02  0.51100000000E-03 0. -1.
        -11    1    3    3    0    0  0.89506033769E+01 -0.30959417333E+01 -0.19294931786E+01  0.96654591310E+01  0.51100000000E-03 0.  1.
         12    1    3    3    0    0  0.18194979198E+02  0.24478663697E+01  0.70899858151E+01  0.19680376435E+02  0.00000000000E+00 0. -1.
</event>
<event>
 7    1  0.2983653E-010  0.4778727E+02  0.7816164E-02  0.1312668E+00
        -11   -1    0    0    0    0  0.00000000000E+00  0.00000000000E+00  0.45593999997E+02  0.45594000000E+02  0.51100000000E-03 0. -1.
         11   -1    0    0    0    0 -0.00000000000E+00 -0.00000000000E+00 -0.45593999997E+02  0.45594000000E+02  0.51100000000E-03 0.  1.
    9900012    2    1    2    0    0 -0.40451454183E+02 -0.13473258048E+02  0.81101505443E+01  0.47787269939E+02  0.19999994959E+02 0.  0.
        -12    1    1    2    0    0  0.40451454183E+02  0.13473258048E+02 -0.81101505443E+01  0.43400730061E+02  0.00000000000E+00 0.  1.
         11    1    3    3    0    0 -0.20767809887E+02 -0.13628496104E+01 -0.25704025619E+01  0.20970604573E+02  0.51100000000E-03 0. -1.
        -11    1    3    3    0    0 -0.13896101806E+01 -0.46185451431E+01  0.18566637275E+01  0.51680921190E+01  0.51100000000E-03 0.  1.
         12    1    3    3    0    0 -0.18294034115E+02 -0.74918632948E+01  0.88238893787E+01  0.21648573246E+02  0.00000000000E+00 0. -1.
</event>
<event>
 7    1  0.2983653E-010  0.4778727E+02  0.7816164E-02  0.1312668E+00
        -11   -1    0    0    0    0  0.00000000000E+00  0.00000000000E+00  0.45593999997E+02  0.45594000000E+02  0.51100000000E-03 0.  1.
         11   -1    0    0    0    0 -0.00000000000E+00 -0.00000000000E+00 -0.45593999997E+02  0.45594000000E+02  0.51100000000E-03 0. -1.
    9900012    2    1    2    0    0  0.21561397031E+02  0.34317808791E+02 -0.15524732261E+02  0.47787272426E+02  0.20000006301E+02 0.  0.
        -12    1    1    2    0    0 -0.21561397031E+02 -0.34317808791E+02  0.15524732261E+02  0.43400727574E+02  0.00000000000E+00 0.  1.
         11    1    3    3    0    0  0.14769419824E+02  0.15923318569E+02 -0.13929019408E+02  0.25801267762E+02  0.51100000000E-03 0. -1.
        -11    1    3    3    0    0  0.75456249741E+01  0.13513690834E+02  0.23625263225E+01  0.15656877948E+02  0.51100000000E-03 0.  1.
        -12    1    3    3    0    0 -0.75364776643E+00  0.48807993874E+01 -0.39582391753E+01  0.63291267158E+01  0.00000000000E+00 0.  1.
</event>
<event>
 7    1  0.2983653E-010  0.4778728E+02  0.7816164E-02  0.1312668E+00
        -11   -1    0    0    0    0  0.00000000000E+00  0.00000000000E+00  0.45593999997E+02  0.45594000000E+02  0.51100000000E-03 0.  1.
         11   -1    0    0    0    0 -0.00000000000E+00 -0.00000000000E+00 -0.45593999997E+02  0.45594000000E+02  0.51100000000E-03 0. -1.
    9900012    2    1    2    0    0 -0.15142382578E+02 -0.29703857661E+02 -0.27785099235E+02  0.47787278237E+02  0.20000032792E+02 0.  0.
        -12    1    1    2    0    0  0.15142382578E+02  0.29703857661E+02  0.27785099235E+02  0.43400721763E+02  0.00000000000E+00 0.  1.
         11    1    3    3    0    0  0.38053855126E+01 -0.46050757255E+01 -0.22076540847E+01  0.63687846687E+01  0.51100000000E-03 0. -1.
        -11    1    3    3    0    0 -0.29516342753E+01 -0.98739501851E+01 -0.10265614914E+02  0.14546129622E+02  0.51100000000E-03 0.  1.
         12    1    3    3    0    0 -0.15996133816E+02 -0.15224831750E+02 -0.15311830237E+02  0.26872363946E+02  0.00000000000E+00 0. -1.
</event>
<event>
 7    1  0.2983653E-010  0.4778726E+02  0.7816164E-02  0.1312668E+00
        -11   -1    0    0    0    0  0.00000000000E+00  0.00000000000E+00  0.45593999997E+02  0.45594000000E+02  0.51100000000E-03 0. -1.
         11   -1    0    0    0    0 -0.00000000000E+00 -0.00000000000E+00 -0.45593999997E+02  0.45594000000E+02  0.51100000000E-03 0.  1.
    9900012    2    1    2    0    0 -0.11193882651E+02  0.40486976026E+02 -0.10914469083E+02  0.47787264155E+02  0.19999968586E+02 0.  0.
        -12    1    1    2    0    0  0.11193882651E+02 -0.40486976026E+02  0.10914469083E+02  0.43400735845E+02  0.00000000000E+00 0.  1.
         11    1    3    3    0    0 -0.19446561081E+01  0.49993572634E+01 -0.47694053660E+01  0.71779167056E+01  0.51100000000E-03 0. -1.
        -11    1    3    3    0    0 -0.97061202056E+01  0.84747872406E+01 -0.40712587549E+01  0.13513176397E+02  0.51100000000E-03 0.  1.
         12    1    3    3    0    0  0.45689366232E+00  0.27012831522E+02 -0.20738049624E+01  0.27096171052E+02  0.00000000000E+00 0. -1.
</event>
<event>
 7    1  0.2983653E-010  0.4778727E+02  0.7816164E-02  0.1312668E+00
        -11   -1    0    0    0    0  0.00000000000E+00  0.00000000000E+00  0.45593999997E+02  0.45594000000E+02  0.51100000000E-03 0.  1.
         11   -1    0    0    0    0 -0.00000000000E+00 -0.00000000000E+00 -0.45593999997E+02  0.45594000000E+02  0.51100000000E-03 0. -1.
    9900012    2    1    2    0    0 -0.37477490225E+01  0.26479367766E+02 -0.34182166129E+02  0.47787273954E+02  0.20000013265E+02 0.  0.
        -12    1    1    2    0    0  0.37477490225E+01 -0.26479367766E+02  0.34182166129E+02  0.43400726046E+02  0.00000000000E+00 0.  1.
         11    1    3    3    0    0  0.68604886072E+01  0.10918447352E+02 -0.74003214245E+01  0.14867533553E+02  0.51100000000E-03 0. -1.
        -11    1    3    3    0    0 -0.63119619902E+01  0.62318239328E+01 -0.12181829915E+02  0.15068957298E+02  0.51100000000E-03 0.  1.
         12    1    3    3    0    0 -0.42962756394E+01  0.93290964819E+01 -0.14600014789E+02  0.17850783103E+02  0.00000000000E+00 0. -1.
</event>
<event>
 7    1  0.2983653E-010  0.4778727E+02  0.7816164E-02  0.1312668E+00
        -11   -1    0    0    0    0  0.00000000000E+00  0.00000000000E+00  0.45593999997E+02  0.45594000000E+02  0.51100000000E-03 0. -1.
         11   -1    0    0    0    0 -0.00000000000E+00 -0.00000000000E+00 -0.45593999997E+02  0.45594000000E+02  0.51100000000E-03 0.  1.
    9900012    2    1    2    0    0  0.42163545460E+02 -0.90980506533E+01  0.48046150186E+01  0.47787269396E+02  0.19999992485E+02 0.  0.
        -12    1    1    2    0    0 -0.42163545460E+02  0.90980506533E+01 -0.48046150186E+01  0.43400730604E+02  0.00000000000E+00 0.  1.
         11    1    3    3    0    0  0.30294172892E+02 -0.58324388959E+01  0.13962822985E+01  0.30882096095E+02  0.51100000000E-03 0. -1.
        -11    1    3    3    0    0 -0.87215804038E+00  0.24097062666E+00 -0.23287350124E+01  0.24983461548E+01  0.51100000000E-03 0.  1.
         12    1    3    3    0    0  0.12741530609E+02 -0.35065823840E+01  0.57370677324E+01  0.14406827147E+02  0.00000000000E+00 0. -1.
</event>
<event>
 7    1  0.2983653E-010  0.4778727E+02  0.7816164E-02  0.1312668E+00
        -11   -1    0    0    0    0  0.00000000000E+00  0.00000000000E+00  0.45593999997E+02  0.45594000000E+02  0.51100000000E-03 0.  1.
         11   -1    0    0    0    0 -0.00000000000E+00 -0.00000000000E+00 -0.45593999997E+02  0.45594000000E+02  0.51100000000E-03 0. -1.
    9900012    2    1    2    0    0 -0.12177632783E+02  0.65246083537E+01 -0.41143139162E+02  0.47787272420E+02  0.20000006271E+02 0.  0.
        -12    1    1    2    0    0  0.12177632783E+02 -0.65246083537E+01  0.41143139162E+02  0.43400727580E+02  0.00000000000E+00 0.  1.
         11    1    3    3    0    0 -0.26574344124E+01 -0.38153438986E+00 -0.23332645063E+02  0.23486588770E+02  0.51100000000E-03 0. -1.
        -11    1    3    3    0    0 -0.11606208228E+02  0.29377034249E+01 -0.13961824153E+02  0.18392028295E+02  0.51100000000E-03 0.  1.
        -12    1    3    3    0    0  0.20860098577E+01  0.39684393186E+01 -0.38486699452E+01  0.59086553546E+01  0.00000000000E+00 0.  1.
</event>
<event>
 7    1  0.2983653E-010  0.4778727E+02  0.7816164E-02  0.1312668E+00
        -11   -1    0    0    0    0  0.00000000000E+00  0.00000000000E+00  0.45593999997E+02  0.45594000000E+02  0.51100000000E-03 0.  1.
         11   -1    0    0    0    0 -0.00000000000E+00 -0.00000000000E+00 -0.45593999997E+02  0.45594000000E+02  0.51100000000E-03 0. -1.
    9900012    2    1    2    0    0 -0.26069887519E+02 -0.13389511206E+02 -0.32011015215E+02  0.47787272579E+02  0.20000006996E+02 0.  0.
        -12    1    1    2    0    0  0.26069887519E+02  0.13389511206E+02  0.32011015215E+02  0.43400727421E+02  0.00000000000E+00 0.  1.
         11    1    3    3    0    0 -0.47642723543E+01 -0.22677173630E+01 -0.41262462160E+01  0.66982640438E+01  0.51100000000E-03 0. -1.
        -11    1    3    3    0    0 -0.18109607505E+02 -0.11233964708E+02 -0.30326409599E+02  0.37065495632E+02  0.51100000000E-03 0.  1.
        -12    1    3    3    0    0 -0.31960076591E+01  0.11217086548E+00  0.24416405994E+01  0.40235129025E+01  0.00000000000E+00 0.  1.
</event>
<event>
 7    1  0.2983653E-010  0.4778727E+02  0.7816164E-02  0.1312668E+00
        -11   -1    0    0    0    0  0.00000000000E+00  0.00000000000E+00  0.45593999997E+02  0.45594000000E+02  0.51100000000E-03 0.  1.
         11   -1    0    0    0    0 -0.00000000000E+00 -0.00000000000E+00 -0.45593999997E+02  0.45594000000E+02  0.51100000000E-03 0. -1.
    9900012    2    1    2    0    0  0.60261547958E+01  0.21320922739E+02 -0.37319256867E+02  0.47787271652E+02  0.20000002768E+02 0.  0.
        -12    1    1    2    0    0 -0.60261547958E+01 -0.21320922739E+02  0.37319256867E+02  0.43400728348E+02  0.00000000000E+00 0.  1.
         11    1    3    3    0    0  0.36153921207E-02  0.67974151566E+01 -0.11344210545E+02  0.13224824348E+02  0.51100000000E-03 0.  1.
        -11    1    3    3    0    0  0.30599924951E+01  0.57670167211E+01 -0.24307774148E+02  0.25169225658E+02  0.51100000000E-03 0. -1.
        -12    1    3    3    0    0  0.29625469086E+01  0.87564908614E+01 -0.16672721747E+01  0.93932216463E+01  0.00000000000E+00 0.  1.
</event>
<event>
 7    1  0.2983653E-010  0.4778727E+02  0.7816164E-02  0.1312668E+00
        -11   -1    0    0    0    0  0.00000000000E+00  0.00000000000E+00  0.45593999997E+02  0.45594000000E+02  0.51100000000E-03 0.  1.
         11   -1    0    0    0    0 -0.00000000000E+00 -0.00000000000E+00 -0.45593999997E+02  0.45594000000E+02  0.51100000000E-03 0. -1.
    9900012    2    1    2    0    0 -0.21539454443E+02 -0.26145180051E+02 -0.27131256903E+02  0.47787266841E+02  0.19999980833E+02 0.  0.
        -12    1    1    2    0    0  0.21539454443E+02  0.26145180051E+02  0.27131256903E+02  0.43400733159E+02  0.00000000000E+00 0.  1.
         11    1    3    3    0    0  0.12454803021E+01 -0.37952179164E+01 -0.30060124562E+01  0.49991010556E+01  0.51100000000E-03 0. -1.
        -11    1    3    3    0    0 -0.14728047209E+02 -0.22673963146E+02 -0.20584842289E+02  0.33981755571E+02  0.51100000000E-03 0.  1.
        -12    1    3    3    0    0 -0.80568875362E+01  0.32400101090E+00 -0.35404021575E+01  0.88064102143E+01  0.00000000000E+00 0.  1.
</event>
<event>
 7    1  0.2983653E-010  0.4778729E+02  0.7816164E-02  0.1312668E+00
        -11   -1    0    0    0    0  0.00000000000E+00  0.00000000000E+00  0.45593999997E+02  0.45594000000E+02  0.51100000000E-03 0.  1.
         11   -1    0    0    0    0 -0.00000000000E+00 -0.00000000000E+00 -0.45593999997E+02  0.45594000000E+02  0.51100000000E-03 0. -1.
    9900012    2    1    2    0    0 -0.34486000825E+02  0.21924415481E+02 -0.14617019499E+02  0.47787291410E+02  0.20000092854E+02 0.  0.
        -12    1    1    2    0    0  0.34486000825E+02 -0.21924415481E+02  0.14617019499E+02  0.43400708590E+02  0.00000000000E+00 0.  1.
         11    1    3    3    0    0  0.14315966423E+01  0.10295975322E+01 -0.17077335158E+01  0.24547696525E+01  0.51100000000E-03 0. -1.
        -11    1    3    3    0    0 -0.33996658987E+02  0.18819107736E+02 -0.15167770493E+02  0.41713222127E+02  0.51100000000E-03 0.  1.
        -12    1    3    3    0    0 -0.19209384807E+01  0.20757102131E+01  0.22584845095E+01  0.36192996305E+01  0.00000000000E+00 0.  1.
</event>
<event>
 7    1  0.2983653E-010  0.4778727E+02  0.7816164E-02  0.1312668E+00
        -11   -1    0    0    0    0  0.00000000000E+00  0.00000000000E+00  0.45593999997E+02  0.45594000000E+02  0.51100000000E-03 0.  1.
         11   -1    0    0    0    0 -0.00000000000E+00 -0.00000000000E+00 -0.45593999997E+02  0.45594000000E+02  0.51100000000E-03 0. -1.
    9900012    2    1    2    0    0  0.37270372251E+02 -0.20777482675E+02  0.79270907792E+01  0.47787271870E+02  0.20000003763E+02 0.  0.
        -12    1    1    2    0    0 -0.37270372251E+02  0.20777482675E+02 -0.79270907792E+01  0.43400728130E+02  0.00000000000E+00 0.  1.
         11    1    3    3    0    0  0.21805915537E+02 -0.58189911092E+01 -0.11693561128E+01  0.22599247861E+02  0.51100000000E-03 0. -1.
        -11    1    3    3    0    0  0.14536560596E+01 -0.56860459714E+01  0.54210563711E+01  0.79894985555E+01  0.51100000000E-03 0.  1.
        -12    1    3    3    0    0  0.14010800655E+02 -0.92724455939E+01  0.36753905209E+01  0.17198525453E+02  0.00000000000E+00 0.  1.
</event>
<event>
 7    1  0.2983653E-010  0.4778728E+02  0.7816164E-02  0.1312668E+00
        -11   -1    0    0    0    0  0.00000000000E+00  0.00000000000E+00  0.45593999997E+02  0.45594000000E+02  0.51100000000E-03 0.  1.
         11   -1    0    0    0    0 -0.00000000000E+00 -0.00000000000E+00 -0.45593999997E+02  0.45594000000E+02  0.51100000000E-03 0. -1.
    9900012    2    1    2    0    0 -0.14862227233E+02 -0.38182616575E+02  0.14311697319E+02  0.47787277806E+02  0.20000030826E+02 0.  0.
        -12    1    1    2    0    0  0.14862227233E+02  0.38182616575E+02 -0.14311697319E+02  0.43400722194E+02  0.00000000000E+00 0.  1.
         11    1    3    3    0    0 -0.65140580663E+01 -0.22143607030E+02 -0.42641280750E+00  0.23085798945E+02  0.51100000000E-03 0.  1.
        -11    1    3    3    0    0 -0.67426357277E+01 -0.10676716956E+02  0.14314137376E+02  0.19087953023E+02  0.51100000000E-03 0. -1.
         12    1    3    3    0    0 -0.16055334388E+01 -0.53622925889E+01  0.42397275043E+00  0.56135258372E+01  0.00000000000E+00 0. -1.
</event>
<event>
 7    1  0.2983653E-010  0.4778727E+02  0.7816164E-02  0.1312668E+00
        -11   -1    0    0    0    0  0.00000000000E+00  0.00000000000E+00  0.45593999997E+02  0.45594000000E+02  0.51100000000E-03 0.  1.
         11   -1    0    0    0    0 -0.00000000000E+00 -0.00000000000E+00 -0.45593999997E+02  0.45594000000E+02  0.51100000000E-03 0. -1.
    9900012    2    1    2    0    0 -0.17719313585E+02 -0.35640854290E+02 -0.17302574250E+02  0.47787266779E+02  0.19999980553E+02 0.  0.
        -12    1    1    2    0    0  0.17719313585E+02  0.35640854290E+02  0.17302574250E+02  0.43400733221E+02  0.00000000000E+00 0.  1.
         11    1    3    3    0    0 -0.63496750212E+01 -0.20151424559E+01 -0.27908339592E+01  0.72227367694E+01  0.51100000000E-03 0. -1.
        -11    1    3    3    0    0 -0.50882278515E+01 -0.24415254704E+02 -0.40317828918E+01  0.25263610163E+02  0.51100000000E-03 0.  1.
        -12    1    3    3    0    0 -0.62814107120E+01 -0.92104571307E+01 -0.10479957399E+02  0.15300919847E+02  0.00000000000E+00 0.  1.
</event>
<event>
 7    1  0.2983653E-010  0.4778727E+02  0.7816164E-02  0.1312668E+00
        -11   -1    0    0    0    0  0.00000000000E+00  0.00000000000E+00  0.45593999997E+02  0.45594000000E+02  0.51100000000E-03 0. -1.
         11   -1    0    0    0    0 -0.00000000000E+00 -0.00000000000E+00 -0.45593999997E+02  0.45594000000E+02  0.51100000000E-03 0.  1.
    9900012    2    1    2    0    0 -0.20194767210E+02 -0.30547013920E+02  0.23295385678E+02  0.47787266411E+02  0.19999978876E+02 0.  0.
        -12    1    1    2    0    0  0.20194767210E+02  0.30547013920E+02 -0.23295385678E+02  0.43400733589E+02  0.00000000000E+00 0.  1.
         11    1    3    3    0    0 -0.13803037738E+02 -0.82859493001E+01  0.74540793481E+01  0.17741028882E+02  0.51100000000E-03 0. -1.
        -11    1    3    3    0    0 -0.54285208103E+01 -0.17227984691E+02  0.16986480969E+02  0.24795419550E+02  0.51100000000E-03 0.  1.
        -12    1    3    3    0    0 -0.96320866176E+00 -0.50330799289E+01 -0.11451746386E+01  0.52508179791E+01  0.00000000000E+00 0.  1.
</event>
<event>
 7    1  0.2983653E-010  0.4778727E+02  0.7816164E-02  0.1312668E+00
        -11   -1    0    0    0    0  0.00000000000E+00  0.00000000000E+00  0.45593999997E+02  0.45594000000E+02  0.51100000000E-03 0. -1.
         11   -1    0    0    0    0 -0.00000000000E+00 -0.00000000000E+00 -0.45593999997E+02  0.45594000000E+02  0.51100000000E-03 0.  1.
    9900012    2    1    2    0    0 -0.35210173670E+02 -0.19399072694E+02 -0.16356737066E+02  0.47787271911E+02  0.20000003949E+02 0.  0.
        -12    1    1    2    0    0  0.35210173670E+02  0.19399072694E+02  0.16356737066E+02  0.43400728089E+02  0.00000000000E+00 0.  1.
         11    1    3    3    0    0 -0.61133421571E+01 -0.27966417486E+01  0.17294507427E+01  0.69415529626E+01  0.51100000000E-03 0. -1.
        -11    1    3    3    0    0 -0.24637359403E+02 -0.14979670870E+02 -0.20636975002E+02  0.35458070382E+02  0.51100000000E-03 0.  1.
        -12    1    3    3    0    0 -0.44594721100E+01 -0.16227600751E+01  0.25507871936E+01  0.53876485658E+01  0.00000000000E+00 0.  1.
</event>
<event>
 7    1  0.2983653E-010  0.4778727E+02  0.7816164E-02  0.1312668E+00
        -11   -1    0    0    0    0  0.00000000000E+00  0.00000000000E+00  0.45593999997E+02  0.45594000000E+02  0.51100000000E-03 0. -1.
         11   -1    0    0    0    0 -0.00000000000E+00 -0.00000000000E+00 -0.45593999997E+02  0.45594000000E+02  0.51100000000E-03 0.  1.
    9900012    2    1    2    0    0 -0.15441597645E+02 -0.38754083705E+02  0.11970853439E+02  0.47787271047E+02  0.20000000010E+02 0.  0.
        -12    1    1    2    0    0  0.15441597645E+02  0.38754083705E+02 -0.11970853439E+02  0.43400728953E+02  0.00000000000E+00 0.  1.
         11    1    3    3    0    0 -0.28803778533E+01 -0.24341897239E+01  0.65959414893E+00  0.38284358284E+01  0.51100000000E-03 0.  1.
        -11    1    3    3    0    0 -0.17208699055E+02 -0.28617180239E+02  0.77287323885E+01  0.34275583621E+02  0.51100000000E-03 0. -1.
        -12    1    3    3    0    0  0.46474792631E+01 -0.77027137420E+01  0.35825269020E+01  0.96832515973E+01  0.00000000000E+00 0.  1.
</event>
<event>
 7    1  0.2983653E-010  0.4778727E+02  0.7816164E-02  0.1312668E+00
        -11   -1    0    0    0    0  0.00000000000E+00  0.00000000000E+00  0.45593999997E+02  0.45594000000E+02  0.51100000000E-03 0.  1.
         11   -1    0    0    0    0 -0.00000000000E+00 -0.00000000000E+00 -0.45593999997E+02  0.45594000000E+02  0.51100000000E-03 0. -1.
    9900012    2    1    2    0    0 -0.62484960098E+01 -0.24742569159E+02 -0.35105336597E+02  0.47787273179E+02  0.20000009734E+02 0.  0.
        -12    1    1    2    0    0  0.62484960098E+01  0.24742569159E+02  0.35105336597E+02  0.43400726821E+02  0.00000000000E+00 0.  1.
         11    1    3    3    0    0 -0.15055988952E+00 -0.25386048616E+02 -0.30554756901E+02  0.39724895244E+02  0.51100000000E-03 0. -1.
        -11    1    3    3    0    0 -0.48060993866E+01 -0.62077725518E+00 -0.32297932695E+01  0.58237033355E+01  0.51100000000E-03 0.  1.
         12    1    3    3    0    0 -0.12918367336E+01  0.12642567119E+01 -0.13207864262E+01  0.22386745998E+01  0.00000000000E+00 0. -1.
</event>
<event>
 7    1  0.2983653E-010  0.4778727E+02  0.7816164E-02  0.1312668E+00
        -11   -1    0    0    0    0  0.00000000000E+00  0.00000000000E+00  0.45593999997E+02  0.45594000000E+02  0.51100000000E-03 0.  1.
         11   -1    0    0    0    0 -0.00000000000E+00 -0.00000000000E+00 -0.45593999997E+02  0.45594000000E+02  0.51100000000E-03 0. -1.
    9900012    2    1    2    0    0  0.15894883831E+01  0.38382338261E+02 -0.20196358920E+02  0.47787271004E+02  0.19999999817E+02 0.  0.
        -12    1    1    2    0    0 -0.15894883831E+01 -0.38382338261E+02  0.20196358920E+02  0.43400728996E+02  0.00000000000E+00 0.  1.
         11    1    3    3    0    0 -0.30795983687E+01  0.16407127847E+02 -0.12267920258E+02  0.20716651226E+02  0.51100000000E-03 0. -1.
        -11    1    3    3    0    0  0.30982058091E+01  0.16425640697E+02  0.65648795595E+00  0.16728165717E+02  0.51100000000E-03 0.  1.
        -12    1    3    3    0    0  0.15708809427E+01  0.55495697172E+01 -0.85849266178E+01  0.10342454062E+02  0.00000000000E+00 0.  1.
</event>
<event>
 7    1  0.2983653E-010  0.4778726E+02  0.7816164E-02  0.1312668E+00
        -11   -1    0    0    0    0  0.00000000000E+00  0.00000000000E+00  0.45593999997E+02  0.45594000000E+02  0.51100000000E-03 0. -1.
         11   -1    0    0    0    0 -0.00000000000E+00 -0.00000000000E+00 -0.45593999997E+02  0.45594000000E+02  0.51100000000E-03 0.  1.
    9900012    2    1    2    0    0 -0.12029530294E+02  0.34856437046E+02  0.22889802022E+02  0.47787264531E+02  0.19999970303E+02 0.  0.
        -12    1    1    2    0    0  0.12029530294E+02 -0.34856437046E+02 -0.22889802022E+02  0.43400735469E+02  0.00000000000E+00 0.  1.
         11    1    3    3    0    0 -0.13830853649E+02  0.14261031144E+02  0.12168818244E+02  0.23296988210E+02  0.51100000000E-03 0. -1.
        -11    1    3    3    0    0 -0.30625852573E+00  0.17565765691E+02  0.61464245733E+01  0.18612588586E+02  0.51100000000E-03 0.  1.
         12    1    3    3    0    0  0.21075818804E+01  0.30296402115E+01  0.45745592045E+01  0.58776877349E+01  0.00000000000E+00 0. -1.
</event>
<event>
 7    1  0.2983653E-010  0.4778727E+02  0.7816164E-02  0.1312668E+00
        -11   -1    0    0    0    0  0.00000000000E+00  0.00000000000E+00  0.45593999997E+02  0.45594000000E+02  0.51100000000E-03 0.  1.
         11   -1    0    0    0    0 -0.00000000000E+00 -0.00000000000E+00 -0.45593999997E+02  0.45594000000E+02  0.51100000000E-03 0. -1.
    9900012    2    1    2    0    0 -0.16244279800E+02 -0.27391935026E+02 -0.29486070278E+02  0.47787273380E+02  0.20000010649E+02 0.  0.
        -12    1    1    2    0    0  0.16244279800E+02  0.27391935026E+02  0.29486070278E+02  0.43400726620E+02  0.00000000000E+00 0.  1.
         11    1    3    3    0    0 -0.45466922593E+01 -0.73960634164E+01 -0.66762392548E+01  0.10952001434E+02  0.51100000000E-03 0.  1.
        -11    1    3    3    0    0 -0.73948906727E+01 -0.16233231715E+02 -0.55930795481E+01  0.18694511469E+02  0.51100000000E-03 0. -1.
        -12    1    3    3    0    0 -0.43026968677E+01 -0.37626398942E+01 -0.17216751476E+02  0.18140760477E+02  0.00000000000E+00 0.  1.
</event>
<event>
 7    1  0.2983653E-010  0.4778727E+02  0.7816164E-02  0.1312668E+00
        -11   -1    0    0    0    0  0.00000000000E+00  0.00000000000E+00  0.45593999997E+02  0.45594000000E+02  0.51100000000E-03 0. -1.
         11   -1    0    0    0    0 -0.00000000000E+00 -0.00000000000E+00 -0.45593999997E+02  0.45594000000E+02  0.51100000000E-03 0.  1.
    9900012    2    1    2    0    0 -0.40544470004E+02  0.15423292359E+02  0.13752965946E+01  0.47787269179E+02  0.19999991495E+02 0.  0.
        -12    1    1    2    0    0  0.40544470004E+02 -0.15423292359E+02 -0.13752965946E+01  0.43400730821E+02  0.00000000000E+00 0.  1.
         11    1    3    3    0    0 -0.24410573810E+02  0.13895036871E+02  0.31903291726E+01  0.28268823178E+02  0.51100000000E-03 0. -1.
        -11    1    3    3    0    0 -0.97513813559E+01 -0.44036464671E+01 -0.55077858527E+00  0.10713771412E+02  0.51100000000E-03 0.  1.
         12    1    3    3    0    0 -0.63825148380E+01  0.59319019552E+01 -0.12642539927E+01  0.88046745892E+01  0.00000000000E+00 0. -1.
</event>
<event>
 7    1  0.2983653E-010  0.4778725E+02  0.7816164E-02  0.1312668E+00
        -11   -1    0    0    0    0  0.00000000000E+00  0.00000000000E+00  0.45593999997E+02  0.45594000000E+02  0.51100000000E-03 0. -1.
         11   -1    0    0    0    0 -0.00000000000E+00 -0.00000000000E+00 -0.45593999997E+02  0.45594000000E+02  0.51100000000E-03 0.  1.
    9900012    2    1    2    0    0  0.35094795429E+02 -0.15713572998E+02 -0.20126212154E+02  0.47787245879E+02  0.19999885262E+02 0.  0.
        -12    1    1    2    0    0 -0.35094795429E+02  0.15713572998E+02  0.20126212154E+02  0.43400754121E+02  0.00000000000E+00 0.  1.
         11    1    3    3    0    0 -0.12111666500E+01 -0.50907056763E+01 -0.15100475867E+01  0.54463247160E+01  0.51100000000E-03 0. -1.
        -11    1    3    3    0    0  0.23706201456E+02 -0.64332239518E+01 -0.10053467302E+02  0.26541336872E+02  0.51100000000E-03 0.  1.
         12    1    3    3    0    0  0.12599760623E+02 -0.41896433699E+01 -0.85626972648E+01  0.15799584291E+02  0.00000000000E+00 0. -1.
</event>
<event>
 7    1  0.2983653E-010  0.4778727E+02  0.7816164E-02  0.1312668E+00
        -11   -1    0    0    0    0  0.00000000000E+00  0.00000000000E+00  0.45593999997E+02  0.45594000000E+02  0.51100000000E-03 0.  1.
         11   -1    0    0    0    0 -0.00000000000E+00 -0.00000000000E+00 -0.45593999997E+02  0.45594000000E+02  0.51100000000E-03 0. -1.
    9900012    2    1    2    0    0  0.65015735344E+01 -0.41412011074E+02 -0.11242693604E+02  0.47787270984E+02  0.19999999725E+02 0.  0.
        -12    1    1    2    0    0 -0.65015735344E+01  0.41412011074E+02  0.11242693604E+02  0.43400729016E+02  0.00000000000E+00 0.  1.
         11    1    3    3    0    0 -0.24278396773E+01 -0.10464807522E+02 -0.91299591517E+00  0.10781473172E+02  0.51100000000E-03 0. -1.
        -11    1    3    3    0    0  0.10925769684E+02 -0.19196612930E+02 -0.11722053742E+02  0.25005778039E+02  0.51100000000E-03 0.  1.
        -12    1    3    3    0    0 -0.19963564721E+01 -0.11750590623E+02  0.13923560541E+01  0.12000019772E+02  0.00000000000E+00 0.  1.
</event>
<event>
 7    1  0.2983653E-010  0.4778727E+02  0.7816164E-02  0.1312668E+00
        -11   -1    0    0    0    0  0.00000000000E+00  0.00000000000E+00  0.45593999997E+02  0.45594000000E+02  0.51100000000E-03 0. -1.
         11   -1    0    0    0    0 -0.00000000000E+00 -0.00000000000E+00 -0.45593999997E+02  0.45594000000E+02  0.51100000000E-03 0.  1.
    9900012    2    1    2    0    0 -0.19759076426E+02 -0.34760915635E+02  0.16878411230E+02  0.47787272787E+02  0.20000007945E+02 0.  0.
        -12    1    1    2    0    0  0.19759076426E+02  0.34760915635E+02 -0.16878411230E+02  0.43400727213E+02  0.00000000000E+00 0.  1.
         11    1    3    3    0    0 -0.77498240681E+01 -0.23894640597E+02  0.17807876375E+01  0.25183026570E+02  0.51100000000E-03 0.  1.
        -11    1    3    3    0    0 -0.54808348267E+01 -0.67535691662E+01  0.10452743752E+02  0.13598165284E+02  0.51100000000E-03 0. -1.
         12    1    3    3    0    0 -0.65284175308E+01 -0.41127058720E+01  0.46448798402E+01  0.90060809332E+01  0.00000000000E+00 0. -1.
</event>
<event>
 7    1  0.2983653E-010  0.4778726E+02  0.7816164E-02  0.1312668E+00
        -11   -1    0    0    0    0  0.00000000000E+00  0.00000000000E+00  0.45593999997E+02  0.45594000000E+02  0.51100000000E-03 0. -1.
         11   -1    0    0    0    0 -0.00000000000E+00 -0.00000000000E+00 -0.45593999997E+02  0.45594000000E+02  0.51100000000E-03 0.  1.
    9900012    2    1    2    0    0  0.33537917961E+02 -0.27319227880E+02  0.35344198511E+01  0.47787259490E+02  0.19999947318E+02 0.  0.
        -12    1    1    2    0    0 -0.33537917961E+02  0.27319227880E+02 -0.35344198511E+01  0.43400740510E+02  0.00000000000E+00 0.  1.
         11    1    3    3    0    0  0.26649137638E+02 -0.26564774236E+02  0.92493765393E+01  0.38748093291E+02  0.51100000000E-03 0. -1.
        -11    1    3    3    0    0  0.63970527651E+01 -0.91707688817E+00 -0.50819909393E+01  0.82213104957E+01  0.51100000000E-03 0.  1.
         12    1    3    3    0    0  0.49172755844E+00  0.16262324463E+00 -0.63296574893E+00  0.81785570289E+00  0.00000000000E+00 0. -1.
</event>
<event>
 7    1  0.2983653E-010  0.4778726E+02  0.7816164E-02  0.1312668E+00
        -11   -1    0    0    0    0  0.00000000000E+00  0.00000000000E+00  0.45593999997E+02  0.45594000000E+02  0.51100000000E-03 0.  1.
         11   -1    0    0    0    0 -0.00000000000E+00 -0.00000000000E+00 -0.45593999997E+02  0.45594000000E+02  0.51100000000E-03 0. -1.
    9900012    2    1    2    0    0 -0.37890329572E+02 -0.13252532502E+02 -0.16502033996E+02  0.47787264766E+02  0.19999971376E+02 0.  0.
        -12    1    1    2    0    0  0.37890329572E+02  0.13252532502E+02  0.16502033996E+02  0.43400735234E+02  0.00000000000E+00 0.  1.
         11    1    3    3    0    0 -0.31053884878E+02 -0.16418057878E+02 -0.78367786151E+01  0.35990436088E+02  0.51100000000E-03 0. -1.
        -11    1    3    3    0    0 -0.58578556114E+01  0.25282674018E+01 -0.84836015959E+01  0.10614994334E+02  0.51100000000E-03 0.  1.
         12    1    3    3    0    0 -0.97858908251E+00  0.63725797423E+00 -0.18165378506E+00  0.11818343436E+01  0.00000000000E+00 0. -1.
</event>
<event>
 7    1  0.2983653E-010  0.4778727E+02  0.7816164E-02  0.1312668E+00
        -11   -1    0    0    0    0  0.00000000000E+00  0.00000000000E+00  0.45593999997E+02  0.45594000000E+02  0.51100000000E-03 0.  1.
         11   -1    0    0    0    0 -0.00000000000E+00 -0.00000000000E+00 -0.45593999997E+02  0.45594000000E+02  0.51100000000E-03 0. -1.
    9900012    2    1    2    0    0 -0.24000439779E+02 -0.27835398587E+01 -0.36053489637E+02  0.47787270527E+02  0.19999997643E+02 0.  0.
        -12    1    1    2    0    0  0.24000439779E+02  0.27835398587E+01  0.36053489637E+02  0.43400729473E+02  0.00000000000E+00 0.  1.
         11    1    3    3    0    0 -0.25605883591E+02 -0.24477087391E+01 -0.37446239640E+02  0.45429873607E+02  0.51100000000E-03 0. -1.
        -11    1    3    3    0    0  0.12735862406E+01 -0.65526283265E+00  0.95137959412E+00  0.17194518561E+01  0.51100000000E-03 0.  1.
         12    1    3    3    0    0  0.33185757044E+00  0.31943171304E+00  0.44137040925E+00  0.63794506387E+00  0.00000000000E+00 0. -1.
</event>
<event>
 7    1  0.2983653E-010  0.4778729E+02  0.7816164E-02  0.1312668E+00
        -11   -1    0    0    0    0  0.00000000000E+00  0.00000000000E+00  0.45593999997E+02  0.45594000000E+02  0.51100000000E-03 0.  1.
         11   -1    0    0    0    0 -0.00000000000E+00 -0.00000000000E+00 -0.45593999997E+02  0.45594000000E+02  0.51100000000E-03 0. -1.
    9900012    2    1    2    0    0 -0.25742262923E+02  0.34082828280E+02 -0.77018637417E+01  0.47787285846E+02  0.20000067486E+02 0.  0.
        -12    1    1    2    0    0  0.25742262923E+02 -0.34082828280E+02  0.77018637417E+01  0.43400714154E+02  0.00000000000E+00 0.  1.
         11    1    3    3    0    0 -0.24145602456E+02  0.25264230580E+02  0.51961319763E+00  0.34950843522E+02  0.51100000000E-03 0. -1.
        -11    1    3    3    0    0  0.11140070313E+01  0.35887570630E+01 -0.45261694643E+01  0.58827203915E+01  0.51100000000E-03 0.  1.
         12    1    3    3    0    0 -0.27106674981E+01  0.52298406377E+01 -0.36953074750E+01  0.69537219326E+01  0.00000000000E+00 0. -1.
</event>
<event>
 7    1  0.2983653E-010  0.4778727E+02  0.7816164E-02  0.1312668E+00
        -11   -1    0    0    0    0  0.00000000000E+00  0.00000000000E+00  0.45593999997E+02  0.45594000000E+02  0.51100000000E-03 0. -1.
         11   -1    0    0    0    0 -0.00000000000E+00 -0.00000000000E+00 -0.45593999997E+02  0.45594000000E+02  0.51100000000E-03 0.  1.
    9900012    2    1    2    0    0 -0.33895244164E+02 -0.23524624444E+02  0.13465807243E+02  0.47787268476E+02  0.19999988287E+02 0.  0.
        -12    1    1    2    0    0  0.33895244164E+02  0.23524624444E+02 -0.13465807243E+02  0.43400731524E+02  0.00000000000E+00 0.  1.
         11    1    3    3    0    0 -0.49866515390E+01 -0.57659495292E+01  0.86371807563E+01  0.11520145799E+02  0.51100000000E-03 0. -1.
        -11    1    3    3    0    0 -0.10051611931E+02 -0.10561433586E+01 -0.16890848334E+01  0.10247114181E+02  0.51100000000E-03 0.  1.
        -12    1    3    3    0    0 -0.18856980694E+02 -0.16702531556E+02  0.65177113203E+01  0.26020008496E+02  0.00000000000E+00 0.  1.
</event>
<event>
 7    1  0.2983653E-010  0.4778727E+02  0.7816164E-02  0.1312668E+00
        -11   -1    0    0    0    0  0.00000000000E+00  0.00000000000E+00  0.45593999997E+02  0.45594000000E+02  0.51100000000E-03 0.  1.
         11   -1    0    0    0    0 -0.00000000000E+00 -0.00000000000E+00 -0.45593999997E+02  0.45594000000E+02  0.51100000000E-03 0. -1.
    9900012    2    1    2    0    0  0.51696076712E+00  0.14243207979E+02 -0.40993748599E+02  0.47787266755E+02  0.19999980444E+02 0.  0.
        -12    1    1    2    0    0 -0.51696076712E+00 -0.14243207979E+02  0.40993748599E+02  0.43400733245E+02  0.00000000000E+00 0.  1.
         11    1    3    3    0    0 -0.13310947932E+00 -0.13000742814E+01  0.12218100441E+01  0.17890587792E+01  0.51100000000E-03 0.  1.
        -11    1    3    3    0    0  0.76870869105E+00  0.10039829057E+02 -0.37242716210E+02  0.38579903985E+02  0.51100000000E-03 0. -1.
         12    1    3    3    0    0 -0.11863844461E+00  0.55034532025E+01 -0.49728424336E+01  0.74183039909E+01  0.00000000000E+00 0. -1.
</event>
<event>
 7    1  0.2983653E-010  0.4778727E+02  0.7816164E-02  0.1312668E+00
        -11   -1    0    0    0    0  0.00000000000E+00  0.00000000000E+00  0.45593999997E+02  0.45594000000E+02  0.51100000000E-03 0. -1.
         11   -1    0    0    0    0 -0.00000000000E+00 -0.00000000000E+00 -0.45593999997E+02  0.45594000000E+02  0.51100000000E-03 0.  1.
    9900012    2    1    2    0    0 -0.30324837950E+02 -0.13771822266E+02  0.27827404865E+02  0.47787270205E+02  0.19999996172E+02 0.  0.
        -12    1    1    2    0    0  0.30324837950E+02  0.13771822266E+02 -0.27827404865E+02  0.43400729795E+02  0.00000000000E+00 0.  1.
         11    1    3    3    0    0 -0.28404510921E+02 -0.14067743749E+02  0.20939822807E+02  0.37989391076E+02  0.51100000000E-03 0. -1.
        -11    1    3    3    0    0 -0.32374931222E+01  0.26916424253E+01  0.45701482789E+01  0.62139002417E+01  0.51100000000E-03 0.  1.
         12    1    3    3    0    0  0.13171660928E+01 -0.23957209418E+01  0.23174337788E+01  0.35839788875E+01  0.00000000000E+00 0. -1.
</event>
<event>
 7    1  0.2983653E-010  0.4778726E+02  0.7816164E-02  0.1312668E+00
        -11   -1    0    0    0    0  0.00000000000E+00  0.00000000000E+00  0.45593999997E+02  0.45594000000E+02  0.51100000000E-03 0.  1.
         11   -1    0    0    0    0 -0.00000000000E+00 -0.00000000000E+00 -0.45593999997E+02  0.45594000000E+02  0.51100000000E-03 0. -1.
    9900012    2    1    2    0    0 -0.72849813568E+01  0.78201931240E+01 -0.42064214140E+02  0.47787257091E+02  0.19999936380E+02 0.  0.
        -12    1    1    2    0    0  0.72849813568E+01 -0.78201931240E+01  0.42064214140E+02  0.43400742909E+02  0.00000000000E+00 0.  1.
         11    1    3    3    0    0 -0.83258519581E+01 -0.19910317496E+01 -0.17904643975E+02  0.19845913796E+02  0.51100000000E-03 0. -1.
        -11    1    3    3    0    0 -0.57925829935E+00  0.93281605640E+01 -0.24495281557E+02  0.26217721840E+02  0.51100000000E-03 0.  1.
        -12    1    3    3    0    0  0.16201289006E+01  0.48306430961E+00  0.33571139195E+00  0.17236214551E+01  0.00000000000E+00 0.  1.
</event>
<event>
 7    1  0.2983653E-010  0.4778726E+02  0.7816164E-02  0.1312668E+00
        -11   -1    0    0    0    0  0.00000000000E+00  0.00000000000E+00  0.45593999997E+02  0.45594000000E+02  0.51100000000E-03 0.  1.
         11   -1    0    0    0    0 -0.00000000000E+00 -0.00000000000E+00 -0.45593999997E+02  0.45594000000E+02  0.51100000000E-03 0. -1.
    9900012    2    1    2    0    0  0.29175736966E+02  0.30569891657E+01 -0.31985231992E+02  0.47787264110E+02  0.19999968382E+02 0.  0.
        -12    1    1    2    0    0 -0.29175736966E+02 -0.30569891657E+01  0.31985231992E+02  0.43400735890E+02  0.00000000000E+00 0.  1.
         11    1    3    3    0    0  0.15214510564E+02  0.92255684058E+01 -0.13230331154E+02  0.22172823609E+02  0.51100000000E-03 0.  1.
        -11    1    3    3    0    0  0.14009152540E+02 -0.65911469104E+01 -0.14101448074E+02  0.20941595224E+02  0.51100000000E-03 0. -1.
        -12    1    3    3    0    0 -0.47926138086E-01  0.42256767040E+00 -0.46534527643E+01  0.46728452767E+01  0.00000000000E+00 0.  1.
</event>
<event>
 7    1  0.2983653E-010  0.4778727E+02  0.7816164E-02  0.1312668E+00
        -11   -1    0    0    0    0  0.00000000000E+00  0.00000000000E+00  0.45593999997E+02  0.45594000000E+02  0.51100000000E-03 0. -1.
         11   -1    0    0    0    0 -0.00000000000E+00 -0.00000000000E+00 -0.45593999997E+02  0.45594000000E+02  0.51100000000E-03 0.  1.
    9900012    2    1    2    0    0  0.36399130507E+02  0.17120433253E+02  0.16297772337E+02  0.47787270518E+02  0.19999997598E+02 0.  0.
        -12    1    1    2    0    0 -0.36399130507E+02 -0.17120433253E+02 -0.16297772337E+02  0.43400729482E+02  0.00000000000E+00 0.  1.
         11    1    3    3    0    0  0.28680940455E+02  0.13301817141E+02  0.11683628200E+02  0.33705219964E+02  0.51100000000E-03 0. -1.
        -11    1    3    3    0    0  0.21848316920E+01  0.49472773680E+01 -0.16439711883E+01  0.56525821008E+01  0.51100000000E-03 0.  1.
         12    1    3    3    0    0  0.55333583604E+01 -0.11286612566E+01  0.62581153248E+01  0.84294684527E+01  0.00000000000E+00 0. -1.
</event>
<event>
 7    1  0.2987967E-010  0.4778727E+02  0.7816164E-02  0.1312668E+00
        -11   -1    0    0    0    0  0.00000000000E+00  0.00000000000E+00  0.45593999997E+02  0.45594000000E+02  0.51100000000E-03 0.  1.
         11   -1    0    0    0    0 -0.00000000000E+00 -0.00000000000E+00 -0.45593999997E+02  0.45594000000E+02  0.51100000000E-03 0. -1.
    9900012    2    1    2    0    0 -0.83903305918E-01 -0.31240796813E+02 -0.30126876150E+02  0.47787273141E+02  0.20000009560E+02 0.  0.
        -12    1    1    2    0    0  0.83903305918E-01  0.31240796813E+02  0.30126876150E+02  0.43400726859E+02  0.00000000000E+00 0.  1.
         11    1    3    3    0    0 -0.19359649228E+01 -0.16291675231E+02 -0.18403599531E+02  0.24654799086E+02  0.51100000000E-03 0. -1.
        -11    1    3    3    0    0  0.74929362436E+01 -0.94058988278E+01 -0.73830496824E+01  0.14111146275E+02  0.51100000000E-03 0.  1.
        -12    1    3    3    0    0 -0.56408746268E+01 -0.55432227544E+01 -0.43402269366E+01  0.90213277804E+01  0.00000000000E+00 0.  1.
</event>
<event>
 7    1  0.2983653E-010  0.4778726E+02  0.7816164E-02  0.1312668E+00
        -11   -1    0    0    0    0  0.00000000000E+00  0.00000000000E+00  0.45593999997E+02  0.45594000000E+02  0.51100000000E-03 0.  1.
         11   -1    0    0    0    0 -0.00000000000E+00 -0.00000000000E+00 -0.45593999997E+02  0.45594000000E+02  0.51100000000E-03 0. -1.
    9900012    2    1    2    0    0  0.14699821563E+02 -0.18000129207E+02 -0.36654259384E+02  0.47787261107E+02  0.19999954693E+02 0.  0.
        -12    1    1    2    0    0 -0.14699821563E+02  0.18000129207E+02  0.36654259384E+02  0.43400738893E+02  0.00000000000E+00 0.  1.
         11    1    3    3    0    0  0.49919540307E+01 -0.11609453041E+01 -0.20252410653E+02  0.20890848153E+02  0.51100000000E-03 0.  1.
        -11    1    3    3    0    0  0.21205066982E+01 -0.16354622839E+01  0.72125665828E+00  0.27733548218E+01  0.51100000000E-03 0. -1.
         12    1    3    3    0    0  0.75873608343E+01 -0.15203721619E+02 -0.17123105389E+02  0.24123058132E+02  0.00000000000E+00 0. -1.
</event>
<event>
 7    1  0.2983653E-010  0.4778727E+02  0.7816164E-02  0.1312668E+00
        -11   -1    0    0    0    0  0.00000000000E+00  0.00000000000E+00  0.45593999997E+02  0.45594000000E+02  0.51100000000E-03 0. -1.
         11   -1    0    0    0    0 -0.00000000000E+00 -0.00000000000E+00 -0.45593999997E+02  0.45594000000E+02  0.51100000000E-03 0.  1.
    9900012    2    1    2    0    0 -0.87059863879E+01  0.22844412161E+02  0.35860310865E+02  0.47787271189E+02  0.20000000661E+02 0.  0.
        -12    1    1    2    0    0  0.87059863879E+01 -0.22844412161E+02 -0.35860310865E+02  0.43400728811E+02  0.00000000000E+00 0.  1.
         11    1    3    3    0    0 -0.71819045568E+01  0.28771208115E+01  0.21623592485E+02  0.22966003777E+02  0.51100000000E-03 0. -1.
        -11    1    3    3    0    0 -0.18059986311E+01  0.10683245697E+02  0.58829265913E+01  0.12328917034E+02  0.51100000000E-03 0.  1.
         12    1    3    3    0    0  0.28191680005E+00  0.92840456524E+01  0.83537917879E+01  0.12492350379E+02  0.00000000000E+00 0. -1.
</event>
<event>
 7    1  0.2983653E-010  0.4778727E+02  0.7816164E-02  0.1312668E+00
        -11   -1    0    0    0    0  0.00000000000E+00  0.00000000000E+00  0.45593999997E+02  0.45594000000E+02  0.51100000000E-03 0.  1.
         11   -1    0    0    0    0 -0.00000000000E+00 -0.00000000000E+00 -0.45593999997E+02  0.45594000000E+02  0.51100000000E-03 0. -1.
    9900012    2    1    2    0    0 -0.33716471304E+02 -0.21858396286E+02 -0.16402238407E+02  0.47787270166E+02  0.19999995994E+02 0.  0.
        -12    1    1    2    0    0  0.33716471304E+02  0.21858396286E+02  0.16402238407E+02  0.43400729834E+02  0.00000000000E+00 0.  1.
         11    1    3    3    0    0 -0.26437604927E+02 -0.14894209650E+02 -0.97904733798E+01  0.31884758187E+02  0.51100000000E-03 0. -1.
        -11    1    3    3    0    0  0.20833795290E+01 -0.28578154202E+01  0.31970365333E+00  0.35510266016E+01  0.51100000000E-03 0.  1.
         12    1    3    3    0    0 -0.93622459054E+01 -0.41063712163E+01 -0.69314686802E+01  0.12351485377E+02  0.00000000000E+00 0. -1.
</event>
<event>
 7    1  0.2983653E-010  0.4778727E+02  0.7816164E-02  0.1312668E+00
        -11   -1    0    0    0    0  0.00000000000E+00  0.00000000000E+00  0.45593999997E+02  0.45594000000E+02  0.51100000000E-03 0.  1.
         11   -1    0    0    0    0 -0.00000000000E+00 -0.00000000000E+00 -0.45593999997E+02  0.45594000000E+02  0.51100000000E-03 0. -1.
    9900012    2    1    2    0    0 -0.40970768446E+02 -0.71150296196E+01 -0.12425609040E+02  0.47787271048E+02  0.20000000015E+02 0.  0.
        -12    1    1    2    0    0  0.40970768446E+02  0.71150296196E+01  0.12425609040E+02  0.43400728952E+02  0.00000000000E+00 0.  1.
         11    1    3    3    0    0 -0.20650560506E+02 -0.23727077705E+01 -0.51637790893E+01  0.21418216689E+02  0.51100000000E-03 0. -1.
        -11    1    3    3    0    0 -0.13381601845E+02  0.41577992419E+01 -0.31854316178E+01  0.14370161354E+02  0.51100000000E-03 0.  1.
        -12    1    3    3    0    0 -0.69386060949E+01 -0.89001210910E+01 -0.40763983334E+01  0.11998893005E+02  0.00000000000E+00 0.  1.
</event>
<event>
 7    1  0.2983653E-010  0.4778732E+02  0.7816164E-02  0.1312668E+00
        -11   -1    0    0    0    0  0.00000000000E+00  0.00000000000E+00  0.45593999997E+02  0.45594000000E+02  0.51100000000E-03 0.  1.
         11   -1    0    0    0    0 -0.00000000000E+00 -0.00000000000E+00 -0.45593999997E+02  0.45594000000E+02  0.51100000000E-03 0. -1.
    9900012    2    1    2    0    0  0.10103095854E+02 -0.18104489502E+01 -0.42169520007E+02  0.47787323866E+02  0.20000240834E+02 0.  0.
        -12    1    1    2    0    0 -0.10103095854E+02  0.18104489502E+01  0.42169520007E+02  0.43400676134E+02  0.00000000000E+00 0.  1.
         11    1    3    3    0    0  0.57571751669E+01 -0.66821828207E+00 -0.12226298301E+02  0.13530482326E+02  0.51100000000E-03 0. -1.
        -11    1    3    3    0    0 -0.21888636346E+01  0.63057489284E+01 -0.13475903149E+02  0.15038402824E+02  0.51100000000E-03 0.  1.
        -12    1    3    3    0    0  0.65347843218E+01 -0.74479795966E+01 -0.16467318558E+02  0.19218438716E+02  0.00000000000E+00 0.  1.
</event>
<event>
 7    1  0.2983653E-010  0.4778727E+02  0.7816164E-02  0.1312668E+00
        -11   -1    0    0    0    0  0.00000000000E+00  0.00000000000E+00  0.45593999997E+02  0.45594000000E+02  0.51100000000E-03 0.  1.
         11   -1    0    0    0    0 -0.00000000000E+00 -0.00000000000E+00 -0.45593999997E+02  0.45594000000E+02  0.51100000000E-03 0. -1.
    9900012    2    1    2    0    0 -0.10339461209E+01  0.11662159702E+02 -0.41791726118E+02  0.47787269760E+02  0.19999994143E+02 0.  0.
        -12    1    1    2    0    0  0.10339461209E+01 -0.11662159702E+02  0.41791726118E+02  0.43400730240E+02  0.00000000000E+00 0.  1.
         11    1    3    3    0    0 -0.72740334495E+00  0.13336180387E+02 -0.26583030431E+02  0.29749627395E+02  0.51100000000E-03 0. -1.
        -11    1    3    3    0    0  0.30147882678E+01 -0.43086211837E+01 -0.10199303204E+02  0.11475144919E+02  0.51100000000E-03 0.  1.
         12    1    3    3    0    0 -0.33213310438E+01  0.26346004988E+01 -0.50093924824E+01  0.65624974463E+01  0.00000000000E+00 0. -1.
</event>
<event>
 7    1  0.2983653E-010  0.4778727E+02  0.7816164E-02  0.1312668E+00
        -11   -1    0    0    0    0  0.00000000000E+00  0.00000000000E+00  0.45593999997E+02  0.45594000000E+02  0.51100000000E-03 0.  1.
         11   -1    0    0    0    0 -0.00000000000E+00 -0.00000000000E+00 -0.45593999997E+02  0.45594000000E+02  0.51100000000E-03 0. -1.
    9900012    2    1    2    0    0  0.38753710343E+02  0.85280076609E+00 -0.19520397733E+02  0.47787271179E+02  0.20000000614E+02 0.  0.
        -12    1    1    2    0    0 -0.38753710343E+02 -0.85280076609E+00  0.19520397733E+02  0.43400728821E+02  0.00000000000E+00 0.  1.
         11    1    3    3    0    0  0.71726695890E+01  0.40282528143E+01 -0.38057793735E+01  0.90641031917E+01  0.51100000000E-03 0. -1.
        -11    1    3    3    0    0  0.14048658048E+02  0.66937815147E+00  0.11274428792E+01  0.14109712533E+02  0.51100000000E-03 0.  1.
        -12    1    3    3    0    0  0.17532382707E+02 -0.38448301997E+01 -0.16842061239E+02  0.24613455455E+02  0.00000000000E+00 0.  1.
</event>
<event>
 7    1  0.2983653E-010  0.4778727E+02  0.7816164E-02  0.1312668E+00
        -11   -1    0    0    0    0  0.00000000000E+00  0.00000000000E+00  0.45593999997E+02  0.45594000000E+02  0.51100000000E-03 0.  1.
         11   -1    0    0    0    0 -0.00000000000E+00 -0.00000000000E+00 -0.45593999997E+02  0.45594000000E+02  0.51100000000E-03 0. -1.
    9900012    2    1    2    0    0 -0.41443147732E+02 -0.10466077194E+02 -0.75199761999E+01  0.47787270653E+02  0.19999998217E+02 0.  0.
        -12    1    1    2    0    0  0.41443147732E+02  0.10466077194E+02  0.75199761999E+01  0.43400729347E+02  0.00000000000E+00 0.  1.
         11    1    3    3    0    0  0.53009547816E+00  0.20050391908E+01 -0.28749578596E+01  0.35449353066E+01  0.51100000000E-03 0.  1.
        -11    1    3    3    0    0 -0.24176137158E+02 -0.81937707779E+01 -0.80290196278E+00  0.25539540702E+02  0.51100000000E-03 0. -1.
         12    1    3    3    0    0 -0.17797106052E+02 -0.42773456069E+01 -0.38421163776E+01  0.18702794645E+02  0.00000000000E+00 0. -1.
</event>
<event>
 7    1  0.2983653E-010  0.4778727E+02  0.7816164E-02  0.1312668E+00
        -11   -1    0    0    0    0  0.00000000000E+00  0.00000000000E+00  0.45593999997E+02  0.45594000000E+02  0.51100000000E-03 0.  1.
         11   -1    0    0    0    0 -0.00000000000E+00 -0.00000000000E+00 -0.45593999997E+02  0.45594000000E+02  0.51100000000E-03 0. -1.
    9900012    2    1    2    0    0  0.26044290563E+02 -0.25053197060E+02 -0.24034464191E+02  0.47787271632E+02  0.20000002680E+02 0.  0.
        -12    1    1    2    0    0 -0.26044290563E+02  0.25053197060E+02  0.24034464191E+02  0.43400728368E+02  0.00000000000E+00 0.  1.
         11    1    3    3    0    0  0.19109206988E+01 -0.19470236490E+01  0.91718188130E+00  0.28781490356E+01  0.51100000000E-03 0. -1.
        -11    1    3    3    0    0  0.91825973292E+01 -0.16938786212E+02 -0.64117483364E+01  0.20306478992E+02  0.51100000000E-03 0.  1.
        -12    1    3    3    0    0  0.14950772535E+02 -0.61673871990E+01 -0.18539897736E+02  0.24602643605E+02  0.00000000000E+00 0.  1.
</event>
<event>
 7    1  0.2983653E-010  0.4778727E+02  0.7816164E-02  0.1312668E+00
        -11   -1    0    0    0    0  0.00000000000E+00  0.00000000000E+00  0.45593999997E+02  0.45594000000E+02  0.51100000000E-03 0.  1.
         11   -1    0    0    0    0 -0.00000000000E+00 -0.00000000000E+00 -0.45593999997E+02  0.45594000000E+02  0.51100000000E-03 0. -1.
    9900012    2    1    2    0    0  0.12931337296E+02 -0.10433102441E+02 -0.40094315972E+02  0.47787270927E+02  0.19999999463E+02 0.  0.
        -12    1    1    2    0    0 -0.12931337296E+02  0.10433102441E+02  0.40094315972E+02  0.43400729073E+02  0.00000000000E+00 0.  1.
         11    1    3    3    0    0  0.44353464484E+01 -0.17997055108E+01 -0.13600131932E+02  0.14417864852E+02  0.51100000000E-03 0. -1.
        -11    1    3    3    0    0  0.42206907951E+00 -0.12046842602E+01 -0.21108951080E+02  0.21147511022E+02  0.51100000000E-03 0.  1.
        -12    1    3    3    0    0  0.80739217683E+01 -0.74287126699E+01 -0.53852329605E+01  0.12221895053E+02  0.00000000000E+00 0.  1.
</event>
<event>
 7    1  0.2983653E-010  0.4778728E+02  0.7816164E-02  0.1312668E+00
        -11   -1    0    0    0    0  0.00000000000E+00  0.00000000000E+00  0.45593999997E+02  0.45594000000E+02  0.51100000000E-03 0.  1.
         11   -1    0    0    0    0 -0.00000000000E+00 -0.00000000000E+00 -0.45593999997E+02  0.45594000000E+02  0.51100000000E-03 0. -1.
    9900012    2    1    2    0    0 -0.90034281317E+01 -0.75681180932E+01 -0.41776605428E+02  0.47787275459E+02  0.20000020129E+02 0.  0.
        -12    1    1    2    0    0  0.90034281317E+01  0.75681180932E+01  0.41776605428E+02  0.43400724541E+02  0.00000000000E+00 0.  1.
         11    1    3    3    0    0 -0.12048361963E+02 -0.28851425123E+01 -0.31728892942E+02  0.34061851402E+02  0.51100000000E-03 0. -1.
        -11    1    3    3    0    0  0.23129728058E+01 -0.47101383715E+00  0.43887484830E+00  0.24008974632E+01  0.51100000000E-03 0.  1.
        -12    1    3    3    0    0  0.73196102578E+00 -0.42119617438E+01 -0.10486587334E+02  0.11324526595E+02  0.00000000000E+00 0.  1.
</event>
<event>
 7    1  0.2983653E-010  0.4778727E+02  0.7816164E-02  0.1312668E+00
        -11   -1    0    0    0    0  0.00000000000E+00  0.00000000000E+00  0.45593999997E+02  0.45594000000E+02  0.51100000000E-03 0.  1.
         11   -1    0    0    0    0 -0.00000000000E+00 -0.00000000000E+00 -0.45593999997E+02  0.45594000000E+02  0.51100000000E-03 0. -1.
    9900012    2    1    2    0    0  0.73466308469E+01 -0.21193685299E+02 -0.37154784177E+02  0.47787271106E+02  0.20000000279E+02 0.  0.
        -12    1    1    2    0    0 -0.73466308469E+01  0.21193685299E+02  0.37154784177E+02  0.43400728894E+02  0.00000000000E+00 0.  1.
         11    1    3    3    0    0  0.91152074927E+01 -0.19200299724E+02 -0.37152306403E+02  0.42802247469E+02  0.51100000000E-03 0. -1.
        -11    1    3    3    0    0 -0.11720840863E+01  0.12303914160E+01 -0.12803330655E+00  0.17041235080E+01  0.51100000000E-03 0.  1.
         12    1    3    3    0    0 -0.59649255950E+00 -0.32237769907E+01  0.12555553275E+00  0.32809001282E+01  0.00000000000E+00 0. -1.
</event>
<event>
 7    1  0.2983653E-010  0.4778727E+02  0.7816164E-02  0.1312668E+00
        -11   -1    0    0    0    0  0.00000000000E+00  0.00000000000E+00  0.45593999997E+02  0.45594000000E+02  0.51100000000E-03 0. -1.
         11   -1    0    0    0    0 -0.00000000000E+00 -0.00000000000E+00 -0.45593999997E+02  0.45594000000E+02  0.51100000000E-03 0.  1.
    9900012    2    1    2    0    0 -0.27532386634E+01  0.43147400238E+02 -0.37874456515E+01  0.47787271722E+02  0.20000003091E+02 0.  0.
        -12    1    1    2    0    0  0.27532386634E+01 -0.43147400238E+02  0.37874456515E+01  0.43400728278E+02  0.00000000000E+00 0.  1.
         11    1    3    3    0    0 -0.26113741271E+01  0.22278708351E+02  0.22520958487E+01  0.22544002675E+02  0.51100000000E-03 0. -1.
        -11    1    3    3    0    0  0.56775727199E+01  0.48550114598E+01 -0.19690855655E+01  0.77254945790E+01  0.51100000000E-03 0.  1.
        -12    1    3    3    0    0 -0.58194372562E+01  0.16013680428E+02 -0.40704559347E+01  0.17517774469E+02  0.00000000000E+00 0.  1.
</event>
<event>
 7    1  0.2983653E-010  0.4778727E+02  0.7816164E-02  0.1312668E+00
        -11   -1    0    0    0    0  0.00000000000E+00  0.00000000000E+00  0.45593999997E+02  0.45594000000E+02  0.51100000000E-03 0. -1.
         11   -1    0    0    0    0 -0.00000000000E+00 -0.00000000000E+00 -0.45593999997E+02  0.45594000000E+02  0.51100000000E-03 0.  1.
    9900012    2    1    2    0    0  0.23603348688E+01  0.30112086337E+02  0.31165916028E+02  0.47787271364E+02  0.20000001457E+02 0.  0.
        -12    1    1    2    0    0 -0.23603348688E+01 -0.30112086337E+02 -0.31165916028E+02  0.43400728636E+02  0.00000000000E+00 0.  1.
         11    1    3    3    0    0 -0.21251227620E+01  0.53299689604E+01  0.52901881164E+01  0.78045375546E+01  0.51100000000E-03 0. -1.
        -11    1    3    3    0    0  0.10578162179E+01  0.10382650509E+02  0.22497493667E+02  0.24800315085E+02  0.51100000000E-03 0.  1.
        -12    1    3    3    0    0  0.34276414129E+01  0.14399466867E+02  0.33782342446E+01  0.15182418724E+02  0.00000000000E+00 0.  1.
</event>
<event>
 7    1  0.2983653E-010  0.4778727E+02  0.7816164E-02  0.1312668E+00
        -11   -1    0    0    0    0  0.00000000000E+00  0.00000000000E+00  0.45593999997E+02  0.45594000000E+02  0.51100000000E-03 0.  1.
         11   -1    0    0    0    0 -0.00000000000E+00 -0.00000000000E+00 -0.45593999997E+02  0.45594000000E+02  0.51100000000E-03 0. -1.
    9900012    2    1    2    0    0  0.34690436613E+02  0.12171057900E+02 -0.23066472297E+02  0.47787272044E+02  0.20000004560E+02 0.  0.
        -12    1    1    2    0    0 -0.34690436613E+02 -0.12171057900E+02  0.23066472297E+02  0.43400727956E+02  0.00000000000E+00 0.  1.
         11    1    3    3    0    0  0.32107608620E+02  0.11959563776E+02 -0.20863059909E+02  0.40114797345E+02  0.51100000000E-03 0. -1.
        -11    1    3    3    0    0  0.78458723995E+00  0.19019351202E+01  0.19541501258E+01  0.28375407158E+01  0.51100000000E-03 0.  1.
         12    1    3    3    0    0  0.17982407531E+01 -0.16904409960E+01 -0.41575625139E+01  0.48349339834E+01  0.00000000000E+00 0. -1.
</event>
<event>
 7    1  0.2983653E-010  0.4778727E+02  0.7816164E-02  0.1312668E+00
        -11   -1    0    0    0    0  0.00000000000E+00  0.00000000000E+00  0.45593999997E+02  0.45594000000E+02  0.51100000000E-03 0. -1.
         11   -1    0    0    0    0 -0.00000000000E+00 -0.00000000000E+00 -0.45593999997E+02  0.45594000000E+02  0.51100000000E-03 0.  1.
    9900012    2    1    2    0    0 -0.36696256244E+02 -0.23157840118E+02 -0.84988874209E+00  0.47787273138E+02  0.20000009547E+02 0.  0.
        -12    1    1    2    0    0  0.36696256244E+02  0.23157840118E+02  0.84988874209E+00  0.43400726862E+02  0.00000000000E+00 0.  1.
         11    1    3    3    0    0 -0.12952882636E+02 -0.13350976928E+02  0.76580525971E+01  0.20116449074E+02  0.51100000000E-03 0. -1.
        -11    1    3    3    0    0 -0.21747645494E+02 -0.10527961136E+02 -0.73589515937E+01  0.25257716029E+02  0.51100000000E-03 0.  1.
         12    1    3    3    0    0 -0.19957281143E+01  0.72109794555E+00 -0.11489897455E+01  0.24131080350E+01  0.00000000000E+00 0. -1.
</event>
<event>
 7    1  0.2983653E-010  0.4778727E+02  0.7816164E-02  0.1312668E+00
        -11   -1    0    0    0    0  0.00000000000E+00  0.00000000000E+00  0.45593999997E+02  0.45594000000E+02  0.51100000000E-03 0. -1.
         11   -1    0    0    0    0 -0.00000000000E+00 -0.00000000000E+00 -0.45593999997E+02  0.45594000000E+02  0.51100000000E-03 0.  1.
    9900012    2    1    2    0    0 -0.27181486310E+02  0.23176654364E+02 -0.24650211085E+02  0.47787269452E+02  0.19999992740E+02 0.  0.
        -12    1    1    2    0    0  0.27181486310E+02 -0.23176654364E+02  0.24650211085E+02  0.43400730548E+02  0.00000000000E+00 0.  1.
         11    1    3    3    0    0 -0.71589462221E+01  0.23113777858E+01  0.95164149661E+00  0.75827831354E+01  0.51100000000E-03 0.  1.
        -11    1    3    3    0    0 -0.14757719710E+02  0.97051817663E+01 -0.19909465495E+02  0.26615177263E+02  0.51100000000E-03 0. -1.
        -12    1    3    3    0    0 -0.52648203782E+01  0.11160094812E+02 -0.56923870865E+01  0.13589309054E+02  0.00000000000E+00 0.  1.
</event>
<event>
 7    1  0.2983653E-010  0.4778727E+02  0.7816164E-02  0.1312668E+00
        -11   -1    0    0    0    0  0.00000000000E+00  0.00000000000E+00  0.45593999997E+02  0.45594000000E+02  0.51100000000E-03 0.  1.
         11   -1    0    0    0    0 -0.00000000000E+00 -0.00000000000E+00 -0.45593999997E+02  0.45594000000E+02  0.51100000000E-03 0. -1.
    9900012    2    1    2    0    0  0.31385005856E+02 -0.28664589399E+02 -0.87718804901E+01  0.47787272294E+02  0.20000005699E+02 0.  0.
        -12    1    1    2    0    0 -0.31385005856E+02  0.28664589399E+02  0.87718804901E+01  0.43400727706E+02  0.00000000000E+00 0.  1.
         11    1    3    3    0    0  0.16509889488E+02 -0.44902077898E+01 -0.50418749442E+01  0.17837009842E+02  0.51100000000E-03 0. -1.
        -11    1    3    3    0    0 -0.10913862217E+01 -0.60793421621E+00 -0.88715676931E-01  0.12524290913E+01  0.51100000000E-03 0.  1.
         12    1    3    3    0    0  0.15966502591E+02 -0.23566447393E+02 -0.36412898690E+01  0.28697833361E+02  0.00000000000E+00 0. -1.
</event>
<event>
 7    1  0.2983653E-010  0.4778727E+02  0.7816164E-02  0.1312668E+00
        -11   -1    0    0    0    0  0.00000000000E+00  0.00000000000E+00  0.45593999997E+02  0.45594000000E+02  0.51100000000E-03 0.  1.
         11   -1    0    0    0    0 -0.00000000000E+00 -0.00000000000E+00 -0.45593999997E+02  0.45594000000E+02  0.51100000000E-03 0. -1.
    9900012    2    1    2    0    0 -0.24317346479E+02 -0.35046457134E+02 -0.80022338186E+01  0.47787271395E+02  0.20000001596E+02 0.  0.
        -12    1    1    2    0    0  0.24317346479E+02  0.35046457134E+02  0.80022338186E+01  0.43400728605E+02  0.00000000000E+00 0.  1.
         11    1    3    3    0    0 -0.85046662156E+01 -0.73544993428E+01 -0.23200904851E+01  0.11480454178E+02  0.51100000000E-03 0. -1.
        -11    1    3    3    0    0 -0.37931612308E+01 -0.40814756796E+01 -0.79587284259E+01  0.97153422103E+01  0.51100000000E-03 0.  1.
        -12    1    3    3    0    0 -0.12019519032E+02 -0.23610482111E+02  0.22765850924E+01  0.26591475006E+02  0.00000000000E+00 0.  1.
</event>
<event>
 7    1  0.2983653E-010  0.4778726E+02  0.7816164E-02  0.1312668E+00
        -11   -1    0    0    0    0  0.00000000000E+00  0.00000000000E+00  0.45593999997E+02  0.45594000000E+02  0.51100000000E-03 0.  1.
         11   -1    0    0    0    0 -0.00000000000E+00 -0.00000000000E+00 -0.45593999997E+02  0.45594000000E+02  0.51100000000E-03 0. -1.
    9900012    2    1    2    0    0  0.64528633139E+00 -0.51779613351E+01 -0.43085916854E+02  0.47787263725E+02  0.19999966627E+02 0.  0.
        -12    1    1    2    0    0 -0.64528633139E+00  0.51779613351E+01  0.43085916854E+02  0.43400736275E+02  0.00000000000E+00 0.  1.
         11    1    3    3    0    0 -0.46281715416E+00 -0.76437544825E+00 -0.26580571483E+02  0.26595587043E+02  0.51100000000E-03 0. -1.
        -11    1    3    3    0    0  0.10636031684E+01 -0.28772652734E+01  0.12916750275E+01  0.33284128035E+01  0.51100000000E-03 0.  1.
        -12    1    3    3    0    0  0.44500317158E-01 -0.15363206135E+01 -0.17797020399E+02  0.17863263879E+02  0.00000000000E+00 0.  1.
</event>
<event>
 7    1  0.2983653E-010  0.4778727E+02  0.7816164E-02  0.1312668E+00
        -11   -1    0    0    0    0  0.00000000000E+00  0.00000000000E+00  0.45593999997E+02  0.45594000000E+02  0.51100000000E-03 0.  1.
         11   -1    0    0    0    0 -0.00000000000E+00 -0.00000000000E+00 -0.45593999997E+02  0.45594000000E+02  0.51100000000E-03 0. -1.
    9900012    2    1    2    0    0  0.28178881390E+02 -0.31658230926E+02 -0.93450935508E+01  0.47787265960E+02  0.19999976818E+02 0.  0.
        -12    1    1    2    0    0 -0.28178881390E+02  0.31658230926E+02  0.93450935508E+01  0.43400734040E+02  0.00000000000E+00 0.  1.
         11    1    3    3    0    0  0.96628588428E+00 -0.75162936123E+01  0.18187528976E+01  0.77933459079E+01  0.51100000000E-03 0. -1.
        -11    1    3    3    0    0  0.28448270955E+02 -0.22498419087E+02 -0.99645053734E+01  0.37613486269E+02  0.51100000000E-03 0.  1.
        -12    1    3    3    0    0 -0.12356754497E+01 -0.16435182269E+01 -0.11993410751E+01  0.23804337826E+01  0.00000000000E+00 0.  1.
</event>
<event>
 7    1  0.3752138E-010  0.4778730E+02  0.7816164E-02  0.1312668E+00
        -11   -1    0    0    0    0  0.00000000000E+00  0.00000000000E+00  0.45593999997E+02  0.45594000000E+02  0.51100000000E-03 0.  1.
         11   -1    0    0    0    0 -0.00000000000E+00 -0.00000000000E+00 -0.45593999997E+02  0.45594000000E+02  0.51100000000E-03 0. -1.
    9900012    2    1    2    0    0 -0.40668290104E+01 -0.42890073239E+02 -0.52462369410E+01  0.47787303201E+02  0.20000146614E+02 0.  0.
        -12    1    1    2    0    0  0.40668290104E+01  0.42890073239E+02  0.52462369410E+01  0.43400696799E+02  0.00000000000E+00 0.  1.
         11    1    3    3    0    0  0.15464590676E+01 -0.20831006004E+02  0.66197394585E+00  0.20898817109E+02  0.51100000000E-03 0. -1.
        -11    1    3    3    0    0  0.48092072414E+00 -0.78253279419E+01 -0.80740835992E+01  0.11254237796E+02  0.51100000000E-03 0.  1.
        -12    1    3    3    0    0 -0.60942088021E+01 -0.14233739293E+02  0.21658727123E+01  0.15634248296E+02  0.00000000000E+00 0.  1.
</event>
<event>
 7    1  0.2983653E-010  0.4778728E+02  0.7816164E-02  0.1312668E+00
        -11   -1    0    0    0    0  0.00000000000E+00  0.00000000000E+00  0.45593999997E+02  0.45594000000E+02  0.51100000000E-03 0.  1.
         11   -1    0    0    0    0 -0.00000000000E+00 -0.00000000000E+00 -0.45593999997E+02  0.45594000000E+02  0.51100000000E-03 0. -1.
    9900012    2    1    2    0    0 -0.29965972038E+02 -0.26087252858E+02  0.17467641801E+02  0.47787277057E+02  0.20000027413E+02 0.  0.
        -12    1    1    2    0    0  0.29965972038E+02  0.26087252858E+02 -0.17467641801E+02  0.43400722943E+02  0.00000000000E+00 0.  1.
         11    1    3    3    0    0 -0.11584375719E+02 -0.19475083294E+02  0.11933054351E+02  0.25610045227E+02  0.51100000000E-03 0. -1.
        -11    1    3    3    0    0 -0.18214897479E+02 -0.50487751379E+01  0.68729937508E+01  0.20112450471E+02  0.51100000000E-03 0.  1.
         12    1    3    3    0    0 -0.16669883942E+00 -0.15633944266E+01 -0.13384063008E+01  0.20647813594E+01  0.00000000000E+00 0. -1.
</event>
<event>
 7    1  0.2983653E-010  0.4778728E+02  0.7816164E-02  0.1312668E+00
        -11   -1    0    0    0    0  0.00000000000E+00  0.00000000000E+00  0.45593999997E+02  0.45594000000E+02  0.51100000000E-03 0. -1.
         11   -1    0    0    0    0 -0.00000000000E+00 -0.00000000000E+00 -0.45593999997E+02  0.45594000000E+02  0.51100000000E-03 0.  1.
    9900012    2    1    2    0    0 -0.32597687637E+02  0.26187440758E+02  0.11628911740E+02  0.47787275571E+02  0.20000020636E+02 0.  0.
        -12    1    1    2    0    0  0.32597687637E+02 -0.26187440758E+02 -0.11628911740E+02  0.43400724429E+02  0.00000000000E+00 0.  1.
         11    1    3    3    0    0 -0.10557429110E+02  0.64945963496E+01  0.79659364015E+01  0.14734151967E+02  0.51100000000E-03 0. -1.
        -11    1    3    3    0    0 -0.42797849218E+01  0.46977153411E+01  0.71309585146E+01  0.95517358632E+01  0.51100000000E-03 0.  1.
        -12    1    3    3    0    0 -0.17760473605E+02  0.14995129068E+02 -0.34679831763E+01  0.23501387741E+02  0.00000000000E+00 0.  1.
</event>
<event>
 7    1  0.2983653E-010  0.4778727E+02  0.7816164E-02  0.1312668E+00
        -11   -1    0    0    0    0  0.00000000000E+00  0.00000000000E+00  0.45593999997E+02  0.45594000000E+02  0.51100000000E-03 0.  1.
         11   -1    0    0    0    0 -0.00000000000E+00 -0.00000000000E+00 -0.45593999997E+02  0.45594000000E+02  0.51100000000E-03 0. -1.
    9900012    2    1    2    0    0  0.17031521622E+02  0.14309369185E+02 -0.37266507260E+02  0.47787270299E+02  0.19999996602E+02 0.  0.
        -12    1    1    2    0    0 -0.17031521622E+02 -0.14309369185E+02  0.37266507260E+02  0.43400729701E+02  0.00000000000E+00 0.  1.
         11    1    3    3    0    0  0.12376916133E+02  0.10613029261E+02 -0.22892279876E+02  0.28104820249E+02  0.51100000000E-03 0. -1.
        -11    1    3    3    0    0 -0.35909214832E+01  0.34146820199E+01 -0.72513091416E+01  0.87827248006E+01  0.51100000000E-03 0.  1.
         12    1    3    3    0    0  0.82455269723E+01  0.28165790378E+00 -0.71229182428E+01  0.10899725250E+02  0.00000000000E+00 0. -1.
</event>
<event>
 7    1  0.2983653E-010  0.4778728E+02  0.7816164E-02  0.1312668E+00
        -11   -1    0    0    0    0  0.00000000000E+00  0.00000000000E+00  0.45593999997E+02  0.45594000000E+02  0.51100000000E-03 0. -1.
         11   -1    0    0    0    0 -0.00000000000E+00 -0.00000000000E+00 -0.45593999997E+02  0.45594000000E+02  0.51100000000E-03 0.  1.
    9900012    2    1    2    0    0  0.13960986903E+02  0.19512754896E+02  0.36165808201E+02  0.47787280630E+02  0.20000043705E+02 0.  0.
        -12    1    1    2    0    0 -0.13960986903E+02 -0.19512754896E+02 -0.36165808201E+02  0.43400719370E+02  0.00000000000E+00 0.  1.
         11    1    3    3    0    0  0.21189468873E+01  0.14711653432E+02  0.17395197908E+02  0.22880463132E+02  0.51100000000E-03 0.  1.
        -11    1    3    3    0    0  0.56590946257E+01  0.12596401769E+00  0.15486046424E+02  0.16488142801E+02  0.51100000000E-03 0. -1.
         12    1    3    3    0    0  0.61829453903E+01  0.46751374464E+01  0.32845638689E+01  0.84186746968E+01  0.00000000000E+00 0. -1.
</event>
<event>
 7    1  0.2983653E-010  0.4778727E+02  0.7816164E-02  0.1312668E+00
        -11   -1    0    0    0    0  0.00000000000E+00  0.00000000000E+00  0.45593999997E+02  0.45594000000E+02  0.51100000000E-03 0.  1.
         11   -1    0    0    0    0 -0.00000000000E+00 -0.00000000000E+00 -0.45593999997E+02  0.45594000000E+02  0.51100000000E-03 0. -1.
    9900012    2    1    2    0    0 -0.19498415487E+01  0.55420307433E+01 -0.43001247646E+02  0.47787270905E+02  0.19999999365E+02 0.  0.
        -12    1    1    2    0    0  0.19498415487E+01 -0.55420307433E+01  0.43001247646E+02  0.43400729095E+02  0.00000000000E+00 0.  1.
         11    1    3    3    0    0 -0.50276996462E+01  0.59559059943E+01 -0.15500666558E+02  0.17349963803E+02  0.51100000000E-03 0. -1.
        -11    1    3    3    0    0 -0.40210199115E+01  0.15937464817E+01 -0.17399442731E+02  0.17929005454E+02  0.51100000000E-03 0.  1.
        -12    1    3    3    0    0  0.70988780090E+01 -0.20076217328E+01 -0.10101138357E+02  0.12508301648E+02  0.00000000000E+00 0.  1.
</event>
<event>
 7    1  0.4428075E-010  0.4778727E+02  0.7816164E-02  0.1312668E+00
        -11   -1    0    0    0    0  0.00000000000E+00  0.00000000000E+00  0.45593999997E+02  0.45594000000E+02  0.51100000000E-03 0. -1.
         11   -1    0    0    0    0 -0.00000000000E+00 -0.00000000000E+00 -0.45593999997E+02  0.45594000000E+02  0.51100000000E-03 0.  1.
    9900012    2    1    2    0    0  0.96121843509E+00  0.11861485823E+02  0.41737323656E+02  0.47787274513E+02  0.20000015815E+02 0.  0.
        -12    1    1    2    0    0 -0.96121843509E+00 -0.11861485823E+02 -0.41737323656E+02  0.43400725487E+02  0.00000000000E+00 0.  1.
         11    1    3    3    0    0 -0.10185681422E+01  0.43972251088E+01  0.24343471302E+02  0.24758385751E+02  0.51100000000E-03 0. -1.
        -11    1    3    3    0    0  0.54782917758E+01  0.94591987887E+01  0.11277797038E+02  0.15705948834E+02  0.51100000000E-03 0.  1.
        -12    1    3    3    0    0 -0.34985051986E+01 -0.19949380742E+01  0.61160553164E+01  0.73229399272E+01  0.00000000000E+00 0.  1.
</event>
<event>
 7    1  0.2983653E-010  0.4778729E+02  0.7816164E-02  0.1312668E+00
        -11   -1    0    0    0    0  0.00000000000E+00  0.00000000000E+00  0.45593999997E+02  0.45594000000E+02  0.51100000000E-03 0.  1.
         11   -1    0    0    0    0 -0.00000000000E+00 -0.00000000000E+00 -0.45593999997E+02  0.45594000000E+02  0.51100000000E-03 0. -1.
    9900012    2    1    2    0    0 -0.23694384856E+02 -0.11744820740E+02 -0.34413037225E+02  0.47787287806E+02  0.20000076421E+02 0.  0.
        -12    1    1    2    0    0  0.23694384856E+02  0.11744820740E+02  0.34413037225E+02  0.43400712194E+02  0.00000000000E+00 0.  1.
         11    1    3    3    0    0 -0.16771217937E+02 -0.44853110254E+01 -0.10835899182E+02  0.20464810710E+02  0.51100000000E-03 0. -1.
        -11    1    3    3    0    0 -0.41388451051E+01  0.98678486419E+00 -0.37596236908E+01  0.56779004685E+01  0.51100000000E-03 0.  1.
         12    1    3    3    0    0 -0.27843218141E+01 -0.82462945784E+01 -0.19817514353E+02  0.21644576627E+02  0.00000000000E+00 0. -1.
</event>
<event>
 7    1  0.2983653E-010  0.4778727E+02  0.7816164E-02  0.1312668E+00
        -11   -1    0    0    0    0  0.00000000000E+00  0.00000000000E+00  0.45593999997E+02  0.45594000000E+02  0.51100000000E-03 0. -1.
         11   -1    0    0    0    0 -0.00000000000E+00 -0.00000000000E+00 -0.45593999997E+02  0.45594000000E+02  0.51100000000E-03 0.  1.
    9900012    2    1    2    0    0 -0.88116595439E+01 -0.42492262558E+02  0.62078085187E+00  0.47787273161E+02  0.20000009652E+02 0.  0.
        -12    1    1    2    0    0  0.88116595439E+01  0.42492262558E+02 -0.62078085187E+00  0.43400726839E+02  0.00000000000E+00 0.  1.
         11    1    3    3    0    0 -0.11739979735E+02 -0.20781430479E+02  0.44882744728E+01  0.24286613287E+02  0.51100000000E-03 0. -1.
        -11    1    3    3    0    0 -0.22922926227E+01 -0.45129832109E+01 -0.19558322160E+01  0.54265000551E+01  0.51100000000E-03 0.  1.
         12    1    3    3    0    0  0.52206128138E+01 -0.17197848868E+02 -0.19116614049E+01  0.18074159819E+02  0.00000000000E+00 0. -1.
</event>
<event>
 7    1  0.2983653E-010  0.4778727E+02  0.7816164E-02  0.1312668E+00
        -11   -1    0    0    0    0  0.00000000000E+00  0.00000000000E+00  0.45593999997E+02  0.45594000000E+02  0.51100000000E-03 0.  1.
         11   -1    0    0    0    0 -0.00000000000E+00 -0.00000000000E+00 -0.45593999997E+02  0.45594000000E+02  0.51100000000E-03 0. -1.
    9900012    2    1    2    0    0 -0.31668287129E+02  0.28519875769E+02  0.82072866792E+01  0.47787270995E+02  0.19999999773E+02 0.  0.
        -12    1    1    2    0    0  0.31668287129E+02 -0.28519875769E+02 -0.82072866792E+01  0.43400729005E+02  0.00000000000E+00 0.  1.
         11    1    3    3    0    0 -0.69438236692E+01  0.10644826006E+02 -0.20660524814E+01  0.12876240949E+02  0.51100000000E-03 0.  1.
        -11    1    3    3    0    0 -0.16834735150E+02  0.12042313529E+02 -0.91164571265E-02  0.20698446949E+02  0.51100000000E-03 0. -1.
        -12    1    3    3    0    0 -0.78897283098E+01  0.58327362333E+01  0.10282455618E+02  0.14212583097E+02  0.00000000000E+00 0.  1.
</event>
<event>
 7    1  0.2983653E-010  0.4778728E+02  0.7816164E-02  0.1312668E+00
        -11   -1    0    0    0    0  0.00000000000E+00  0.00000000000E+00  0.45593999997E+02  0.45594000000E+02  0.51100000000E-03 0.  1.
         11   -1    0    0    0    0 -0.00000000000E+00 -0.00000000000E+00 -0.45593999997E+02  0.45594000000E+02  0.51100000000E-03 0. -1.
    9900012    2    1    2    0    0 -0.42685925128E+02 -0.67023833020E+01 -0.40758750360E+01  0.47787275314E+02  0.20000019467E+02 0.  0.
        -12    1    1    2    0    0  0.42685925128E+02  0.67023833020E+01  0.40758750360E+01  0.43400724686E+02  0.00000000000E+00 0.  1.
         11    1    3    3    0    0 -0.17627252481E+01 -0.53255874148E+01 -0.37663575021E+01  0.67568136505E+01  0.51100000000E-03 0. -1.
        -11    1    3    3    0    0 -0.18281834241E+02  0.52771545861E+00  0.47468317302E+00  0.18295607976E+02  0.51100000000E-03 0.  1.
         12    1    3    3    0    0 -0.22641365639E+02 -0.19045113457E+01 -0.78420070697E+00  0.22734853688E+02  0.00000000000E+00 0. -1.
</event>
<event>
 7    1  0.2983653E-010  0.4778727E+02  0.7816164E-02  0.1312668E+00
        -11   -1    0    0    0    0  0.00000000000E+00  0.00000000000E+00  0.45593999997E+02  0.45594000000E+02  0.51100000000E-03 0.  1.
         11   -1    0    0    0    0 -0.00000000000E+00 -0.00000000000E+00 -0.45593999997E+02  0.45594000000E+02  0.51100000000E-03 0. -1.
    9900012    2    1    2    0    0  0.31516675079E+02  0.26650722884E+02 -0.13418692964E+02  0.47787272366E+02  0.20000006025E+02 0.  0.
        -12    1    1    2    0    0 -0.31516675079E+02 -0.26650722884E+02  0.13418692964E+02  0.43400727634E+02  0.00000000000E+00 0.  1.
         11    1    3    3    0    0  0.20340835485E+02  0.15669195977E+02 -0.16171650440E+02  0.30344613509E+02  0.51100000000E-03 0. -1.
        -11    1    3    3    0    0  0.68058524161E+01  0.10892617524E+02  0.23004980748E+01  0.13048411217E+02  0.51100000000E-03 0.  1.
         12    1    3    3    0    0  0.43699871781E+01  0.88909383786E-01  0.45245940120E+00  0.43942476404E+01  0.00000000000E+00 0. -1.
</event>
<event>
 7    1  0.2983653E-010  0.4778728E+02  0.7816164E-02  0.1312668E+00
        -11   -1    0    0    0    0  0.00000000000E+00  0.00000000000E+00  0.45593999997E+02  0.45594000000E+02  0.51100000000E-03 0.  1.
         11   -1    0    0    0    0 -0.00000000000E+00 -0.00000000000E+00 -0.45593999997E+02  0.45594000000E+02  0.51100000000E-03 0. -1.
    9900012    2    1    2    0    0 -0.10272254259E+02  0.12406805702E+02 -0.40301052488E+02  0.47787275733E+02  0.20000021378E+02 0.  0.
        -12    1    1    2    0    0  0.10272254259E+02 -0.12406805702E+02  0.40301052488E+02  0.43400724267E+02  0.00000000000E+00 0.  1.
         11    1    3    3    0    0 -0.84485285122E+00  0.88079599205E+01 -0.26619407660E+02  0.28051502611E+02  0.51100000000E-03 0. -1.
        -11    1    3    3    0    0 -0.11124994808E+02  0.19558302591E+01 -0.88224312382E+01  0.14332692514E+02  0.51100000000E-03 0.  1.
        -12    1    3    3    0    0  0.16975934002E+01  0.16430155219E+01 -0.48592135896E+01  0.54030806089E+01  0.00000000000E+00 0.  1.
</event>
<event>
 7    1  0.2983653E-010  0.4778727E+02  0.7816164E-02  0.1312668E+00
        -11   -1    0    0    0    0  0.00000000000E+00  0.00000000000E+00  0.45593999997E+02  0.45594000000E+02  0.51100000000E-03 0. -1.
         11   -1    0    0    0    0 -0.00000000000E+00 -0.00000000000E+00 -0.45593999997E+02  0.45594000000E+02  0.51100000000E-03 0.  1.
    9900012    2    1    2    0    0  0.13174160953E+02 -0.24734220504E+02  0.33140354404E+02  0.47787271080E+02  0.20000000163E+02 0.  0.
        -12    1    1    2    0    0 -0.13174160953E+02  0.24734220504E+02 -0.33140354404E+02  0.43400728920E+02  0.00000000000E+00 0.  1.
         11    1    3    3    0    0  0.37890313463E+01 -0.10400172973E+02  0.99031407382E+01  0.14852358505E+02  0.51100000000E-03 0. -1.
        -11    1    3    3    0    0  0.33759452058E+01  0.27067488121E+01  0.88000475858E+01  0.98063414655E+01  0.51100000000E-03 0.  1.
        -12    1    3    3    0    0  0.60091844010E+01 -0.17040796343E+02  0.14437166080E+02  0.23128571110E+02  0.00000000000E+00 0.  1.
</event>
<event>
 7    1  0.2983653E-010  0.4778726E+02  0.7816164E-02  0.1312668E+00
        -11   -1    0    0    0    0  0.00000000000E+00  0.00000000000E+00  0.45593999997E+02  0.45594000000E+02  0.51100000000E-03 0.  1.
         11   -1    0    0    0    0 -0.00000000000E+00 -0.00000000000E+00 -0.45593999997E+02  0.45594000000E+02  0.51100000000E-03 0. -1.
    9900012    2    1    2    0    0  0.32250084813E+02 -0.15883514040E+02 -0.24316052843E+02  0.47787257903E+02  0.19999940082E+02 0.  0.
        -12    1    1    2    0    0 -0.32250084813E+02  0.15883514040E+02  0.24316052843E+02  0.43400742097E+02  0.00000000000E+00 0.  1.
         11    1    3    3    0    0  0.11641286492E+02 -0.68540737996E+00 -0.13706958665E+02  0.17996389932E+02  0.51100000000E-03 0. -1.
        -11    1    3    3    0    0  0.91713669383E+01 -0.13248301919E+02 -0.75364287381E+01  0.17788457877E+02  0.51100000000E-03 0.  1.
        -12    1    3    3    0    0  0.11437431383E+02 -0.19498047408E+01 -0.30726654400E+01  0.12002410094E+02  0.00000000000E+00 0.  1.
</event>
<event>
 7    1  0.2983653E-010  0.4778726E+02  0.7816164E-02  0.1312668E+00
        -11   -1    0    0    0    0  0.00000000000E+00  0.00000000000E+00  0.45593999997E+02  0.45594000000E+02  0.51100000000E-03 0. -1.
         11   -1    0    0    0    0 -0.00000000000E+00 -0.00000000000E+00 -0.45593999997E+02  0.45594000000E+02  0.51100000000E-03 0.  1.
    9900012    2    1    2    0    0 -0.10847902928E+02 -0.41944703489E+02  0.25669114847E+01  0.47787260568E+02  0.19999952232E+02 0.  0.
        -12    1    1    2    0    0  0.10847902928E+02  0.41944703489E+02 -0.25669114847E+01  0.43400739432E+02  0.00000000000E+00 0.  1.
         11    1    3    3    0    0 -0.15132541269E+02 -0.19629999635E+02  0.13511388583E+01  0.24822495189E+02  0.51100000000E-03 0. -1.
        -11    1    3    3    0    0  0.46376893397E+01 -0.18760808966E+02  0.14898683527E+01  0.19382874488E+02  0.51100000000E-03 0.  1.
         12    1    3    3    0    0 -0.35305099847E+00 -0.35538948881E+01 -0.27409572625E+00  0.35818908904E+01  0.00000000000E+00 0. -1.
</event>
<event>
 7    1  0.2983653E-010  0.4778727E+02  0.7816164E-02  0.1312668E+00
        -11   -1    0    0    0    0  0.00000000000E+00  0.00000000000E+00  0.45593999997E+02  0.45594000000E+02  0.51100000000E-03 0. -1.
         11   -1    0    0    0    0 -0.00000000000E+00 -0.00000000000E+00 -0.45593999997E+02  0.45594000000E+02  0.51100000000E-03 0.  1.
    9900012    2    1    2    0    0 -0.36930594725E+02  0.22154904391E+02 -0.53772405610E+01  0.47787270382E+02  0.19999996981E+02 0.  0.
        -12    1    1    2    0    0  0.36930594725E+02 -0.22154904391E+02  0.53772405610E+01  0.43400729618E+02  0.00000000000E+00 0.  1.
         11    1    3    3    0    0 -0.28313035911E+02  0.20309431175E+02 -0.70063013079E+01  0.35541373854E+02  0.51100000000E-03 0. -1.
        -11    1    3    3    0    0 -0.93592138399E+01 -0.49881135749E+00  0.23892864259E+01  0.96722482577E+01  0.51100000000E-03 0.  1.
        -12    1    3    3    0    0  0.74165502582E+00  0.23442845732E+01 -0.76022567903E+00  0.25736482705E+01  0.00000000000E+00 0.  1.
</event>
<event>
 7    1  0.2983653E-010  0.4778727E+02  0.7816164E-02  0.1312668E+00
        -11   -1    0    0    0    0  0.00000000000E+00  0.00000000000E+00  0.45593999997E+02  0.45594000000E+02  0.51100000000E-03 0.  1.
         11   -1    0    0    0    0 -0.00000000000E+00 -0.00000000000E+00 -0.45593999997E+02  0.45594000000E+02  0.51100000000E-03 0. -1.
    9900012    2    1    2    0    0 -0.99281708842E+01 -0.30006136370E+02 -0.29743687387E+02  0.47787265717E+02  0.19999975709E+02 0.  0.
        -12    1    1    2    0    0  0.99281708842E+01  0.30006136370E+02  0.29743687387E+02  0.43400734283E+02  0.00000000000E+00 0.  1.
         11    1    3    3    0    0 -0.69843213729E+01 -0.12560575920E+02 -0.40371502582E+01  0.14928074054E+02  0.51100000000E-03 0. -1.
        -11    1    3    3    0    0 -0.59486432862E+01 -0.11548035606E+02 -0.21160045746E+02  0.24829237192E+02  0.51100000000E-03 0.  1.
        -12    1    3    3    0    0  0.30047937749E+01 -0.58975248441E+01 -0.45464913830E+01  0.80299544714E+01  0.00000000000E+00 0.  1.
</event>
<event>
 7    1  0.2983653E-010  0.4778727E+02  0.7816164E-02  0.1312668E+00
        -11   -1    0    0    0    0  0.00000000000E+00  0.00000000000E+00  0.45593999997E+02  0.45594000000E+02  0.51100000000E-03 0.  1.
         11   -1    0    0    0    0 -0.00000000000E+00 -0.00000000000E+00 -0.45593999997E+02  0.45594000000E+02  0.51100000000E-03 0. -1.
    9900012    2    1    2    0    0  0.19033731984E+01  0.40816783055E+02 -0.14628436934E+02  0.47787265264E+02  0.19999973645E+02 0.  0.
        -12    1    1    2    0    0 -0.19033731984E+01 -0.40816783055E+02  0.14628436934E+02  0.43400734736E+02  0.00000000000E+00 0.  1.
         11    1    3    3    0    0 -0.20722544602E+01  0.36307860337E+01  0.35547511940E+01  0.54875406225E+01  0.51100000000E-03 0. -1.
        -11    1    3    3    0    0  0.15141185862E+01  0.11561126009E+01 -0.18798212254E+01  0.26763556452E+01  0.51100000000E-03 0.  1.
         12    1    3    3    0    0  0.24615090724E+01  0.36029884420E+02 -0.16303366903E+02  0.39623368996E+02  0.00000000000E+00 0. -1.
</event>
<event>
 7    1  0.2983653E-010  0.4778727E+02  0.7816164E-02  0.1312668E+00
        -11   -1    0    0    0    0  0.00000000000E+00  0.00000000000E+00  0.45593999997E+02  0.45594000000E+02  0.51100000000E-03 0.  1.
         11   -1    0    0    0    0 -0.00000000000E+00 -0.00000000000E+00 -0.45593999997E+02  0.45594000000E+02  0.51100000000E-03 0. -1.
    9900012    2    1    2    0    0 -0.68201249741E+01  0.42448883782E+02 -0.59330809794E+01  0.47787270871E+02  0.19999999210E+02 0.  0.
        -12    1    1    2    0    0  0.68201249741E+01 -0.42448883782E+02  0.59330809794E+01  0.43400729129E+02  0.00000000000E+00 0.  1.
         11    1    3    3    0    0 -0.13736996187E+01  0.21635596085E+02 -0.11192482872E+02  0.24397904453E+02  0.51100000000E-03 0. -1.
        -11    1    3    3    0    0 -0.69593831545E+01  0.12282185246E+02  0.35832154773E+01  0.14564495244E+02  0.51100000000E-03 0.  1.
        -12    1    3    3    0    0  0.15129577992E+01  0.85311024511E+01  0.16761864154E+01  0.88248711737E+01  0.00000000000E+00 0.  1.
</event>
<event>
 7    1  0.2983653E-010  0.4778727E+02  0.7816164E-02  0.1312668E+00
        -11   -1    0    0    0    0  0.00000000000E+00  0.00000000000E+00  0.45593999997E+02  0.45594000000E+02  0.51100000000E-03 0.  1.
         11   -1    0    0    0    0 -0.00000000000E+00 -0.00000000000E+00 -0.45593999997E+02  0.45594000000E+02  0.51100000000E-03 0. -1.
    9900012    2    1    2    0    0  0.52375038409E+01  0.10594335115E+02 -0.41760649590E+02  0.47787271467E+02  0.20000001928E+02 0.  0.
        -12    1    1    2    0    0 -0.52375038409E+01 -0.10594335115E+02  0.41760649590E+02  0.43400728533E+02  0.00000000000E+00 0.  1.
         11    1    3    3    0    0  0.53241182444E+01  0.21975703048E+01 -0.36908699483E+02  0.37355423276E+02  0.51100000000E-03 0. -1.
        -11    1    3    3    0    0  0.86833543701E+00  0.80132509711E+01 -0.36458289462E+01  0.88463702457E+01  0.51100000000E-03 0.  1.
         12    1    3    3    0    0 -0.95494984055E+00  0.38351383899E+00 -0.12061211606E+01  0.15854779458E+01  0.00000000000E+00 0. -1.
</event>
<event>
 7    1  0.2983653E-010  0.4778727E+02  0.7816164E-02  0.1312668E+00
        -11   -1    0    0    0    0  0.00000000000E+00  0.00000000000E+00  0.45593999997E+02  0.45594000000E+02  0.51100000000E-03 0.  1.
         11   -1    0    0    0    0 -0.00000000000E+00 -0.00000000000E+00 -0.45593999997E+02  0.45594000000E+02  0.51100000000E-03 0. -1.
    9900012    2    1    2    0    0 -0.14232312732E+02  0.74604563975E+01 -0.40316323886E+02  0.47787272966E+02  0.20000008762E+02 0.  0.
        -12    1    1    2    0    0  0.14232312732E+02 -0.74604563975E+01  0.40316323886E+02  0.43400727034E+02  0.00000000000E+00 0.  1.
         11    1    3    3    0    0 -0.89251828469E+01  0.82941419128E+01 -0.19610633520E+02  0.23087412723E+02  0.51100000000E-03 0. -1.
        -11    1    3    3    0    0 -0.14140774405E+00 -0.54216438869E+01 -0.14238021523E+02  0.15235992771E+02  0.51100000000E-03 0.  1.
        -12    1    3    3    0    0 -0.51657221411E+01  0.45879583716E+01 -0.64676688437E+01  0.94638674721E+01  0.00000000000E+00 0.  1.
</event>
<event>
 7    1  0.2983653E-010  0.4778727E+02  0.7816164E-02  0.1312668E+00
        -11   -1    0    0    0    0  0.00000000000E+00  0.00000000000E+00  0.45593999997E+02  0.45594000000E+02  0.51100000000E-03 0.  1.
         11   -1    0    0    0    0 -0.00000000000E+00 -0.00000000000E+00 -0.45593999997E+02  0.45594000000E+02  0.51100000000E-03 0. -1.
    9900012    2    1    2    0    0 -0.27929238620E+02  0.23753847738E+02 -0.23223597222E+02  0.47787272815E+02  0.20000008071E+02 0.  0.
        -12    1    1    2    0    0  0.27929238620E+02 -0.23753847738E+02  0.23223597222E+02  0.43400727185E+02  0.00000000000E+00 0.  1.
         11    1    3    3    0    0 -0.96183859821E+01  0.72010045602E+01  0.89568924195E+00  0.12048654492E+02  0.51100000000E-03 0.  1.
        -11    1    3    3    0    0 -0.16815463487E+02  0.17649950460E+02 -0.23260806700E+02  0.33694891187E+02  0.51100000000E-03 0. -1.
        -12    1    3    3    0    0 -0.14953891507E+01 -0.10971072816E+01 -0.85847976426E+00  0.20437271357E+01  0.00000000000E+00 0.  1.
</event>
<event>
 7    1  0.2983653E-010  0.4778727E+02  0.7816164E-02  0.1312668E+00
        -11   -1    0    0    0    0  0.00000000000E+00  0.00000000000E+00  0.45593999997E+02  0.45594000000E+02  0.51100000000E-03 0. -1.
         11   -1    0    0    0    0 -0.00000000000E+00 -0.00000000000E+00 -0.45593999997E+02  0.45594000000E+02  0.51100000000E-03 0.  1.
    9900012    2    1    2    0    0  0.42969631718E+02 -0.60769449751E+01 -0.55231786272E+00  0.47787267688E+02  0.19999984698E+02 0.  0.
        -12    1    1    2    0    0 -0.42969631718E+02  0.60769449751E+01  0.55231786272E+00  0.43400732312E+02  0.00000000000E+00 0.  1.
         11    1    3    3    0    0  0.26022469489E+02 -0.11022049802E+02 -0.36019635391E+00  0.28262771305E+02  0.51100000000E-03 0. -1.
        -11    1    3    3    0    0  0.17910938307E+02  0.45351433711E+01 -0.18889806894E+00  0.18477145862E+02  0.51100000000E-03 0.  1.
         12    1    3    3    0    0 -0.96377607891E+00  0.40996145561E+00 -0.32234398646E-02  0.10473505220E+01  0.00000000000E+00 0. -1.
</event>
<event>
 7    1  0.2983653E-010  0.4778727E+02  0.7816164E-02  0.1312668E+00
        -11   -1    0    0    0    0  0.00000000000E+00  0.00000000000E+00  0.45593999997E+02  0.45594000000E+02  0.51100000000E-03 0. -1.
         11   -1    0    0    0    0 -0.00000000000E+00 -0.00000000000E+00 -0.45593999997E+02  0.45594000000E+02  0.51100000000E-03 0.  1.
    9900012    2    1    2    0    0  0.63141528424E+01 -0.14594564418E+02  0.40382590699E+02  0.47787268806E+02  0.19999989793E+02 0.  0.
        -12    1    1    2    0    0 -0.63141528424E+01  0.14594564418E+02 -0.40382590699E+02  0.43400731194E+02  0.00000000000E+00 0.  1.
         11    1    3    3    0    0  0.50325632906E+01 -0.18809713528E+01  0.28723801946E+02  0.29221936025E+02  0.51100000000E-03 0. -1.
        -11    1    3    3    0    0 -0.25625797833E+01 -0.77821536383E+01  0.64579107996E+01  0.10432322012E+02  0.51100000000E-03 0.  1.
         12    1    3    3    0    0  0.38441693352E+01 -0.49314394271E+01  0.52008779525E+01  0.81330107695E+01  0.00000000000E+00 0. -1.
</event>
<event>
 7    1  0.2983653E-010  0.4778727E+02  0.7816164E-02  0.1312668E+00
        -11   -1    0    0    0    0  0.00000000000E+00  0.00000000000E+00  0.45593999997E+02  0.45594000000E+02  0.51100000000E-03 0.  1.
         11   -1    0    0    0    0 -0.00000000000E+00 -0.00000000000E+00 -0.45593999997E+02  0.45594000000E+02  0.51100000000E-03 0. -1.
    9900012    2    1    2    0    0 -0.28372631232E+02 -0.32075478714E+02 -0.70555293923E+01  0.47787273822E+02  0.20000012663E+02 0.  0.
        -12    1    1    2    0    0  0.28372631232E+02  0.32075478714E+02  0.70555293923E+01  0.43400726178E+02  0.00000000000E+00 0.  1.
         11    1    3    3    0    0 -0.15003862901E+02 -0.12062363919E+02 -0.53407541063E+01  0.19978492935E+02  0.51100000000E-03 0. -1.
        -11    1    3    3    0    0  0.28648411841E+01 -0.23400090324E+01  0.38915568090E+00  0.37194622846E+01  0.51100000000E-03 0.  1.
        -12    1    3    3    0    0 -0.16233609515E+02 -0.17673105763E+02 -0.21039309669E+01  0.24089318602E+02  0.00000000000E+00 0.  1.
</event>
<event>
 7    1  0.2983653E-010  0.4778727E+02  0.7816164E-02  0.1312668E+00
        -11   -1    0    0    0    0  0.00000000000E+00  0.00000000000E+00  0.45593999997E+02  0.45594000000E+02  0.51100000000E-03 0.  1.
         11   -1    0    0    0    0 -0.00000000000E+00 -0.00000000000E+00 -0.45593999997E+02  0.45594000000E+02  0.51100000000E-03 0. -1.
    9900012    2    1    2    0    0  0.39191704036E+02 -0.12811960384E+02 -0.13545741590E+02  0.47787272940E+02  0.20000008643E+02 0.  0.
        -12    1    1    2    0    0 -0.39191704036E+02  0.12811960384E+02  0.13545741590E+02  0.43400727060E+02  0.00000000000E+00 0.  1.
         11    1    3    3    0    0  0.12276267293E+02 -0.45736773957E+01 -0.70822064927E+01  0.14892377669E+02  0.51100000000E-03 0. -1.
        -11    1    3    3    0    0  0.27139680347E+02 -0.11144223628E+02 -0.58318190368E+01  0.29912640859E+02  0.51100000000E-03 0.  1.
        -12    1    3    3    0    0 -0.22424360427E+00  0.29059406400E+01 -0.63171606030E+00  0.29822544121E+01  0.00000000000E+00 0.  1.
</event>
<event>
 7    1  0.2983653E-010  0.4778725E+02  0.7816164E-02  0.1312668E+00
        -11   -1    0    0    0    0  0.00000000000E+00  0.00000000000E+00  0.45593999997E+02  0.45594000000E+02  0.51100000000E-03 0.  1.
         11   -1    0    0    0    0 -0.00000000000E+00 -0.00000000000E+00 -0.45593999997E+02  0.45594000000E+02  0.51100000000E-03 0. -1.
    9900012    2    1    2    0    0 -0.33991720426E+02 -0.17428806365E+02 -0.20601575964E+02  0.47787247921E+02  0.19999894570E+02 0.  0.
        -12    1    1    2    0    0  0.33991720426E+02  0.17428806365E+02  0.20601575964E+02  0.43400752079E+02  0.00000000000E+00 0.  1.
         11    1    3    3    0    0 -0.16000718430E+02 -0.14854894189E+02 -0.13578378645E+02  0.25711150082E+02  0.51100000000E-03 0.  1.
        -11    1    3    3    0    0 -0.11886548111E+02  0.34252943871E+01 -0.41531871609E+01  0.13048817244E+02  0.51100000000E-03 0. -1.
         12    1    3    3    0    0 -0.61044538850E+01 -0.59992065636E+01 -0.28700101587E+01  0.90272805948E+01  0.00000000000E+00 0. -1.
</event>
<event>
 7    1  0.2983653E-010  0.4778725E+02  0.7816164E-02  0.1312668E+00
        -11   -1    0    0    0    0  0.00000000000E+00  0.00000000000E+00  0.45593999997E+02  0.45594000000E+02  0.51100000000E-03 0.  1.
         11   -1    0    0    0    0 -0.00000000000E+00 -0.00000000000E+00 -0.45593999997E+02  0.45594000000E+02  0.51100000000E-03 0. -1.
    9900012    2    1    2    0    0 -0.22753059124E+01 -0.30290259407E+02 -0.30999159041E+02  0.47787254693E+02  0.19999925446E+02 0.  0.
        -12    1    1    2    0    0  0.22753059124E+01  0.30290259407E+02  0.30999159041E+02  0.43400745307E+02  0.00000000000E+00 0.  1.
         11    1    3    3    0    0 -0.79321961037E+01 -0.19261137057E+02 -0.15034840571E+02  0.25689639293E+02  0.51100000000E-03 0. -1.
        -11    1    3    3    0    0  0.70371215779E+01 -0.46071353738E+01 -0.11085727689E+02  0.13915463885E+02  0.51100000000E-03 0.  1.
        -12    1    3    3    0    0 -0.13802313866E+01 -0.64219869764E+01 -0.48785907810E+01  0.81821515150E+01  0.00000000000E+00 0.  1.
</event>
<event>
 7    1  0.2983653E-010  0.4778727E+02  0.7816164E-02  0.1312668E+00
        -11   -1    0    0    0    0  0.00000000000E+00  0.00000000000E+00  0.45593999997E+02  0.45594000000E+02  0.51100000000E-03 0. -1.
         11   -1    0    0    0    0 -0.00000000000E+00 -0.00000000000E+00 -0.45593999997E+02  0.45594000000E+02  0.51100000000E-03 0.  1.
    9900012    2    1    2    0    0 -0.20808726686E+02 -0.37575699008E+02 -0.62198887622E+01  0.47787270992E+02  0.19999999759E+02 0.  0.
        -12    1    1    2    0    0  0.20808726686E+02  0.37575699008E+02  0.62198887622E+01  0.43400729008E+02  0.00000000000E+00 0.  1.
         11    1    3    3    0    0 -0.16286605839E+02 -0.14823326210E+02 -0.83590452274E+01  0.23555427549E+02  0.51100000000E-03 0. -1.
        -11    1    3    3    0    0 -0.16474092069E+01 -0.62502448780E+00  0.61618051202E+00  0.18666256694E+01  0.51100000000E-03 0.  1.
         12    1    3    3    0    0 -0.28747116409E+01 -0.22127348310E+02  0.15229759532E+01  0.22365217773E+02  0.00000000000E+00 0. -1.
</event>
<event>
 7    1  0.2983653E-010  0.4778728E+02  0.7816164E-02  0.1312668E+00
        -11   -1    0    0    0    0  0.00000000000E+00  0.00000000000E+00  0.45593999997E+02  0.45594000000E+02  0.51100000000E-03 0.  1.
         11   -1    0    0    0    0 -0.00000000000E+00 -0.00000000000E+00 -0.45593999997E+02  0.45594000000E+02  0.51100000000E-03 0. -1.
    9900012    2    1    2    0    0  0.21029513739E+02 -0.51355920167E+01 -0.37616592529E+02  0.47787276654E+02  0.20000025577E+02 0.  0.
        -12    1    1    2    0    0 -0.21029513739E+02  0.51355920167E+01  0.37616592529E+02  0.43400723346E+02  0.00000000000E+00 0.  1.
         11    1    3    3    0    0  0.21069418795E+02 -0.63776665280E+01 -0.34760066074E+02  0.41144346299E+02  0.51100000000E-03 0. -1.
        -11    1    3    3    0    0 -0.20425263046E+01  0.27869665067E+01 -0.18628846359E+01  0.39254853766E+01  0.51100000000E-03 0.  1.
         12    1    3    3    0    0  0.20026212492E+01 -0.15448919955E+01 -0.99364181900E+00  0.27174449782E+01  0.00000000000E+00 0. -1.
</event>
<event>
 7    1  0.2983653E-010  0.4778727E+02  0.7816164E-02  0.1312668E+00
        -11   -1    0    0    0    0  0.00000000000E+00  0.00000000000E+00  0.45593999997E+02  0.45594000000E+02  0.51100000000E-03 0.  1.
         11   -1    0    0    0    0 -0.00000000000E+00 -0.00000000000E+00 -0.45593999997E+02  0.45594000000E+02  0.51100000000E-03 0. -1.
    9900012    2    1    2    0    0 -0.22461027256E+02 -0.59829260359E+01 -0.36651468513E+02  0.47787270819E+02  0.19999998971E+02 0.  0.
        -12    1    1    2    0    0  0.22461027256E+02  0.59829260359E+01  0.36651468513E+02  0.43400729181E+02  0.00000000000E+00 0.  1.
         11    1    3    3    0    0 -0.16425238413E+02 -0.97178604561E+01 -0.19395892894E+02  0.27210768644E+02  0.51100000000E-03 0. -1.
        -11    1    3    3    0    0  0.48585889388E+00  0.67584721369E+00 -0.11013172041E+02  0.11044581793E+02  0.51100000000E-03 0.  1.
         12    1    3    3    0    0 -0.65216477368E+01  0.30590872064E+01 -0.62424035778E+01  0.95319203820E+01  0.00000000000E+00 0. -1.
</event>
<event>
 7    1  0.2983653E-010  0.4778727E+02  0.7816164E-02  0.1312668E+00
        -11   -1    0    0    0    0  0.00000000000E+00  0.00000000000E+00  0.45593999997E+02  0.45594000000E+02  0.51100000000E-03 0. -1.
         11   -1    0    0    0    0 -0.00000000000E+00 -0.00000000000E+00 -0.45593999997E+02  0.45594000000E+02  0.51100000000E-03 0.  1.
    9900012    2    1    2    0    0  0.42513259819E+02 -0.76343682104E+01  0.42382151800E+01  0.47787270670E+02  0.19999998293E+02 0.  0.
        -12    1    1    2    0    0 -0.42513259819E+02  0.76343682104E+01 -0.42382151800E+01  0.43400729330E+02  0.00000000000E+00 0.  1.
         11    1    3    3    0    0  0.23833844907E+02 -0.68760728777E+01  0.37164863608E+01  0.25082759266E+02  0.51100000000E-03 0. -1.
        -11    1    3    3    0    0  0.93288536757E+01  0.42928952665E+01  0.46889186228E+01  0.11289039764E+02  0.51100000000E-03 0.  1.
        -12    1    3    3    0    0  0.93505612367E+01 -0.50511905992E+01 -0.41671898037E+01  0.11415471640E+02  0.00000000000E+00 0.  1.
</event>
<event>
 7    1  0.2983653E-010  0.4778727E+02  0.7816164E-02  0.1312668E+00
        -11   -1    0    0    0    0  0.00000000000E+00  0.00000000000E+00  0.45593999997E+02  0.45594000000E+02  0.51100000000E-03 0.  1.
         11   -1    0    0    0    0 -0.00000000000E+00 -0.00000000000E+00 -0.45593999997E+02  0.45594000000E+02  0.51100000000E-03 0. -1.
    9900012    2    1    2    0    0 -0.22495661444E+02  0.32481400930E+02  0.17959034864E+02  0.47787272778E+02  0.20000007905E+02 0.  0.
        -12    1    1    2    0    0  0.22495661444E+02 -0.32481400930E+02 -0.17959034864E+02  0.43400727222E+02  0.00000000000E+00 0.  1.
         11    1    3    3    0    0 -0.15871292674E+02  0.23047696359E+02  0.50786548092E+01  0.28440938338E+02  0.51100000000E-03 0. -1.
        -11    1    3    3    0    0 -0.56632724697E+01  0.12018029393E+01  0.32444148217E+01  0.66365060964E+01  0.51100000000E-03 0.  1.
         12    1    3    3    0    0 -0.96109630002E+00  0.82319016310E+01  0.96359652330E+01  0.12709828344E+02  0.00000000000E+00 0. -1.
</event>
<event>
 7    1  0.2983653E-010  0.4778727E+02  0.7816164E-02  0.1312668E+00
        -11   -1    0    0    0    0  0.00000000000E+00  0.00000000000E+00  0.45593999997E+02  0.45594000000E+02  0.51100000000E-03 0.  1.
         11   -1    0    0    0    0 -0.00000000000E+00 -0.00000000000E+00 -0.45593999997E+02  0.45594000000E+02  0.51100000000E-03 0. -1.
    9900012    2    1    2    0    0  0.23915619346E+02  0.14270081392E+02 -0.33287105692E+02  0.47787268704E+02  0.19999989330E+02 0.  0.
        -12    1    1    2    0    0 -0.23915619346E+02 -0.14270081392E+02  0.33287105692E+02  0.43400731296E+02  0.00000000000E+00 0.  1.
         11    1    3    3    0    0  0.83501205849E+01  0.12955220344E+02 -0.24338566569E+02  0.28808472206E+02  0.51100000000E-03 0. -1.
        -11    1    3    3    0    0  0.64499629065E+01 -0.19050027727E+01 -0.55877137084E+01  0.87437750318E+01  0.51100000000E-03 0.  1.
         12    1    3    3    0    0  0.91155358548E+01  0.32198638212E+01 -0.33608254141E+01  0.10235021466E+02  0.00000000000E+00 0. -1.
</event>
<event>
 7    1  0.2983653E-010  0.4778724E+02  0.7816164E-02  0.1312668E+00
        -11   -1    0    0    0    0  0.00000000000E+00  0.00000000000E+00  0.45593999997E+02  0.45594000000E+02  0.51100000000E-03 0.  1.
         11   -1    0    0    0    0 -0.00000000000E+00 -0.00000000000E+00 -0.45593999997E+02  0.45594000000E+02  0.51100000000E-03 0. -1.
    9900012    2    1    2    0    0 -0.78490155607E+01 -0.42567960595E+02  0.31603611407E+01  0.47787237368E+02  0.19999846454E+02 0.  0.
        -12    1    1    2    0    0  0.78490155607E+01  0.42567960595E+02 -0.31603611407E+01  0.43400762632E+02  0.00000000000E+00 0.  1.
         11    1    3    3    0    0 -0.19847370120E+01 -0.13833920342E+02  0.90473968712E+00  0.14004823711E+02  0.51100000000E-03 0. -1.
        -11    1    3    3    0    0  0.52419320249E+01 -0.11316504804E+02 -0.21634337177E+01  0.12657866251E+02  0.51100000000E-03 0.  1.
        -12    1    3    3    0    0 -0.11106210574E+02 -0.17417535450E+02  0.44190551713E+01  0.21124547405E+02  0.00000000000E+00 0.  1.
</event>
<event>
 7    1  0.2983653E-010  0.4778727E+02  0.7816164E-02  0.1312668E+00
        -11   -1    0    0    0    0  0.00000000000E+00  0.00000000000E+00  0.45593999997E+02  0.45594000000E+02  0.51100000000E-03 0. -1.
         11   -1    0    0    0    0 -0.00000000000E+00 -0.00000000000E+00 -0.45593999997E+02  0.45594000000E+02  0.51100000000E-03 0.  1.
    9900012    2    1    2    0    0  0.33859411627E+01  0.69600334259E+01  0.42704991985E+02  0.47787274161E+02  0.20000014211E+02 0.  0.
        -12    1    1    2    0    0 -0.33859411627E+01 -0.69600334259E+01 -0.42704991985E+02  0.43400725839E+02  0.00000000000E+00 0.  1.
         11    1    3    3    0    0  0.15165931584E+01  0.47104567880E+01  0.41464547995E+02  0.41758797859E+02  0.51100000000E-03 0. -1.
        -11    1    3    3    0    0 -0.15591728134E+01  0.21969250005E+00  0.13027301232E+01  0.20436219542E+01  0.51100000000E-03 0.  1.
         12    1    3    3    0    0  0.34285208176E+01  0.20298841378E+01 -0.62286132923E-01  0.39848543477E+01  0.00000000000E+00 0. -1.
</event>
<event>
 7    1  0.2983653E-010  0.4778727E+02  0.7816164E-02  0.1312668E+00
        -11   -1    0    0    0    0  0.00000000000E+00  0.00000000000E+00  0.45593999997E+02  0.45594000000E+02  0.51100000000E-03 0.  1.
         11   -1    0    0    0    0 -0.00000000000E+00 -0.00000000000E+00 -0.45593999997E+02  0.45594000000E+02  0.51100000000E-03 0. -1.
    9900012    2    1    2    0    0 -0.20735105924E+02 -0.38088362589E+02 -0.17190576342E+01  0.47787272569E+02  0.20000006951E+02 0.  0.
        -12    1    1    2    0    0  0.20735105924E+02  0.38088362589E+02  0.17190576342E+01  0.43400727431E+02  0.00000000000E+00 0.  1.
         11    1    3    3    0    0 -0.41852973910E+01 -0.96317280332E+01 -0.69327701590E+01  0.12583727647E+02  0.51100000000E-03 0. -1.
        -11    1    3    3    0    0 -0.15300598085E+02 -0.17727535967E+02  0.65587828137E+01  0.24318541599E+02  0.51100000000E-03 0.  1.
        -12    1    3    3    0    0 -0.12492104480E+01 -0.10729098588E+02 -0.13450702889E+01  0.10885003323E+02  0.00000000000E+00 0.  1.
</event>
<event>
 7    1  0.2983653E-010  0.4778727E+02  0.7816164E-02  0.1312668E+00
        -11   -1    0    0    0    0  0.00000000000E+00  0.00000000000E+00  0.45593999997E+02  0.45594000000E+02  0.51100000000E-03 0.  1.
         11   -1    0    0    0    0 -0.00000000000E+00 -0.00000000000E+00 -0.45593999997E+02  0.45594000000E+02  0.51100000000E-03 0. -1.
    9900012    2    1    2    0    0 -0.40845686460E+01  0.38811237364E+02 -0.18990195942E+02  0.47787269722E+02  0.19999993969E+02 0.  0.
        -12    1    1    2    0    0  0.40845686460E+01 -0.38811237364E+02  0.18990195942E+02  0.43400730278E+02  0.00000000000E+00 0.  1.
         11    1    3    3    0    0 -0.24601629792E+01  0.23456758302E+02 -0.19309714621E+01  0.23664331027E+02  0.51100000000E-03 0. -1.
        -11    1    3    3    0    0 -0.18105558658E+01  0.11980523372E+01 -0.52692001366E+01  0.56989395757E+01  0.51100000000E-03 0.  1.
         12    1    3    3    0    0  0.18615019898E+00  0.14156426725E+02 -0.11790024343E+02  0.18423999119E+02  0.00000000000E+00 0. -1.
</event>
<event>
 7    1  0.2983653E-010  0.4778726E+02  0.7816164E-02  0.1312668E+00
        -11   -1    0    0    0    0  0.00000000000E+00  0.00000000000E+00  0.45593999997E+02  0.45594000000E+02  0.51100000000E-03 0.  1.
         11   -1    0    0    0    0 -0.00000000000E+00 -0.00000000000E+00 -0.45593999997E+02  0.45594000000E+02  0.51100000000E-03 0. -1.
    9900012    2    1    2    0    0  0.13942826327E+02 -0.17699775730E+02 -0.37093658738E+02  0.47787262847E+02  0.19999962626E+02 0.  0.
        -12    1    1    2    0    0 -0.13942826327E+02  0.17699775730E+02  0.37093658738E+02  0.43400737153E+02  0.00000000000E+00 0.  1.
         11    1    3    3    0    0 -0.12391148035E+01 -0.88228247245E+01 -0.12887407164E+02  0.15667255832E+02  0.51100000000E-03 0. -1.
        -11    1    3    3    0    0  0.16807538037E+02 -0.68359846801E+01 -0.22854638336E+02  0.29181475548E+02  0.51100000000E-03 0.  1.
        -12    1    3    3    0    0 -0.16255969069E+01 -0.20409663251E+01 -0.13516132373E+01  0.29385314677E+01  0.00000000000E+00 0.  1.
</event>
<event>
 7    1  0.2983653E-010  0.4778727E+02  0.7816164E-02  0.1312668E+00
        -11   -1    0    0    0    0  0.00000000000E+00  0.00000000000E+00  0.45593999997E+02  0.45594000000E+02  0.51100000000E-03 0.  1.
         11   -1    0    0    0    0 -0.00000000000E+00 -0.00000000000E+00 -0.45593999997E+02  0.45594000000E+02  0.51100000000E-03 0. -1.
    9900012    2    1    2    0    0 -0.23734506746E+02  0.24729380155E+02  0.26622442602E+02  0.47787268400E+02  0.19999987943E+02 0.  0.
        -12    1    1    2    0    0  0.23734506746E+02 -0.24729380155E+02 -0.26622442602E+02  0.43400731600E+02  0.00000000000E+00 0.  1.
         11    1    3    3    0    0 -0.25547353610E+01  0.87566857285E+01  0.32738995283E+01  0.96914723388E+01  0.51100000000E-03 0. -1.
        -11    1    3    3    0    0 -0.12581735571E+02  0.73158623385E+00  0.97962246614E+01  0.15962496869E+02  0.51100000000E-03 0.  1.
        -12    1    3    3    0    0 -0.85980358130E+01  0.15241108193E+02  0.13552318412E+02  0.22133299192E+02  0.00000000000E+00 0.  1.
</event>
<event>
 7    1  0.2983653E-010  0.4778727E+02  0.7816164E-02  0.1312668E+00
        -11   -1    0    0    0    0  0.00000000000E+00  0.00000000000E+00  0.45593999997E+02  0.45594000000E+02  0.51100000000E-03 0.  1.
         11   -1    0    0    0    0 -0.00000000000E+00 -0.00000000000E+00 -0.45593999997E+02  0.45594000000E+02  0.51100000000E-03 0. -1.
    9900012    2    1    2    0    0 -0.11336864201E+01  0.25964661883E+02 -0.34758802685E+02  0.47787271024E+02  0.19999999905E+02 0.  0.
        -12    1    1    2    0    0  0.11336864201E+01 -0.25964661883E+02  0.34758802685E+02  0.43400728976E+02  0.00000000000E+00 0.  1.
         11    1    3    3    0    0  0.29093079935E+01  0.14314953362E+02 -0.15488844679E+02  0.21290520719E+02  0.51100000000E-03 0. -1.
        -11    1    3    3    0    0  0.19329568757E+01 -0.15687349018E+01 -0.14653218560E+00  0.24937368382E+01  0.51100000000E-03 0.  1.
        -12    1    3    3    0    0 -0.59759512894E+01  0.13218443423E+02 -0.19123425820E+02  0.24003013466E+02  0.00000000000E+00 0.  1.
</event>
<event>
 7    1  0.2983653E-010  0.4778727E+02  0.7816164E-02  0.1312668E+00
        -11   -1    0    0    0    0  0.00000000000E+00  0.00000000000E+00  0.45593999997E+02  0.45594000000E+02  0.51100000000E-03 0. -1.
         11   -1    0    0    0    0 -0.00000000000E+00 -0.00000000000E+00 -0.45593999997E+02  0.45594000000E+02  0.51100000000E-03 0.  1.
    9900012    2    1    2    0    0  0.17638495745E+02 -0.32724302048E+02  0.22397031106E+02  0.47787268681E+02  0.19999989222E+02 0.  0.
        -12    1    1    2    0    0 -0.17638495745E+02  0.32724302048E+02 -0.22397031106E+02  0.43400731319E+02  0.00000000000E+00 0.  1.
         11    1    3    3    0    0  0.16607362316E+02 -0.14480529636E+02  0.12435872245E+02  0.25301010659E+02  0.51100000000E-03 0. -1.
        -11    1    3    3    0    0  0.29680218503E+01 -0.11513524398E+02  0.99168438259E+01  0.15482706143E+02  0.51100000000E-03 0.  1.
         12    1    3    3    0    0 -0.19368884213E+01 -0.67302480144E+01  0.44315035060E-01  0.70035518785E+01  0.00000000000E+00 0. -1.
</event>
<event>
 7    1  0.2983653E-010  0.4778726E+02  0.7816164E-02  0.1312668E+00
        -11   -1    0    0    0    0  0.00000000000E+00  0.00000000000E+00  0.45593999997E+02  0.45594000000E+02  0.51100000000E-03 0.  1.
         11   -1    0    0    0    0 -0.00000000000E+00 -0.00000000000E+00 -0.45593999997E+02  0.45594000000E+02  0.51100000000E-03 0. -1.
    9900012    2    1    2    0    0 -0.53114344826E+00 -0.35181734409E+02 -0.25408410521E+02  0.47787264123E+02  0.19999968444E+02 0.  0.
        -12    1    1    2    0    0  0.53114344826E+00  0.35181734409E+02  0.25408410521E+02  0.43400735877E+02  0.00000000000E+00 0.  1.
         11    1    3    3    0    0  0.66582884850E+01 -0.29662293901E+02 -0.16812241338E+02  0.34739544386E+02  0.51100000000E-03 0. -1.
        -11    1    3    3    0    0 -0.29697741147E+01 -0.39354673434E+01 -0.26841100794E+01  0.56135468897E+01  0.51100000000E-03 0.  1.
         12    1    3    3    0    0 -0.42196578185E+01 -0.15839731647E+01 -0.59120591035E+01  0.74341728481E+01  0.00000000000E+00 0. -1.
</event>
<event>
 7    1  0.2983653E-010  0.4778727E+02  0.7816164E-02  0.1312668E+00
        -11   -1    0    0    0    0  0.00000000000E+00  0.00000000000E+00  0.45593999997E+02  0.45594000000E+02  0.51100000000E-03 0.  1.
         11   -1    0    0    0    0 -0.00000000000E+00 -0.00000000000E+00 -0.45593999997E+02  0.45594000000E+02  0.51100000000E-03 0. -1.
    9900012    2    1    2    0    0 -0.19259032751E+02  0.38776086826E+02  0.30212556193E+01  0.47787271463E+02  0.20000001907E+02 0.  0.
        -12    1    1    2    0    0  0.19259032751E+02 -0.38776086826E+02 -0.30212556193E+01  0.43400728537E+02  0.00000000000E+00 0.  1.
         11    1    3    3    0    0  0.21877609364E+01  0.12638267483E+02 -0.21703919639E+01  0.13008562735E+02  0.51100000000E-03 0. -1.
        -11    1    3    3    0    0 -0.16522318565E+02  0.22836676388E+02  0.59312590246E+01  0.28804177355E+02  0.51100000000E-03 0.  1.
         12    1    3    3    0    0 -0.49244751230E+01  0.33011429546E+01 -0.73961144135E+00  0.59745313731E+01  0.00000000000E+00 0. -1.
</event>
<event>
 7    1  0.2983653E-010  0.4778727E+02  0.7816164E-02  0.1312668E+00
        -11   -1    0    0    0    0  0.00000000000E+00  0.00000000000E+00  0.45593999997E+02  0.45594000000E+02  0.51100000000E-03 0.  1.
         11   -1    0    0    0    0 -0.00000000000E+00 -0.00000000000E+00 -0.45593999997E+02  0.45594000000E+02  0.51100000000E-03 0. -1.
    9900012    2    1    2    0    0 -0.89915000970E+01 -0.18902706995E+02 -0.38019258475E+02  0.47787269352E+02  0.19999992284E+02 0.  0.
        -12    1    1    2    0    0  0.89915000970E+01  0.18902706995E+02  0.38019258475E+02  0.43400730648E+02  0.00000000000E+00 0.  1.
         11    1    3    3    0    0  0.40388312966E+01 -0.20842791622E+01 -0.92081692429E+01  0.10268727231E+02  0.51100000000E-03 0. -1.
        -11    1    3    3    0    0 -0.77879306522E+01 -0.71100791856E+01 -0.58866819440E+01  0.12077173280E+02  0.51100000000E-03 0.  1.
         12    1    3    3    0    0 -0.52424007415E+01 -0.97083486477E+01 -0.22924407288E+02  0.25441368841E+02  0.00000000000E+00 0. -1.
</event>
<event>
 7    1  0.2983653E-010  0.4778727E+02  0.7816164E-02  0.1312668E+00
        -11   -1    0    0    0    0  0.00000000000E+00  0.00000000000E+00  0.45593999997E+02  0.45594000000E+02  0.51100000000E-03 0.  1.
         11   -1    0    0    0    0 -0.00000000000E+00 -0.00000000000E+00 -0.45593999997E+02  0.45594000000E+02  0.51100000000E-03 0. -1.
    9900012    2    1    2    0    0 -0.35917957275E+02  0.23185169997E+02 -0.74814097970E+01  0.47787271260E+02  0.20000000983E+02 0.  0.
        -12    1    1    2    0    0  0.35917957275E+02 -0.23185169997E+02  0.74814097970E+01  0.43400728740E+02  0.00000000000E+00 0.  1.
         11    1    3    3    0    0 -0.19058939509E+02  0.10933540419E+02 -0.21650312414E+01  0.22078787147E+02  0.51100000000E-03 0. -1.
        -11    1    3    3    0    0 -0.97115017132E+01  0.13424462400E+02 -0.74368176739E+01  0.18161379728E+02  0.51100000000E-03 0.  1.
        -12    1    3    3    0    0 -0.71475160527E+01 -0.11728328222E+01  0.21204391183E+01  0.75471043855E+01  0.00000000000E+00 0.  1.
</event>
<event>
 7    1  0.2983653E-010  0.4778727E+02  0.7816164E-02  0.1312668E+00
        -11   -1    0    0    0    0  0.00000000000E+00  0.00000000000E+00  0.45593999997E+02  0.45594000000E+02  0.51100000000E-03 0.  1.
         11   -1    0    0    0    0 -0.00000000000E+00 -0.00000000000E+00 -0.45593999997E+02  0.45594000000E+02  0.51100000000E-03 0. -1.
    9900012    2    1    2    0    0  0.22024986930E+01  0.30435900702E+02 -0.30861434878E+02  0.47787271725E+02  0.20000003104E+02 0.  0.
        -12    1    1    2    0    0 -0.22024986930E+01 -0.30435900702E+02  0.30861434878E+02  0.43400728275E+02  0.00000000000E+00 0.  1.
         11    1    3    3    0    0  0.24643399987E+01  0.10951775552E+02 -0.15849269858E+02  0.19421990492E+02  0.51100000000E-03 0. -1.
        -11    1    3    3    0    0 -0.41693887848E+01  0.19269863931E+02 -0.10313597103E+02  0.22250432450E+02  0.51100000000E-03 0.  1.
        -12    1    3    3    0    0  0.39075474791E+01  0.21426121986E+00 -0.46985679177E+01  0.61148487839E+01  0.00000000000E+00 0.  1.
</event>
<event>
 7    1  0.2983653E-010  0.4778728E+02  0.7816164E-02  0.1312668E+00
        -11   -1    0    0    0    0  0.00000000000E+00  0.00000000000E+00  0.45593999997E+02  0.45594000000E+02  0.51100000000E-03 0.  1.
         11   -1    0    0    0    0 -0.00000000000E+00 -0.00000000000E+00 -0.45593999997E+02  0.45594000000E+02  0.51100000000E-03 0. -1.
    9900012    2    1    2    0    0  0.23495582622E+02  0.30521013791E+02 -0.20001196319E+02  0.47787279502E+02  0.20000038561E+02 0.  0.
        -12    1    1    2    0    0 -0.23495582622E+02 -0.30521013791E+02  0.20001196319E+02  0.43400720498E+02  0.00000000000E+00 0.  1.
         11    1    3    3    0    0 -0.17556371249E+00 -0.81797308581E+00  0.14436441473E+01  0.16685356668E+01  0.51100000000E-03 0.  1.
        -11    1    3    3    0    0  0.20896950401E+02  0.20423665943E+02 -0.12702996631E+02  0.31861807706E+02  0.51100000000E-03 0. -1.
        -12    1    3    3    0    0  0.27741959334E+01  0.10915320934E+02 -0.87418438350E+01  0.14256936129E+02  0.00000000000E+00 0.  1.
</event>
<event>
 7    1  0.2983653E-010  0.4778727E+02  0.7816164E-02  0.1312668E+00
        -11   -1    0    0    0    0  0.00000000000E+00  0.00000000000E+00  0.45593999997E+02  0.45594000000E+02  0.51100000000E-03 0.  1.
         11   -1    0    0    0    0 -0.00000000000E+00 -0.00000000000E+00 -0.45593999997E+02  0.45594000000E+02  0.51100000000E-03 0. -1.
    9900012    2    1    2    0    0  0.32744661316E+01  0.16961295495E+02 -0.39814766598E+02  0.47787270599E+02  0.19999997968E+02 0.  0.
        -12    1    1    2    0    0 -0.32744661316E+01 -0.16961295495E+02  0.39814766598E+02  0.43400729401E+02  0.00000000000E+00 0.  1.
         11    1    3    3    0    0 -0.61786604214E+01  0.18409544542E+01 -0.10005085204E+02  0.11902381614E+02  0.51100000000E-03 0. -1.
        -11    1    3    3    0    0  0.85602658800E+01  0.94470357932E+01 -0.13383167411E+02  0.18483338644E+02  0.51100000000E-03 0.  1.
         12    1    3    3    0    0  0.89286067298E+00  0.56733052479E+01 -0.16426513983E+02  0.17401550340E+02  0.00000000000E+00 0. -1.
</event>
<event>
 7    1  0.2983653E-010  0.4778727E+02  0.7816164E-02  0.1312668E+00
        -11   -1    0    0    0    0  0.00000000000E+00  0.00000000000E+00  0.45593999997E+02  0.45594000000E+02  0.51100000000E-03 0.  1.
         11   -1    0    0    0    0 -0.00000000000E+00 -0.00000000000E+00 -0.45593999997E+02  0.45594000000E+02  0.51100000000E-03 0. -1.
    9900012    2    1    2    0    0  0.37716043466E+02  0.21472877972E+02  0.19686492623E+00  0.47787272138E+02  0.20000004988E+02 0.  0.
        -12    1    1    2    0    0 -0.37716043466E+02 -0.21472877972E+02 -0.19686492623E+00  0.43400727862E+02  0.00000000000E+00 0.  1.
         11    1    3    3    0    0  0.33824809709E+02  0.10504382153E+02  0.46303063351E+00  0.35421380463E+02  0.51100000000E-03 0. -1.
        -11    1    3    3    0    0  0.88238942390E+00  0.82373801922E+01 -0.46472467879E+00  0.82975305251E+01  0.51100000000E-03 0.  1.
        -12    1    3    3    0    0  0.30088443330E+01  0.27311156269E+01  0.19855897150E+00  0.40683611508E+01  0.00000000000E+00 0.  1.
</event>
<event>
 7    1  0.2983653E-010  0.4778727E+02  0.7816164E-02  0.1312668E+00
        -11   -1    0    0    0    0  0.00000000000E+00  0.00000000000E+00  0.45593999997E+02  0.45594000000E+02  0.51100000000E-03 0. -1.
         11   -1    0    0    0    0 -0.00000000000E+00 -0.00000000000E+00 -0.45593999997E+02  0.45594000000E+02  0.51100000000E-03 0.  1.
    9900012    2    1    2    0    0  0.99491971298E+01 -0.41598140765E+02 -0.73642026104E+01  0.47787270527E+02  0.19999997642E+02 0.  0.
        -12    1    1    2    0    0 -0.99491971298E+01  0.41598140765E+02  0.73642026104E+01  0.43400729473E+02  0.00000000000E+00 0.  1.
         11    1    3    3    0    0  0.41310836532E+01 -0.85272491936E+00 -0.36847970210E+01  0.56009571758E+01  0.51100000000E-03 0. -1.
        -11    1    3    3    0    0  0.11607188706E+01 -0.30878334498E+02 -0.45819915936E+01  0.31238013011E+02  0.51100000000E-03 0.  1.
         12    1    3    3    0    0  0.46573946060E+01 -0.98670813484E+01  0.90258600421E+00  0.10948300341E+02  0.00000000000E+00 0. -1.
</event>
<event>
 7    1  0.2983653E-010  0.4778727E+02  0.7816164E-02  0.1312668E+00
        -11   -1    0    0    0    0  0.00000000000E+00  0.00000000000E+00  0.45593999997E+02  0.45594000000E+02  0.51100000000E-03 0.  1.
         11   -1    0    0    0    0 -0.00000000000E+00 -0.00000000000E+00 -0.45593999997E+02  0.45594000000E+02  0.51100000000E-03 0. -1.
    9900012    2    1    2    0    0  0.50425183997E+01 -0.22192234221E+02 -0.36955395334E+02  0.47787268488E+02  0.19999988343E+02 0.  0.
        -12    1    1    2    0    0 -0.50425183997E+01  0.22192234221E+02  0.36955395334E+02  0.43400731512E+02  0.00000000000E+00 0.  1.
         11    1    3    3    0    0  0.25983398976E+00 -0.81438276837E+01 -0.19870258620E+02  0.21475954482E+02  0.51100000000E-03 0. -1.
        -11    1    3    3    0    0  0.59126348657E+01 -0.15496348767E+02 -0.10870316718E+02  0.19830780670E+02  0.51100000000E-03 0.  1.
        -12    1    3    3    0    0 -0.11299504558E+01  0.14479422298E+01 -0.62148199963E+01  0.64805333360E+01  0.00000000000E+00 0.  1.
</event>
<event>
 7    1  0.3801498E-010  0.4778727E+02  0.7816164E-02  0.1312668E+00
        -11   -1    0    0    0    0  0.00000000000E+00  0.00000000000E+00  0.45593999997E+02  0.45594000000E+02  0.51100000000E-03 0.  1.
         11   -1    0    0    0    0 -0.00000000000E+00 -0.00000000000E+00 -0.45593999997E+02  0.45594000000E+02  0.51100000000E-03 0. -1.
    9900012    2    1    2    0    0 -0.28468567568E+02  0.32319737021E+02  0.53477694691E+01  0.47787269836E+02  0.19999994488E+02 0.  0.
        -12    1    1    2    0    0  0.28468567568E+02 -0.32319737021E+02 -0.53477694691E+01  0.43400730164E+02  0.00000000000E+00 0.  1.
         11    1    3    3    0    0 -0.10293674399E+02  0.11457546197E+02  0.35181116437E+01  0.15799120459E+02  0.51100000000E-03 0. -1.
        -11    1    3    3    0    0 -0.86594445475E+01  0.20473623603E+02 -0.29102771590E+00  0.22231507837E+02  0.51100000000E-03 0.  1.
        -12    1    3    3    0    0 -0.95154486215E+01  0.38856722090E+00  0.21206855412E+01  0.97566415389E+01  0.00000000000E+00 0.  1.
</event>
<event>
 7    1  0.2983653E-010  0.4778727E+02  0.7816164E-02  0.1312668E+00
        -11   -1    0    0    0    0  0.00000000000E+00  0.00000000000E+00  0.45593999997E+02  0.45594000000E+02  0.51100000000E-03 0.  1.
         11   -1    0    0    0    0 -0.00000000000E+00 -0.00000000000E+00 -0.45593999997E+02  0.45594000000E+02  0.51100000000E-03 0. -1.
    9900012    2    1    2    0    0  0.17973791676E+00 -0.42512851635E+02 -0.87320495868E+01  0.47787267865E+02  0.19999985505E+02 0.  0.
        -12    1    1    2    0    0 -0.17973791676E+00  0.42512851635E+02  0.87320495868E+01  0.43400732135E+02  0.00000000000E+00 0.  1.
         11    1    3    3    0    0 -0.37388272061E+01 -0.14201000248E+01 -0.31711009291E+00  0.40119910306E+01  0.51100000000E-03 0. -1.
        -11    1    3    3    0    0 -0.18872821326E+01 -0.13319690830E+02  0.18975580218E+01  0.13585901676E+02  0.51100000000E-03 0.  1.
         12    1    3    3    0    0  0.58058472555E+01 -0.27773060780E+02 -0.10312497516E+02  0.30189375159E+02  0.00000000000E+00 0. -1.
</event>
<event>
 7    1  0.2983653E-010  0.4778727E+02  0.7816164E-02  0.1312668E+00
        -11   -1    0    0    0    0  0.00000000000E+00  0.00000000000E+00  0.45593999997E+02  0.45594000000E+02  0.51100000000E-03 0.  1.
         11   -1    0    0    0    0 -0.00000000000E+00 -0.00000000000E+00 -0.45593999997E+02  0.45594000000E+02  0.51100000000E-03 0. -1.
    9900012    2    1    2    0    0  0.32410519256E+00 -0.37216554574E+02 -0.22325913311E+02  0.47787269779E+02  0.19999994232E+02 0.  0.
        -12    1    1    2    0    0 -0.32410519256E+00  0.37216554574E+02  0.22325913311E+02  0.43400730221E+02  0.00000000000E+00 0.  1.
         11    1    3    3    0    0  0.34726446434E+01 -0.30966068865E+02 -0.86611461188E+01  0.32341492454E+02  0.51100000000E-03 0. -1.
        -11    1    3    3    0    0 -0.28828313947E+01 -0.48556411839E+01 -0.95703464607E+01  0.11112132999E+02  0.51100000000E-03 0.  1.
         12    1    3    3    0    0 -0.26570805616E+00 -0.13948445245E+01 -0.40944207315E+01  0.43336443262E+01  0.00000000000E+00 0. -1.
</event>
<event>
 7    1  0.2983653E-010  0.4778727E+02  0.7816164E-02  0.1312668E+00
        -11   -1    0    0    0    0  0.00000000000E+00  0.00000000000E+00  0.45593999997E+02  0.45594000000E+02  0.51100000000E-03 0. -1.
         11   -1    0    0    0    0 -0.00000000000E+00 -0.00000000000E+00 -0.45593999997E+02  0.45594000000E+02  0.51100000000E-03 0.  1.
    9900012    2    1    2    0    0 -0.42429608936E+02  0.20454590949E+01 -0.88976147217E+01  0.47787272298E+02  0.20000005714E+02 0.  0.
        -12    1    1    2    0    0  0.42429608936E+02 -0.20454590949E+01  0.88976147217E+01  0.43400727702E+02  0.00000000000E+00 0.  1.
         11    1    3    3    0    0 -0.13322933888E+02  0.83420105803E+01 -0.61492856636E+01  0.16879082390E+02  0.51100000000E-03 0. -1.
        -11    1    3    3    0    0 -0.27967404784E+02 -0.70213053856E+01 -0.39450712618E+01  0.29103918073E+02  0.51100000000E-03 0.  1.
        -12    1    3    3    0    0 -0.11392702638E+01  0.72475390010E+00  0.11967422037E+01  0.18042718343E+01  0.00000000000E+00 0.  1.
</event>
<event>
 7    1  0.2983653E-010  0.4778727E+02  0.7816164E-02  0.1312668E+00
        -11   -1    0    0    0    0  0.00000000000E+00  0.00000000000E+00  0.45593999997E+02  0.45594000000E+02  0.51100000000E-03 0. -1.
         11   -1    0    0    0    0 -0.00000000000E+00 -0.00000000000E+00 -0.45593999997E+02  0.45594000000E+02  0.51100000000E-03 0.  1.
    9900012    2    1    2    0    0 -0.32959090037E+02  0.12827933904E+02  0.25154833944E+02  0.47787272183E+02  0.20000005190E+02 0.  0.
        -12    1    1    2    0    0  0.32959090037E+02 -0.12827933904E+02 -0.25154833944E+02  0.43400727817E+02  0.00000000000E+00 0.  1.
         11    1    3    3    0    0 -0.20575939540E+02  0.14104759735E+02  0.91963674523E+01  0.26587341155E+02  0.51100000000E-03 0. -1.
        -11    1    3    3    0    0 -0.11479366356E+01 -0.18336517535E+01  0.52102396411E+01  0.56415099620E+01  0.51100000000E-03 0.  1.
         12    1    3    3    0    0 -0.11235213862E+02  0.55682592323E+00  0.10748226851E+02  0.15558421066E+02  0.00000000000E+00 0. -1.
</event>
<event>
 7    1  0.2983653E-010  0.4778727E+02  0.7816164E-02  0.1312668E+00
        -11   -1    0    0    0    0  0.00000000000E+00  0.00000000000E+00  0.45593999997E+02  0.45594000000E+02  0.51100000000E-03 0. -1.
         11   -1    0    0    0    0 -0.00000000000E+00 -0.00000000000E+00 -0.45593999997E+02  0.45594000000E+02  0.51100000000E-03 0.  1.
    9900012    2    1    2    0    0 -0.23089827382E+02 -0.46447524763E+01  0.36454205301E+02  0.47787274912E+02  0.20000017632E+02 0.  0.
        -12    1    1    2    0    0  0.23089827382E+02  0.46447524763E+01 -0.36454205301E+02  0.43400725088E+02  0.00000000000E+00 0.  1.
         11    1    3    3    0    0 -0.24039176457E+02 -0.49553546930E+01  0.31933131881E+02  0.40276077973E+02  0.51100000000E-03 0. -1.
        -11    1    3    3    0    0  0.18003871478E+01 -0.99639948212E+00 -0.61168424334E+00  0.21467099675E+01  0.51100000000E-03 0.  1.
        -12    1    3    3    0    0 -0.85103807267E+00  0.13070016989E+01  0.51327576630E+01  0.53644869717E+01  0.00000000000E+00 0.  1.
</event>
<event>
 7    1  0.2983653E-010  0.4778727E+02  0.7816164E-02  0.1312668E+00
        -11   -1    0    0    0    0  0.00000000000E+00  0.00000000000E+00  0.45593999997E+02  0.45594000000E+02  0.51100000000E-03 0.  1.
         11   -1    0    0    0    0 -0.00000000000E+00 -0.00000000000E+00 -0.45593999997E+02  0.45594000000E+02  0.51100000000E-03 0. -1.
    9900012    2    1    2    0    0  0.19806611345E+02  0.37739015944E+02 -0.81907313610E+01  0.47787271232E+02  0.20000000855E+02 0.  0.
        -12    1    1    2    0    0 -0.19806611345E+02 -0.37739015944E+02  0.81907313610E+01  0.43400728768E+02  0.00000000000E+00 0.  1.
         11    1    3    3    0    0  0.46302660343E+01  0.26005578230E+02 -0.85552735259E+01  0.27765485193E+02  0.51100000000E-03 0. -1.
        -11    1    3    3    0    0  0.89396853956E+01  0.10059940302E+02  0.11962571661E+01  0.13511158548E+02  0.51100000000E-03 0.  1.
         12    1    3    3    0    0  0.62366599146E+01  0.16734974120E+01 -0.83171500121E+00  0.65106274907E+01  0.00000000000E+00 0. -1.
</event>
<event>
 7    1  0.2983653E-010  0.4778727E+02  0.7816164E-02  0.1312668E+00
        -11   -1    0    0    0    0  0.00000000000E+00  0.00000000000E+00  0.45593999997E+02  0.45594000000E+02  0.51100000000E-03 0. -1.
         11   -1    0    0    0    0 -0.00000000000E+00 -0.00000000000E+00 -0.45593999997E+02  0.45594000000E+02  0.51100000000E-03 0.  1.
    9900012    2    1    2    0    0  0.30888071940E+02  0.78501117881E+00  0.30478414899E+02  0.47787274136E+02  0.20000014096E+02 0.  0.
        -12    1    1    2    0    0 -0.30888071940E+02 -0.78501117881E+00 -0.30478414899E+02  0.43400725864E+02  0.00000000000E+00 0.  1.
         11    1    3    3    0    0  0.21116302107E+02 -0.46595324385E+01  0.21187477506E+02  0.30274059201E+02  0.51100000000E-03 0. -1.
        -11    1    3    3    0    0  0.59391213891E+01  0.21235792268E+01 -0.66276553667E+00  0.63420824676E+01  0.51100000000E-03 0.  1.
         12    1    3    3    0    0  0.38326484444E+01  0.33209643905E+01  0.99537029299E+01  0.11171132467E+02  0.00000000000E+00 0. -1.
</event>
<event>
 7    1  0.2983653E-010  0.4778727E+02  0.7816164E-02  0.1312668E+00
        -11   -1    0    0    0    0  0.00000000000E+00  0.00000000000E+00  0.45593999997E+02  0.45594000000E+02  0.51100000000E-03 0.  1.
         11   -1    0    0    0    0 -0.00000000000E+00 -0.00000000000E+00 -0.45593999997E+02  0.45594000000E+02  0.51100000000E-03 0. -1.
    9900012    2    1    2    0    0 -0.41459552092E+01  0.19350922649E+02 -0.38626107728E+02  0.47787270165E+02  0.19999995989E+02 0.  0.
        -12    1    1    2    0    0  0.41459552092E+01 -0.19350922649E+02  0.38626107728E+02  0.43400729835E+02  0.00000000000E+00 0.  1.
         11    1    3    3    0    0 -0.47312183294E+01  0.13371305922E+02 -0.18937220920E+02  0.23659978558E+02  0.51100000000E-03 0. -1.
        -11    1    3    3    0    0  0.53997561408E+01  0.21520908511E+01 -0.15837145806E+02  0.16870211882E+02  0.51100000000E-03 0.  1.
        -12    1    3    3    0    0 -0.48144930206E+01  0.38275258765E+01 -0.38517410031E+01  0.72570797250E+01  0.00000000000E+00 0.  1.
</event>
<event>
 7    1  0.2983653E-010  0.4778728E+02  0.7816164E-02  0.1312668E+00
        -11   -1    0    0    0    0  0.00000000000E+00  0.00000000000E+00  0.45593999997E+02  0.45594000000E+02  0.51100000000E-03 0. -1.
         11   -1    0    0    0    0 -0.00000000000E+00 -0.00000000000E+00 -0.45593999997E+02  0.45594000000E+02  0.51100000000E-03 0.  1.
    9900012    2    1    2    0    0 -0.62932717681E+01 -0.42706286176E+02  0.44934115301E+01  0.47787275402E+02  0.20000019867E+02 0.  0.
        -12    1    1    2    0    0  0.62932717681E+01  0.42706286176E+02 -0.44934115301E+01  0.43400724598E+02  0.00000000000E+00 0.  1.
         11    1    3    3    0    0 -0.68602577051E+01 -0.62300618590E+01 -0.12569917756E+01  0.93518359231E+01  0.51100000000E-03 0. -1.
        -11    1    3    3    0    0 -0.88145302820E+00 -0.11567851615E+02 -0.30206860666E+01  0.11988189813E+02  0.51100000000E-03 0.  1.
         12    1    3    3    0    0  0.14484389653E+01 -0.24908372702E+02  0.87710893723E+01  0.26447249665E+02  0.00000000000E+00 0. -1.
</event>
<event>
 7    1  0.2983653E-010  0.4778727E+02  0.7816164E-02  0.1312668E+00
        -11   -1    0    0    0    0  0.00000000000E+00  0.00000000000E+00  0.45593999997E+02  0.45594000000E+02  0.51100000000E-03 0.  1.
         11   -1    0    0    0    0 -0.00000000000E+00 -0.00000000000E+00 -0.45593999997E+02  0.45594000000E+02  0.51100000000E-03 0. -1.
    9900012    2    1    2    0    0  0.35559028441E+02  0.45546988813E+01 -0.24462907595E+02  0.47787266901E+02  0.19999981106E+02 0.  0.
        -12    1    1    2    0    0 -0.35559028441E+02 -0.45546988813E+01  0.24462907595E+02  0.43400733099E+02  0.00000000000E+00 0.  1.
         11    1    3    3    0    0 -0.57574944182E+00 -0.97630392713E+00 -0.36546609187E+01  0.38263825566E+01  0.51100000000E-03 0. -1.
        -11    1    3    3    0    0  0.24505413241E+02  0.10865735230E+00 -0.78688027350E+01  0.25738009661E+02  0.51100000000E-03 0.  1.
        -12    1    3    3    0    0  0.11629364642E+02  0.54223454561E+01 -0.12939443941E+02  0.18222874683E+02  0.00000000000E+00 0.  1.
</event>
<event>
 7    1  0.2983653E-010  0.4778729E+02  0.7816164E-02  0.1312668E+00
        -11   -1    0    0    0    0  0.00000000000E+00  0.00000000000E+00  0.45593999997E+02  0.45594000000E+02  0.51100000000E-03 0.  1.
         11   -1    0    0    0    0 -0.00000000000E+00 -0.00000000000E+00 -0.45593999997E+02  0.45594000000E+02  0.51100000000E-03 0. -1.
    9900012    2    1    2    0    0 -0.12173732597E+00 -0.21139481531E+02 -0.37904213734E+02  0.47787286663E+02  0.20000071211E+02 0.  0.
        -12    1    1    2    0    0  0.12173732597E+00  0.21139481531E+02  0.37904213734E+02  0.43400713337E+02  0.00000000000E+00 0.  1.
         11    1    3    3    0    0 -0.12906197304E+00 -0.28899920197E+01 -0.13974287370E+02  0.14270578777E+02  0.51100000000E-03 0. -1.
        -11    1    3    3    0    0 -0.19142761651E+01 -0.16272409631E+02 -0.97392036631E+01  0.19060636314E+02  0.51100000000E-03 0.  1.
        -12    1    3    3    0    0  0.19216008122E+01 -0.19770798804E+01 -0.14190722700E+02  0.14456071572E+02  0.00000000000E+00 0.  1.
</event>
<event>
 7    1  0.2983653E-010  0.4778726E+02  0.7816164E-02  0.1312668E+00
        -11   -1    0    0    0    0  0.00000000000E+00  0.00000000000E+00  0.45593999997E+02  0.45594000000E+02  0.51100000000E-03 0. -1.
         11   -1    0    0    0    0 -0.00000000000E+00 -0.00000000000E+00 -0.45593999997E+02  0.45594000000E+02  0.51100000000E-03 0.  1.
    9900012    2    1    2    0    0 -0.70444730766E+01 -0.23898851582E+01  0.42758483794E+02  0.47787261661E+02  0.19999957218E+02 0.  0.
        -12    1    1    2    0    0  0.70444730766E+01  0.23898851582E+01 -0.42758483794E+02  0.43400738339E+02  0.00000000000E+00 0.  1.
         11    1    3    3    0    0 -0.77736185153E+00 -0.53713635623E+01  0.49141000624E+01  0.73214901250E+01  0.51100000000E-03 0. -1.
        -11    1    3    3    0    0 -0.62734807384E+01  0.36582400348E+01  0.38699633109E+02  0.39375130269E+02  0.51100000000E-03 0.  1.
        -12    1    3    3    0    0  0.63695133637E-02 -0.67676163072E+00 -0.85524937712E+00  0.10906412667E+01  0.00000000000E+00 0.  1.
</event>
<event>
 7    1  0.4737000E-010  0.4778727E+02  0.7816164E-02  0.1312668E+00
        -11   -1    0    0    0    0  0.00000000000E+00  0.00000000000E+00  0.45593999997E+02  0.45594000000E+02  0.51100000000E-03 0. -1.
         11   -1    0    0    0    0 -0.00000000000E+00 -0.00000000000E+00 -0.45593999997E+02  0.45594000000E+02  0.51100000000E-03 0.  1.
    9900012    2    1    2    0    0  0.21278599413E+02  0.27703447715E+02  0.25755843179E+02  0.47787271134E+02  0.20000000407E+02 0.  0.
        -12    1    1    2    0    0 -0.21278599413E+02 -0.27703447715E+02 -0.25755843179E+02  0.43400728866E+02  0.00000000000E+00 0.  1.
         11    1    3    3    0    0  0.84689854187E+01  0.54746318688E+01  0.66069282638E+01  0.12055986458E+02  0.51100000000E-03 0. -1.
        -11    1    3    3    0    0  0.88419507340E+01  0.15352999113E+02  0.21104694335E+02  0.27555449512E+02  0.51100000000E-03 0.  1.
        -12    1    3    3    0    0  0.39676632604E+01  0.68758167330E+01 -0.19557794203E+01  0.81758351643E+01  0.00000000000E+00 0.  1.
</event>
<event>
 7    1  0.2983653E-010  0.4778727E+02  0.7816164E-02  0.1312668E+00
        -11   -1    0    0    0    0  0.00000000000E+00  0.00000000000E+00  0.45593999997E+02  0.45594000000E+02  0.51100000000E-03 0. -1.
         11   -1    0    0    0    0 -0.00000000000E+00 -0.00000000000E+00 -0.45593999997E+02  0.45594000000E+02  0.51100000000E-03 0.  1.
    9900012    2    1    2    0    0  0.42311518340E+02  0.46107182662E+01  0.84911569839E+01  0.47787273576E+02  0.20000011543E+02 0.  0.
        -12    1    1    2    0    0 -0.42311518340E+02 -0.46107182662E+01 -0.84911569839E+01  0.43400726424E+02  0.00000000000E+00 0.  1.
         11    1    3    3    0    0  0.24182883901E+02 -0.36076099805E+01  0.12499054371E+01  0.24482422008E+02  0.51100000000E-03 0. -1.
        -11    1    3    3    0    0  0.19256840348E+01  0.51236307668E+01  0.54116002730E+00  0.55002459647E+01  0.51100000000E-03 0.  1.
         12    1    3    3    0    0  0.16202950405E+02  0.30946974800E+01  0.67000915195E+01  0.17804605603E+02  0.00000000000E+00 0. -1.
</event>
<event>
 7    1  0.2983653E-010  0.4778727E+02  0.7816164E-02  0.1312668E+00
        -11   -1    0    0    0    0  0.00000000000E+00  0.00000000000E+00  0.45593999997E+02  0.45594000000E+02  0.51100000000E-03 0. -1.
         11   -1    0    0    0    0 -0.00000000000E+00 -0.00000000000E+00 -0.45593999997E+02  0.45594000000E+02  0.51100000000E-03 0.  1.
    9900012    2    1    2    0    0 -0.19388408980E+02 -0.18573659390E+02  0.34098855565E+02  0.47787272164E+02  0.20000005103E+02 0.  0.
        -12    1    1    2    0    0  0.19388408980E+02  0.18573659390E+02 -0.34098855565E+02  0.43400727836E+02  0.00000000000E+00 0.  1.
         11    1    3    3    0    0 -0.10541028743E+02 -0.49252254287E+01  0.27776990744E+02  0.30115317490E+02  0.51100000000E-03 0. -1.
        -11    1    3    3    0    0 -0.67592394200E+01 -0.11284589098E+02  0.39781876764E+01  0.13742461428E+02  0.51100000000E-03 0.  1.
         12    1    3    3    0    0 -0.20881408168E+01 -0.23638448631E+01  0.23436771441E+01  0.39294932451E+01  0.00000000000E+00 0. -1.
</event>
<event>
 7    1  0.2983653E-010  0.4778726E+02  0.7816164E-02  0.1312668E+00
        -11   -1    0    0    0    0  0.00000000000E+00  0.00000000000E+00  0.45593999997E+02  0.45594000000E+02  0.51100000000E-03 0.  1.
         11   -1    0    0    0    0 -0.00000000000E+00 -0.00000000000E+00 -0.45593999997E+02  0.45594000000E+02  0.51100000000E-03 0. -1.
    9900012    2    1    2    0    0 -0.20695605299E+02 -0.36994903071E+02 -0.93109073857E+01  0.47787263506E+02  0.19999965629E+02 0.  0.
        -12    1    1    2    0    0  0.20695605299E+02  0.36994903071E+02  0.93109073857E+01  0.43400736494E+02  0.00000000000E+00 0.  1.
         11    1    3    3    0    0 -0.17263837744E+02 -0.29747562517E+02 -0.21524280813E+01  0.34461435203E+02  0.51100000000E-03 0. -1.
        -11    1    3    3    0    0 -0.56971079270E+00  0.14515539746E+01 -0.27522514825E+01  0.31633001459E+01  0.51100000000E-03 0.  1.
         12    1    3    3    0    0 -0.28620567625E+01 -0.86988945286E+01 -0.44062278218E+01  0.10162528157E+02  0.00000000000E+00 0. -1.
</event>
<event>
 7    1  0.2983653E-010  0.4778727E+02  0.7816164E-02  0.1312668E+00
        -11   -1    0    0    0    0  0.00000000000E+00  0.00000000000E+00  0.45593999997E+02  0.45594000000E+02  0.51100000000E-03 0.  1.
         11   -1    0    0    0    0 -0.00000000000E+00 -0.00000000000E+00 -0.45593999997E+02  0.45594000000E+02  0.51100000000E-03 0. -1.
    9900012    2    1    2    0    0 -0.19787375604E+02 -0.11073184682E+02 -0.37006318134E+02  0.47787271503E+02  0.20000002089E+02 0.  0.
        -12    1    1    2    0    0  0.19787375604E+02  0.11073184682E+02  0.37006318134E+02  0.43400728497E+02  0.00000000000E+00 0.  1.
         11    1    3    3    0    0 -0.13561461487E+02  0.92183097598E+00 -0.21755279625E+02  0.25652586650E+02  0.51100000000E-03 0. -1.
        -11    1    3    3    0    0  0.99150211004E+00 -0.61128300435E+01 -0.89826001440E+01  0.10910402063E+02  0.51100000000E-03 0.  1.
         12    1    3    3    0    0 -0.72174162272E+01 -0.58821856147E+01 -0.62684383644E+01  0.11224282789E+02  0.00000000000E+00 0. -1.
</event>
<event>
 7    1  0.2983653E-010  0.4778728E+02  0.7816164E-02  0.1312668E+00
        -11   -1    0    0    0    0  0.00000000000E+00  0.00000000000E+00  0.45593999997E+02  0.45594000000E+02  0.51100000000E-03 0.  1.
         11   -1    0    0    0    0 -0.00000000000E+00 -0.00000000000E+00 -0.45593999997E+02  0.45594000000E+02  0.51100000000E-03 0. -1.
    9900012    2    1    2    0    0 -0.38885318269E+02 -0.19021910072E+02  0.31179440647E+01  0.47787278636E+02  0.20000034615E+02 0.  0.
        -12    1    1    2    0    0  0.38885318269E+02  0.19021910072E+02 -0.31179440647E+01  0.43400721364E+02  0.00000000000E+00 0.  1.
         11    1    3    3    0    0 -0.35453144423E+01 -0.66716531741E+01 -0.11252990501E+01  0.76384886453E+01  0.51100000000E-03 0. -1.
        -11    1    3    3    0    0 -0.18104887512E+02  0.55036668049E+00  0.43152879437E+01  0.18620192416E+02  0.51100000000E-03 0.  1.
        -12    1    3    3    0    0 -0.17235116314E+02 -0.12900623579E+02 -0.72044828879E-01  0.21528597575E+02  0.00000000000E+00 0.  1.
</event>
<event>
 7    1  0.2983653E-010  0.4778727E+02  0.7816164E-02  0.1312668E+00
        -11   -1    0    0    0    0  0.00000000000E+00  0.00000000000E+00  0.45593999997E+02  0.45594000000E+02  0.51100000000E-03 0. -1.
         11   -1    0    0    0    0 -0.00000000000E+00 -0.00000000000E+00 -0.45593999997E+02  0.45594000000E+02  0.51100000000E-03 0.  1.
    9900012    2    1    2    0    0 -0.39896786928E+02  0.10482518943E+02  0.13490228139E+02  0.47787273441E+02  0.20000010928E+02 0.  0.
        -12    1    1    2    0    0  0.39896786928E+02 -0.10482518943E+02 -0.13490228139E+02  0.43400726559E+02  0.00000000000E+00 0.  1.
         11    1    3    3    0    0 -0.11596718121E+02 -0.36181565482E+01  0.11096882501E+01  0.12198620260E+02  0.51100000000E-03 0. -1.
        -11    1    3    3    0    0 -0.45566534929E+01  0.69751281931E+01  0.50300592075E+01  0.97322659364E+01  0.51100000000E-03 0.  1.
        -12    1    3    3    0    0 -0.23743415315E+02  0.71255472983E+01  0.73504806818E+01  0.25856387245E+02  0.00000000000E+00 0.  1.
</event>
<event>
 7    1  0.2983653E-010  0.4778727E+02  0.7816164E-02  0.1312668E+00
        -11   -1    0    0    0    0  0.00000000000E+00  0.00000000000E+00  0.45593999997E+02  0.45594000000E+02  0.51100000000E-03 0.  1.
         11   -1    0    0    0    0 -0.00000000000E+00 -0.00000000000E+00 -0.45593999997E+02  0.45594000000E+02  0.51100000000E-03 0. -1.
    9900012    2    1    2    0    0 -0.18561967814E+02 -0.20729489306E+01 -0.39176262984E+02  0.47787270193E+02  0.19999996117E+02 0.  0.
        -12    1    1    2    0    0  0.18561967814E+02  0.20729489306E+01  0.39176262984E+02  0.43400729807E+02  0.00000000000E+00 0.  1.
         11    1    3    3    0    0 -0.49927343466E+01 -0.59661174946E+01 -0.23128055285E+02  0.24401411757E+02  0.51100000000E-03 0. -1.
        -11    1    3    3    0    0 -0.10571293204E+02  0.44860734321E+01 -0.16693918224E+02  0.20262378952E+02  0.51100000000E-03 0.  1.
         12    1    3    3    0    0 -0.29979402629E+01 -0.59290486804E+00  0.64571052532E+00  0.31234794837E+01  0.00000000000E+00 0. -1.
</event>
<event>
 7    1  0.2983653E-010  0.4778732E+02  0.7816164E-02  0.1312668E+00
        -11   -1    0    0    0    0  0.00000000000E+00  0.00000000000E+00  0.45593999997E+02  0.45594000000E+02  0.51100000000E-03 0.  1.
         11   -1    0    0    0    0 -0.00000000000E+00 -0.00000000000E+00 -0.45593999997E+02  0.45594000000E+02  0.51100000000E-03 0. -1.
    9900012    2    1    2    0    0 -0.42748822526E+02 -0.49754289393E+01  0.56037918580E+01  0.47787317936E+02  0.20000213795E+02 0.  0.
        -12    1    1    2    0    0  0.42748822526E+02  0.49754289393E+01 -0.56037918580E+01  0.43400682064E+02  0.00000000000E+00 0.  1.
         11    1    3    3    0    0 -0.34635914789E+02 -0.43023079290E+01  0.15761836666E+00  0.34902453934E+02  0.51100000000E-03 0. -1.
        -11    1    3    3    0    0  0.13625825341E+01 -0.16285654316E+01  0.64289890776E+00  0.22185977089E+01  0.51100000000E-03 0.  1.
         12    1    3    3    0    0 -0.94754902709E+01  0.95544442131E+00  0.48032745836E+01  0.10666266293E+02  0.00000000000E+00 0. -1.
</event>
<event>
 7    1  0.2983653E-010  0.4778727E+02  0.7816164E-02  0.1312668E+00
        -11   -1    0    0    0    0  0.00000000000E+00  0.00000000000E+00  0.45593999997E+02  0.45594000000E+02  0.51100000000E-03 0. -1.
         11   -1    0    0    0    0 -0.00000000000E+00 -0.00000000000E+00 -0.45593999997E+02  0.45594000000E+02  0.51100000000E-03 0.  1.
    9900012    2    1    2    0    0  0.37877700882E+02 -0.10511183248E+01  0.21161238222E+02  0.47787273314E+02  0.20000010346E+02 0.  0.
        -12    1    1    2    0    0 -0.37877700882E+02  0.10511183248E+01 -0.21161238222E+02  0.43400726686E+02  0.00000000000E+00 0.  1.
         11    1    3    3    0    0  0.20480138362E+02 -0.93426324372E+01  0.89224938219E+01  0.24214288022E+02  0.51100000000E-03 0. -1.
        -11    1    3    3    0    0  0.10859471713E+02  0.34049167396E+01  0.98946029074E+01  0.15080608437E+02  0.51100000000E-03 0.  1.
        -12    1    3    3    0    0  0.65380908075E+01  0.48865973728E+01  0.23441414929E+01  0.84923768540E+01  0.00000000000E+00 0.  1.
</event>
<event>
 7    1  0.2983653E-010  0.4778725E+02  0.7816164E-02  0.1312668E+00
        -11   -1    0    0    0    0  0.00000000000E+00  0.00000000000E+00  0.45593999997E+02  0.45594000000E+02  0.51100000000E-03 0.  1.
         11   -1    0    0    0    0 -0.00000000000E+00 -0.00000000000E+00 -0.45593999997E+02  0.45594000000E+02  0.51100000000E-03 0. -1.
    9900012    2    1    2    0    0  0.29010960832E+01  0.10248147809E+02 -0.42073554609E+02  0.47787252432E+02  0.19999915138E+02 0.  0.
        -12    1    1    2    0    0 -0.29010960832E+01 -0.10248147809E+02  0.42073554609E+02  0.43400747568E+02  0.00000000000E+00 0.  1.
         11    1    3    3    0    0  0.78934493630E+01  0.88396927448E+00 -0.12900548362E+02  0.15149656525E+02  0.51100000000E-03 0. -1.
        -11    1    3    3    0    0 -0.35651845980E+01  0.23132432469E+01 -0.22254635498E+02  0.22656796705E+02  0.51100000000E-03 0.  1.
         12    1    3    3    0    0 -0.14271686818E+01  0.70509352880E+01 -0.69183707493E+01  0.99807992018E+01  0.00000000000E+00 0. -1.
</event>
<event>
 7    1  0.2983653E-010  0.4778727E+02  0.7816164E-02  0.1312668E+00
        -11   -1    0    0    0    0  0.00000000000E+00  0.00000000000E+00  0.45593999997E+02  0.45594000000E+02  0.51100000000E-03 0.  1.
         11   -1    0    0    0    0 -0.00000000000E+00 -0.00000000000E+00 -0.45593999997E+02  0.45594000000E+02  0.51100000000E-03 0. -1.
    9900012    2    1    2    0    0 -0.30679359326E+01  0.19128848245E+02 -0.38836815961E+02  0.47787270282E+02  0.19999996525E+02 0.  0.
        -12    1    1    2    0    0  0.30679359326E+01 -0.19128848245E+02  0.38836815961E+02  0.43400729718E+02  0.00000000000E+00 0.  1.
         11    1    3    3    0    0 -0.10251252077E+00  0.97089508951E+01 -0.25446546228E+02  0.27236023048E+02  0.51100000000E-03 0. -1.
        -11    1    3    3    0    0  0.31814713923E+01  0.47200578557E+01 -0.76481543693E+00  0.57433134421E+01  0.51100000000E-03 0.  1.
        -12    1    3    3    0    0 -0.61468948041E+01  0.46998394945E+01 -0.12625454296E+02  0.14807933792E+02  0.00000000000E+00 0.  1.
</event>
<event>
 7    1  0.2983653E-010  0.4778727E+02  0.7816164E-02  0.1312668E+00
        -11   -1    0    0    0    0  0.00000000000E+00  0.00000000000E+00  0.45593999997E+02  0.45594000000E+02  0.51100000000E-03 0.  1.
         11   -1    0    0    0    0 -0.00000000000E+00 -0.00000000000E+00 -0.45593999997E+02  0.45594000000E+02  0.51100000000E-03 0. -1.
    9900012    2    1    2    0    0 -0.36349091912E+01  0.29636938917E+02 -0.31497026346E+02  0.47787269800E+02  0.19999994327E+02 0.  0.
        -12    1    1    2    0    0  0.36349091912E+01 -0.29636938917E+02  0.31497026346E+02  0.43400730200E+02  0.00000000000E+00 0.  1.
         11    1    3    3    0    0  0.47235160226E+01  0.10801300795E+02 -0.98052360875E+01  0.15333700058E+02  0.51100000000E-03 0. -1.
        -11    1    3    3    0    0 -0.65602809492E+01  0.22216979604E+01 -0.95503337864E+01  0.11797546510E+02  0.51100000000E-03 0.  1.
        -12    1    3    3    0    0 -0.17981442646E+01  0.16613940162E+02 -0.12141456472E+02  0.20656023232E+02  0.00000000000E+00 0.  1.
</event>
<event>
 7    1  0.2983653E-010  0.4778727E+02  0.7816164E-02  0.1312668E+00
        -11   -1    0    0    0    0  0.00000000000E+00  0.00000000000E+00  0.45593999997E+02  0.45594000000E+02  0.51100000000E-03 0.  1.
         11   -1    0    0    0    0 -0.00000000000E+00 -0.00000000000E+00 -0.45593999997E+02  0.45594000000E+02  0.51100000000E-03 0. -1.
    9900012    2    1    2    0    0  0.26360147343E+02  0.13761069978E+02 -0.31613268959E+02  0.47787272021E+02  0.20000004451E+02 0.  0.
        -12    1    1    2    0    0 -0.26360147343E+02 -0.13761069978E+02  0.31613268959E+02  0.43400727979E+02  0.00000000000E+00 0.  1.
         11    1    3    3    0    0  0.77303426714E+01  0.60298158727E+01 -0.58055665283E+01  0.11393922953E+02  0.51100000000E-03 0.  1.
        -11    1    3    3    0    0  0.10727470960E+02 -0.46431871816E+00 -0.34061728754E+01  0.11264823079E+02  0.51100000000E-03 0. -1.
        -12    1    3    3    0    0  0.79023337111E+01  0.81955728236E+01 -0.22401529555E+02  0.25128525989E+02  0.00000000000E+00 0.  1.
</event>
<event>
 7    1  0.2983653E-010  0.4778726E+02  0.7816164E-02  0.1312668E+00
        -11   -1    0    0    0    0  0.00000000000E+00  0.00000000000E+00  0.45593999997E+02  0.45594000000E+02  0.51100000000E-03 0.  1.
         11   -1    0    0    0    0 -0.00000000000E+00 -0.00000000000E+00 -0.45593999997E+02  0.45594000000E+02  0.51100000000E-03 0. -1.
    9900012    2    1    2    0    0  0.35395712322E+02 -0.10967666671E+02 -0.22593768345E+02  0.47787256562E+02  0.19999933968E+02 0.  0.
        -12    1    1    2    0    0 -0.35395712322E+02  0.10967666671E+02  0.22593768345E+02  0.43400743438E+02  0.00000000000E+00 0.  1.
         11    1    3    3    0    0  0.24368166825E+02 -0.88109920553E+01 -0.17060368962E+02  0.31024141000E+02  0.51100000000E-03 0. -1.
        -11    1    3    3    0    0  0.93183140197E+01 -0.44060736330E+01  0.26737714747E+00  0.10310962701E+02  0.51100000000E-03 0.  1.
         12    1    3    3    0    0  0.17092314766E+01  0.22493990174E+01 -0.58007765299E+01  0.64521528601E+01  0.00000000000E+00 0. -1.
</event>
<event>
 7    1  0.2983653E-010  0.4778727E+02  0.7816164E-02  0.1312668E+00
        -11   -1    0    0    0    0  0.00000000000E+00  0.00000000000E+00  0.45593999997E+02  0.45594000000E+02  0.51100000000E-03 0.  1.
         11   -1    0    0    0    0 -0.00000000000E+00 -0.00000000000E+00 -0.45593999997E+02  0.45594000000E+02  0.51100000000E-03 0. -1.
    9900012    2    1    2    0    0 -0.16472562427E+01  0.27295790513E+01 -0.43283473944E+02  0.47787272223E+02  0.20000005373E+02 0.  0.
        -12    1    1    2    0    0  0.16472562427E+01 -0.27295790513E+01  0.43283473944E+02  0.43400727777E+02  0.00000000000E+00 0.  1.
         11    1    3    3    0    0 -0.20999640523E+01  0.17158955371E+01 -0.24334285309E+02  0.24484925736E+02  0.51100000000E-03 0. -1.
        -11    1    3    3    0    0 -0.43726715361E+01  0.62652185009E+00 -0.76280103226E+00  0.44827058421E+01  0.51100000000E-03 0.  1.
        -12    1    3    3    0    0  0.48253793457E+01  0.38716166407E+00 -0.18186387602E+02  0.18819640645E+02  0.00000000000E+00 0.  1.
</event>
<event>
 7    1  0.2983653E-010  0.4778727E+02  0.7816164E-02  0.1312668E+00
        -11   -1    0    0    0    0  0.00000000000E+00  0.00000000000E+00  0.45593999997E+02  0.45594000000E+02  0.51100000000E-03 0.  1.
         11   -1    0    0    0    0 -0.00000000000E+00 -0.00000000000E+00 -0.45593999997E+02  0.45594000000E+02  0.51100000000E-03 0. -1.
    9900012    2    1    2    0    0  0.51385995100E+01  0.14664274809E+02 -0.40523784649E+02  0.47787270941E+02  0.19999999528E+02 0.  0.
        -12    1    1    2    0    0 -0.51385995100E+01 -0.14664274809E+02  0.40523784649E+02  0.43400729059E+02  0.00000000000E+00 0.  1.
         11    1    3    3    0    0 -0.29905059278E+01  0.86869731297E+01 -0.63113923984E+01  0.11146313387E+02  0.51100000000E-03 0. -1.
        -11    1    3    3    0    0  0.60021701095E+01 -0.70913191547E+00 -0.14139947708E+02  0.15377484695E+02  0.51100000000E-03 0.  1.
         12    1    3    3    0    0  0.21269353283E+01  0.66864335952E+01 -0.20072444542E+02  0.21263472859E+02  0.00000000000E+00 0. -1.
</event>
<event>
 7    1  0.2983653E-010  0.4778721E+02  0.7816164E-02  0.1312668E+00
        -11   -1    0    0    0    0  0.00000000000E+00  0.00000000000E+00  0.45593999997E+02  0.45594000000E+02  0.51100000000E-03 0. -1.
         11   -1    0    0    0    0 -0.00000000000E+00 -0.00000000000E+00 -0.45593999997E+02  0.45594000000E+02  0.51100000000E-03 0.  1.
    9900012    2    1    2    0    0 -0.40717185486E+02 -0.97639982452E+01 -0.11419434033E+02  0.47787212804E+02  0.19999734456E+02 0.  0.
        -12    1    1    2    0    0  0.40717185486E+02  0.97639982452E+01  0.11419434033E+02  0.43400787196E+02  0.00000000000E+00 0.  1.
         11    1    3    3    0    0 -0.31332445783E+02 -0.51020817385E+01 -0.51583340029E+00  0.31749322531E+02  0.51100000000E-03 0. -1.
        -11    1    3    3    0    0 -0.26881185296E+01 -0.37681654593E+01 -0.64767180274E+01  0.79607115778E+01  0.51100000000E-03 0.  1.
         12    1    3    3    0    0 -0.66966211733E+01 -0.89375104739E+00 -0.44268826054E+01  0.80771786953E+01  0.00000000000E+00 0. -1.
</event>
<event>
 7    1  0.2983653E-010  0.4778727E+02  0.7816164E-02  0.1312668E+00
        -11   -1    0    0    0    0  0.00000000000E+00  0.00000000000E+00  0.45593999997E+02  0.45594000000E+02  0.51100000000E-03 0. -1.
         11   -1    0    0    0    0 -0.00000000000E+00 -0.00000000000E+00 -0.45593999997E+02  0.45594000000E+02  0.51100000000E-03 0.  1.
    9900012    2    1    2    0    0 -0.16034800179E+02 -0.34985302450E+02  0.20063324111E+02  0.47787272141E+02  0.20000005001E+02 0.  0.
        -12    1    1    2    0    0  0.16034800179E+02  0.34985302450E+02 -0.20063324111E+02  0.43400727859E+02  0.00000000000E+00 0.  1.
         11    1    3    3    0    0  0.35555398172E+01 -0.84171147603E+01  0.39776922778E+01  0.99655265992E+01  0.51100000000E-03 0. -1.
        -11    1    3    3    0    0 -0.82088021729E+01 -0.11192297061E+02  0.19072848212E+01  0.14010341975E+02  0.51100000000E-03 0.  1.
         12    1    3    3    0    0 -0.11381537823E+02 -0.15375890629E+02  0.14178347012E+02  0.23811403567E+02  0.00000000000E+00 0. -1.
</event>
<event>
 7    1  0.2983653E-010  0.4778727E+02  0.7816164E-02  0.1312668E+00
        -11   -1    0    0    0    0  0.00000000000E+00  0.00000000000E+00  0.45593999997E+02  0.45594000000E+02  0.51100000000E-03 0.  1.
         11   -1    0    0    0    0 -0.00000000000E+00 -0.00000000000E+00 -0.45593999997E+02  0.45594000000E+02  0.51100000000E-03 0. -1.
    9900012    2    1    2    0    0 -0.26445213886E+02 -0.33936951687E+02  0.57058948657E+01  0.47787271164E+02  0.20000000543E+02 0.  0.
        -12    1    1    2    0    0  0.26445213886E+02  0.33936951687E+02 -0.57058948657E+01  0.43400728836E+02  0.00000000000E+00 0.  1.
         11    1    3    3    0    0 -0.16019348686E+02 -0.32047076790E+02  0.13246211995E+01  0.35852326071E+02  0.51100000000E-03 0. -1.
        -11    1    3    3    0    0 -0.59190994165E+01 -0.18206100006E+01  0.40833255783E+01  0.74178101025E+01  0.51100000000E-03 0.  1.
         12    1    3    3    0    0 -0.45067657839E+01 -0.69264896416E-01  0.29794808784E+00  0.45171349902E+01  0.00000000000E+00 0. -1.
</event>
<event>
 7    1  0.2983653E-010  0.4778727E+02  0.7816164E-02  0.1312668E+00
        -11   -1    0    0    0    0  0.00000000000E+00  0.00000000000E+00  0.45593999997E+02  0.45594000000E+02  0.51100000000E-03 0.  1.
         11   -1    0    0    0    0 -0.00000000000E+00 -0.00000000000E+00 -0.45593999997E+02  0.45594000000E+02  0.51100000000E-03 0. -1.
    9900012    2    1    2    0    0  0.18292070814E+01 -0.42090264803E+02 -0.10425297914E+02  0.47787271592E+02  0.20000002495E+02 0.  0.
        -12    1    1    2    0    0 -0.18292070814E+01  0.42090264803E+02  0.10425297914E+02  0.43400728408E+02  0.00000000000E+00 0.  1.
         11    1    3    3    0    0 -0.33787287426E+01 -0.22606329342E+02 -0.35282242248E+01  0.23128127911E+02  0.51100000000E-03 0. -1.
        -11    1    3    3    0    0  0.71051032136E+01 -0.14071698511E+02 -0.94524022970E+01  0.18380508701E+02  0.51100000000E-03 0.  1.
         12    1    3    3    0    0 -0.18971673896E+01 -0.54122369511E+01  0.25553286078E+01  0.62786349800E+01  0.00000000000E+00 0. -1.
</event>
<event>
 7    1  0.2983653E-010  0.4778727E+02  0.7816164E-02  0.1312668E+00
        -11   -1    0    0    0    0  0.00000000000E+00  0.00000000000E+00  0.45593999997E+02  0.45594000000E+02  0.51100000000E-03 0.  1.
         11   -1    0    0    0    0 -0.00000000000E+00 -0.00000000000E+00 -0.45593999997E+02  0.45594000000E+02  0.51100000000E-03 0. -1.
    9900012    2    1    2    0    0  0.15007430294E+02  0.16678687388E+02 -0.37151335105E+02  0.47787271007E+02  0.19999999832E+02 0.  0.
        -12    1    1    2    0    0 -0.15007430294E+02 -0.16678687388E+02  0.37151335105E+02  0.43400728993E+02  0.00000000000E+00 0.  1.
         11    1    3    3    0    0  0.14291140658E+02  0.51154976701E+01 -0.25324381776E+02  0.29525062749E+02  0.51100000000E-03 0. -1.
        -11    1    3    3    0    0  0.13638805818E+01 -0.93898129548E-01 -0.39461509077E+01  0.41762536259E+01  0.51100000000E-03 0.  1.
         12    1    3    3    0    0 -0.64759094642E+00  0.11657087847E+02 -0.78808024213E+01  0.14085954633E+02  0.00000000000E+00 0. -1.
</event>
<event>
 7    1  0.2983653E-010  0.4778727E+02  0.7816164E-02  0.1312668E+00
        -11   -1    0    0    0    0  0.00000000000E+00  0.00000000000E+00  0.45593999997E+02  0.45594000000E+02  0.51100000000E-03 0.  1.
         11   -1    0    0    0    0 -0.00000000000E+00 -0.00000000000E+00 -0.45593999997E+02  0.45594000000E+02  0.51100000000E-03 0. -1.
    9900012    2    1    2    0    0  0.25988088655E+02 -0.34726143906E+02 -0.15288521045E+01  0.47787271766E+02  0.20000003289E+02 0.  0.
        -12    1    1    2    0    0 -0.25988088655E+02  0.34726143906E+02  0.15288521045E+01  0.43400728234E+02  0.00000000000E+00 0.  1.
         11    1    3    3    0    0  0.18995197196E+02 -0.32487346905E+02  0.48772819912E+01  0.37947768120E+02  0.51100000000E-03 0. -1.
        -11    1    3    3    0    0  0.95518618135E+00  0.38829581660E-01 -0.44496159773E+00  0.10544569512E+01  0.51100000000E-03 0.  1.
         12    1    3    3    0    0  0.60377052778E+01 -0.22776265825E+01 -0.59611724980E+01  0.87850466943E+01  0.00000000000E+00 0. -1.
</event>
<event>
 7    1  0.2983653E-010  0.4778728E+02  0.7816164E-02  0.1312668E+00
        -11   -1    0    0    0    0  0.00000000000E+00  0.00000000000E+00  0.45593999997E+02  0.45594000000E+02  0.51100000000E-03 0.  1.
         11   -1    0    0    0    0 -0.00000000000E+00 -0.00000000000E+00 -0.45593999997E+02  0.45594000000E+02  0.51100000000E-03 0. -1.
    9900012    2    1    2    0    0  0.13497261033E-02 -0.18110432065E+02 -0.39441540059E+02  0.47787276116E+02  0.20000023124E+02 0.  0.
        -12    1    1    2    0    0 -0.13497261033E-02  0.18110432065E+02  0.39441540059E+02  0.43400723884E+02  0.00000000000E+00 0.  1.
         11    1    3    3    0    0 -0.71732387895E+01 -0.40455467955E+01 -0.11648567999E+02  0.14265726069E+02  0.51100000000E-03 0. -1.
        -11    1    3    3    0    0  0.33240633410E+01 -0.78323490978E+01 -0.56891993480E+01  0.10235334824E+02  0.51100000000E-03 0.  1.
         12    1    3    3    0    0  0.38505251746E+01 -0.62325361719E+01 -0.22103772712E+02  0.23286215222E+02  0.00000000000E+00 0. -1.
</event>
<event>
 7    1  0.2983653E-010  0.4778727E+02  0.7816164E-02  0.1312668E+00
        -11   -1    0    0    0    0  0.00000000000E+00  0.00000000000E+00  0.45593999997E+02  0.45594000000E+02  0.51100000000E-03 0.  1.
         11   -1    0    0    0    0 -0.00000000000E+00 -0.00000000000E+00 -0.45593999997E+02  0.45594000000E+02  0.51100000000E-03 0. -1.
    9900012    2    1    2    0    0 -0.35374167626E+01 -0.26066909837E+02 -0.34519939207E+02  0.47787270644E+02  0.19999998173E+02 0.  0.
        -12    1    1    2    0    0  0.35374167626E+01  0.26066909837E+02  0.34519939207E+02  0.43400729356E+02  0.00000000000E+00 0.  1.
         11    1    3    3    0    0 -0.61279444069E+01 -0.20971044829E+02 -0.21572755023E+02  0.30703748686E+02  0.51100000000E-03 0. -1.
        -11    1    3    3    0    0  0.43073825912E+01 -0.33850068490E+01 -0.19384755164E+01  0.58111533918E+01  0.51100000000E-03 0.  1.
         12    1    3    3    0    0 -0.17168549469E+01 -0.17108581597E+01 -0.11008708668E+02  0.11272368566E+02  0.00000000000E+00 0. -1.
</event>
<event>
 7    1  0.2983653E-010  0.4778727E+02  0.7816164E-02  0.1312668E+00
        -11   -1    0    0    0    0  0.00000000000E+00  0.00000000000E+00  0.45593999997E+02  0.45594000000E+02  0.51100000000E-03 0.  1.
         11   -1    0    0    0    0 -0.00000000000E+00 -0.00000000000E+00 -0.45593999997E+02  0.45594000000E+02  0.51100000000E-03 0. -1.
    9900012    2    1    2    0    0 -0.10117075714E+02  0.20320929894E+02 -0.36990914624E+02  0.47787272155E+02  0.20000005063E+02 0.  0.
        -12    1    1    2    0    0  0.10117075714E+02 -0.20320929894E+02  0.36990914624E+02  0.43400727845E+02  0.00000000000E+00 0.  1.
         11    1    3    3    0    0 -0.85837609595E+00  0.17871174534E+02 -0.26809767786E+02  0.32231651179E+02  0.51100000000E-03 0. -1.
        -11    1    3    3    0    0 -0.83171305435E+01  0.24563279743E+01 -0.44494405332E+01  0.97470882275E+01  0.51100000000E-03 0.  1.
        -12    1    3    3    0    0 -0.94156907490E+00 -0.65726143836E-02 -0.57317063048E+01  0.58085327482E+01  0.00000000000E+00 0.  1.
</event>
<event>
 7    1  0.2983653E-010  0.4778726E+02  0.7816164E-02  0.1312668E+00
        -11   -1    0    0    0    0  0.00000000000E+00  0.00000000000E+00  0.45593999997E+02  0.45594000000E+02  0.51100000000E-03 0. -1.
         11   -1    0    0    0    0 -0.00000000000E+00 -0.00000000000E+00 -0.45593999997E+02  0.45594000000E+02  0.51100000000E-03 0.  1.
    9900012    2    1    2    0    0  0.11913239621E+01  0.43189624471E+02 -0.41062090376E+01  0.47787264207E+02  0.19999968825E+02 0.  0.
        -12    1    1    2    0    0 -0.11913239621E+01 -0.43189624471E+02  0.41062090376E+01  0.43400735793E+02  0.00000000000E+00 0.  1.
         11    1    3    3    0    0 -0.31525026267E+01  0.14290895599E+01 -0.26061003994E+01  0.43327046212E+01  0.51100000000E-03 0.  1.
        -11    1    3    3    0    0  0.33989581534E+01  0.35228996343E+02 -0.53797902353E+01  0.35799123496E+02  0.51100000000E-03 0. -1.
        -12    1    3    3    0    0  0.94486843541E+00  0.65315385681E+01  0.38796815972E+01  0.76554360897E+01  0.00000000000E+00 0.  1.
</event>
<event>
 7    1  0.2983653E-010  0.4778727E+02  0.7816164E-02  0.1312668E+00
        -11   -1    0    0    0    0  0.00000000000E+00  0.00000000000E+00  0.45593999997E+02  0.45594000000E+02  0.51100000000E-03 0.  1.
         11   -1    0    0    0    0 -0.00000000000E+00 -0.00000000000E+00 -0.45593999997E+02  0.45594000000E+02  0.51100000000E-03 0. -1.
    9900012    2    1    2    0    0  0.41903104394E+01  0.16629266533E+01 -0.43165956119E+02  0.47787265049E+02  0.19999972663E+02 0.  0.
        -12    1    1    2    0    0 -0.41903104394E+01 -0.16629266533E+01  0.43165956119E+02  0.43400734951E+02  0.00000000000E+00 0.  1.
         11    1    3    3    0    0 -0.95714777298E+00 -0.25035620559E+01 -0.60952720449E+01  0.66585506222E+01  0.51100000000E-03 0. -1.
        -11    1    3    3    0    0  0.32827251106E+01 -0.60410388282E+01 -0.99822019571E+01  0.12120841161E+02  0.51100000000E-03 0.  1.
        -12    1    3    3    0    0  0.18647331018E+01  0.10207527537E+02 -0.27088482117E+02  0.29007873265E+02  0.00000000000E+00 0.  1.
</event>
<event>
 7    1  0.2983653E-010  0.4778727E+02  0.7816164E-02  0.1312668E+00
        -11   -1    0    0    0    0  0.00000000000E+00  0.00000000000E+00  0.45593999997E+02  0.45594000000E+02  0.51100000000E-03 0.  1.
         11   -1    0    0    0    0 -0.00000000000E+00 -0.00000000000E+00 -0.45593999997E+02  0.45594000000E+02  0.51100000000E-03 0. -1.
    9900012    2    1    2    0    0 -0.17947054421E+02  0.14040005311E+02 -0.36937847501E+02  0.47787273168E+02  0.20000009684E+02 0.  0.
        -12    1    1    2    0    0  0.17947054421E+02 -0.14040005311E+02  0.36937847501E+02  0.43400726832E+02  0.00000000000E+00 0.  1.
         11    1    3    3    0    0 -0.72789970095E+01  0.41879561707E+01 -0.39660774061E+01  0.92872248063E+01  0.51100000000E-03 0. -1.
        -11    1    3    3    0    0 -0.69652445829E+01  0.12822682310E+02 -0.28294750311E+02  0.31835965655E+02  0.51100000000E-03 0.  1.
        -12    1    3    3    0    0 -0.37028128287E+01 -0.29706331699E+01 -0.46770197836E+01  0.66640827074E+01  0.00000000000E+00 0.  1.
</event>
<event>
 7    1  0.2983653E-010  0.4778727E+02  0.7816164E-02  0.1312668E+00
        -11   -1    0    0    0    0  0.00000000000E+00  0.00000000000E+00  0.45593999997E+02  0.45594000000E+02  0.51100000000E-03 0.  1.
         11   -1    0    0    0    0 -0.00000000000E+00 -0.00000000000E+00 -0.45593999997E+02  0.45594000000E+02  0.51100000000E-03 0. -1.
    9900012    2    1    2    0    0 -0.15323463343E+02 -0.36365663186E+02 -0.18065246718E+02  0.47787272739E+02  0.20000007725E+02 0.  0.
        -12    1    1    2    0    0  0.15323463343E+02  0.36365663186E+02  0.18065246718E+02  0.43400727261E+02  0.00000000000E+00 0.  1.
         11    1    3    3    0    0 -0.18261384000E+00 -0.16246988666E+02 -0.68950013139E+01  0.17650468320E+02  0.51100000000E-03 0. -1.
        -11    1    3    3    0    0 -0.14300120477E+02 -0.12667994539E+02 -0.12050573812E+02  0.22587338505E+02  0.51100000000E-03 0.  1.
        -12    1    3    3    0    0 -0.84072902660E+00 -0.74506799807E+01  0.88032840773E+00  0.75494659134E+01  0.00000000000E+00 0.  1.
</event>
<event>
 7    1  0.2983653E-010  0.4778727E+02  0.7816164E-02  0.1312668E+00
        -11   -1    0    0    0    0  0.00000000000E+00  0.00000000000E+00  0.45593999997E+02  0.45594000000E+02  0.51100000000E-03 0. -1.
         11   -1    0    0    0    0 -0.00000000000E+00 -0.00000000000E+00 -0.45593999997E+02  0.45594000000E+02  0.51100000000E-03 0.  1.
    9900012    2    1    2    0    0  0.72398544903E+01 -0.39739311908E+02  0.15874345975E+02  0.47787271157E+02  0.20000000513E+02 0.  0.
        -12    1    1    2    0    0 -0.72398544903E+01  0.39739311908E+02 -0.15874345975E+02  0.43400728843E+02  0.00000000000E+00 0.  1.
         11    1    3    3    0    0 -0.64950656484E+00 -0.15247934582E+02  0.13444053792E+02  0.20338730305E+02  0.51100000000E-03 0. -1.
        -11    1    3    3    0    0  0.68626667609E+01 -0.16198001834E+02 -0.24649051732E+01  0.17763648731E+02  0.51100000000E-03 0.  1.
        -12    1    3    3    0    0  0.10266942942E+01 -0.82933754928E+01  0.48951973560E+01  0.96848921209E+01  0.00000000000E+00 0.  1.
</event>
<event>
 7    1  0.2983653E-010  0.4778727E+02  0.7816164E-02  0.1312668E+00
        -11   -1    0    0    0    0  0.00000000000E+00  0.00000000000E+00  0.45593999997E+02  0.45594000000E+02  0.51100000000E-03 0.  1.
         11   -1    0    0    0    0 -0.00000000000E+00 -0.00000000000E+00 -0.45593999997E+02  0.45594000000E+02  0.51100000000E-03 0. -1.
    9900012    2    1    2    0    0 -0.16080151083E+02  0.26801708877E+02 -0.30111796359E+02  0.47787272615E+02  0.20000007163E+02 0.  0.
        -12    1    1    2    0    0  0.16080151083E+02 -0.26801708877E+02  0.30111796359E+02  0.43400727385E+02  0.00000000000E+00 0.  1.
         11    1    3    3    0    0 -0.10894556035E+01  0.12115809129E+01 -0.15714428695E+01  0.22636861032E+01  0.51100000000E-03 0. -1.
        -11    1    3    3    0    0  0.17382967684E+01 -0.18252180200E+01  0.55951474305E-01  0.25211559460E+01  0.51100000000E-03 0.  1.
        -12    1    3    3    0    0 -0.16728992248E+02  0.27415345984E+02 -0.28596304964E+02  0.43002430566E+02  0.00000000000E+00 0.  1.
</event>
<event>
 7    1  0.2983653E-010  0.4778726E+02  0.7816164E-02  0.1312668E+00
        -11   -1    0    0    0    0  0.00000000000E+00  0.00000000000E+00  0.45593999997E+02  0.45594000000E+02  0.51100000000E-03 0.  1.
         11   -1    0    0    0    0 -0.00000000000E+00 -0.00000000000E+00 -0.45593999997E+02  0.45594000000E+02  0.51100000000E-03 0. -1.
    9900012    2    1    2    0    0 -0.78616352772E+01  0.39805340905E+02 -0.15406288414E+02  0.47787260415E+02  0.19999951538E+02 0.  0.
        -12    1    1    2    0    0  0.78616352772E+01 -0.39805340905E+02  0.15406288414E+02  0.43400739585E+02  0.00000000000E+00 0.  1.
         11    1    3    3    0    0 -0.14187285879E+01  0.82547683490E+01 -0.35590451595E+01  0.91005930582E+01  0.51100000000E-03 0. -1.
        -11    1    3    3    0    0  0.10785961571E+01  0.10296854204E+02 -0.12375511556E+02  0.16135112727E+02  0.51100000000E-03 0.  1.
        -12    1    3    3    0    0 -0.75215028464E+01  0.21253718352E+02  0.52826830141E+00  0.22551554631E+02  0.00000000000E+00 0.  1.
</event>
<event>
 7    1  0.2983653E-010  0.4778727E+02  0.7816164E-02  0.1312668E+00
        -11   -1    0    0    0    0  0.00000000000E+00  0.00000000000E+00  0.45593999997E+02  0.45594000000E+02  0.51100000000E-03 0.  1.
         11   -1    0    0    0    0 -0.00000000000E+00 -0.00000000000E+00 -0.45593999997E+02  0.45594000000E+02  0.51100000000E-03 0. -1.
    9900012    2    1    2    0    0  0.26540348664E+02 -0.22701815566E+02 -0.25765496183E+02  0.47787270390E+02  0.19999997015E+02 0.  0.
        -12    1    1    2    0    0 -0.26540348664E+02  0.22701815566E+02  0.25765496183E+02  0.43400729610E+02  0.00000000000E+00 0.  1.
         11    1    3    3    0    0  0.11736457778E+02 -0.20662438254E+02 -0.21061648406E+02  0.31753327851E+02  0.51100000000E-03 0. -1.
        -11    1    3    3    0    0  0.63195233661E+01  0.73483461656E+00 -0.13893466540E+01  0.65120382273E+01  0.51100000000E-03 0.  1.
         12    1    3    3    0    0  0.84843675191E+01 -0.27742119285E+01 -0.33145011226E+01  0.95219043114E+01  0.00000000000E+00 0. -1.
</event>
<event>
 7    1  0.2983653E-010  0.4778727E+02  0.7816164E-02  0.1312668E+00
        -11   -1    0    0    0    0  0.00000000000E+00  0.00000000000E+00  0.45593999997E+02  0.45594000000E+02  0.51100000000E-03 0.  1.
         11   -1    0    0    0    0 -0.00000000000E+00 -0.00000000000E+00 -0.45593999997E+02  0.45594000000E+02  0.51100000000E-03 0. -1.
    9900012    2    1    2    0    0  0.81878377885E+01  0.41170038488E+02 -0.11027726782E+02  0.47787268270E+02  0.19999987350E+02 0.  0.
        -12    1    1    2    0    0 -0.81878377885E+01 -0.41170038488E+02  0.11027726782E+02  0.43400731730E+02  0.00000000000E+00 0.  1.
         11    1    3    3    0    0  0.98963776679E+00  0.14125116731E+02 -0.11044835476E+02  0.17957914593E+02  0.51100000000E-03 0. -1.
        -11    1    3    3    0    0  0.71291734464E+01  0.96105842365E+01  0.24839368050E+01  0.12221226850E+02  0.51100000000E-03 0.  1.
         12    1    3    3    0    0  0.69026575343E-01  0.17434337520E+02 -0.24668281103E+01  0.17608126827E+02  0.00000000000E+00 0. -1.
</event>
<event>
 7    1  0.2983653E-010  0.4778727E+02  0.7816164E-02  0.1312668E+00
        -11   -1    0    0    0    0  0.00000000000E+00  0.00000000000E+00  0.45593999997E+02  0.45594000000E+02  0.51100000000E-03 0.  1.
         11   -1    0    0    0    0 -0.00000000000E+00 -0.00000000000E+00 -0.45593999997E+02  0.45594000000E+02  0.51100000000E-03 0. -1.
    9900012    2    1    2    0    0  0.30252968536E+02 -0.23828493266E+02 -0.20014599994E+02  0.47787269482E+02  0.19999992877E+02 0.  0.
        -12    1    1    2    0    0 -0.30252968536E+02  0.23828493266E+02  0.20014599994E+02  0.43400730518E+02  0.00000000000E+00 0.  1.
         11    1    3    3    0    0  0.33040581955E+01 -0.33361400792E+01 -0.21657387995E+01  0.51707887209E+01  0.51100000000E-03 0. -1.
        -11    1    3    3    0    0 -0.12467882402E+01 -0.13964030650E+00 -0.56146886828E+01  0.57531477990E+01  0.51100000000E-03 0.  1.
        -12    1    3    3    0    0  0.28195698581E+02 -0.20352712880E+02 -0.12234172511E+02  0.36863332962E+02  0.00000000000E+00 0.  1.
</event>
<event>
 7    1  0.2983653E-010  0.4778727E+02  0.7816164E-02  0.1312668E+00
        -11   -1    0    0    0    0  0.00000000000E+00  0.00000000000E+00  0.45593999997E+02  0.45594000000E+02  0.51100000000E-03 0. -1.
         11   -1    0    0    0    0 -0.00000000000E+00 -0.00000000000E+00 -0.45593999997E+02  0.45594000000E+02  0.51100000000E-03 0.  1.
    9900012    2    1    2    0    0 -0.16849182299E+02  0.39910852040E+02 -0.26176964928E+01  0.47787269710E+02  0.19999993917E+02 0.  0.
        -12    1    1    2    0    0  0.16849182299E+02 -0.39910852040E+02  0.26176964928E+01  0.43400730290E+02  0.00000000000E+00 0.  1.
         11    1    3    3    0    0 -0.21560196522E+00  0.84079872272E+01  0.48235116653E+01  0.96957206265E+01  0.51100000000E-03 0. -1.
        -11    1    3    3    0    0 -0.16960156050E+02  0.22994776937E+02 -0.76338074766E+01  0.29575017777E+02  0.51100000000E-03 0.  1.
        -12    1    3    3    0    0  0.32657571621E+00  0.85080878762E+01  0.19259931849E+00  0.85165313071E+01  0.00000000000E+00 0.  1.
</event>
<event>
 7    1  0.2983653E-010  0.4778727E+02  0.7816164E-02  0.1312668E+00
        -11   -1    0    0    0    0  0.00000000000E+00  0.00000000000E+00  0.45593999997E+02  0.45594000000E+02  0.51100000000E-03 0.  1.
         11   -1    0    0    0    0 -0.00000000000E+00 -0.00000000000E+00 -0.45593999997E+02  0.45594000000E+02  0.51100000000E-03 0. -1.
    9900012    2    1    2    0    0 -0.15295520051E+02  0.33125627080E+02 -0.23502406161E+02  0.47787271914E+02  0.20000003963E+02 0.  0.
        -12    1    1    2    0    0  0.15295520051E+02 -0.33125627080E+02  0.23502406161E+02  0.43400728086E+02  0.00000000000E+00 0.  1.
         11    1    3    3    0    0  0.34075356492E+01  0.46412376610E+01 -0.12685099223E+01  0.58958887295E+01  0.51100000000E-03 0. -1.
        -11    1    3    3    0    0 -0.10386160673E+02  0.21979521060E+02 -0.18983244847E+02  0.30843723263E+02  0.51100000000E-03 0.  1.
        -12    1    3    3    0    0 -0.83168950268E+01  0.65048683590E+01 -0.32506513919E+01  0.11047659921E+02  0.00000000000E+00 0.  1.
</event>
<event>
 7    1  0.2983653E-010  0.4778727E+02  0.7816164E-02  0.1312668E+00
        -11   -1    0    0    0    0  0.00000000000E+00  0.00000000000E+00  0.45593999997E+02  0.45594000000E+02  0.51100000000E-03 0.  1.
         11   -1    0    0    0    0 -0.00000000000E+00 -0.00000000000E+00 -0.45593999997E+02  0.45594000000E+02  0.51100000000E-03 0. -1.
    9900012    2    1    2    0    0 -0.41000160833E+01 -0.36577679693E+02 -0.22997530985E+02  0.47787271723E+02  0.20000003092E+02 0.  0.
        -12    1    1    2    0    0  0.41000160833E+01  0.36577679693E+02  0.22997530985E+02  0.43400728277E+02  0.00000000000E+00 0.  1.
         11    1    3    3    0    0 -0.20471675986E+01 -0.22495996282E+02 -0.16369783420E+02  0.27896783926E+02  0.51100000000E-03 0. -1.
        -11    1    3    3    0    0 -0.37518086724E+01  0.61891094239E+00 -0.36026681840E+00  0.38195433641E+01  0.51100000000E-03 0.  1.
        -12    1    3    3    0    0  0.16989601877E+01 -0.14700594353E+02 -0.62674807463E+01  0.16070944433E+02  0.00000000000E+00 0.  1.
</event>
<event>
 7    1  0.2983653E-010  0.4778728E+02  0.7816164E-02  0.1312668E+00
        -11   -1    0    0    0    0  0.00000000000E+00  0.00000000000E+00  0.45593999997E+02  0.45594000000E+02  0.51100000000E-03 0.  1.
         11   -1    0    0    0    0 -0.00000000000E+00 -0.00000000000E+00 -0.45593999997E+02  0.45594000000E+02  0.51100000000E-03 0. -1.
    9900012    2    1    2    0    0 -0.39968093683E+02  0.16813896205E+02 -0.18620163582E+01  0.47787277389E+02  0.20000028926E+02 0.  0.
        -12    1    1    2    0    0  0.39968093683E+02 -0.16813896205E+02  0.18620163582E+01  0.43400722611E+02  0.00000000000E+00 0.  1.
         11    1    3    3    0    0 -0.31036658793E+02  0.79259289704E+01  0.23328449062E+01  0.32117545123E+02  0.51100000000E-03 0. -1.
        -11    1    3    3    0    0 -0.61523063956E+01  0.72791205555E+01 -0.66550940482E+01  0.11624403086E+02  0.51100000000E-03 0.  1.
        -12    1    3    3    0    0 -0.27791284946E+01  0.16088466792E+01  0.24602327838E+01  0.40453291803E+01  0.00000000000E+00 0.  1.
</event>
<event>
 7    1  0.2983653E-010  0.4778727E+02  0.7816164E-02  0.1312668E+00
        -11   -1    0    0    0    0  0.00000000000E+00  0.00000000000E+00  0.45593999997E+02  0.45594000000E+02  0.51100000000E-03 0. -1.
         11   -1    0    0    0    0 -0.00000000000E+00 -0.00000000000E+00 -0.45593999997E+02  0.45594000000E+02  0.51100000000E-03 0.  1.
    9900012    2    1    2    0    0  0.70259720931E+01 -0.40893308437E+02 -0.12727781379E+02  0.47787269850E+02  0.19999994554E+02 0.  0.
        -12    1    1    2    0    0 -0.70259720931E+01  0.40893308437E+02  0.12727781379E+02  0.43400730150E+02  0.00000000000E+00 0.  1.
         11    1    3    3    0    0 -0.10929508729E+00 -0.17933844315E+02  0.13965730858E+01  0.17988472252E+02  0.51100000000E-03 0. -1.
        -11    1    3    3    0    0 -0.11449635701E+01 -0.72378392789E+01 -0.83631054066E+01  0.11119298148E+02  0.51100000000E-03 0.  1.
         12    1    3    3    0    0  0.82802307505E+01 -0.15721624843E+02 -0.57612490577E+01  0.18679499449E+02  0.00000000000E+00 0. -1.
</event>
<event>
 7    1  0.2983653E-010  0.4778728E+02  0.7816164E-02  0.1312668E+00
        -11   -1    0    0    0    0  0.00000000000E+00  0.00000000000E+00  0.45593999997E+02  0.45594000000E+02  0.51100000000E-03 0.  1.
         11   -1    0    0    0    0 -0.00000000000E+00 -0.00000000000E+00 -0.45593999997E+02  0.45594000000E+02  0.51100000000E-03 0. -1.
    9900012    2    1    2    0    0  0.14183782337E+02 -0.71899314623E+01 -0.40382516921E+02  0.47787280320E+02  0.20000042293E+02 0.  0.
        -12    1    1    2    0    0 -0.14183782337E+02  0.71899314623E+01  0.40382516921E+02  0.43400719680E+02  0.00000000000E+00 0.  1.
         11    1    3    3    0    0  0.17313146471E+02 -0.16305497890E+01 -0.24537399169E+02  0.30074701854E+02  0.51100000000E-03 0. -1.
        -11    1    3    3    0    0 -0.32414930965E+01 -0.48534833743E+01 -0.83732938181E+01  0.10206646265E+02  0.51100000000E-03 0.  1.
         12    1    3    3    0    0  0.11212896235E+00 -0.70589829904E+00 -0.74718239342E+01  0.75059322017E+01  0.00000000000E+00 0. -1.
</event>
<event>
 7    1  0.2983653E-010  0.4778727E+02  0.7816164E-02  0.1312668E+00
        -11   -1    0    0    0    0  0.00000000000E+00  0.00000000000E+00  0.45593999997E+02  0.45594000000E+02  0.51100000000E-03 0.  1.
         11   -1    0    0    0    0 -0.00000000000E+00 -0.00000000000E+00 -0.45593999997E+02  0.45594000000E+02  0.51100000000E-03 0. -1.
    9900012    2    1    2    0    0 -0.42552363714E+02 -0.43406774697E+01 -0.73537834350E+01  0.47787271096E+02  0.20000000236E+02 0.  0.
        -12    1    1    2    0    0  0.42552363714E+02  0.43406774697E+01  0.73537834350E+01  0.43400728904E+02  0.00000000000E+00 0.  1.
         11    1    3    3    0    0 -0.29423775510E+02  0.32560175697E+01 -0.76429503858E+00  0.29613246409E+02  0.51100000000E-03 0. -1.
        -11    1    3    3    0    0 -0.53327706612E+01 -0.16065944928E+01  0.11191582716E+01  0.56808541864E+01  0.51100000000E-03 0.  1.
         12    1    3    3    0    0 -0.77958175425E+01 -0.59901005466E+01 -0.77086466680E+01  0.12493170501E+02  0.00000000000E+00 0. -1.
</event>
<event>
 7    1  0.2983653E-010  0.4778727E+02  0.7816164E-02  0.1312668E+00
        -11   -1    0    0    0    0  0.00000000000E+00  0.00000000000E+00  0.45593999997E+02  0.45594000000E+02  0.51100000000E-03 0. -1.
         11   -1    0    0    0    0 -0.00000000000E+00 -0.00000000000E+00 -0.45593999997E+02  0.45594000000E+02  0.51100000000E-03 0.  1.
    9900012    2    1    2    0    0  0.41088086104E+02 -0.60005269012E+01 -0.12624813043E+02  0.47787273657E+02  0.20000011910E+02 0.  0.
        -12    1    1    2    0    0 -0.41088086104E+02  0.60005269012E+01  0.12624813043E+02  0.43400726343E+02  0.00000000000E+00 0.  1.
         11    1    3    3    0    0  0.79257689789E+01 -0.34963345773E+01  0.24015834667E+01  0.89894256097E+01  0.51100000000E-03 0. -1.
        -11    1    3    3    0    0  0.29611577679E+02 -0.59030402949E+01 -0.15349827567E+02  0.33871944496E+02  0.51100000000E-03 0.  1.
        -12    1    3    3    0    0  0.35507394458E+01  0.33988479710E+01  0.32343105767E+00  0.49259035508E+01  0.00000000000E+00 0.  1.
</event>
<event>
 7    1  0.2983653E-010  0.4778727E+02  0.7816164E-02  0.1312668E+00
        -11   -1    0    0    0    0  0.00000000000E+00  0.00000000000E+00  0.45593999997E+02  0.45594000000E+02  0.51100000000E-03 0.  1.
         11   -1    0    0    0    0 -0.00000000000E+00 -0.00000000000E+00 -0.45593999997E+02  0.45594000000E+02  0.51100000000E-03 0. -1.
    9900012    2    1    2    0    0 -0.22237024457E+02 -0.35737508692E+02 -0.10581525561E+02  0.47787268815E+02  0.19999989833E+02 0.  0.
        -12    1    1    2    0    0  0.22237024457E+02  0.35737508692E+02  0.10581525561E+02  0.43400731185E+02  0.00000000000E+00 0.  1.
         11    1    3    3    0    0 -0.52378574505E+00 -0.88347076187E+01 -0.13258890384E+01  0.89489883349E+01  0.51100000000E-03 0.  1.
        -11    1    3    3    0    0 -0.15234112139E+02 -0.23909724150E+02 -0.16353452215E+01  0.28397666028E+02  0.51100000000E-03 0. -1.
        -12    1    3    3    0    0 -0.64791265730E+01 -0.29930769240E+01 -0.76202913011E+01  0.10440614452E+02  0.00000000000E+00 0.  1.
</event>
<event>
 7    1  0.2983653E-010  0.4778727E+02  0.7816164E-02  0.1312668E+00
        -11   -1    0    0    0    0  0.00000000000E+00  0.00000000000E+00  0.45593999997E+02  0.45594000000E+02  0.51100000000E-03 0. -1.
         11   -1    0    0    0    0 -0.00000000000E+00 -0.00000000000E+00 -0.45593999997E+02  0.45594000000E+02  0.51100000000E-03 0.  1.
    9900012    2    1    2    0    0 -0.19650963544E+01  0.37994286713E+02  0.20885312337E+02  0.47787266159E+02  0.19999977727E+02 0.  0.
        -12    1    1    2    0    0  0.19650963544E+01 -0.37994286713E+02 -0.20885312337E+02  0.43400733841E+02  0.00000000000E+00 0.  1.
         11    1    3    3    0    0 -0.50724393800E+00  0.15649291137E+02  0.50906547042E+01  0.16464275723E+02  0.51100000000E-03 0. -1.
        -11    1    3    3    0    0  0.44255720722E+01  0.18935110383E+02  0.81299262113E+01  0.21076522337E+02  0.51100000000E-03 0.  1.
        -12    1    3    3    0    0 -0.58834244887E+01  0.34098851929E+01  0.76647314212E+01  0.10246468099E+02  0.00000000000E+00 0.  1.
</event>
<event>
 7    1  0.2983653E-010  0.4778727E+02  0.7816164E-02  0.1312668E+00
        -11   -1    0    0    0    0  0.00000000000E+00  0.00000000000E+00  0.45593999997E+02  0.45594000000E+02  0.51100000000E-03 0.  1.
         11   -1    0    0    0    0 -0.00000000000E+00 -0.00000000000E+00 -0.45593999997E+02  0.45594000000E+02  0.51100000000E-03 0. -1.
    9900012    2    1    2    0    0 -0.22813206370E+02 -0.36920720713E+02 -0.20397252616E+00  0.47787267199E+02  0.19999982468E+02 0.  0.
        -12    1    1    2    0    0  0.22813206370E+02  0.36920720713E+02  0.20397252616E+00  0.43400732801E+02  0.00000000000E+00 0.  1.
         11    1    3    3    0    0 -0.15753685177E+02 -0.17543148048E+02 -0.72909093002E+01  0.24679910835E+02  0.51100000000E-03 0. -1.
        -11    1    3    3    0    0 -0.15701224846E+01 -0.14563480152E+02  0.54177104752E+01  0.15617676710E+02  0.51100000000E-03 0.  1.
         12    1    3    3    0    0 -0.54893987081E+01 -0.48140925123E+01  0.16692262989E+01  0.74896796547E+01  0.00000000000E+00 0. -1.
</event>
<event>
 7    1  0.2983653E-010  0.4778727E+02  0.7816164E-02  0.1312668E+00
        -11   -1    0    0    0    0  0.00000000000E+00  0.00000000000E+00  0.45593999997E+02  0.45594000000E+02  0.51100000000E-03 0. -1.
         11   -1    0    0    0    0 -0.00000000000E+00 -0.00000000000E+00 -0.45593999997E+02  0.45594000000E+02  0.51100000000E-03 0.  1.
    9900012    2    1    2    0    0  0.26216162156E+02  0.33584679313E+02 -0.82707466267E+01  0.47787273134E+02  0.20000009527E+02 0.  0.
        -12    1    1    2    0    0 -0.26216162156E+02 -0.33584679313E+02  0.82707466267E+01  0.43400726866E+02  0.00000000000E+00 0.  1.
         11    1    3    3    0    0  0.24769875824E+00  0.72324501563E+01  0.19232749768E+01  0.74879020316E+01  0.51100000000E-03 0. -1.
        -11    1    3    3    0    0  0.17309456562E+02  0.11540017131E+02 -0.10136675296E+02  0.23141768908E+02  0.51100000000E-03 0.  1.
         12    1    3    3    0    0  0.86590068355E+01  0.14812212026E+02 -0.57346307765E-01  0.17157602195E+02  0.00000000000E+00 0. -1.
</event>
<event>
 7    1  0.3154183E-010  0.4778728E+02  0.7816164E-02  0.1312668E+00
        -11   -1    0    0    0    0  0.00000000000E+00  0.00000000000E+00  0.45593999997E+02  0.45594000000E+02  0.51100000000E-03 0.  1.
         11   -1    0    0    0    0 -0.00000000000E+00 -0.00000000000E+00 -0.45593999997E+02  0.45594000000E+02  0.51100000000E-03 0. -1.
    9900012    2    1    2    0    0  0.90051440808E+01  0.41523221151E+02 -0.88516783931E+01  0.47787277368E+02  0.20000028830E+02 0.  0.
        -12    1    1    2    0    0 -0.90051440808E+01 -0.41523221151E+02  0.88516783931E+01  0.43400722632E+02  0.00000000000E+00 0.  1.
         11    1    3    3    0    0  0.29248731999E+01  0.26043009370E+02 -0.68408677762E+01  0.27084879407E+02  0.51100000000E-03 0. -1.
        -11    1    3    3    0    0  0.28001111082E+01  0.17411979382E+01 -0.52602797671E+01  0.62082957378E+01  0.51100000000E-03 0.  1.
        -12    1    3    3    0    0  0.32801597727E+01  0.13739013842E+02  0.32494691503E+01  0.14494102223E+02  0.00000000000E+00 0.  1.
</event>
<event>
 7    1  0.3218724E-010  0.4778727E+02  0.7816164E-02  0.1312668E+00
        -11   -1    0    0    0    0  0.00000000000E+00  0.00000000000E+00  0.45593999997E+02  0.45594000000E+02  0.51100000000E-03 0. -1.
         11   -1    0    0    0    0 -0.00000000000E+00 -0.00000000000E+00 -0.45593999997E+02  0.45594000000E+02  0.51100000000E-03 0.  1.
    9900012    2    1    2    0    0 -0.84846064252E+01  0.79313661300E+01  0.41817798257E+02  0.47787269984E+02  0.19999995163E+02 0.  0.
        -12    1    1    2    0    0  0.84846064252E+01 -0.79313661300E+01 -0.41817798257E+02  0.43400730016E+02  0.00000000000E+00 0.  1.
         11    1    3    3    0    0 -0.68210131852E+01  0.54618886476E+01  0.29227720480E+02  0.30506033718E+02  0.51100000000E-03 0. -1.
        -11    1    3    3    0    0  0.34395542912E+01  0.43140558410E+01  0.30457943152E+01  0.63022594990E+01  0.51100000000E-03 0.  1.
        -12    1    3    3    0    0 -0.51031475311E+01 -0.18445783586E+01  0.95442834620E+01  0.10978976767E+02  0.00000000000E+00 0.  1.
</event>
<event>
 7    1  0.2983653E-010  0.4778727E+02  0.7816164E-02  0.1312668E+00
        -11   -1    0    0    0    0  0.00000000000E+00  0.00000000000E+00  0.45593999997E+02  0.45594000000E+02  0.51100000000E-03 0. -1.
         11   -1    0    0    0    0 -0.00000000000E+00 -0.00000000000E+00 -0.45593999997E+02  0.45594000000E+02  0.51100000000E-03 0.  1.
    9900012    2    1    2    0    0 -0.34707383552E+02  0.25546766118E+02  0.51365038191E+01  0.47787269550E+02  0.19999993188E+02 0.  0.
        -12    1    1    2    0    0  0.34707383552E+02 -0.25546766118E+02 -0.51365038191E+01  0.43400730450E+02  0.00000000000E+00 0.  1.
         11    1    3    3    0    0 -0.14681308570E+02  0.12674788009E+02 -0.42656117242E+01  0.19859167053E+02  0.51100000000E-03 0. -1.
        -11    1    3    3    0    0 -0.79498115918E+00 -0.12557385653E+01  0.27983150461E+01  0.31685078107E+01  0.51100000000E-03 0.  1.
        -12    1    3    3    0    0 -0.19231093822E+02  0.14127716675E+02  0.66038004972E+01  0.24759594686E+02  0.00000000000E+00 0.  1.
</event>
<event>
 7    1  0.2983653E-010  0.4778727E+02  0.7816164E-02  0.1312668E+00
        -11   -1    0    0    0    0  0.00000000000E+00  0.00000000000E+00  0.45593999997E+02  0.45594000000E+02  0.51100000000E-03 0. -1.
         11   -1    0    0    0    0 -0.00000000000E+00 -0.00000000000E+00 -0.45593999997E+02  0.45594000000E+02  0.51100000000E-03 0.  1.
    9900012    2    1    2    0    0 -0.29556661163E+00  0.16493608741E+02  0.40143451958E+02  0.47787271619E+02  0.20000002619E+02 0.  0.
        -12    1    1    2    0    0  0.29556661163E+00 -0.16493608741E+02 -0.40143451958E+02  0.43400728381E+02  0.00000000000E+00 0.  1.
         11    1    3    3    0    0  0.37350750501E+01  0.77405707702E+01  0.89924858025E+01  0.12439132713E+02  0.51100000000E-03 0.  1.
        -11    1    3    3    0    0 -0.78645457263E+01  0.46292738166E+01  0.10350599052E+02  0.13799136080E+02  0.51100000000E-03 0. -1.
        -12    1    3    3    0    0  0.38339040646E+01  0.41237641544E+01  0.20800367103E+02  0.21549002826E+02  0.00000000000E+00 0.  1.
</event>
<event>
 7    1  0.2983653E-010  0.4778727E+02  0.7816164E-02  0.1312668E+00
        -11   -1    0    0    0    0  0.00000000000E+00  0.00000000000E+00  0.45593999997E+02  0.45594000000E+02  0.51100000000E-03 0.  1.
         11   -1    0    0    0    0 -0.00000000000E+00 -0.00000000000E+00 -0.45593999997E+02  0.45594000000E+02  0.51100000000E-03 0. -1.
    9900012    2    1    2    0    0  0.37046965842E+02 -0.34998721471E+01 -0.22335994266E+02  0.47787269326E+02  0.19999992167E+02 0.  0.
        -12    1    1    2    0    0 -0.37046965842E+02  0.34998721471E+01  0.22335994266E+02  0.43400730674E+02  0.00000000000E+00 0.  1.
         11    1    3    3    0    0  0.32525887247E+02 -0.57518618282E+01 -0.23797410574E+02  0.40710367304E+02  0.51100000000E-03 0. -1.
        -11    1    3    3    0    0  0.47938378160E+01  0.16852460705E+00  0.12979952231E+01  0.49693131728E+01  0.51100000000E-03 0.  1.
         12    1    3    3    0    0 -0.27275922149E+00  0.20834650740E+01  0.16342108515E+00  0.21075888495E+01  0.00000000000E+00 0. -1.
</event>
<event>
 7    1  0.2983653E-010  0.4778727E+02  0.7816164E-02  0.1312668E+00
        -11   -1    0    0    0    0  0.00000000000E+00  0.00000000000E+00  0.45593999997E+02  0.45594000000E+02  0.51100000000E-03 0. -1.
         11   -1    0    0    0    0 -0.00000000000E+00 -0.00000000000E+00 -0.45593999997E+02  0.45594000000E+02  0.51100000000E-03 0.  1.
    9900012    2    1    2    0    0  0.20308463610E+02  0.36813682303E+02  0.10767644127E+02  0.47787273520E+02  0.20000011289E+02 0.  0.
        -12    1    1    2    0    0 -0.20308463610E+02 -0.36813682303E+02 -0.10767644127E+02  0.43400726480E+02  0.00000000000E+00 0.  1.
         11    1    3    3    0    0  0.12436977611E+02  0.18485275220E+02  0.10268866939E+01  0.22303325057E+02  0.51100000000E-03 0. -1.
        -11    1    3    3    0    0  0.31674556719E+00  0.12099357857E+01  0.63447852097E+01  0.64668827094E+01  0.51100000000E-03 0.  1.
        -12    1    3    3    0    0  0.75547404319E+01  0.17118471297E+02  0.33959722234E+01  0.19017065754E+02  0.00000000000E+00 0.  1.
</event>
<event>
 7    1  0.2983653E-010  0.4778727E+02  0.7816164E-02  0.1312668E+00
        -11   -1    0    0    0    0  0.00000000000E+00  0.00000000000E+00  0.45593999997E+02  0.45594000000E+02  0.51100000000E-03 0. -1.
         11   -1    0    0    0    0 -0.00000000000E+00 -0.00000000000E+00 -0.45593999997E+02  0.45594000000E+02  0.51100000000E-03 0.  1.
    9900012    2    1    2    0    0  0.36631243163E+02 -0.19419245452E+02  0.12832303881E+02  0.47787273134E+02  0.20000009528E+02 0.  0.
        -12    1    1    2    0    0 -0.36631243163E+02  0.19419245452E+02 -0.12832303881E+02  0.43400726866E+02  0.00000000000E+00 0.  1.
         11    1    3    3    0    0  0.19612604827E+02 -0.67436455408E+01  0.14504308868E+02  0.25308219994E+02  0.51100000000E-03 0. -1.
        -11    1    3    3    0    0  0.62559023464E+01 -0.58618451138E+01 -0.41135784328E+01  0.95088942622E+01  0.51100000000E-03 0.  1.
        -12    1    3    3    0    0  0.10762735989E+02 -0.68137547978E+01  0.24415734456E+01  0.12970158878E+02  0.00000000000E+00 0.  1.
</event>
<event>
 7    1  0.2983653E-010  0.4778727E+02  0.7816164E-02  0.1312668E+00
        -11   -1    0    0    0    0  0.00000000000E+00  0.00000000000E+00  0.45593999997E+02  0.45594000000E+02  0.51100000000E-03 0.  1.
         11   -1    0    0    0    0 -0.00000000000E+00 -0.00000000000E+00 -0.45593999997E+02  0.45594000000E+02  0.51100000000E-03 0. -1.
    9900012    2    1    2    0    0 -0.29592341466E+02  0.83004997734E+01 -0.30643405076E+02  0.47787271382E+02  0.20000001538E+02 0.  0.
        -12    1    1    2    0    0  0.29592341466E+02 -0.83004997734E+01  0.30643405076E+02  0.43400728618E+02  0.00000000000E+00 0.  1.
         11    1    3    3    0    0 -0.50587946269E+01  0.60442720379E+01 -0.59867212959E+01  0.98977502334E+01  0.51100000000E-03 0. -1.
        -11    1    3    3    0    0 -0.18221291545E+02 -0.40344252828E+01 -0.11249876959E+02  0.21791094162E+02  0.51100000000E-03 0.  1.
        -12    1    3    3    0    0 -0.63122552944E+01  0.62906530182E+01 -0.13406806821E+02  0.16098426987E+02  0.00000000000E+00 0.  1.
</event>
<event>
 7    1  0.2983653E-010  0.4778727E+02  0.7816164E-02  0.1312668E+00
        -11   -1    0    0    0    0  0.00000000000E+00  0.00000000000E+00  0.45593999997E+02  0.45594000000E+02  0.51100000000E-03 0.  1.
         11   -1    0    0    0    0 -0.00000000000E+00 -0.00000000000E+00 -0.45593999997E+02  0.45594000000E+02  0.51100000000E-03 0. -1.
    9900012    2    1    2    0    0 -0.39920229365E+02  0.12247155279E+02 -0.11832400108E+02  0.47787271696E+02  0.20000002971E+02 0.  0.
        -12    1    1    2    0    0  0.39920229365E+02 -0.12247155279E+02  0.11832400108E+02  0.43400728304E+02  0.00000000000E+00 0.  1.
         11    1    3    3    0    0 -0.34648064256E+02  0.16291064027E+02 -0.13760934738E+02  0.40684769250E+02  0.51100000000E-03 0. -1.
        -11    1    3    3    0    0 -0.15845724493E+01 -0.20863742690E+01  0.36888243063E+00  0.26457327806E+01  0.51100000000E-03 0.  1.
         12    1    3    3    0    0 -0.36875926602E+01 -0.19575344789E+01  0.15596521999E+01  0.44567696652E+01  0.00000000000E+00 0. -1.
</event>
<event>
 7    1  0.2983653E-010  0.4778728E+02  0.7816164E-02  0.1312668E+00
        -11   -1    0    0    0    0  0.00000000000E+00  0.00000000000E+00  0.45593999997E+02  0.45594000000E+02  0.51100000000E-03 0.  1.
         11   -1    0    0    0    0 -0.00000000000E+00 -0.00000000000E+00 -0.45593999997E+02  0.45594000000E+02  0.51100000000E-03 0. -1.
    9900012    2    1    2    0    0 -0.16401069239E+02  0.76356613844E+01 -0.39450275649E+02  0.47787278281E+02  0.20000032993E+02 0.  0.
        -12    1    1    2    0    0  0.16401069239E+02 -0.76356613844E+01  0.39450275649E+02  0.43400721719E+02  0.00000000000E+00 0.  1.
         11    1    3    3    0    0 -0.58275307299E+01  0.29788384261E+01 -0.10064162446E+02  0.12005038891E+02  0.51100000000E-03 0. -1.
        -11    1    3    3    0    0 -0.10438934068E+02  0.32289270469E-01 -0.29354753831E+02  0.31155640899E+02  0.51100000000E-03 0.  1.
        -12    1    3    3    0    0 -0.13460444093E+00  0.46245336878E+01 -0.31359372397E-01  0.46265984908E+01  0.00000000000E+00 0.  1.
</event>
<event>
 7    1  0.2983653E-010  0.4778724E+02  0.7816164E-02  0.1312668E+00
        -11   -1    0    0    0    0  0.00000000000E+00  0.00000000000E+00  0.45593999997E+02  0.45594000000E+02  0.51100000000E-03 0.  1.
         11   -1    0    0    0    0 -0.00000000000E+00 -0.00000000000E+00 -0.45593999997E+02  0.45594000000E+02  0.51100000000E-03 0. -1.
    9900012    2    1    2    0    0 -0.12010464449E+02  0.32488814519E+02 -0.26150550784E+02  0.47787243884E+02  0.19999876165E+02 0.  0.
        -12    1    1    2    0    0  0.12010464449E+02 -0.32488814519E+02  0.26150550784E+02  0.43400756116E+02  0.00000000000E+00 0.  1.
         11    1    3    3    0    0 -0.46955158344E+01  0.19825749451E+02 -0.22821208161E+02  0.30592740191E+02  0.51100000000E-03 0. -1.
        -11    1    3    3    0    0 -0.82048310231E+01  0.12618683503E+02 -0.14582067215E+01  0.15122063106E+02  0.51100000000E-03 0.  1.
         12    1    3    3    0    0  0.88988240816E+00  0.44381564675E-01 -0.18711359019E+01  0.20724405871E+01  0.00000000000E+00 0. -1.
</event>
<event>
 7    1  0.2983653E-010  0.4778727E+02  0.7816164E-02  0.1312668E+00
        -11   -1    0    0    0    0  0.00000000000E+00  0.00000000000E+00  0.45593999997E+02  0.45594000000E+02  0.51100000000E-03 0.  1.
         11   -1    0    0    0    0 -0.00000000000E+00 -0.00000000000E+00 -0.45593999997E+02  0.45594000000E+02  0.51100000000E-03 0. -1.
    9900012    2    1    2    0    0  0.32573530641E+02 -0.18985695782E+00 -0.28680179732E+02  0.47787266670E+02  0.19999980057E+02 0.  0.
        -12    1    1    2    0    0 -0.32573530641E+02  0.18985695782E+00  0.28680179732E+02  0.43400733330E+02  0.00000000000E+00 0.  1.
         11    1    3    3    0    0  0.41773978850E+01 -0.70517153786E+01 -0.78920209438E+01  0.11378107826E+02  0.51100000000E-03 0. -1.
        -11    1    3    3    0    0  0.21030367586E+02  0.35670652382E+01 -0.11983942869E+02  0.24466614031E+02  0.51100000000E-03 0.  1.
        -12    1    3    3    0    0  0.73657651706E+01  0.32947931826E+01 -0.88042159189E+01  0.11942544813E+02  0.00000000000E+00 0.  1.
</event>
<event>
 7    1  0.2983653E-010  0.4778729E+02  0.7816164E-02  0.1312668E+00
        -11   -1    0    0    0    0  0.00000000000E+00  0.00000000000E+00  0.45593999997E+02  0.45594000000E+02  0.51100000000E-03 0. -1.
         11   -1    0    0    0    0 -0.00000000000E+00 -0.00000000000E+00 -0.45593999997E+02  0.45594000000E+02  0.51100000000E-03 0.  1.
    9900012    2    1    2    0    0 -0.23303280253E+02 -0.12103858451E+02  0.34555392639E+02  0.47787292397E+02  0.20000097357E+02 0.  0.
        -12    1    1    2    0    0  0.23303280253E+02  0.12103858451E+02 -0.34555392639E+02  0.43400707603E+02  0.00000000000E+00 0.  1.
         11    1    3    3    0    0 -0.24714721008E+02 -0.12158241063E+02  0.33080076487E+02  0.43045693407E+02  0.51100000000E-03 0. -1.
        -11    1    3    3    0    0  0.29001976848E+00  0.75687366135E+00 -0.13766784148E+01  0.15975646854E+01  0.51100000000E-03 0.  1.
         12    1    3    3    0    0  0.11214209860E+01 -0.70249104960E+00  0.28519945669E+01  0.31440343052E+01  0.00000000000E+00 0. -1.
</event>
<event>
 7    1  0.2983653E-010  0.4778728E+02  0.7816164E-02  0.1312668E+00
        -11   -1    0    0    0    0  0.00000000000E+00  0.00000000000E+00  0.45593999997E+02  0.45594000000E+02  0.51100000000E-03 0. -1.
         11   -1    0    0    0    0 -0.00000000000E+00 -0.00000000000E+00 -0.45593999997E+02  0.45594000000E+02  0.51100000000E-03 0.  1.
    9900012    2    1    2    0    0 -0.72793852369E+01  0.38199551810E+02  0.19272441779E+02  0.47787283185E+02  0.20000055352E+02 0.  0.
        -12    1    1    2    0    0  0.72793852369E+01 -0.38199551810E+02 -0.19272441779E+02  0.43400716815E+02  0.00000000000E+00 0.  1.
         11    1    3    3    0    0 -0.20716936963E+01  0.89380150669E+01  0.11307124584E+02  0.14561287537E+02  0.51100000000E-03 0. -1.
        -11    1    3    3    0    0 -0.44606554095E+01  0.15358435081E+02 -0.19806643673E+01  0.16115272458E+02  0.51100000000E-03 0.  1.
        -12    1    3    3    0    0 -0.74703613106E+00  0.13903101663E+02  0.99459815626E+01  0.17110723189E+02  0.00000000000E+00 0.  1.
</event>
<event>
 7    1  0.2983653E-010  0.4778727E+02  0.7816164E-02  0.1312668E+00
        -11   -1    0    0    0    0  0.00000000000E+00  0.00000000000E+00  0.45593999997E+02  0.45594000000E+02  0.51100000000E-03 0. -1.
         11   -1    0    0    0    0 -0.00000000000E+00 -0.00000000000E+00 -0.45593999997E+02  0.45594000000E+02  0.51100000000E-03 0.  1.
    9900012    2    1    2    0    0 -0.75588109869E+01  0.35988752948E+02  0.23049883457E+02  0.47787273166E+02  0.20000009675E+02 0.  0.
        -12    1    1    2    0    0  0.75588109869E+01 -0.35988752948E+02 -0.23049883457E+02  0.43400726834E+02  0.00000000000E+00 0.  1.
         11    1    3    3    0    0 -0.29058346594E+01  0.25882517072E+01  0.25543752903E+01  0.46548636234E+01  0.51100000000E-03 0. -1.
        -11    1    3    3    0    0 -0.53197229202E+01  0.28598460644E+02  0.23528802096E+02  0.37413579507E+02  0.51100000000E-03 0.  1.
        -12    1    3    3    0    0  0.66674659264E+00  0.48020405970E+01 -0.30332939302E+01  0.57188300360E+01  0.00000000000E+00 0.  1.
</event>
<event>
 7    1  0.2983653E-010  0.4778727E+02  0.7816164E-02  0.1312668E+00
        -11   -1    0    0    0    0  0.00000000000E+00  0.00000000000E+00  0.45593999997E+02  0.45594000000E+02  0.51100000000E-03 0.  1.
         11   -1    0    0    0    0 -0.00000000000E+00 -0.00000000000E+00 -0.45593999997E+02  0.45594000000E+02  0.51100000000E-03 0. -1.
    9900012    2    1    2    0    0 -0.28620463246E+02  0.15184844499E+02 -0.28877549510E+02  0.47787270921E+02  0.19999999439E+02 0.  0.
        -12    1    1    2    0    0  0.28620463246E+02 -0.15184844499E+02  0.28877549510E+02  0.43400729079E+02  0.00000000000E+00 0.  1.
         11    1    3    3    0    0 -0.28396067418E+02  0.69889088624E+01 -0.21836670594E+02  0.36496872123E+02  0.51100000000E-03 0. -1.
        -11    1    3    3    0    0 -0.10206864162E+01  0.67469225257E+01 -0.67749508533E+01  0.96157539306E+01  0.51100000000E-03 0.  1.
         12    1    3    3    0    0  0.79629058894E+00  0.14490131106E+01 -0.26592806331E+00  0.16746448673E+01  0.00000000000E+00 0. -1.
</event>
<event>
 7    1  0.2983653E-010  0.4778727E+02  0.7816164E-02  0.1312668E+00
        -11   -1    0    0    0    0  0.00000000000E+00  0.00000000000E+00  0.45593999997E+02  0.45594000000E+02  0.51100000000E-03 0.  1.
         11   -1    0    0    0    0 -0.00000000000E+00 -0.00000000000E+00 -0.45593999997E+02  0.45594000000E+02  0.51100000000E-03 0. -1.
    9900012    2    1    2    0    0  0.12667482010E+02  0.36564350347E+02 -0.19652129426E+02  0.47787274110E+02  0.20000013978E+02 0.  0.
        -12    1    1    2    0    0 -0.12667482010E+02 -0.36564350347E+02  0.19652129426E+02  0.43400725890E+02  0.00000000000E+00 0.  1.
         11    1    3    3    0    0  0.24282535471E+01  0.25891870856E+02 -0.15099811483E+02  0.30071409990E+02  0.51100000000E-03 0. -1.
        -11    1    3    3    0    0  0.33423464951E+01  0.13132913093E+01 -0.49116343688E+01  0.60844199879E+01  0.51100000000E-03 0.  1.
         12    1    3    3    0    0  0.68968819680E+01  0.93591881823E+01  0.35931642565E+00  0.11631444132E+02  0.00000000000E+00 0. -1.
</event>
<event>
 7    1  0.2983653E-010  0.4778727E+02  0.7816164E-02  0.1312668E+00
        -11   -1    0    0    0    0  0.00000000000E+00  0.00000000000E+00  0.45593999997E+02  0.45594000000E+02  0.51100000000E-03 0.  1.
         11   -1    0    0    0    0 -0.00000000000E+00 -0.00000000000E+00 -0.45593999997E+02  0.45594000000E+02  0.51100000000E-03 0. -1.
    9900012    2    1    2    0    0 -0.71384191712E+01  0.21950371937E+02 -0.36753875508E+02  0.47787271650E+02  0.20000002763E+02 0.  0.
        -12    1    1    2    0    0  0.71384191712E+01 -0.21950371937E+02  0.36753875508E+02  0.43400728350E+02  0.00000000000E+00 0.  1.
         11    1    3    3    0    0 -0.11342439888E+01  0.10988536098E+02 -0.30507228822E+02  0.32445730777E+02  0.51100000000E-03 0. -1.
        -11    1    3    3    0    0 -0.25219460624E+01  0.22126547385E+01  0.95318319158E+00  0.34877802957E+01  0.51100000000E-03 0.  1.
         12    1    3    3    0    0 -0.34822291200E+01  0.87491811003E+01 -0.71998298775E+01  0.11853760578E+02  0.00000000000E+00 0. -1.
</event>
<event>
 7    1  0.2983653E-010  0.4778727E+02  0.7816164E-02  0.1312668E+00
        -11   -1    0    0    0    0  0.00000000000E+00  0.00000000000E+00  0.45593999997E+02  0.45594000000E+02  0.51100000000E-03 0.  1.
         11   -1    0    0    0    0 -0.00000000000E+00 -0.00000000000E+00 -0.45593999997E+02  0.45594000000E+02  0.51100000000E-03 0. -1.
    9900012    2    1    2    0    0 -0.73123179720E+01  0.13415224824E+02 -0.40622472577E+02  0.47787268099E+02  0.19999986573E+02 0.  0.
        -12    1    1    2    0    0  0.73123179720E+01 -0.13415224824E+02  0.40622472577E+02  0.43400731901E+02  0.00000000000E+00 0.  1.
         11    1    3    3    0    0  0.22369139098E+01  0.31182710952E+01 -0.29733113268E+02  0.29979750221E+02  0.51100000000E-03 0. -1.
        -11    1    3    3    0    0 -0.68336599689E+01  0.80944885920E+01 -0.81439995345E+01  0.13362050098E+02  0.51100000000E-03 0.  1.
         12    1    3    3    0    0 -0.27155719128E+01  0.22024651370E+01 -0.27453597749E+01  0.44454677805E+01  0.00000000000E+00 0. -1.
</event>
<event>
 7    1  0.2983653E-010  0.4778728E+02  0.7816164E-02  0.1312668E+00
        -11   -1    0    0    0    0  0.00000000000E+00  0.00000000000E+00  0.45593999997E+02  0.45594000000E+02  0.51100000000E-03 0.  1.
         11   -1    0    0    0    0 -0.00000000000E+00 -0.00000000000E+00 -0.45593999997E+02  0.45594000000E+02  0.51100000000E-03 0. -1.
    9900012    2    1    2    0    0 -0.90491767734E+01 -0.19112453801E+02 -0.37900519695E+02  0.47787275539E+02  0.20000020493E+02 0.  0.
        -12    1    1    2    0    0  0.90491767734E+01  0.19112453801E+02  0.37900519695E+02  0.43400724461E+02  0.00000000000E+00 0.  1.
         11    1    3    3    0    0 -0.15145907947E+01 -0.17092893389E+02 -0.13476308393E+02  0.21819071425E+02  0.51100000000E-03 0. -1.
        -11    1    3    3    0    0 -0.44028586465E+01 -0.32685409140E+00 -0.77603084409E+01  0.89282912820E+01  0.51100000000E-03 0.  1.
         12    1    3    3    0    0 -0.31317273322E+01 -0.16927063208E+01 -0.16663902860E+02  0.17039912832E+02  0.00000000000E+00 0. -1.
</event>
<event>
 7    1  0.2983653E-010  0.4778727E+02  0.7816164E-02  0.1312668E+00
        -11   -1    0    0    0    0  0.00000000000E+00  0.00000000000E+00  0.45593999997E+02  0.45594000000E+02  0.51100000000E-03 0.  1.
         11   -1    0    0    0    0 -0.00000000000E+00 -0.00000000000E+00 -0.45593999997E+02  0.45594000000E+02  0.51100000000E-03 0. -1.
    9900012    2    1    2    0    0 -0.33964583689E+02  0.20990902618E+02  0.17012127889E+02  0.47787269209E+02  0.19999991632E+02 0.  0.
        -12    1    1    2    0    0  0.33964583689E+02 -0.20990902618E+02 -0.17012127889E+02  0.43400730791E+02  0.00000000000E+00 0.  1.
         11    1    3    3    0    0 -0.12649810329E+02  0.60353282831E+01  0.16258998456E+02  0.21466204134E+02  0.51100000000E-03 0. -1.
        -11    1    3    3    0    0 -0.14440082139E+02  0.10983045374E+02  0.21150799929E+01  0.18265180577E+02  0.51100000000E-03 0.  1.
         12    1    3    3    0    0 -0.68746912206E+01  0.39725289608E+01 -0.13619505599E+01  0.80558844984E+01  0.00000000000E+00 0. -1.
</event>
<event>
 7    1  0.2983653E-010  0.4778727E+02  0.7816164E-02  0.1312668E+00
        -11   -1    0    0    0    0  0.00000000000E+00  0.00000000000E+00  0.45593999997E+02  0.45594000000E+02  0.51100000000E-03 0. -1.
         11   -1    0    0    0    0 -0.00000000000E+00 -0.00000000000E+00 -0.45593999997E+02  0.45594000000E+02  0.51100000000E-03 0.  1.
    9900012    2    1    2    0    0 -0.37828171382E+02 -0.14216525036E+02  0.15828555070E+02  0.47787270861E+02  0.19999999163E+02 0.  0.
        -12    1    1    2    0    0  0.37828171382E+02  0.14216525036E+02 -0.15828555070E+02  0.43400729139E+02  0.00000000000E+00 0.  1.
         11    1    3    3    0    0 -0.10763662484E+02 -0.14191620562E+01  0.11470669423E+02  0.15793881989E+02  0.51100000000E-03 0. -1.
        -11    1    3    3    0    0 -0.15103860230E+02 -0.12684419243E+02  0.31097216396E+01  0.19967259560E+02  0.51100000000E-03 0.  1.
        -12    1    3    3    0    0 -0.11960648668E+02 -0.11294373623E+00  0.12481640076E+01  0.12026129312E+02  0.00000000000E+00 0.  1.
</event>
<event>
 7    1  0.2983653E-010  0.4778727E+02  0.7816164E-02  0.1312668E+00
        -11   -1    0    0    0    0  0.00000000000E+00  0.00000000000E+00  0.45593999997E+02  0.45594000000E+02  0.51100000000E-03 0. -1.
         11   -1    0    0    0    0 -0.00000000000E+00 -0.00000000000E+00 -0.45593999997E+02  0.45594000000E+02  0.51100000000E-03 0.  1.
    9900012    2    1    2    0    0 -0.11802137765E+02 -0.28463379230E+02  0.30564176061E+02  0.47787271074E+02  0.20000000136E+02 0.  0.
        -12    1    1    2    0    0  0.11802137765E+02  0.28463379230E+02 -0.30564176061E+02  0.43400728926E+02  0.00000000000E+00 0.  1.
         11    1    3    3    0    0 -0.13563914677E+02 -0.19452120614E+02  0.30002069185E+02  0.38242501662E+02  0.51100000000E-03 0. -1.
        -11    1    3    3    0    0  0.11128911878E+01 -0.63162208324E+01  0.15566222551E+01  0.65997155625E+01  0.51100000000E-03 0.  1.
         12    1    3    3    0    0  0.64888572376E+00 -0.26950377834E+01 -0.99451537939E+00  0.29450538495E+01  0.00000000000E+00 0. -1.
</event>
<event>
 7    1  0.2983653E-010  0.4778727E+02  0.7816164E-02  0.1312668E+00
        -11   -1    0    0    0    0  0.00000000000E+00  0.00000000000E+00  0.45593999997E+02  0.45594000000E+02  0.51100000000E-03 0.  1.
         11   -1    0    0    0    0 -0.00000000000E+00 -0.00000000000E+00 -0.45593999997E+02  0.45594000000E+02  0.51100000000E-03 0. -1.
    9900012    2    1    2    0    0  0.20572117001E+02 -0.27346846098E+02 -0.26693843627E+02  0.47787271008E+02  0.19999999835E+02 0.  0.
        -12    1    1    2    0    0 -0.20572117001E+02  0.27346846098E+02  0.26693843627E+02  0.43400728992E+02  0.00000000000E+00 0.  1.
         11    1    3    3    0    0  0.11345664794E+02 -0.25249280792E+02 -0.19331202606E+02  0.33763081680E+02  0.51100000000E-03 0. -1.
        -11    1    3    3    0    0  0.86220404544E+01  0.10904126521E+01 -0.52999561321E+01  0.10179298434E+02  0.51100000000E-03 0.  1.
        -12    1    3    3    0    0  0.60441175264E+00 -0.31879779586E+01 -0.20626848892E+01  0.38448908936E+01  0.00000000000E+00 0.  1.
</event>
<event>
 7    1  0.2983653E-010  0.4778727E+02  0.7816164E-02  0.1312668E+00
        -11   -1    0    0    0    0  0.00000000000E+00  0.00000000000E+00  0.45593999997E+02  0.45594000000E+02  0.51100000000E-03 0.  1.
         11   -1    0    0    0    0 -0.00000000000E+00 -0.00000000000E+00 -0.45593999997E+02  0.45594000000E+02  0.51100000000E-03 0. -1.
    9900012    2    1    2    0    0 -0.24118280834E+02 -0.14555107497E+02 -0.33016364310E+02  0.47787274927E+02  0.20000017702E+02 0.  0.
        -12    1    1    2    0    0  0.24118280834E+02  0.14555107497E+02  0.33016364310E+02  0.43400725073E+02  0.00000000000E+00 0.  1.
         11    1    3    3    0    0 -0.10702677708E+02 -0.11987294920E+02 -0.23627050424E+02  0.28574115238E+02  0.51100000000E-03 0. -1.
        -11    1    3    3    0    0 -0.34052385346E+00  0.21129911331E+01  0.45780120438E+00  0.21886685969E+01  0.51100000000E-03 0.  1.
         12    1    3    3    0    0 -0.13075079272E+02 -0.46808037094E+01 -0.98471150902E+01  0.17024491092E+02  0.00000000000E+00 0. -1.
</event>
<event>
 7    1  0.2983653E-010  0.4778727E+02  0.7816164E-02  0.1312668E+00
        -11   -1    0    0    0    0  0.00000000000E+00  0.00000000000E+00  0.45593999997E+02  0.45594000000E+02  0.51100000000E-03 0. -1.
         11   -1    0    0    0    0 -0.00000000000E+00 -0.00000000000E+00 -0.45593999997E+02  0.45594000000E+02  0.51100000000E-03 0.  1.
    9900012    2    1    2    0    0 -0.25103513602E+02  0.31451734167E+02  0.16255020139E+02  0.47787266631E+02  0.19999979878E+02 0.  0.
        -12    1    1    2    0    0  0.25103513602E+02 -0.31451734167E+02 -0.16255020139E+02  0.43400733369E+02  0.00000000000E+00 0.  1.
         11    1    3    3    0    0 -0.35856103311E+01  0.92914139742E+01  0.13301949703E+02  0.16617124939E+02  0.51100000000E-03 0. -1.
        -11    1    3    3    0    0 -0.11681055081E+02  0.11985201756E+02  0.11807968314E+00  0.16736369140E+02  0.51100000000E-03 0.  1.
         12    1    3    3    0    0 -0.98368481896E+01  0.10175118437E+02  0.28349907526E+01  0.14433772552E+02  0.00000000000E+00 0. -1.
</event>
<event>
 7    1  0.2983653E-010  0.4778727E+02  0.7816164E-02  0.1312668E+00
        -11   -1    0    0    0    0  0.00000000000E+00  0.00000000000E+00  0.45593999997E+02  0.45594000000E+02  0.51100000000E-03 0. -1.
         11   -1    0    0    0    0 -0.00000000000E+00 -0.00000000000E+00 -0.45593999997E+02  0.45594000000E+02  0.51100000000E-03 0.  1.
    9900012    2    1    2    0    0 -0.22384452874E+01 -0.42049388167E+02  0.10510095484E+02  0.47787265103E+02  0.19999972912E+02 0.  0.
        -12    1    1    2    0    0  0.22384452874E+01  0.42049388167E+02 -0.10510095484E+02  0.43400734897E+02  0.00000000000E+00 0.  1.
         11    1    3    3    0    0  0.66155064220E+01 -0.18526308139E+02  0.87659753484E+01  0.21536744010E+02  0.51100000000E-03 0. -1.
        -11    1    3    3    0    0 -0.40804470241E+01 -0.28787942011E+01  0.51049371878E-01  0.49940074358E+01  0.51100000000E-03 0.  1.
         12    1    3    3    0    0 -0.47735046853E+01 -0.20644285826E+02  0.16930707635E+01  0.21256513658E+02  0.00000000000E+00 0. -1.
</event>
<event>
 7    1  0.2983653E-010  0.4778728E+02  0.7816164E-02  0.1312668E+00
        -11   -1    0    0    0    0  0.00000000000E+00  0.00000000000E+00  0.45593999997E+02  0.45594000000E+02  0.51100000000E-03 0.  1.
         11   -1    0    0    0    0 -0.00000000000E+00 -0.00000000000E+00 -0.45593999997E+02  0.45594000000E+02  0.51100000000E-03 0. -1.
    9900012    2    1    2    0    0  0.21770399610E+02 -0.20795818703E+02 -0.31260302068E+02  0.47787275812E+02  0.20000021736E+02 0.  0.
        -12    1    1    2    0    0 -0.21770399610E+02  0.20795818703E+02  0.31260302068E+02  0.43400724188E+02  0.00000000000E+00 0.  1.
         11    1    3    3    0    0  0.10124773940E+02 -0.17759473653E+02 -0.20658604340E+02  0.29063514676E+02  0.51100000000E-03 0. -1.
        -11    1    3    3    0    0 -0.16306337509E+01 -0.46243506468E+00 -0.29489278208E+00  0.17203995561E+01  0.51100000000E-03 0.  1.
         12    1    3    3    0    0  0.13276259421E+02 -0.25739099847E+01 -0.10306804946E+02  0.17003361580E+02  0.00000000000E+00 0. -1.
</event>
<event>
 7    1  0.2983653E-010  0.4778727E+02  0.7816164E-02  0.1312668E+00
        -11   -1    0    0    0    0  0.00000000000E+00  0.00000000000E+00  0.45593999997E+02  0.45594000000E+02  0.51100000000E-03 0.  1.
         11   -1    0    0    0    0 -0.00000000000E+00 -0.00000000000E+00 -0.45593999997E+02  0.45594000000E+02  0.51100000000E-03 0. -1.
    9900012    2    1    2    0    0 -0.39581115753E+02 -0.70017894770E+01 -0.16368689080E+02  0.47787265417E+02  0.19999974341E+02 0.  0.
        -12    1    1    2    0    0  0.39581115753E+02  0.70017894770E+01  0.16368689080E+02  0.43400734583E+02  0.00000000000E+00 0.  1.
         11    1    3    3    0    0 -0.84769097550E+01 -0.31984520562E+01 -0.92393807581E+01  0.12940411570E+02  0.51100000000E-03 0. -1.
        -11    1    3    3    0    0 -0.28500899694E+02 -0.31940640616E+01 -0.16223485845E+01  0.28725169169E+02  0.51100000000E-03 0.  1.
        -12    1    3    3    0    0 -0.26033063042E+01 -0.60927335919E+00 -0.55069597376E+01  0.61216846776E+01  0.00000000000E+00 0.  1.
</event>
<event>
 7    1  0.2983653E-010  0.4778727E+02  0.7816164E-02  0.1312668E+00
        -11   -1    0    0    0    0  0.00000000000E+00  0.00000000000E+00  0.45593999997E+02  0.45594000000E+02  0.51100000000E-03 0.  1.
         11   -1    0    0    0    0 -0.00000000000E+00 -0.00000000000E+00 -0.45593999997E+02  0.45594000000E+02  0.51100000000E-03 0. -1.
    9900012    2    1    2    0    0  0.39803920868E+02 -0.16010160686E+01 -0.17225209363E+02  0.47787271821E+02  0.20000003539E+02 0.  0.
        -12    1    1    2    0    0 -0.39803920868E+02  0.16010160686E+01  0.17225209363E+02  0.43400728179E+02  0.00000000000E+00 0.  1.
         11    1    3    3    0    0  0.23285507668E+02 -0.35856258662E+00 -0.11600751017E+02  0.26017702798E+02  0.51100000000E-03 0. -1.
        -11    1    3    3    0    0  0.67095010542E+00  0.32939418346E+01  0.16584480327E+01  0.37484232674E+01  0.51100000000E-03 0.  1.
        -12    1    3    3    0    0  0.15847463094E+02 -0.45363953166E+01 -0.72829063789E+01  0.18021145755E+02  0.00000000000E+00 0.  1.
</event>
<event>
 7    1  0.2983653E-010  0.4778727E+02  0.7816164E-02  0.1312668E+00
        -11   -1    0    0    0    0  0.00000000000E+00  0.00000000000E+00  0.45593999997E+02  0.45594000000E+02  0.51100000000E-03 0.  1.
         11   -1    0    0    0    0 -0.00000000000E+00 -0.00000000000E+00 -0.45593999997E+02  0.45594000000E+02  0.51100000000E-03 0. -1.
    9900012    2    1    2    0    0  0.51885332781E+01  0.35685744952E+02 -0.24150148436E+02  0.47787274892E+02  0.20000017543E+02 0.  0.
        -12    1    1    2    0    0 -0.51885332781E+01 -0.35685744952E+02  0.24150148436E+02  0.43400725108E+02  0.00000000000E+00 0.  1.
         11    1    3    3    0    0 -0.43283836431E+01  0.12056048322E+02 -0.61608022033E+01  0.14214031454E+02  0.51100000000E-03 0.  1.
        -11    1    3    3    0    0  0.74484013010E+01  0.22744475310E+02 -0.19493128571E+02  0.30867003432E+02  0.51100000000E-03 0. -1.
        -12    1    3    3    0    0  0.20685156201E+01  0.88522131954E+00  0.15037823381E+01  0.27062400070E+01  0.00000000000E+00 0.  1.
</event>
<event>
 7    1  0.2983653E-010  0.4778727E+02  0.7816164E-02  0.1312668E+00
        -11   -1    0    0    0    0  0.00000000000E+00  0.00000000000E+00  0.45593999997E+02  0.45594000000E+02  0.51100000000E-03 0.  1.
         11   -1    0    0    0    0 -0.00000000000E+00 -0.00000000000E+00 -0.45593999997E+02  0.45594000000E+02  0.51100000000E-03 0. -1.
    9900012    2    1    2    0    0  0.11709670850E+02 -0.49316088199E+01 -0.41499227434E+02  0.47787273801E+02  0.20000012570E+02 0.  0.
        -12    1    1    2    0    0 -0.11709670850E+02  0.49316088199E+01  0.41499227434E+02  0.43400726199E+02  0.00000000000E+00 0.  1.
         11    1    3    3    0    0  0.33335946649E+00 -0.76955404218E+01 -0.88390397444E+01  0.11724380358E+02  0.51100000000E-03 0. -1.
        -11    1    3    3    0    0  0.86739033252E+01  0.63123974578E+01 -0.24892001330E+02  0.27105252093E+02  0.51100000000E-03 0.  1.
        -12    1    3    3    0    0  0.27024080585E+01 -0.35484658559E+01 -0.77681863590E+01  0.89576413499E+01  0.00000000000E+00 0.  1.
</event>
<event>
 7    1  0.2983653E-010  0.4778725E+02  0.7816164E-02  0.1312668E+00
        -11   -1    0    0    0    0  0.00000000000E+00  0.00000000000E+00  0.45593999997E+02  0.45594000000E+02  0.51100000000E-03 0.  1.
         11   -1    0    0    0    0 -0.00000000000E+00 -0.00000000000E+00 -0.45593999997E+02  0.45594000000E+02  0.51100000000E-03 0. -1.
    9900012    2    1    2    0    0 -0.28996377821E+02  0.25773936794E+02 -0.19456083168E+02  0.47787252117E+02  0.19999913701E+02 0.  0.
        -12    1    1    2    0    0  0.28996377821E+02 -0.25773936794E+02  0.19456083168E+02  0.43400747883E+02  0.00000000000E+00 0.  1.
         11    1    3    3    0    0 -0.14581345298E+02  0.19603734428E+02 -0.60921247546E+01  0.25180071853E+02  0.51100000000E-03 0. -1.
        -11    1    3    3    0    0 -0.52440053316E+01 -0.21942705197E+01 -0.29489913976E+01  0.64039804462E+01  0.51100000000E-03 0.  1.
         12    1    3    3    0    0 -0.91710271906E+01  0.83644728860E+01 -0.10414967016E+02  0.16203199818E+02  0.00000000000E+00 0. -1.
</event>
<event>
 7    1  0.2983653E-010  0.4778727E+02  0.7816164E-02  0.1312668E+00
        -11   -1    0    0    0    0  0.00000000000E+00  0.00000000000E+00  0.45593999997E+02  0.45594000000E+02  0.51100000000E-03 0. -1.
         11   -1    0    0    0    0 -0.00000000000E+00 -0.00000000000E+00 -0.45593999997E+02  0.45594000000E+02  0.51100000000E-03 0.  1.
    9900012    2    1    2    0    0  0.25338394355E+02  0.26001671397E+02  0.23780287175E+02  0.47787271872E+02  0.20000003773E+02 0.  0.
        -12    1    1    2    0    0 -0.25338394355E+02 -0.26001671397E+02 -0.23780287175E+02  0.43400728128E+02  0.00000000000E+00 0.  1.
         11    1    3    3    0    0  0.18670689133E+02  0.24806765031E+02  0.16195733569E+02  0.35018166859E+02  0.51100000000E-03 0. -1.
        -11    1    3    3    0    0  0.63853640627E+01 -0.21920010167E+01  0.40850124182E+01  0.78908218449E+01  0.51100000000E-03 0.  1.
        -12    1    3    3    0    0  0.28234115899E+00  0.33869073826E+01  0.34995411874E+01  0.48782831684E+01  0.00000000000E+00 0.  1.
</event>
<event>
 7    1  0.2983653E-010  0.4778727E+02  0.7816164E-02  0.1312668E+00
        -11   -1    0    0    0    0  0.00000000000E+00  0.00000000000E+00  0.45593999997E+02  0.45594000000E+02  0.51100000000E-03 0. -1.
         11   -1    0    0    0    0 -0.00000000000E+00 -0.00000000000E+00 -0.45593999997E+02  0.45594000000E+02  0.51100000000E-03 0.  1.
    9900012    2    1    2    0    0  0.33177708338E+02 -0.17179901632E+02  0.22084248460E+02  0.47787269814E+02  0.19999994389E+02 0.  0.
        -12    1    1    2    0    0 -0.33177708338E+02  0.17179901632E+02 -0.22084248460E+02  0.43400730186E+02  0.00000000000E+00 0.  1.
         11    1    3    3    0    0  0.15409466810E+02 -0.17605007583E+02  0.14237874765E+02  0.27388045521E+02  0.51100000000E-03 0. -1.
        -11    1    3    3    0    0  0.67726692473E+01  0.28874754927E+01  0.45663919745E+01  0.86636308429E+01  0.51100000000E-03 0.  1.
        -12    1    3    3    0    0  0.10995572280E+02 -0.24623695412E+01  0.32799817206E+01  0.11735593450E+02  0.00000000000E+00 0.  1.
</event>
<event>
 7    1  0.2983653E-010  0.4778728E+02  0.7816164E-02  0.1312668E+00
        -11   -1    0    0    0    0  0.00000000000E+00  0.00000000000E+00  0.45593999997E+02  0.45594000000E+02  0.51100000000E-03 0. -1.
         11   -1    0    0    0    0 -0.00000000000E+00 -0.00000000000E+00 -0.45593999997E+02  0.45594000000E+02  0.51100000000E-03 0.  1.
    9900012    2    1    2    0    0 -0.11575226920E+02  0.87656786157E+01  0.40899872596E+02  0.47787279058E+02  0.20000036539E+02 0.  0.
        -12    1    1    2    0    0  0.11575226920E+02 -0.87656786157E+01 -0.40899872596E+02  0.43400720942E+02  0.00000000000E+00 0.  1.
         11    1    3    3    0    0 -0.54791076094E+01 -0.21294381428E+01  0.22896225618E+02  0.23638787507E+02  0.51100000000E-03 0. -1.
        -11    1    3    3    0    0 -0.54494505752E+00 -0.16556266056E+01  0.33278726009E+00  0.17744892771E+01  0.51100000000E-03 0.  1.
         12    1    3    3    0    0 -0.55511742531E+01  0.12550743364E+02  0.17670859718E+02  0.22374002274E+02  0.00000000000E+00 0. -1.
</event>
<event>
 7    1  0.2983653E-010  0.4778727E+02  0.7816164E-02  0.1312668E+00
        -11   -1    0    0    0    0  0.00000000000E+00  0.00000000000E+00  0.45593999997E+02  0.45594000000E+02  0.51100000000E-03 0.  1.
         11   -1    0    0    0    0 -0.00000000000E+00 -0.00000000000E+00 -0.45593999997E+02  0.45594000000E+02  0.51100000000E-03 0. -1.
    9900012    2    1    2    0    0  0.29351233076E+02  0.11524729227E+02 -0.29821286948E+02  0.47787269337E+02  0.19999992216E+02 0.  0.
        -12    1    1    2    0    0 -0.29351233076E+02 -0.11524729227E+02  0.29821286948E+02  0.43400730663E+02  0.00000000000E+00 0.  1.
         11    1    3    3    0    0  0.78213394767E+01  0.76403777894E+01 -0.12416924563E+02  0.16544749615E+02  0.51100000000E-03 0. -1.
        -11    1    3    3    0    0  0.73617810036E+01 -0.27035400005E+01  0.14711217183E-01  0.78425228569E+01  0.51100000000E-03 0.  1.
        -12    1    3    3    0    0  0.14168112596E+02  0.65878914386E+01 -0.17419073602E+02  0.23399996865E+02  0.00000000000E+00 0.  1.
</event>
<event>
 7    1  0.2983653E-010  0.4778727E+02  0.7816164E-02  0.1312668E+00
        -11   -1    0    0    0    0  0.00000000000E+00  0.00000000000E+00  0.45593999997E+02  0.45594000000E+02  0.51100000000E-03 0. -1.
         11   -1    0    0    0    0 -0.00000000000E+00 -0.00000000000E+00 -0.45593999997E+02  0.45594000000E+02  0.51100000000E-03 0.  1.
    9900012    2    1    2    0    0  0.37493626563E+02  0.21125710704E+02 -0.56174336918E+01  0.47787271356E+02  0.20000001419E+02 0.  0.
        -12    1    1    2    0    0 -0.37493626563E+02 -0.21125710704E+02  0.56174336918E+01  0.43400728644E+02  0.00000000000E+00 0.  1.
         11    1    3    3    0    0  0.29214057521E+02  0.15953055779E+02  0.42430376894E+00  0.33288754550E+02  0.51100000000E-03 0. -1.
        -11    1    3    3    0    0 -0.14269682585E+01  0.44170857826E-01 -0.26471483472E+01  0.30075877558E+01  0.51100000000E-03 0.  1.
         12    1    3    3    0    0  0.97065372997E+01  0.51284840676E+01 -0.33945891136E+01  0.11490929050E+02  0.00000000000E+00 0. -1.
</event>
<event>
 7    1  0.2983653E-010  0.4778727E+02  0.7816164E-02  0.1312668E+00
        -11   -1    0    0    0    0  0.00000000000E+00  0.00000000000E+00  0.45593999997E+02  0.45594000000E+02  0.51100000000E-03 0. -1.
         11   -1    0    0    0    0 -0.00000000000E+00 -0.00000000000E+00 -0.45593999997E+02  0.45594000000E+02  0.51100000000E-03 0.  1.
    9900012    2    1    2    0    0  0.27675246973E+02  0.33382931592E+02 -0.18120851586E+01  0.47787273401E+02  0.20000010744E+02 0.  0.
        -12    1    1    2    0    0 -0.27675246973E+02 -0.33382931592E+02  0.18120851586E+01  0.43400726599E+02  0.00000000000E+00 0.  1.
         11    1    3    3    0    0  0.25447060726E+01 -0.92778011181E+00  0.12107118303E+01  0.29668381029E+01  0.51100000000E-03 0.  1.
        -11    1    3    3    0    0  0.24722380161E+02  0.24348759841E+02 -0.32159919288E+01  0.34848253772E+02  0.51100000000E-03 0. -1.
        -12    1    3    3    0    0  0.40816074004E+00  0.99619518623E+01  0.19319493991E+00  0.99721815257E+01  0.00000000000E+00 0.  1.
</event>
<event>
 7    1  0.2983653E-010  0.4778728E+02  0.7816164E-02  0.1312668E+00
        -11   -1    0    0    0    0  0.00000000000E+00  0.00000000000E+00  0.45593999997E+02  0.45594000000E+02  0.51100000000E-03 0.  1.
         11   -1    0    0    0    0 -0.00000000000E+00 -0.00000000000E+00 -0.45593999997E+02  0.45594000000E+02  0.51100000000E-03 0. -1.
    9900012    2    1    2    0    0  0.37250215276E+02  0.73199765676E+01  0.21034779101E+02  0.47787279650E+02  0.20000039237E+02 0.  0.
        -12    1    1    2    0    0 -0.37250215276E+02 -0.73199765676E+01 -0.21034779101E+02  0.43400720350E+02  0.00000000000E+00 0.  1.
         11    1    3    3    0    0  0.30221310158E+02  0.51648894663E+01  0.17029279952E+02  0.35071356501E+02  0.51100000000E-03 0. -1.
        -11    1    3    3    0    0  0.11479112165E+01  0.20623134371E+00 -0.30861354071E+01  0.32991610358E+01  0.51100000000E-03 0.  1.
        -12    1    3    3    0    0  0.58809939019E+01  0.19488557576E+01  0.70916345555E+01  0.94167621138E+01  0.00000000000E+00 0.  1.
</event>
<event>
 7    1  0.2983653E-010  0.4778727E+02  0.7816164E-02  0.1312668E+00
        -11   -1    0    0    0    0  0.00000000000E+00  0.00000000000E+00  0.45593999997E+02  0.45594000000E+02  0.51100000000E-03 0.  1.
         11   -1    0    0    0    0 -0.00000000000E+00 -0.00000000000E+00 -0.45593999997E+02  0.45594000000E+02  0.51100000000E-03 0. -1.
    9900012    2    1    2    0    0  0.39261360116E+02 -0.71018543046E+01 -0.17080178795E+02  0.47787271430E+02  0.20000001759E+02 0.  0.
        -12    1    1    2    0    0 -0.39261360116E+02  0.71018543046E+01  0.17080178795E+02  0.43400728570E+02  0.00000000000E+00 0.  1.
         11    1    3    3    0    0  0.14024327996E+02  0.14900399070E+01 -0.52549778522E+01  0.15050474649E+02  0.51100000000E-03 0. -1.
        -11    1    3    3    0    0  0.24645923736E+02 -0.10495058416E+02 -0.72573344851E+01  0.27753138779E+02  0.51100000000E-03 0.  1.
        -12    1    3    3    0    0  0.59110838358E+00  0.19031642047E+01 -0.45678664581E+01  0.49836580029E+01  0.00000000000E+00 0.  1.
</event>
<event>
 7    1  0.3878812E-010  0.4778728E+02  0.7816164E-02  0.1312668E+00
        -11   -1    0    0    0    0  0.00000000000E+00  0.00000000000E+00  0.45593999997E+02  0.45594000000E+02  0.51100000000E-03 0. -1.
         11   -1    0    0    0    0 -0.00000000000E+00 -0.00000000000E+00 -0.45593999997E+02  0.45594000000E+02  0.51100000000E-03 0.  1.
    9900012    2    1    2    0    0  0.23617658167E+02  0.19281164315E+02  0.30887948650E+02  0.47787280577E+02  0.20000043463E+02 0.  0.
        -12    1    1    2    0    0 -0.23617658167E+02 -0.19281164315E+02 -0.30887948650E+02  0.43400719423E+02  0.00000000000E+00 0.  1.
         11    1    3    3    0    0  0.17842590473E+02  0.20107200868E+02  0.23965390426E+02  0.36013851503E+02  0.51100000000E-03 0. -1.
        -11    1    3    3    0    0  0.13697387339E+01 -0.14976006873E+01 -0.13076001714E+01  0.24142929580E+01  0.51100000000E-03 0.  1.
        -12    1    3    3    0    0  0.44053289599E+01  0.67156413492E+00  0.82301583955E+01  0.93591361165E+01  0.00000000000E+00 0.  1.
</event>
<event>
 7    1  0.2983653E-010  0.4778727E+02  0.7816164E-02  0.1312668E+00
        -11   -1    0    0    0    0  0.00000000000E+00  0.00000000000E+00  0.45593999997E+02  0.45594000000E+02  0.51100000000E-03 0.  1.
         11   -1    0    0    0    0 -0.00000000000E+00 -0.00000000000E+00 -0.45593999997E+02  0.45594000000E+02  0.51100000000E-03 0. -1.
    9900012    2    1    2    0    0  0.16007472581E+02 -0.33735414172E+02 -0.22120269347E+02  0.47787266552E+02  0.19999979518E+02 0.  0.
        -12    1    1    2    0    0 -0.16007472581E+02  0.33735414172E+02  0.22120269347E+02  0.43400733448E+02  0.00000000000E+00 0.  1.
         11    1    3    3    0    0  0.16876685506E+02 -0.24267742947E+02 -0.11975251017E+02  0.31892828326E+02  0.51100000000E-03 0. -1.
        -11    1    3    3    0    0 -0.13370145172E+01 -0.10615934733E+02 -0.10001337543E+02  0.14646242896E+02  0.51100000000E-03 0.  1.
         12    1    3    3    0    0  0.46780159191E+00  0.11482635079E+01 -0.14368078714E+00  0.12481953299E+01  0.00000000000E+00 0. -1.
</event>
<event>
 7    1  0.2983653E-010  0.4778727E+02  0.7816164E-02  0.1312668E+00
        -11   -1    0    0    0    0  0.00000000000E+00  0.00000000000E+00  0.45593999997E+02  0.45594000000E+02  0.51100000000E-03 0.  1.
         11   -1    0    0    0    0 -0.00000000000E+00 -0.00000000000E+00 -0.45593999997E+02  0.45594000000E+02  0.51100000000E-03 0. -1.
    9900012    2    1    2    0    0 -0.83706805278E+01  0.21278968890E+02 -0.36888486824E+02  0.47787271093E+02  0.20000000220E+02 0.  0.
        -12    1    1    2    0    0  0.83706805278E+01 -0.21278968890E+02  0.36888486824E+02  0.43400728907E+02  0.00000000000E+00 0.  1.
         11    1    3    3    0    0  0.13670290249E+01  0.54716937000E+01 -0.13183339800E+02  0.14339060250E+02  0.51100000000E-03 0. -1.
        -11    1    3    3    0    0 -0.60985017290E+01  0.10531114651E+02 -0.41311841754E+01  0.12851567301E+02  0.51100000000E-03 0.  1.
        -12    1    3    3    0    0 -0.36392078237E+01  0.52761605393E+01 -0.19573962848E+02  0.20596643542E+02  0.00000000000E+00 0.  1.
</event>
<event>
 7    1  0.2983653E-010  0.4778727E+02  0.7816164E-02  0.1312668E+00
        -11   -1    0    0    0    0  0.00000000000E+00  0.00000000000E+00  0.45593999997E+02  0.45594000000E+02  0.51100000000E-03 0. -1.
         11   -1    0    0    0    0 -0.00000000000E+00 -0.00000000000E+00 -0.45593999997E+02  0.45594000000E+02  0.51100000000E-03 0.  1.
    9900012    2    1    2    0    0  0.33188171753E+02 -0.24599690362E+02  0.13305031669E+02  0.47787269846E+02  0.19999994537E+02 0.  0.
        -12    1    1    2    0    0 -0.33188171753E+02  0.24599690362E+02 -0.13305031669E+02  0.43400730154E+02  0.00000000000E+00 0.  1.
         11    1    3    3    0    0  0.33719668544E+02 -0.18979012350E+02  0.12524650369E+02  0.40670453940E+02  0.51100000000E-03 0. -1.
        -11    1    3    3    0    0 -0.11632425635E+01 -0.17418143748E+01 -0.14971489671E+01  0.25745884853E+01  0.51100000000E-03 0.  1.
         12    1    3    3    0    0  0.63174577172E+00 -0.38788636367E+01  0.22775302665E+01  0.45422274214E+01  0.00000000000E+00 0. -1.
</event>
<event>
 7    1  0.2983653E-010  0.4778727E+02  0.7816164E-02  0.1312668E+00
        -11   -1    0    0    0    0  0.00000000000E+00  0.00000000000E+00  0.45593999997E+02  0.45594000000E+02  0.51100000000E-03 0.  1.
         11   -1    0    0    0    0 -0.00000000000E+00 -0.00000000000E+00 -0.45593999997E+02  0.45594000000E+02  0.51100000000E-03 0. -1.
    9900012    2    1    2    0    0  0.14070111665E+01  0.31482762013E+02 -0.29840901195E+02  0.47787269954E+02  0.19999995028E+02 0.  0.
        -12    1    1    2    0    0 -0.14070111665E+01 -0.31482762013E+02  0.29840901195E+02  0.43400730046E+02  0.00000000000E+00 0.  1.
         11    1    3    3    0    0 -0.18375325400E+01  0.27674929307E+02 -0.19277449828E+02  0.33777186238E+02  0.51100000000E-03 0. -1.
        -11    1    3    3    0    0 -0.16487844666E+01 -0.11371025056E+01 -0.38624693058E+01  0.43508805689E+01  0.51100000000E-03 0.  1.
         12    1    3    3    0    0  0.48933281731E+01  0.49449352110E+01 -0.67009820611E+01  0.96592031470E+01  0.00000000000E+00 0. -1.
</event>
<event>
 7    1  0.2983653E-010  0.4778728E+02  0.7816164E-02  0.1312668E+00
        -11   -1    0    0    0    0  0.00000000000E+00  0.00000000000E+00  0.45593999997E+02  0.45594000000E+02  0.51100000000E-03 0.  1.
         11   -1    0    0    0    0 -0.00000000000E+00 -0.00000000000E+00 -0.45593999997E+02  0.45594000000E+02  0.51100000000E-03 0. -1.
    9900012    2    1    2    0    0 -0.32502572356E+02 -0.26244332310E+01 -0.28641192574E+02  0.47787276830E+02  0.20000026381E+02 0.  0.
        -12    1    1    2    0    0  0.32502572356E+02  0.26244332310E+01  0.28641192574E+02  0.43400723170E+02  0.00000000000E+00 0.  1.
         11    1    3    3    0    0 -0.14406723463E+02  0.34961007838E+01 -0.20544130853E+02  0.25334516265E+02  0.51100000000E-03 0. -1.
        -11    1    3    3    0    0 -0.16151508088E+02 -0.23135336296E+01 -0.80115129529E+01  0.18177128250E+02  0.51100000000E-03 0.  1.
        -12    1    3    3    0    0 -0.19443408060E+01 -0.38070003853E+01 -0.85548768201E-01  0.42756323152E+01  0.00000000000E+00 0.  1.
</event>
<event>
 7    1  0.2983653E-010  0.4778727E+02  0.7816164E-02  0.1312668E+00
        -11   -1    0    0    0    0  0.00000000000E+00  0.00000000000E+00  0.45593999997E+02  0.45594000000E+02  0.51100000000E-03 0.  1.
         11   -1    0    0    0    0 -0.00000000000E+00 -0.00000000000E+00 -0.45593999997E+02  0.45594000000E+02  0.51100000000E-03 0. -1.
    9900012    2    1    2    0    0  0.25964643029E+02 -0.14151521100E+02 -0.31767830704E+02  0.47787270689E+02  0.19999998380E+02 0.  0.
        -12    1    1    2    0    0 -0.25964643029E+02  0.14151521100E+02  0.31767830704E+02  0.43400729311E+02  0.00000000000E+00 0.  1.
         11    1    3    3    0    0  0.89312091582E+01 -0.15023875701E+02 -0.17623257039E+02  0.24820606903E+02  0.51100000000E-03 0. -1.
        -11    1    3    3    0    0  0.98756663837E+01  0.27066199559E+01 -0.56029055813E+01  0.11672494563E+02  0.51100000000E-03 0.  1.
         12    1    3    3    0    0  0.71577674868E+01 -0.18342653548E+01 -0.85416680837E+01  0.11294169223E+02  0.00000000000E+00 0. -1.
</event>
<event>
 7    1  0.2983653E-010  0.4778727E+02  0.7816164E-02  0.1312668E+00
        -11   -1    0    0    0    0  0.00000000000E+00  0.00000000000E+00  0.45593999997E+02  0.45594000000E+02  0.51100000000E-03 0. -1.
         11   -1    0    0    0    0 -0.00000000000E+00 -0.00000000000E+00 -0.45593999997E+02  0.45594000000E+02  0.51100000000E-03 0.  1.
    9900012    2    1    2    0    0  0.34785110004E+02  0.24321544311E+02  0.90599054898E+01  0.47787270938E+02  0.19999999514E+02 0.  0.
        -12    1    1    2    0    0 -0.34785110004E+02 -0.24321544311E+02 -0.90599054898E+01  0.43400729062E+02  0.00000000000E+00 0.  1.
         11    1    3    3    0    0  0.87818177680E+01  0.11843097414E+02  0.10508259006E+02  0.18105324832E+02  0.51100000000E-03 0. -1.
        -11    1    3    3    0    0  0.20605269020E+02  0.74670418742E+01  0.94592042672E+00  0.21936923017E+02  0.51100000000E-03 0.  1.
        -12    1    3    3    0    0  0.53980232160E+01  0.50114050220E+01 -0.23942739429E+01  0.77450230890E+01  0.00000000000E+00 0.  1.
</event>
<event>
 7    1  0.2983653E-010  0.4778727E+02  0.7816164E-02  0.1312668E+00
        -11   -1    0    0    0    0  0.00000000000E+00  0.00000000000E+00  0.45593999997E+02  0.45594000000E+02  0.51100000000E-03 0.  1.
         11   -1    0    0    0    0 -0.00000000000E+00 -0.00000000000E+00 -0.45593999997E+02  0.45594000000E+02  0.51100000000E-03 0. -1.
    9900012    2    1    2    0    0  0.12977484696E+01  0.39305880173E+02 -0.18357194608E+02  0.47787274647E+02  0.20000016428E+02 0.  0.
        -12    1    1    2    0    0 -0.12977484696E+01 -0.39305880173E+02  0.18357194608E+02  0.43400725353E+02  0.00000000000E+00 0.  1.
         11    1    3    3    0    0  0.31577405985E+01  0.13103070605E+02 -0.13427268094E+02  0.19025070662E+02  0.51100000000E-03 0. -1.
        -11    1    3    3    0    0  0.12444438158E+01 -0.53450815291E+00  0.17441472239E+00  0.13655622039E+01  0.51100000000E-03 0.  1.
        -12    1    3    3    0    0 -0.31044359448E+01  0.26737317721E+02 -0.51043412360E+01  0.27396641781E+02  0.00000000000E+00 0.  1.
</event>
<event>
 7    1  0.2983653E-010  0.4778725E+02  0.7816164E-02  0.1312668E+00
        -11   -1    0    0    0    0  0.00000000000E+00  0.00000000000E+00  0.45593999997E+02  0.45594000000E+02  0.51100000000E-03 0.  1.
         11   -1    0    0    0    0 -0.00000000000E+00 -0.00000000000E+00 -0.45593999997E+02  0.45594000000E+02  0.51100000000E-03 0. -1.
    9900012    2    1    2    0    0 -0.25489488780E+02  0.11888683669E+02 -0.33054051895E+02  0.47787249035E+02  0.19999899649E+02 0.  0.
        -12    1    1    2    0    0  0.25489488780E+02 -0.11888683669E+02  0.33054051895E+02  0.43400750965E+02  0.00000000000E+00 0.  1.
         11    1    3    3    0    0  0.86033640209E+00 -0.29376746560E+01 -0.27863434214E+01  0.41393019982E+01  0.51100000000E-03 0. -1.
        -11    1    3    3    0    0 -0.16469051021E+02  0.77762826132E+01 -0.12346798102E+02  0.22003264222E+02  0.51100000000E-03 0.  1.
         12    1    3    3    0    0 -0.98807741615E+01  0.70500757120E+01 -0.17920910372E+02  0.21644682814E+02  0.00000000000E+00 0. -1.
</event>
<event>
 7    1  0.2983653E-010  0.4778727E+02  0.7816164E-02  0.1312668E+00
        -11   -1    0    0    0    0  0.00000000000E+00  0.00000000000E+00  0.45593999997E+02  0.45594000000E+02  0.51100000000E-03 0.  1.
         11   -1    0    0    0    0 -0.00000000000E+00 -0.00000000000E+00 -0.45593999997E+02  0.45594000000E+02  0.51100000000E-03 0. -1.
    9900012    2    1    2    0    0 -0.49547510580E+01  0.15290775696E+02 -0.40314587343E+02  0.47787270374E+02  0.19999996942E+02 0.  0.
        -12    1    1    2    0    0  0.49547510580E+01 -0.15290775696E+02  0.40314587343E+02  0.43400729626E+02  0.00000000000E+00 0.  1.
         11    1    3    3    0    0 -0.20861858799E+01  0.21181597462E+01 -0.59042850150E+01  0.66105486940E+01  0.51100000000E-03 0. -1.
        -11    1    3    3    0    0 -0.19902393314E+01  0.11639044928E+01 -0.26872277976E+02  0.26971003877E+02  0.51100000000E-03 0.  1.
        -12    1    3    3    0    0 -0.87832584666E+00  0.12008711457E+02 -0.75380243528E+01  0.14205717803E+02  0.00000000000E+00 0.  1.
</event>
<event>
 7    1  0.2983653E-010  0.4778727E+02  0.7816164E-02  0.1312668E+00
        -11   -1    0    0    0    0  0.00000000000E+00  0.00000000000E+00  0.45593999997E+02  0.45594000000E+02  0.51100000000E-03 0. -1.
         11   -1    0    0    0    0 -0.00000000000E+00 -0.00000000000E+00 -0.45593999997E+02  0.45594000000E+02  0.51100000000E-03 0.  1.
    9900012    2    1    2    0    0  0.18054167374E+02  0.33270941929E+02  0.21230043360E+02  0.47787271003E+02  0.19999999810E+02 0.  0.
        -12    1    1    2    0    0 -0.18054167374E+02 -0.33270941929E+02 -0.21230043360E+02  0.43400728997E+02  0.00000000000E+00 0.  1.
         11    1    3    3    0    0 -0.13525303015E+01  0.13689949645E+02  0.11637689422E+02  0.18018875516E+02  0.51100000000E-03 0. -1.
        -11    1    3    3    0    0  0.14924791024E+02  0.12705944426E+02  0.89168472601E+01  0.21533707906E+02  0.51100000000E-03 0.  1.
         12    1    3    3    0    0  0.44819066515E+01  0.68750478581E+01  0.67550667806E+00  0.82346875809E+01  0.00000000000E+00 0. -1.
</event>
<event>
 7    1  0.2983653E-010  0.4778727E+02  0.7816164E-02  0.1312668E+00
        -11   -1    0    0    0    0  0.00000000000E+00  0.00000000000E+00  0.45593999997E+02  0.45594000000E+02  0.51100000000E-03 0. -1.
         11   -1    0    0    0    0 -0.00000000000E+00 -0.00000000000E+00 -0.45593999997E+02  0.45594000000E+02  0.51100000000E-03 0.  1.
    9900012    2    1    2    0    0  0.26544600340E+02  0.34048058952E+02 -0.44426969372E+01  0.47787266346E+02  0.19999978578E+02 0.  0.
        -12    1    1    2    0    0 -0.26544600340E+02 -0.34048058952E+02  0.44426969372E+01  0.43400733654E+02  0.00000000000E+00 0.  1.
         11    1    3    3    0    0  0.42682812753E+01  0.17470293635E+02 -0.13845416358E+01  0.18037359578E+02  0.51100000000E-03 0. -1.
        -11    1    3    3    0    0  0.83037531157E+01  0.15282981120E+01 -0.36668307019E+01  0.92050887330E+01  0.51100000000E-03 0.  1.
         12    1    3    3    0    0  0.13972565949E+02  0.15049467206E+02  0.60867540056E+00  0.20544818035E+02  0.00000000000E+00 0. -1.
</event>
<event>
 7    1  0.2983653E-010  0.4778727E+02  0.7816164E-02  0.1312668E+00
        -11   -1    0    0    0    0  0.00000000000E+00  0.00000000000E+00  0.45593999997E+02  0.45594000000E+02  0.51100000000E-03 0. -1.
         11   -1    0    0    0    0 -0.00000000000E+00 -0.00000000000E+00 -0.45593999997E+02  0.45594000000E+02  0.51100000000E-03 0.  1.
    9900012    2    1    2    0    0 -0.14838720272E+02 -0.39157207724E+02 -0.11408278065E+02  0.47787270231E+02  0.19999996293E+02 0.  0.
        -12    1    1    2    0    0  0.14838720272E+02  0.39157207724E+02  0.11408278065E+02  0.43400729769E+02  0.00000000000E+00 0.  1.
         11    1    3    3    0    0 -0.40769628205E+00 -0.23269180630E+02 -0.61639784705E+01  0.24075207461E+02  0.51100000000E-03 0. -1.
        -11    1    3    3    0    0 -0.57999001235E+01 -0.37536024483E+01  0.19440120904E+01  0.71768764830E+01  0.51100000000E-03 0.  1.
         12    1    3    3    0    0 -0.86311238664E+01 -0.12134424646E+02 -0.71883116845E+01  0.16535186287E+02  0.00000000000E+00 0. -1.
</event>
<event>
 7    1  0.2983653E-010  0.4778728E+02  0.7816164E-02  0.1312668E+00
        -11   -1    0    0    0    0  0.00000000000E+00  0.00000000000E+00  0.45593999997E+02  0.45594000000E+02  0.51100000000E-03 0. -1.
         11   -1    0    0    0    0 -0.00000000000E+00 -0.00000000000E+00 -0.45593999997E+02  0.45594000000E+02  0.51100000000E-03 0.  1.
    9900012    2    1    2    0    0 -0.25501235832E+02  0.27320672608E+02  0.22065591511E+02  0.47787279851E+02  0.20000040154E+02 0.  0.
        -12    1    1    2    0    0  0.25501235832E+02 -0.27320672608E+02 -0.22065591511E+02  0.43400720149E+02  0.00000000000E+00 0.  1.
         11    1    3    3    0    0 -0.22786624030E+02  0.18881147444E+02  0.12551111880E+02  0.32144336564E+02  0.51100000000E-03 0. -1.
        -11    1    3    3    0    0 -0.23237991054E+01  0.34182504727E-01  0.61612192476E+01  0.65849702811E+01  0.51100000000E-03 0.  1.
         12    1    3    3    0    0 -0.39081269660E+00  0.84053426584E+01  0.33532603841E+01  0.90579730058E+01  0.00000000000E+00 0. -1.
</event>
<event>
 7    1  0.2983653E-010  0.4778729E+02  0.7816164E-02  0.1312668E+00
        -11   -1    0    0    0    0  0.00000000000E+00  0.00000000000E+00  0.45593999997E+02  0.45594000000E+02  0.51100000000E-03 0.  1.
         11   -1    0    0    0    0 -0.00000000000E+00 -0.00000000000E+00 -0.45593999997E+02  0.45594000000E+02  0.51100000000E-03 0. -1.
    9900012    2    1    2    0    0 -0.37619172777E+01 -0.42305857512E+02 -0.89266067077E+01  0.47787286772E+02  0.20000071707E+02 0.  0.
        -12    1    1    2    0    0  0.37619172777E+01  0.42305857512E+02  0.89266067077E+01  0.43400713228E+02  0.00000000000E+00 0.  1.
         11    1    3    3    0    0 -0.39628123455E+01 -0.10181819369E+02 -0.89207660190E+01  0.14105083976E+02  0.51100000000E-03 0. -1.
        -11    1    3    3    0    0 -0.17547400564E+01 -0.21197572125E+02  0.44336231222E+01  0.21727245360E+02  0.51100000000E-03 0.  1.
        -12    1    3    3    0    0  0.19556351241E+01 -0.10926466017E+02 -0.44394638110E+01  0.11954957436E+02  0.00000000000E+00 0.  1.
</event>
<event>
 7    1  0.2983653E-010  0.4778727E+02  0.7816164E-02  0.1312668E+00
        -11   -1    0    0    0    0  0.00000000000E+00  0.00000000000E+00  0.45593999997E+02  0.45594000000E+02  0.51100000000E-03 0. -1.
         11   -1    0    0    0    0 -0.00000000000E+00 -0.00000000000E+00 -0.45593999997E+02  0.45594000000E+02  0.51100000000E-03 0.  1.
    9900012    2    1    2    0    0  0.38605767050E+02 -0.87558900423E+01  0.17791925847E+02  0.47787268609E+02  0.19999988894E+02 0.  0.
        -12    1    1    2    0    0 -0.38605767050E+02  0.87558900423E+01 -0.17791925847E+02  0.43400731391E+02  0.00000000000E+00 0.  1.
         11    1    3    3    0    0  0.39084098030E+02 -0.47350046580E+01  0.16427685648E+02  0.42659768447E+02  0.51100000000E-03 0. -1.
        -11    1    3    3    0    0  0.92522807169E+00 -0.31360119426E+01  0.10848832786E+01  0.34449368467E+01  0.51100000000E-03 0.  1.
         12    1    3    3    0    0 -0.14035590517E+01 -0.88487344172E+00  0.27935692077E+00  0.16825633149E+01  0.00000000000E+00 0. -1.
</event>
<event>
 7    1  0.2983653E-010  0.4778725E+02  0.7816164E-02  0.1312668E+00
        -11   -1    0    0    0    0  0.00000000000E+00  0.00000000000E+00  0.45593999997E+02  0.45594000000E+02  0.51100000000E-03 0. -1.
         11   -1    0    0    0    0 -0.00000000000E+00 -0.00000000000E+00 -0.45593999997E+02  0.45594000000E+02  0.51100000000E-03 0.  1.
    9900012    2    1    2    0    0 -0.31583647829E+02 -0.60947530066E+01  0.29136781423E+02  0.47787252816E+02  0.19999916889E+02 0.  0.
        -12    1    1    2    0    0  0.31583647829E+02  0.60947530066E+01 -0.29136781423E+02  0.43400747184E+02  0.00000000000E+00 0.  1.
         11    1    3    3    0    0 -0.30845188687E+02 -0.36245904853E+01  0.30806913085E+02  0.43745047896E+02  0.51100000000E-03 0. -1.
        -11    1    3    3    0    0 -0.11333497556E+01 -0.41034642422E+00 -0.15194344444E+01  0.19394708424E+01  0.51100000000E-03 0.  1.
         12    1    3    3    0    0  0.39489061336E+00 -0.20598160971E+01 -0.15069721743E+00  0.21027340777E+01  0.00000000000E+00 0. -1.
</event>
<event>
 7    1  0.4547643E-010  0.4778727E+02  0.7816164E-02  0.1312668E+00
        -11   -1    0    0    0    0  0.00000000000E+00  0.00000000000E+00  0.45593999997E+02  0.45594000000E+02  0.51100000000E-03 0. -1.
         11   -1    0    0    0    0 -0.00000000000E+00 -0.00000000000E+00 -0.45593999997E+02  0.45594000000E+02  0.51100000000E-03 0.  1.
    9900012    2    1    2    0    0  0.70652758217E+01  0.16005927743E+02  0.39717949950E+02  0.47787269665E+02  0.19999993711E+02 0.  0.
        -12    1    1    2    0    0 -0.70652758217E+01 -0.16005927743E+02 -0.39717949950E+02  0.43400730335E+02  0.00000000000E+00 0.  1.
         11    1    3    3    0    0  0.60706643467E+01  0.13370399375E+02  0.17064341910E+02  0.22512492313E+02  0.51100000000E-03 0. -1.
        -11    1    3    3    0    0 -0.43325459971E+00 -0.41602984906E+01  0.70830722813E+01  0.82259167442E+01  0.51100000000E-03 0.  1.
        -12    1    3    3    0    0  0.14278660747E+01  0.67958268594E+01  0.15570535758E+02  0.17048860608E+02  0.00000000000E+00 0.  1.
</event>
<event>
 7    1  0.2983653E-010  0.4778727E+02  0.7816164E-02  0.1312668E+00
        -11   -1    0    0    0    0  0.00000000000E+00  0.00000000000E+00  0.45593999997E+02  0.45594000000E+02  0.51100000000E-03 0.  1.
         11   -1    0    0    0    0 -0.00000000000E+00 -0.00000000000E+00 -0.45593999997E+02  0.45594000000E+02  0.51100000000E-03 0. -1.
    9900012    2    1    2    0    0 -0.66643752822E+01  0.18943495467E+02 -0.38475359762E+02  0.47787271582E+02  0.20000002452E+02 0.  0.
        -12    1    1    2    0    0  0.66643752822E+01 -0.18943495467E+02  0.38475359762E+02  0.43400728418E+02  0.00000000000E+00 0.  1.
         11    1    3    3    0    0  0.31220971604E+01  0.43616941297E+01 -0.41123354991E+01  0.67589325991E+01  0.51100000000E-03 0. -1.
        -11    1    3    3    0    0 -0.10350559683E+02  0.10896816419E+02 -0.34130750202E+02  0.37293200499E+02  0.51100000000E-03 0.  1.
        -12    1    3    3    0    0  0.56408724031E+00  0.36849849177E+01 -0.23227406028E+00  0.37351384843E+01  0.00000000000E+00 0.  1.
</event>
<event>
 7    1  0.2983653E-010  0.4778727E+02  0.7816164E-02  0.1312668E+00
        -11   -1    0    0    0    0  0.00000000000E+00  0.00000000000E+00  0.45593999997E+02  0.45594000000E+02  0.51100000000E-03 0.  1.
         11   -1    0    0    0    0 -0.00000000000E+00 -0.00000000000E+00 -0.45593999997E+02  0.45594000000E+02  0.51100000000E-03 0. -1.
    9900012    2    1    2    0    0  0.38023474876E+02 -0.99537162942E+01 -0.18405487938E+02  0.47787273094E+02  0.20000009345E+02 0.  0.
        -12    1    1    2    0    0 -0.38023474876E+02  0.99537162942E+01  0.18405487938E+02  0.43400726906E+02  0.00000000000E+00 0.  1.
         11    1    3    3    0    0  0.13673458156E+02 -0.51978799925E+01 -0.10945910835E+02  0.18270040466E+02  0.51100000000E-03 0. -1.
        -11    1    3    3    0    0  0.14699218996E+02  0.41662005263E+01 -0.25633808268E+01  0.15491778060E+02  0.51100000000E-03 0.  1.
        -12    1    3    3    0    0  0.96507977242E+01 -0.89220368280E+01 -0.48961962763E+01  0.14025454568E+02  0.00000000000E+00 0.  1.
</event>
<event>
 7    1  0.2983653E-010  0.4778727E+02  0.7816164E-02  0.1312668E+00
        -11   -1    0    0    0    0  0.00000000000E+00  0.00000000000E+00  0.45593999997E+02  0.45594000000E+02  0.51100000000E-03 0.  1.
         11   -1    0    0    0    0 -0.00000000000E+00 -0.00000000000E+00 -0.45593999997E+02  0.45594000000E+02  0.51100000000E-03 0. -1.
    9900012    2    1    2    0    0 -0.19291132394E+02  0.38658852969E+02 -0.41192966991E+01  0.47787270660E+02  0.19999998248E+02 0.  0.
        -12    1    1    2    0    0  0.19291132394E+02 -0.38658852969E+02  0.41192966991E+01  0.43400729340E+02  0.00000000000E+00 0.  1.
         11    1    3    3    0    0 -0.30627389950E+01  0.33234804923E+00  0.22121304817E+01  0.37926701552E+01  0.51100000000E-03 0. -1.
        -11    1    3    3    0    0 -0.39489479916E+01  0.29289000313E+01  0.24782193642E+01  0.55058348243E+01  0.51100000000E-03 0.  1.
         12    1    3    3    0    0 -0.12279445407E+02  0.35397604889E+02 -0.88096465450E+01  0.38488765681E+02  0.00000000000E+00 0. -1.
</event>
<event>
 7    1  0.2983653E-010  0.4778727E+02  0.7816164E-02  0.1312668E+00
        -11   -1    0    0    0    0  0.00000000000E+00  0.00000000000E+00  0.45593999997E+02  0.45594000000E+02  0.51100000000E-03 0.  1.
         11   -1    0    0    0    0 -0.00000000000E+00 -0.00000000000E+00 -0.45593999997E+02  0.45594000000E+02  0.51100000000E-03 0. -1.
    9900012    2    1    2    0    0 -0.29275496228E+02 -0.62631748559E+01 -0.31421981376E+02  0.47787274750E+02  0.20000016894E+02 0.  0.
        -12    1    1    2    0    0  0.29275496228E+02  0.62631748559E+01  0.31421981376E+02  0.43400725250E+02  0.00000000000E+00 0.  1.
         11    1    3    3    0    0 -0.26796698273E+01  0.29919613221E+01 -0.85921583751E+01  0.94846006105E+01  0.51100000000E-03 0. -1.
        -11    1    3    3    0    0 -0.27610645901E+02 -0.73501675194E+01 -0.21603940158E+02  0.35820426579E+02  0.51100000000E-03 0.  1.
         12    1    3    3    0    0  0.10148195006E+01 -0.19049686587E+01 -0.12258828425E+01  0.24822475608E+01  0.00000000000E+00 0. -1.
</event>
<event>
 7    1  0.2983653E-010  0.4778727E+02  0.7816164E-02  0.1312668E+00
        -11   -1    0    0    0    0  0.00000000000E+00  0.00000000000E+00  0.45593999997E+02  0.45594000000E+02  0.51100000000E-03 0.  1.
         11   -1    0    0    0    0 -0.00000000000E+00 -0.00000000000E+00 -0.45593999997E+02  0.45594000000E+02  0.51100000000E-03 0. -1.
    9900012    2    1    2    0    0 -0.22513242569E+02  0.78834575988E+01 -0.36257809210E+02  0.47787265866E+02  0.19999976388E+02 0.  0.
        -12    1    1    2    0    0  0.22513242569E+02 -0.78834575988E+01  0.36257809210E+02  0.43400734134E+02  0.00000000000E+00 0.  1.
         11    1    3    3    0    0 -0.14660029543E+02  0.27975514362E+01 -0.14591268101E+02  0.20872179218E+02  0.51100000000E-03 0.  1.
        -11    1    3    3    0    0 -0.45975587998E+01  0.92568371336E+01 -0.16808525597E+02  0.19732032679E+02  0.51100000000E-03 0. -1.
        -12    1    3    3    0    0 -0.32556542256E+01 -0.41709309709E+01 -0.48580155122E+01  0.71830539687E+01  0.00000000000E+00 0.  1.
</event>
<event>
 7    1  0.2983653E-010  0.4778727E+02  0.7816164E-02  0.1312668E+00
        -11   -1    0    0    0    0  0.00000000000E+00  0.00000000000E+00  0.45593999997E+02  0.45594000000E+02  0.51100000000E-03 0. -1.
         11   -1    0    0    0    0 -0.00000000000E+00 -0.00000000000E+00 -0.45593999997E+02  0.45594000000E+02  0.51100000000E-03 0.  1.
    9900012    2    1    2    0    0 -0.36339040485E+02  0.23070110186E+02 -0.55558795188E+01  0.47787266773E+02  0.19999980527E+02 0.  0.
        -12    1    1    2    0    0  0.36339040485E+02 -0.23070110186E+02  0.55558795188E+01  0.43400733227E+02  0.00000000000E+00 0.  1.
         11    1    3    3    0    0 -0.21338669845E+02  0.95451936622E+01  0.45013103597E+01  0.23805699906E+02  0.51100000000E-03 0. -1.
        -11    1    3    3    0    0 -0.14470637438E+02  0.14538490538E+02 -0.10039773431E+02  0.22837778040E+02  0.51100000000E-03 0.  1.
        -12    1    3    3    0    0 -0.52973320218E+00 -0.10135740147E+01 -0.17416447105E-01  0.11437888272E+01  0.00000000000E+00 0.  1.
</event>
<event>
 7    1  0.2983653E-010  0.4778727E+02  0.7816164E-02  0.1312668E+00
        -11   -1    0    0    0    0  0.00000000000E+00  0.00000000000E+00  0.45593999997E+02  0.45594000000E+02  0.51100000000E-03 0.  1.
         11   -1    0    0    0    0 -0.00000000000E+00 -0.00000000000E+00 -0.45593999997E+02  0.45594000000E+02  0.51100000000E-03 0. -1.
    9900012    2    1    2    0    0 -0.30741974963E+02  0.28445002917E+02 -0.11376996634E+02  0.47787271112E+02  0.20000000308E+02 0.  0.
        -12    1    1    2    0    0  0.30741974963E+02 -0.28445002917E+02  0.11376996634E+02  0.43400728888E+02  0.00000000000E+00 0.  1.
         11    1    3    3    0    0 -0.44156921880E+01 -0.17047572214E+01  0.12880912460E+01  0.49054779586E+01  0.51100000000E-03 0.  1.
        -11    1    3    3    0    0 -0.19699306332E+02  0.19882185025E+02 -0.12517922262E+02  0.30660435896E+02  0.51100000000E-03 0. -1.
        -12    1    3    3    0    0 -0.66269764433E+01  0.10267575114E+02 -0.14716561843E+00  0.12221357257E+02  0.00000000000E+00 0.  1.
</event>
<event>
 7    1  0.2983653E-010  0.4778727E+02  0.7816164E-02  0.1312668E+00
        -11   -1    0    0    0    0  0.00000000000E+00  0.00000000000E+00  0.45593999997E+02  0.45594000000E+02  0.51100000000E-03 0.  1.
         11   -1    0    0    0    0 -0.00000000000E+00 -0.00000000000E+00 -0.45593999997E+02  0.45594000000E+02  0.51100000000E-03 0. -1.
    9900012    2    1    2    0    0 -0.17833833864E+01 -0.20430122485E+02 -0.38249872947E+02  0.47787272570E+02  0.20000006954E+02 0.  0.
        -12    1    1    2    0    0  0.17833833864E+01  0.20430122485E+02  0.38249872947E+02  0.43400727430E+02  0.00000000000E+00 0.  1.
         11    1    3    3    0    0  0.54515609764E+01 -0.92621233227E+01 -0.10549081196E+02  0.15059533853E+02  0.51100000000E-03 0. -1.
        -11    1    3    3    0    0  0.16920837764E+01 -0.73416730475E+00 -0.38665242983E-01  0.18448968534E+01  0.51100000000E-03 0.  1.
         12    1    3    3    0    0 -0.89270281391E+01 -0.10433831858E+02 -0.27662126508E+02  0.30882841864E+02  0.00000000000E+00 0. -1.
</event>
<event>
 7    1  0.2983653E-010  0.4778727E+02  0.7816164E-02  0.1312668E+00
        -11   -1    0    0    0    0  0.00000000000E+00  0.00000000000E+00  0.45593999997E+02  0.45594000000E+02  0.51100000000E-03 0. -1.
         11   -1    0    0    0    0 -0.00000000000E+00 -0.00000000000E+00 -0.45593999997E+02  0.45594000000E+02  0.51100000000E-03 0.  1.
    9900012    2    1    2    0    0  0.27954077683E+02 -0.32880089037E+02  0.45926587513E+01  0.47787271565E+02  0.20000002375E+02 0.  0.
        -12    1    1    2    0    0 -0.27954077683E+02  0.32880089037E+02 -0.45926587513E+01  0.43400728435E+02  0.00000000000E+00 0.  1.
         11    1    3    3    0    0  0.17473460625E+02 -0.17516418542E+02  0.96572586384E+01  0.26559544224E+02  0.51100000000E-03 0. -1.
        -11    1    3    3    0    0  0.75644667547E+01 -0.14656644269E+02 -0.67092091146E+01  0.17805950289E+02  0.51100000000E-03 0.  1.
        -12    1    3    3    0    0  0.29161503038E+01 -0.70702622714E+00  0.16446092275E+01  0.34217770517E+01  0.00000000000E+00 0.  1.
</event>
<event>
 7    1  0.2983653E-010  0.4778727E+02  0.7816164E-02  0.1312668E+00
        -11   -1    0    0    0    0  0.00000000000E+00  0.00000000000E+00  0.45593999997E+02  0.45594000000E+02  0.51100000000E-03 0. -1.
         11   -1    0    0    0    0 -0.00000000000E+00 -0.00000000000E+00 -0.45593999997E+02  0.45594000000E+02  0.51100000000E-03 0.  1.
    9900012    2    1    2    0    0 -0.49337670797E+01 -0.29054322793E+02  0.31861062348E+02  0.47787273917E+02  0.20000013099E+02 0.  0.
        -12    1    1    2    0    0  0.49337670797E+01  0.29054322793E+02 -0.31861062348E+02  0.43400726083E+02  0.00000000000E+00 0.  1.
         11    1    3    3    0    0  0.25302258994E+00 -0.51799892929E+01  0.16189151817E+02  0.16999557239E+02  0.51100000000E-03 0. -1.
        -11    1    3    3    0    0 -0.16760777077E+01 -0.18064944606E+02  0.62779152464E+01  0.19198012402E+02  0.51100000000E-03 0.  1.
        -12    1    3    3    0    0 -0.35107119620E+01 -0.58093888943E+01  0.93939952849E+01  0.11589704277E+02  0.00000000000E+00 0.  1.
</event>
<event>
 7    1  0.2983653E-010  0.4778727E+02  0.7816164E-02  0.1312668E+00
        -11   -1    0    0    0    0  0.00000000000E+00  0.00000000000E+00  0.45593999997E+02  0.45594000000E+02  0.51100000000E-03 0.  1.
         11   -1    0    0    0    0 -0.00000000000E+00 -0.00000000000E+00 -0.45593999997E+02  0.45594000000E+02  0.51100000000E-03 0. -1.
    9900012    2    1    2    0    0 -0.24771576653E+01  0.20669915892E+02 -0.38082042237E+02  0.47787266434E+02  0.19999978980E+02 0.  0.
        -12    1    1    2    0    0  0.24771576653E+01 -0.20669915892E+02  0.38082042237E+02  0.43400733566E+02  0.00000000000E+00 0.  1.
         11    1    3    3    0    0 -0.77913229613E+00  0.13316562409E+02 -0.10495887025E+02  0.16973553730E+02  0.51100000000E-03 0. -1.
        -11    1    3    3    0    0 -0.48274397472E+01  0.90464038467E-02 -0.16226790756E+02  0.16929648397E+02  0.51100000000E-03 0.  1.
        -12    1    3    3    0    0  0.31294143780E+01  0.73443070794E+01 -0.11359364457E+02  0.13884064307E+02  0.00000000000E+00 0.  1.
</event>
<event>
 7    1  0.2983653E-010  0.4778727E+02  0.7816164E-02  0.1312668E+00
        -11   -1    0    0    0    0  0.00000000000E+00  0.00000000000E+00  0.45593999997E+02  0.45594000000E+02  0.51100000000E-03 0.  1.
         11   -1    0    0    0    0 -0.00000000000E+00 -0.00000000000E+00 -0.45593999997E+02  0.45594000000E+02  0.51100000000E-03 0. -1.
    9900012    2    1    2    0    0 -0.29949422351E+02  0.20437944038E+02 -0.23852588190E+02  0.47787269373E+02  0.19999992379E+02 0.  0.
        -12    1    1    2    0    0  0.29949422351E+02 -0.20437944038E+02  0.23852588190E+02  0.43400730627E+02  0.00000000000E+00 0.  1.
         11    1    3    3    0    0 -0.25560892201E+02  0.18664371718E+02 -0.22870502674E+02  0.39048404251E+02  0.51100000000E-03 0. -1.
        -11    1    3    3    0    0  0.54174845321E+00 -0.15377792542E+01  0.15802995473E+01  0.22705953716E+01  0.51100000000E-03 0.  1.
         12    1    3    3    0    0 -0.49302786033E+01  0.33113515735E+01 -0.25623850623E+01  0.64682697499E+01  0.00000000000E+00 0. -1.
</event>
<event>
 7    1  0.2983653E-010  0.4778727E+02  0.7816164E-02  0.1312668E+00
        -11   -1    0    0    0    0  0.00000000000E+00  0.00000000000E+00  0.45593999997E+02  0.45594000000E+02  0.51100000000E-03 0.  1.
         11   -1    0    0    0    0 -0.00000000000E+00 -0.00000000000E+00 -0.45593999997E+02  0.45594000000E+02  0.51100000000E-03 0. -1.
    9900012    2    1    2    0    0  0.44846420288E+00 -0.16511038462E+02 -0.40134870674E+02  0.47787270107E+02  0.19999995728E+02 0.  0.
        -12    1    1    2    0    0 -0.44846420288E+00  0.16511038462E+02  0.40134870674E+02  0.43400729893E+02  0.00000000000E+00 0.  1.
         11    1    3    3    0    0  0.19399718816E+00  0.20541559198E+01  0.79384340679E+00  0.22107417460E+01  0.51100000000E-03 0. -1.
        -11    1    3    3    0    0 -0.99240983913E+00 -0.11647554398E+01 -0.95738842360E+01  0.96954005667E+01  0.51100000000E-03 0.  1.
         12    1    3    3    0    0  0.12468768538E+01 -0.17400438942E+02 -0.31354829845E+02  0.35881127795E+02  0.00000000000E+00 0. -1.
</event>
<event>
 7    1  0.2983653E-010  0.4778728E+02  0.7816164E-02  0.1312668E+00
        -11   -1    0    0    0    0  0.00000000000E+00  0.00000000000E+00  0.45593999997E+02  0.45594000000E+02  0.51100000000E-03 0.  1.
         11   -1    0    0    0    0 -0.00000000000E+00 -0.00000000000E+00 -0.45593999997E+02  0.45594000000E+02  0.51100000000E-03 0. -1.
    9900012    2    1    2    0    0 -0.31933035132E+02 -0.10159171551E+02 -0.27580704462E+02  0.47787276987E+02  0.20000027096E+02 0.  0.
        -12    1    1    2    0    0  0.31933035132E+02  0.10159171551E+02  0.27580704462E+02  0.43400723013E+02  0.00000000000E+00 0.  1.
         11    1    3    3    0    0 -0.14189482794E+02 -0.12117208128E+02 -0.87304763363E+01  0.20600712903E+02  0.51100000000E-03 0. -1.
        -11    1    3    3    0    0 -0.13131711103E+02  0.24458302847E+01 -0.84676782020E+01  0.15815356356E+02  0.51100000000E-03 0.  1.
         12    1    3    3    0    0 -0.46118412355E+01 -0.48779370779E+00 -0.10382549924E+02  0.11371207729E+02  0.00000000000E+00 0. -1.
</event>
<event>
 7    1  0.2983653E-010  0.4778728E+02  0.7816164E-02  0.1312668E+00
        -11   -1    0    0    0    0  0.00000000000E+00  0.00000000000E+00  0.45593999997E+02  0.45594000000E+02  0.51100000000E-03 0.  1.
         11   -1    0    0    0    0 -0.00000000000E+00 -0.00000000000E+00 -0.45593999997E+02  0.45594000000E+02  0.51100000000E-03 0. -1.
    9900012    2    1    2    0    0 -0.23197087805E+01  0.75610576254E+00 -0.43332088909E+02  0.47787277955E+02  0.20000031509E+02 0.  0.
        -12    1    1    2    0    0  0.23197087805E+01 -0.75610576254E+00  0.43332088909E+02  0.43400722045E+02  0.00000000000E+00 0.  1.
         11    1    3    3    0    0  0.19906982443E+01  0.58857235945E+01 -0.20059395370E+02  0.20999618202E+02  0.51100000000E-03 0. -1.
        -11    1    3    3    0    0  0.14036138814E+01 -0.70486305047E+01 -0.13810664262E+02  0.15568807647E+02  0.51100000000E-03 0.  1.
        -12    1    3    3    0    0 -0.57140209062E+01  0.19190126727E+01 -0.94620292768E+01  0.11218852107E+02  0.00000000000E+00 0.  1.
</event>
<event>
 7    1  0.2983653E-010  0.4778728E+02  0.7816164E-02  0.1312668E+00
        -11   -1    0    0    0    0  0.00000000000E+00  0.00000000000E+00  0.45593999997E+02  0.45594000000E+02  0.51100000000E-03 0.  1.
         11   -1    0    0    0    0 -0.00000000000E+00 -0.00000000000E+00 -0.45593999997E+02  0.45594000000E+02  0.51100000000E-03 0. -1.
    9900012    2    1    2    0    0  0.35847686476E+02  0.49368798182E+01 -0.23962328509E+02  0.47787278859E+02  0.20000035629E+02 0.  0.
        -12    1    1    2    0    0 -0.35847686476E+02 -0.49368798182E+01  0.23962328509E+02  0.43400721141E+02  0.00000000000E+00 0.  1.
         11    1    3    3    0    0  0.22519992215E+02  0.98951266986E+00 -0.21464373280E+02  0.31126331382E+02  0.51100000000E-03 0. -1.
        -11    1    3    3    0    0  0.12917533417E+02  0.45973399994E+00 -0.15142916854E+01  0.13014111744E+02  0.51100000000E-03 0.  1.
         12    1    3    3    0    0  0.41016084363E+00  0.34876331484E+01 -0.98366354322E+00  0.36468357327E+01  0.00000000000E+00 0. -1.
</event>
<event>
 7    1  0.2983653E-010  0.4778727E+02  0.7816164E-02  0.1312668E+00
        -11   -1    0    0    0    0  0.00000000000E+00  0.00000000000E+00  0.45593999997E+02  0.45594000000E+02  0.51100000000E-03 0.  1.
         11   -1    0    0    0    0 -0.00000000000E+00 -0.00000000000E+00 -0.45593999997E+02  0.45594000000E+02  0.51100000000E-03 0. -1.
    9900012    2    1    2    0    0  0.17816237711E+02 -0.26776464366E+02 -0.29141484464E+02  0.47787268590E+02  0.19999988810E+02 0.  0.
        -12    1    1    2    0    0 -0.17816237711E+02  0.26776464366E+02  0.29141484464E+02  0.43400731410E+02  0.00000000000E+00 0.  1.
         11    1    3    3    0    0  0.58074726759E+01 -0.10746375073E+02 -0.56513867935E+01  0.13459178617E+02  0.51100000000E-03 0.  1.
        -11    1    3    3    0    0  0.57064278390E+01 -0.13793913805E+02 -0.69085005763E+01  0.16448791969E+02  0.51100000000E-03 0. -1.
        -12    1    3    3    0    0  0.63023371959E+01 -0.22361754880E+01 -0.16581597095E+02  0.17879298005E+02  0.00000000000E+00 0.  1.
</event>
<event>
 7    1  0.2983653E-010  0.4778727E+02  0.7816164E-02  0.1312668E+00
        -11   -1    0    0    0    0  0.00000000000E+00  0.00000000000E+00  0.45593999997E+02  0.45594000000E+02  0.51100000000E-03 0.  1.
         11   -1    0    0    0    0 -0.00000000000E+00 -0.00000000000E+00 -0.45593999997E+02  0.45594000000E+02  0.51100000000E-03 0. -1.
    9900012    2    1    2    0    0  0.30257676208E+02  0.24791239253E+02 -0.18801362546E+02  0.47787265596E+02  0.19999975160E+02 0.  0.
        -12    1    1    2    0    0 -0.30257676208E+02 -0.24791239253E+02  0.18801362546E+02  0.43400734404E+02  0.00000000000E+00 0.  1.
         11    1    3    3    0    0  0.24113038538E+02  0.13695902269E+02 -0.16253219130E+02  0.32143171885E+02  0.51100000000E-03 0. -1.
        -11    1    3    3    0    0 -0.14807319935E+01  0.20515491649E+01 -0.28496724995E+01  0.38107813934E+01  0.51100000000E-03 0.  1.
         12    1    3    3    0    0  0.76253696636E+01  0.90437878189E+01  0.30152908359E+00  0.11833312318E+02  0.00000000000E+00 0. -1.
</event>
<event>
 7    1  0.2983653E-010  0.4778727E+02  0.7816164E-02  0.1312668E+00
        -11   -1    0    0    0    0  0.00000000000E+00  0.00000000000E+00  0.45593999997E+02  0.45594000000E+02  0.51100000000E-03 0.  1.
         11   -1    0    0    0    0 -0.00000000000E+00 -0.00000000000E+00 -0.45593999997E+02  0.45594000000E+02  0.51100000000E-03 0. -1.
    9900012    2    1    2    0    0 -0.40707515450E+02  0.55832144410E+01 -0.13976729117E+02  0.47787273573E+02  0.20000011529E+02 0.  0.
        -12    1    1    2    0    0  0.40707515450E+02 -0.55832144410E+01  0.13976729117E+02  0.43400726427E+02  0.00000000000E+00 0.  1.
         11    1    3    3    0    0 -0.31347107571E+02  0.73755202427E+01 -0.15876388011E+02  0.35904026912E+02  0.51100000000E-03 0. -1.
        -11    1    3    3    0    0 -0.10368694549E+02 -0.11622036169E+01  0.11967574068E+01  0.10502036585E+02  0.51100000000E-03 0.  1.
         12    1    3    3    0    0  0.10082866703E+01 -0.63010218486E+00  0.70290148751E+00  0.13812100760E+01  0.00000000000E+00 0. -1.
</event>
<event>
 7    1  0.2983653E-010  0.4778727E+02  0.7816164E-02  0.1312668E+00
        -11   -1    0    0    0    0  0.00000000000E+00  0.00000000000E+00  0.45593999997E+02  0.45594000000E+02  0.51100000000E-03 0.  1.
         11   -1    0    0    0    0 -0.00000000000E+00 -0.00000000000E+00 -0.45593999997E+02  0.45594000000E+02  0.51100000000E-03 0. -1.
    9900012    2    1    2    0    0 -0.26759229830E+02  0.32299945094E+02  0.11148109910E+02  0.47787272025E+02  0.20000004472E+02 0.  0.
        -12    1    1    2    0    0  0.26759229830E+02 -0.32299945094E+02 -0.11148109910E+02  0.43400727975E+02  0.00000000000E+00 0.  1.
         11    1    3    3    0    0 -0.74041637392E+01  0.12201028081E+02 -0.46076234213E+01  0.14997230436E+02  0.51100000000E-03 0. -1.
        -11    1    3    3    0    0 -0.17473573618E+02  0.14545695165E+02  0.11085564271E+02  0.25294124976E+02  0.51100000000E-03 0.  1.
         12    1    3    3    0    0 -0.18814924722E+01  0.55532218484E+01  0.46701690603E+01  0.74959166132E+01  0.00000000000E+00 0. -1.
</event>
<event>
 7    1  0.2983653E-010  0.4778727E+02  0.7816164E-02  0.1312668E+00
        -11   -1    0    0    0    0  0.00000000000E+00  0.00000000000E+00  0.45593999997E+02  0.45594000000E+02  0.51100000000E-03 0. -1.
         11   -1    0    0    0    0 -0.00000000000E+00 -0.00000000000E+00 -0.45593999997E+02  0.45594000000E+02  0.51100000000E-03 0.  1.
    9900012    2    1    2    0    0 -0.12654028454E+02 -0.40683029980E+02  0.82698176068E+01  0.47787271346E+02  0.20000001374E+02 0.  0.
        -12    1    1    2    0    0  0.12654028454E+02  0.40683029980E+02 -0.82698176068E+01  0.43400728654E+02  0.00000000000E+00 0.  1.
         11    1    3    3    0    0 -0.11563496890E+02 -0.23853078762E+02  0.13387160067E+02  0.29696799182E+02  0.51100000000E-03 0. -1.
        -11    1    3    3    0    0 -0.79423508493E+00 -0.16954646807E+02 -0.48003372892E+01  0.17638993624E+02  0.51100000000E-03 0.  1.
        -12    1    3    3    0    0 -0.29629647899E+00  0.12469558871E+00 -0.31700517118E+00  0.45147853975E+00  0.00000000000E+00 0.  1.
</event>
<event>
 7    1  0.2983653E-010  0.4778727E+02  0.7816164E-02  0.1312668E+00
        -11   -1    0    0    0    0  0.00000000000E+00  0.00000000000E+00  0.45593999997E+02  0.45594000000E+02  0.51100000000E-03 0.  1.
         11   -1    0    0    0    0 -0.00000000000E+00 -0.00000000000E+00 -0.45593999997E+02  0.45594000000E+02  0.51100000000E-03 0. -1.
    9900012    2    1    2    0    0  0.98528903750E+01  0.13956958930E+02 -0.39896706394E+02  0.47787270371E+02  0.19999996928E+02 0.  0.
        -12    1    1    2    0    0 -0.98528903750E+01 -0.13956958930E+02  0.39896706394E+02  0.43400729629E+02  0.00000000000E+00 0.  1.
         11    1    3    3    0    0  0.10882585070E+02  0.99823014053E+01 -0.31731304843E+02  0.34999324372E+02  0.51100000000E-03 0. -1.
        -11    1    3    3    0    0  0.21018512692E+01  0.14759270114E+01  0.10226804285E+01  0.27644194364E+01  0.51100000000E-03 0.  1.
         12    1    3    3    0    0 -0.31315459642E+01  0.24987305130E+01 -0.91880819788E+01  0.10023526563E+02  0.00000000000E+00 0. -1.
</event>
<event>
 7    1  0.2983653E-010  0.4778727E+02  0.7816164E-02  0.1312668E+00
        -11   -1    0    0    0    0  0.00000000000E+00  0.00000000000E+00  0.45593999997E+02  0.45594000000E+02  0.51100000000E-03 0.  1.
         11   -1    0    0    0    0 -0.00000000000E+00 -0.00000000000E+00 -0.45593999997E+02  0.45594000000E+02  0.51100000000E-03 0. -1.
    9900012    2    1    2    0    0 -0.18292599586E+01 -0.20307520020E+01 -0.43314580719E+02  0.47787273640E+02  0.20000011836E+02 0.  0.
        -12    1    1    2    0    0  0.18292599586E+01  0.20307520020E+01  0.43314580719E+02  0.43400726360E+02  0.00000000000E+00 0.  1.
         11    1    3    3    0    0  0.22093829314E+01 -0.91675428420E+01 -0.25347105090E+02  0.27044425514E+02  0.51100000000E-03 0. -1.
        -11    1    3    3    0    0  0.15641592314E+00 -0.13462412938E+00  0.45403535440E+00  0.49873636461E+00  0.51100000000E-03 0.  1.
         12    1    3    3    0    0 -0.41950588132E+01  0.72714149694E+01 -0.18421510984E+02  0.20244111762E+02  0.00000000000E+00 0. -1.
</event>
<event>
 7    1  0.2983653E-010  0.4778727E+02  0.7816164E-02  0.1312668E+00
        -11   -1    0    0    0    0  0.00000000000E+00  0.00000000000E+00  0.45593999997E+02  0.45594000000E+02  0.51100000000E-03 0. -1.
         11   -1    0    0    0    0 -0.00000000000E+00 -0.00000000000E+00 -0.45593999997E+02  0.45594000000E+02  0.51100000000E-03 0.  1.
    9900012    2    1    2    0    0  0.31584251621E+02 -0.23559254011E+02  0.18193955384E+02  0.47787269447E+02  0.19999992719E+02 0.  0.
        -12    1    1    2    0    0 -0.31584251621E+02  0.23559254011E+02 -0.18193955384E+02  0.43400730553E+02  0.00000000000E+00 0.  1.
         11    1    3    3    0    0  0.37584163638E+01 -0.47302477181E+01  0.94434982082E+01  0.11210735734E+02  0.51100000000E-03 0. -1.
        -11    1    3    3    0    0  0.27379294288E+02 -0.20113590057E+02  0.91028473463E+01  0.35171637590E+02  0.51100000000E-03 0.  1.
         12    1    3    3    0    0  0.44654096895E+00  0.12845837643E+01 -0.35239017068E+00  0.14048961231E+01  0.00000000000E+00 0. -1.
</event>
<event>
 7    1  0.2983653E-010  0.4778728E+02  0.7816164E-02  0.1312668E+00
        -11   -1    0    0    0    0  0.00000000000E+00  0.00000000000E+00  0.45593999997E+02  0.45594000000E+02  0.51100000000E-03 0.  1.
         11   -1    0    0    0    0 -0.00000000000E+00 -0.00000000000E+00 -0.45593999997E+02  0.45594000000E+02  0.51100000000E-03 0. -1.
    9900012    2    1    2    0    0 -0.56691038912E+01  0.20548043632E+02 -0.37805574189E+02  0.47787282543E+02  0.20000052425E+02 0.  0.
        -12    1    1    2    0    0  0.56691038912E+01 -0.20548043632E+02  0.37805574189E+02  0.43400717457E+02  0.00000000000E+00 0.  1.
         11    1    3    3    0    0  0.40953549579E+00  0.17379680689E+02 -0.12761939322E+02  0.21565901690E+02  0.51100000000E-03 0. -1.
        -11    1    3    3    0    0 -0.41467922624E+01  0.28314740179E+00 -0.11122644561E+02  0.11873890719E+02  0.51100000000E-03 0.  1.
         12    1    3    3    0    0 -0.19318471245E+01  0.28852155410E+01 -0.13920990306E+02  0.14347490134E+02  0.00000000000E+00 0. -1.
</event>
<event>
 7    1  0.2983653E-010  0.4778728E+02  0.7816164E-02  0.1312668E+00
        -11   -1    0    0    0    0  0.00000000000E+00  0.00000000000E+00  0.45593999997E+02  0.45594000000E+02  0.51100000000E-03 0.  1.
         11   -1    0    0    0    0 -0.00000000000E+00 -0.00000000000E+00 -0.45593999997E+02  0.45594000000E+02  0.51100000000E-03 0. -1.
    9900012    2    1    2    0    0 -0.19147169045E+02 -0.24921656007E+02 -0.29931920803E+02  0.47787275311E+02  0.20000019454E+02 0.  0.
        -12    1    1    2    0    0  0.19147169045E+02  0.24921656007E+02  0.29931920803E+02  0.43400724689E+02  0.00000000000E+00 0.  1.
         11    1    3    3    0    0 -0.26784044256E+01  0.21666430454E+01 -0.10707097602E+01  0.36075770269E+01  0.51100000000E-03 0. -1.
        -11    1    3    3    0    0 -0.54585652149E+01 -0.17646706762E+01 -0.37340783843E+01  0.68449498494E+01  0.51100000000E-03 0.  1.
         12    1    3    3    0    0 -0.11010199405E+02 -0.25323628376E+02 -0.25127132659E+02  0.37334748435E+02  0.00000000000E+00 0. -1.
</event>
<event>
 7    1  0.2983653E-010  0.4778728E+02  0.7816164E-02  0.1312668E+00
        -11   -1    0    0    0    0  0.00000000000E+00  0.00000000000E+00  0.45593999997E+02  0.45594000000E+02  0.51100000000E-03 0.  1.
         11   -1    0    0    0    0 -0.00000000000E+00 -0.00000000000E+00 -0.45593999997E+02  0.45594000000E+02  0.51100000000E-03 0. -1.
    9900012    2    1    2    0    0 -0.29533877887E+02  0.19620499043E+02 -0.25028163173E+02  0.47787275610E+02  0.20000020816E+02 0.  0.
        -12    1    1    2    0    0  0.29533877887E+02 -0.19620499043E+02  0.25028163173E+02  0.43400724390E+02  0.00000000000E+00 0.  1.
         11    1    3    3    0    0 -0.31113166976E+00  0.72664829326E+01 -0.47703604144E+01  0.86979834370E+01  0.51100000000E-03 0. -1.
        -11    1    3    3    0    0 -0.29207582144E+02  0.99729225849E+01 -0.19788525020E+02  0.36662348019E+02  0.51100000000E-03 0.  1.
        -12    1    3    3    0    0 -0.15164073535E-01  0.23810935258E+01 -0.46927773890E+00  0.24269441534E+01  0.00000000000E+00 0.  1.
</event>
<event>
 7    1  0.2983653E-010  0.4778724E+02  0.7816164E-02  0.1312668E+00
        -11   -1    0    0    0    0  0.00000000000E+00  0.00000000000E+00  0.45593999997E+02  0.45594000000E+02  0.51100000000E-03 0.  1.
         11   -1    0    0    0    0 -0.00000000000E+00 -0.00000000000E+00 -0.45593999997E+02  0.45594000000E+02  0.51100000000E-03 0. -1.
    9900012    2    1    2    0    0 -0.31652455527E+02 -0.29676789329E+02 -0.10177315935E+01  0.47787244899E+02  0.19999880793E+02 0.  0.
        -12    1    1    2    0    0  0.31652455527E+02  0.29676789329E+02  0.10177315935E+01  0.43400755101E+02  0.00000000000E+00 0.  1.
         11    1    3    3    0    0 -0.19923195675E+02 -0.84471788781E+01 -0.57009805687E+00  0.21647484125E+02  0.51100000000E-03 0.  1.
        -11    1    3    3    0    0 -0.75296905833E+01 -0.13752014391E+02  0.44054776197E+01  0.16285649309E+02  0.51100000000E-03 0. -1.
        -12    1    3    3    0    0 -0.41995692687E+01 -0.74775960597E+01 -0.48531111563E+01  0.98541114653E+01  0.00000000000E+00 0.  1.
</event>
<event>
 7    1  0.2983653E-010  0.4778729E+02  0.7816164E-02  0.1312668E+00
        -11   -1    0    0    0    0  0.00000000000E+00  0.00000000000E+00  0.45593999997E+02  0.45594000000E+02  0.51100000000E-03 0. -1.
         11   -1    0    0    0    0 -0.00000000000E+00 -0.00000000000E+00 -0.45593999997E+02  0.45594000000E+02  0.51100000000E-03 0.  1.
    9900012    2    1    2    0    0  0.15065668946E+02  0.14934425434E+02  0.37863046676E+02  0.47787288630E+02  0.20000080181E+02 0.  0.
        -12    1    1    2    0    0 -0.15065668946E+02 -0.14934425434E+02 -0.37863046676E+02  0.43400711370E+02  0.00000000000E+00 0.  1.
         11    1    3    3    0    0  0.14281674234E+02  0.31234857046E+01  0.16806111642E+02  0.22274823696E+02  0.51100000000E-03 0. -1.
        -11    1    3    3    0    0  0.11097170225E+00  0.68263714269E+01  0.44231826705E+01  0.81348759533E+01  0.51100000000E-03 0.  1.
         12    1    3    3    0    0  0.67302300947E+00  0.49845683021E+01  0.16633752363E+02  0.17377588981E+02  0.00000000000E+00 0. -1.
</event>
<event>
 7    1  0.2983653E-010  0.4778729E+02  0.7816164E-02  0.1312668E+00
        -11   -1    0    0    0    0  0.00000000000E+00  0.00000000000E+00  0.45593999997E+02  0.45594000000E+02  0.51100000000E-03 0.  1.
         11   -1    0    0    0    0 -0.00000000000E+00 -0.00000000000E+00 -0.45593999997E+02  0.45594000000E+02  0.51100000000E-03 0. -1.
    9900012    2    1    2    0    0 -0.57810353280E+00  0.38418741837E+02 -0.20181375037E+02  0.47787287720E+02  0.20000076030E+02 0.  0.
        -12    1    1    2    0    0  0.57810353280E+00 -0.38418741837E+02  0.20181375037E+02  0.43400712280E+02  0.00000000000E+00 0.  1.
         11    1    3    3    0    0  0.29262796866E+01  0.62748063866E+01 -0.19773324555E+01  0.72004272022E+01  0.51100000000E-03 0. -1.
        -11    1    3    3    0    0 -0.41135942571E+01  0.26393996403E+02 -0.64389859526E+01  0.27477722689E+02  0.51100000000E-03 0.  1.
        -12    1    3    3    0    0  0.60921103766E+00  0.57499390480E+01 -0.11765056628E+02  0.13109137829E+02  0.00000000000E+00 0.  1.
</event>
<event>
 7    1  0.2983653E-010  0.4778727E+02  0.7816164E-02  0.1312668E+00
        -11   -1    0    0    0    0  0.00000000000E+00  0.00000000000E+00  0.45593999997E+02  0.45594000000E+02  0.51100000000E-03 0. -1.
         11   -1    0    0    0    0 -0.00000000000E+00 -0.00000000000E+00 -0.45593999997E+02  0.45594000000E+02  0.51100000000E-03 0.  1.
    9900012    2    1    2    0    0  0.16470783646E+00 -0.34032531145E+02  0.26932930976E+02  0.47787273327E+02  0.20000010406E+02 0.  0.
        -12    1    1    2    0    0 -0.16470783646E+00  0.34032531145E+02 -0.26932930976E+02  0.43400726673E+02  0.00000000000E+00 0.  1.
         11    1    3    3    0    0  0.67588150295E+00 -0.48747325438E+01  0.48568881291E+01  0.69144194073E+01  0.51100000000E-03 0. -1.
        -11    1    3    3    0    0  0.49270536853E+01 -0.11814875791E+02  0.18261469268E+02  0.22301309560E+02  0.51100000000E-03 0.  1.
        -12    1    3    3    0    0 -0.54382273518E+01 -0.17342922810E+02  0.38145735790E+01  0.18571544360E+02  0.00000000000E+00 0.  1.
</event>
<event>
 7    1  0.2983653E-010  0.4778727E+02  0.7816164E-02  0.1312668E+00
        -11   -1    0    0    0    0  0.00000000000E+00  0.00000000000E+00  0.45593999997E+02  0.45594000000E+02  0.51100000000E-03 0.  1.
         11   -1    0    0    0    0 -0.00000000000E+00 -0.00000000000E+00 -0.45593999997E+02  0.45594000000E+02  0.51100000000E-03 0. -1.
    9900012    2    1    2    0    0  0.11513636667E+02 -0.52921383578E+00 -0.41842311866E+02  0.47787274674E+02  0.20000016547E+02 0.  0.
        -12    1    1    2    0    0 -0.11513636667E+02  0.52921383578E+00  0.41842311866E+02  0.43400725326E+02  0.00000000000E+00 0.  1.
         11    1    3    3    0    0  0.26217048073E+01 -0.32187032024E+01 -0.21805467586E+02  0.22197112500E+02  0.51100000000E-03 0. -1.
        -11    1    3    3    0    0  0.67834149009E+01  0.36025043962E+01 -0.27604879369E+01  0.81616817846E+01  0.51100000000E-03 0.  1.
        -12    1    3    3    0    0  0.21085169591E+01 -0.91301502958E+00 -0.17276356342E+02  0.17428480389E+02  0.00000000000E+00 0.  1.
</event>
<event>
 7    1  0.2983653E-010  0.4778727E+02  0.7816164E-02  0.1312668E+00
        -11   -1    0    0    0    0  0.00000000000E+00  0.00000000000E+00  0.45593999997E+02  0.45594000000E+02  0.51100000000E-03 0.  1.
         11   -1    0    0    0    0 -0.00000000000E+00 -0.00000000000E+00 -0.45593999997E+02  0.45594000000E+02  0.51100000000E-03 0. -1.
    9900012    2    1    2    0    0  0.28523548556E+02 -0.32693767052E+02 -0.10715063085E+01  0.47787270144E+02  0.19999995895E+02 0.  0.
        -12    1    1    2    0    0 -0.28523548556E+02  0.32693767052E+02  0.10715063085E+01  0.43400729856E+02  0.00000000000E+00 0.  1.
         11    1    3    3    0    0  0.32318612174E+01 -0.12594752042E+02  0.10589791510E+00  0.13003227313E+02  0.51100000000E-03 0. -1.
        -11    1    3    3    0    0  0.19876521826E+02 -0.17424142525E+02 -0.59408362600E+01  0.27091888055E+02  0.51100000000E-03 0.  1.
        -12    1    3    3    0    0  0.54151655121E+01 -0.26748724850E+01  0.47634320364E+01  0.76921547762E+01  0.00000000000E+00 0.  1.
</event>
<event>
 7    1  0.2983653E-010  0.4778727E+02  0.7816164E-02  0.1312668E+00
        -11   -1    0    0    0    0  0.00000000000E+00  0.00000000000E+00  0.45593999997E+02  0.45594000000E+02  0.51100000000E-03 0.  1.
         11   -1    0    0    0    0 -0.00000000000E+00 -0.00000000000E+00 -0.45593999997E+02  0.45594000000E+02  0.51100000000E-03 0. -1.
    9900012    2    1    2    0    0  0.36408603746E+02 -0.59600591304E+00 -0.23615287608E+02  0.47787268916E+02  0.19999990297E+02 0.  0.
        -12    1    1    2    0    0 -0.36408603746E+02  0.59600591304E+00  0.23615287608E+02  0.43400731084E+02  0.00000000000E+00 0.  1.
         11    1    3    3    0    0 -0.22292150220E+00 -0.24826803414E+01 -0.12129717523E+01  0.27721284975E+01  0.51100000000E-03 0.  1.
        -11    1    3    3    0    0  0.20327050711E+02  0.68389452083E+01 -0.86793276169E+01  0.23136354300E+02  0.51100000000E-03 0. -1.
        -12    1    3    3    0    0  0.16304474537E+02 -0.49522707800E+01 -0.13722988239E+02  0.21878786119E+02  0.00000000000E+00 0.  1.
</event>
<event>
 7    1  0.2983653E-010  0.4778726E+02  0.7816164E-02  0.1312668E+00
        -11   -1    0    0    0    0  0.00000000000E+00  0.00000000000E+00  0.45593999997E+02  0.45594000000E+02  0.51100000000E-03 0.  1.
         11   -1    0    0    0    0 -0.00000000000E+00 -0.00000000000E+00 -0.45593999997E+02  0.45594000000E+02  0.51100000000E-03 0. -1.
    9900012    2    1    2    0    0  0.30169584172E+02 -0.10396576233E+02 -0.29416514476E+02  0.47787263481E+02  0.19999965514E+02 0.  0.
        -12    1    1    2    0    0 -0.30169584172E+02  0.10396576233E+02  0.29416514476E+02  0.43400736519E+02  0.00000000000E+00 0.  1.
         11    1    3    3    0    0  0.25547658840E+02 -0.71804380964E+01 -0.14877871268E+02  0.30423553658E+02  0.51100000000E-03 0. -1.
        -11    1    3    3    0    0  0.69904791240E+00 -0.35719290098E+01 -0.18602629955E+01  0.40875326920E+01  0.51100000000E-03 0.  1.
         12    1    3    3    0    0  0.39228774199E+01  0.35579087278E+00 -0.12678380212E+02  0.13276177131E+02  0.00000000000E+00 0. -1.
</event>
<event>
 7    1  0.2983653E-010  0.4778727E+02  0.7816164E-02  0.1312668E+00
        -11   -1    0    0    0    0  0.00000000000E+00  0.00000000000E+00  0.45593999997E+02  0.45594000000E+02  0.51100000000E-03 0.  1.
         11   -1    0    0    0    0 -0.00000000000E+00 -0.00000000000E+00 -0.45593999997E+02  0.45594000000E+02  0.51100000000E-03 0. -1.
    9900012    2    1    2    0    0 -0.33486666024E+02 -0.27474339056E+02 -0.27252807287E+01  0.47787271169E+02  0.20000000570E+02 0.  0.
        -12    1    1    2    0    0  0.33486666024E+02  0.27474339056E+02  0.27252807287E+01  0.43400728831E+02  0.00000000000E+00 0.  1.
         11    1    3    3    0    0 -0.12935023513E+02 -0.80070420658E+01  0.45693035687E+01  0.15884145910E+02  0.51100000000E-03 0. -1.
        -11    1    3    3    0    0 -0.65814121724E+01 -0.11359877389E+02 -0.86055548152E+01  0.15697686913E+02  0.51100000000E-03 0.  1.
        -12    1    3    3    0    0 -0.13970230339E+02 -0.81074196012E+01  0.13109705178E+01  0.16205438347E+02  0.00000000000E+00 0.  1.
</event>
<event>
 7    1  0.2983653E-010  0.4778727E+02  0.7816164E-02  0.1312668E+00
        -11   -1    0    0    0    0  0.00000000000E+00  0.00000000000E+00  0.45593999997E+02  0.45594000000E+02  0.51100000000E-03 0. -1.
         11   -1    0    0    0    0 -0.00000000000E+00 -0.00000000000E+00 -0.45593999997E+02  0.45594000000E+02  0.51100000000E-03 0.  1.
    9900012    2    1    2    0    0 -0.27215144598E+02 -0.80713064095E+01  0.32830062287E+02  0.47787273365E+02  0.20000010581E+02 0.  0.
        -12    1    1    2    0    0  0.27215144598E+02  0.80713064095E+01 -0.32830062287E+02  0.43400726635E+02  0.00000000000E+00 0.  1.
         11    1    3    3    0    0 -0.12314878525E+02 -0.27323672256E+00  0.14881024445E+02  0.19317758156E+02  0.51100000000E-03 0. -1.
        -11    1    3    3    0    0 -0.14412500850E+01 -0.26189195274E+01 -0.21856582440E+01  0.37031126798E+01  0.51100000000E-03 0.  1.
        -12    1    3    3    0    0 -0.13459015988E+02 -0.51791501596E+01  0.20134696086E+02  0.24766402529E+02  0.00000000000E+00 0.  1.
</event>
<event>
 7    1  0.2983653E-010  0.4778727E+02  0.7816164E-02  0.1312668E+00
        -11   -1    0    0    0    0  0.00000000000E+00  0.00000000000E+00  0.45593999997E+02  0.45594000000E+02  0.51100000000E-03 0.  1.
         11   -1    0    0    0    0 -0.00000000000E+00 -0.00000000000E+00 -0.45593999997E+02  0.45594000000E+02  0.51100000000E-03 0. -1.
    9900012    2    1    2    0    0  0.83024078806E+01 -0.18610753791E+02 -0.38318835137E+02  0.47787271210E+02  0.20000000753E+02 0.  0.
        -12    1    1    2    0    0 -0.83024078806E+01  0.18610753791E+02  0.38318835137E+02  0.43400728790E+02  0.00000000000E+00 0.  1.
         11    1    3    3    0    0  0.10767404137E+02 -0.85035242269E+01 -0.10488122584E+02  0.17269847472E+02  0.51100000000E-03 0. -1.
        -11    1    3    3    0    0 -0.42744934489E+01 -0.42383681906E+01 -0.17413899324E+02  0.18424954521E+02  0.51100000000E-03 0.  1.
        -12    1    3    3    0    0  0.18094971930E+01 -0.58688613738E+01 -0.10416813228E+02  0.12092469216E+02  0.00000000000E+00 0.  1.
</event>
<event>
 7    1  0.2983653E-010  0.4778727E+02  0.7816164E-02  0.1312668E+00
        -11   -1    0    0    0    0  0.00000000000E+00  0.00000000000E+00  0.45593999997E+02  0.45594000000E+02  0.51100000000E-03 0.  1.
         11   -1    0    0    0    0 -0.00000000000E+00 -0.00000000000E+00 -0.45593999997E+02  0.45594000000E+02  0.51100000000E-03 0. -1.
    9900012    2    1    2    0    0 -0.33354892879E+02 -0.27214216919E+02 -0.55191201851E+01  0.47787272251E+02  0.20000005502E+02 0.  0.
        -12    1    1    2    0    0  0.33354892879E+02  0.27214216919E+02  0.55191201851E+01  0.43400727749E+02  0.00000000000E+00 0.  1.
         11    1    3    3    0    0 -0.10315729962E+02 -0.12489541476E+00 -0.27484707039E+01  0.10676327786E+02  0.51100000000E-03 0.  1.
        -11    1    3    3    0    0 -0.79826417716E+01 -0.33281714329E+01 -0.24122440224E+01  0.89787647383E+01  0.51100000000E-03 0. -1.
         12    1    3    3    0    0 -0.15056521145E+02 -0.23761150072E+02 -0.35840545880E+00  0.28132179727E+02  0.00000000000E+00 0. -1.
</event>
<event>
 7    1  0.2983653E-010  0.4778727E+02  0.7816164E-02  0.1312668E+00
        -11   -1    0    0    0    0  0.00000000000E+00  0.00000000000E+00  0.45593999997E+02  0.45594000000E+02  0.51100000000E-03 0.  1.
         11   -1    0    0    0    0 -0.00000000000E+00 -0.00000000000E+00 -0.45593999997E+02  0.45594000000E+02  0.51100000000E-03 0. -1.
    9900012    2    1    2    0    0 -0.29176537768E+02 -0.27532619918E+02  0.16562250040E+02  0.47787266802E+02  0.19999980659E+02 0.  0.
        -12    1    1    2    0    0  0.29176537768E+02  0.27532619918E+02 -0.16562250040E+02  0.43400733198E+02  0.00000000000E+00 0.  1.
         11    1    3    3    0    0 -0.18558655087E+02 -0.25201134731E+02  0.10894428378E+02  0.33139243206E+02  0.51100000000E-03 0. -1.
        -11    1    3    3    0    0 -0.27261709771E+01 -0.56459789569E+00  0.59360552045E+01  0.65564876750E+01  0.51100000000E-03 0.  1.
         12    1    3    3    0    0 -0.78917117046E+01 -0.17668872916E+01 -0.26823354233E+00  0.80915359211E+01  0.00000000000E+00 0. -1.
</event>
<event>
 7    1  0.2983653E-010  0.4778728E+02  0.7816164E-02  0.1312668E+00
        -11   -1    0    0    0    0  0.00000000000E+00  0.00000000000E+00  0.45593999997E+02  0.45594000000E+02  0.51100000000E-03 0.  1.
         11   -1    0    0    0    0 -0.00000000000E+00 -0.00000000000E+00 -0.45593999997E+02  0.45594000000E+02  0.51100000000E-03 0. -1.
    9900012    2    1    2    0    0  0.77976226281E+01  0.74695622629E-01 -0.42694429219E+02  0.47787276683E+02  0.20000025710E+02 0.  0.
        -12    1    1    2    0    0 -0.77976226281E+01 -0.74695622629E-01  0.42694429219E+02  0.43400723317E+02  0.00000000000E+00 0.  1.
         11    1    3    3    0    0 -0.29145971518E+01  0.48009886725E+01 -0.10171317246E+02  0.11618952775E+02  0.51100000000E-03 0. -1.
        -11    1    3    3    0    0  0.76778082470E+01 -0.74263095603E+01 -0.16634812861E+02  0.19769062000E+02  0.51100000000E-03 0.  1.
        -12    1    3    3    0    0  0.30344115329E+01  0.27000165104E+01 -0.15888299111E+02  0.16399261909E+02  0.00000000000E+00 0.  1.
</event>
<event>
 7    1  0.2983653E-010  0.4778727E+02  0.7816164E-02  0.1312668E+00
        -11   -1    0    0    0    0  0.00000000000E+00  0.00000000000E+00  0.45593999997E+02  0.45594000000E+02  0.51100000000E-03 0.  1.
         11   -1    0    0    0    0 -0.00000000000E+00 -0.00000000000E+00 -0.45593999997E+02  0.45594000000E+02  0.51100000000E-03 0. -1.
    9900012    2    1    2    0    0  0.20012797401E+02 -0.12234628927E+02 -0.36516094398E+02  0.47787270111E+02  0.19999995745E+02 0.  0.
        -12    1    1    2    0    0 -0.20012797401E+02  0.12234628927E+02  0.36516094398E+02  0.43400729889E+02  0.00000000000E+00 0.  1.
         11    1    3    3    0    0 -0.77460557392E+00  0.39866065615E+00 -0.28539139504E+00  0.91672930759E+00  0.51100000000E-03 0. -1.
        -11    1    3    3    0    0  0.11996757202E+01 -0.70640170962E+00  0.19115523931E+01  0.23647955560E+01  0.51100000000E-03 0.  1.
         12    1    3    3    0    0  0.19587727255E+02 -0.11926887873E+02 -0.38142255396E+02  0.44505745248E+02  0.00000000000E+00 0. -1.
</event>
<event>
 7    1  0.2983653E-010  0.4778728E+02  0.7816164E-02  0.1312668E+00
        -11   -1    0    0    0    0  0.00000000000E+00  0.00000000000E+00  0.45593999997E+02  0.45594000000E+02  0.51100000000E-03 0.  1.
         11   -1    0    0    0    0 -0.00000000000E+00 -0.00000000000E+00 -0.45593999997E+02  0.45594000000E+02  0.51100000000E-03 0. -1.
    9900012    2    1    2    0    0  0.28609630758E+02 -0.16954044891E+02 -0.27886769867E+02  0.47787279454E+02  0.20000038345E+02 0.  0.
        -12    1    1    2    0    0 -0.28609630758E+02  0.16954044891E+02  0.27886769867E+02  0.43400720546E+02  0.00000000000E+00 0.  1.
         11    1    3    3    0    0  0.17216972012E+02 -0.13787716730E+02 -0.18588384137E+02  0.28845333816E+02  0.51100000000E-03 0. -1.
        -11    1    3    3    0    0 -0.65842170014E+00 -0.16249853042E+00  0.20247161301E+01  0.21352752928E+01  0.51100000000E-03 0.  1.
        -12    1    3    3    0    0  0.12051080446E+02 -0.30038296302E+01 -0.11323101861E+02  0.16806670346E+02  0.00000000000E+00 0.  1.
</event>
<event>
 7    1  0.2983653E-010  0.4778728E+02  0.7816164E-02  0.1312668E+00
        -11   -1    0    0    0    0  0.00000000000E+00  0.00000000000E+00  0.45593999997E+02  0.45594000000E+02  0.51100000000E-03 0.  1.
         11   -1    0    0    0    0 -0.00000000000E+00 -0.00000000000E+00 -0.45593999997E+02  0.45594000000E+02  0.51100000000E-03 0. -1.
    9900012    2    1    2    0    0  0.63348686776E+01 -0.89970540885E+01 -0.41982671066E+02  0.47787283263E+02  0.20000055708E+02 0.  0.
        -12    1    1    2    0    0 -0.63348686776E+01  0.89970540885E+01  0.41982671066E+02  0.43400716737E+02  0.00000000000E+00 0.  1.
         11    1    3    3    0    0  0.87550743988E+01 -0.12992191311E+02 -0.30220055524E+02  0.34039684472E+02  0.51100000000E-03 0. -1.
        -11    1    3    3    0    0 -0.15709176940E+01  0.30362455635E+01 -0.21249180055E+01  0.40251517132E+01  0.51100000000E-03 0.  1.
        -12    1    3    3    0    0 -0.84928802721E+00  0.95889165950E+00 -0.96376975370E+01  0.97224470779E+01  0.00000000000E+00 0.  1.
</event>
<event>
 7    1  0.2983653E-010  0.4778727E+02  0.7816164E-02  0.1312668E+00
        -11   -1    0    0    0    0  0.00000000000E+00  0.00000000000E+00  0.45593999997E+02  0.45594000000E+02  0.51100000000E-03 0. -1.
         11   -1    0    0    0    0 -0.00000000000E+00 -0.00000000000E+00 -0.45593999997E+02  0.45594000000E+02  0.51100000000E-03 0.  1.
    9900012    2    1    2    0    0  0.74909844390E+01 -0.33364676067E+02  0.26726512726E+02  0.47787274897E+02  0.20000017567E+02 0.  0.
        -12    1    1    2    0    0 -0.74909844390E+01  0.33364676067E+02 -0.26726512726E+02  0.43400725103E+02  0.00000000000E+00 0.  1.
         11    1    3    3    0    0  0.76190933792E+00  0.13067540743E+01  0.50174455981E+00  0.15936937957E+01  0.51100000000E-03 0. -1.
        -11    1    3    3    0    0  0.62433776519E+01 -0.44074820502E+01  0.38766006775E+01  0.85693462762E+01  0.51100000000E-03 0.  1.
         12    1    3    3    0    0  0.48569744923E+00 -0.30263948091E+02  0.22348167489E+02  0.37624234825E+02  0.00000000000E+00 0. -1.
</event>
<event>
 7    1  0.2983653E-010  0.4778727E+02  0.7816164E-02  0.1312668E+00
        -11   -1    0    0    0    0  0.00000000000E+00  0.00000000000E+00  0.45593999997E+02  0.45594000000E+02  0.51100000000E-03 0.  1.
         11   -1    0    0    0    0 -0.00000000000E+00 -0.00000000000E+00 -0.45593999997E+02  0.45594000000E+02  0.51100000000E-03 0. -1.
    9900012    2    1    2    0    0  0.23694225635E+01  0.27814576962E+02 -0.33231888241E+02  0.47787271309E+02  0.20000001208E+02 0.  0.
        -12    1    1    2    0    0 -0.23694225635E+01 -0.27814576962E+02  0.33231888241E+02  0.43400728691E+02  0.00000000000E+00 0.  1.
         11    1    3    3    0    0 -0.63359571813E+01  0.16249665300E+02 -0.24407613571E+02  0.29998792913E+02  0.51100000000E-03 0. -1.
        -11    1    3    3    0    0  0.19861038248E+01  0.34683596237E+01  0.90883680983E-01  0.39977977672E+01  0.51100000000E-03 0.  1.
         12    1    3    3    0    0  0.67192759200E+01  0.80965520375E+01 -0.89151583510E+01  0.13790680629E+02  0.00000000000E+00 0. -1.
</event>
<event>
 7    1  0.2983653E-010  0.4778727E+02  0.7816164E-02  0.1312668E+00
        -11   -1    0    0    0    0  0.00000000000E+00  0.00000000000E+00  0.45593999997E+02  0.45594000000E+02  0.51100000000E-03 0. -1.
         11   -1    0    0    0    0 -0.00000000000E+00 -0.00000000000E+00 -0.45593999997E+02  0.45594000000E+02  0.51100000000E-03 0.  1.
    9900012    2    1    2    0    0  0.34677662548E+02  0.20910025093E+02  0.15615819603E+02  0.47787271307E+02  0.20000001198E+02 0.  0.
        -12    1    1    2    0    0 -0.34677662548E+02 -0.20910025093E+02 -0.15615819603E+02  0.43400728693E+02  0.00000000000E+00 0.  1.
         11    1    3    3    0    0  0.67548505283E+01  0.12229122369E+01  0.79055936658E+01  0.10470049258E+02  0.51100000000E-03 0. -1.
        -11    1    3    3    0    0  0.11692818369E+02  0.12386752983E+02 -0.18181335831E+01  0.17130652669E+02  0.51100000000E-03 0.  1.
         12    1    3    3    0    0  0.16229993651E+02  0.73003598729E+01  0.95283595200E+01  0.20186569380E+02  0.00000000000E+00 0. -1.
</event>
<event>
 7    1  0.2983653E-010  0.4778727E+02  0.7816164E-02  0.1312668E+00
        -11   -1    0    0    0    0  0.00000000000E+00  0.00000000000E+00  0.45593999997E+02  0.45594000000E+02  0.51100000000E-03 0.  1.
         11   -1    0    0    0    0 -0.00000000000E+00 -0.00000000000E+00 -0.45593999997E+02  0.45594000000E+02  0.51100000000E-03 0. -1.
    9900012    2    1    2    0    0  0.39775985473E+02  0.11818970425E+02 -0.12720313240E+02  0.47787269002E+02  0.19999990689E+02 0.  0.
        -12    1    1    2    0    0 -0.39775985473E+02 -0.11818970425E+02  0.12720313240E+02  0.43400730998E+02  0.00000000000E+00 0.  1.
         11    1    3    3    0    0  0.22784726253E+02  0.13045025945E+02 -0.92303540761E+01  0.27830125565E+02  0.51100000000E-03 0. -1.
        -11    1    3    3    0    0  0.19311419328E+01  0.32264763123E+01  0.39001770531E+00  0.37804196368E+01  0.51100000000E-03 0.  1.
         12    1    3    3    0    0  0.15060117287E+02 -0.44525318326E+01 -0.38799768688E+01  0.16176723800E+02  0.00000000000E+00 0. -1.
</event>
<event>
 7    1  0.2983653E-010  0.4778727E+02  0.7816164E-02  0.1312668E+00
        -11   -1    0    0    0    0  0.00000000000E+00  0.00000000000E+00  0.45593999997E+02  0.45594000000E+02  0.51100000000E-03 0. -1.
         11   -1    0    0    0    0 -0.00000000000E+00 -0.00000000000E+00 -0.45593999997E+02  0.45594000000E+02  0.51100000000E-03 0.  1.
    9900012    2    1    2    0    0  0.30486975895E+02 -0.60961289259E+01 -0.30282086042E+02  0.47787271640E+02  0.20000002717E+02 0.  0.
        -12    1    1    2    0    0 -0.30486975895E+02  0.60961289259E+01  0.30282086042E+02  0.43400728360E+02  0.00000000000E+00 0.  1.
         11    1    3    3    0    0  0.68604844570E+01 -0.51621684327E+00 -0.12667161079E+01  0.69955197643E+01  0.51100000000E-03 0. -1.
        -11    1    3    3    0    0  0.25252190329E+02 -0.32274989457E+01 -0.27769180540E+02  0.37672499970E+02  0.51100000000E-03 0.  1.
        -12    1    3    3    0    0 -0.16256988906E+01 -0.23524131370E+01 -0.12461893937E+01  0.31192519063E+01  0.00000000000E+00 0.  1.
</event>
<event>
 7    1  0.2983653E-010  0.4778726E+02  0.7816164E-02  0.1312668E+00
        -11   -1    0    0    0    0  0.00000000000E+00  0.00000000000E+00  0.45593999997E+02  0.45594000000E+02  0.51100000000E-03 0.  1.
         11   -1    0    0    0    0 -0.00000000000E+00 -0.00000000000E+00 -0.45593999997E+02  0.45594000000E+02  0.51100000000E-03 0. -1.
    9900012    2    1    2    0    0  0.20350617589E+02 -0.37884657917E+02 -0.58505489441E+01  0.47787264238E+02  0.19999968967E+02 0.  0.
        -12    1    1    2    0    0 -0.20350617589E+02  0.37884657917E+02  0.58505489441E+01  0.43400735762E+02  0.00000000000E+00 0.  1.
         11    1    3    3    0    0 -0.60898996222E+00 -0.11744397845E+02 -0.63013396175E+01  0.13341987512E+02  0.51100000000E-03 0.  1.
        -11    1    3    3    0    0  0.20743748258E+02 -0.26397611221E+02 -0.35236688677E+00  0.33574709719E+02  0.51100000000E-03 0. -1.
        -12    1    3    3    0    0  0.21585929265E+00  0.25735114981E+00  0.80315756010E+00  0.87056700769E+00  0.00000000000E+00 0.  1.
</event>
<event>
 7    1  0.2983653E-010  0.4778727E+02  0.7816164E-02  0.1312668E+00
        -11   -1    0    0    0    0  0.00000000000E+00  0.00000000000E+00  0.45593999997E+02  0.45594000000E+02  0.51100000000E-03 0.  1.
         11   -1    0    0    0    0 -0.00000000000E+00 -0.00000000000E+00 -0.45593999997E+02  0.45594000000E+02  0.51100000000E-03 0. -1.
    9900012    2    1    2    0    0 -0.94330353216E+01 -0.77301951634E+01 -0.41651951687E+02  0.47787272449E+02  0.20000006402E+02 0.  0.
        -12    1    1    2    0    0  0.94330353216E+01  0.77301951634E+01  0.41651951687E+02  0.43400727551E+02  0.00000000000E+00 0.  1.
         11    1    3    3    0    0 -0.10711335970E+02  0.44034446842E-01 -0.25624615145E+02  0.27773288586E+02  0.51100000000E-03 0. -1.
        -11    1    3    3    0    0 -0.32729470807E+01 -0.63293476833E+01 -0.10748578764E+02  0.12895920688E+02  0.51100000000E-03 0.  1.
         12    1    3    3    0    0  0.45512477291E+01 -0.14448819270E+01 -0.52787577789E+01  0.71180631749E+01  0.00000000000E+00 0. -1.
</event>
<event>
 7    1  0.2983653E-010  0.4778727E+02  0.7816164E-02  0.1312668E+00
        -11   -1    0    0    0    0  0.00000000000E+00  0.00000000000E+00  0.45593999997E+02  0.45594000000E+02  0.51100000000E-03 0.  1.
         11   -1    0    0    0    0 -0.00000000000E+00 -0.00000000000E+00 -0.45593999997E+02  0.45594000000E+02  0.51100000000E-03 0. -1.
    9900012    2    1    2    0    0  0.32853725210E+02  0.21398122500E+02 -0.18611197253E+02  0.47787267634E+02  0.19999984450E+02 0.  0.
        -12    1    1    2    0    0 -0.32853725210E+02 -0.21398122500E+02  0.18611197253E+02  0.43400732366E+02  0.00000000000E+00 0.  1.
         11    1    3    3    0    0  0.29383346072E+02  0.21412991574E+02 -0.11475185216E+02  0.38125806360E+02  0.51100000000E-03 0. -1.
        -11    1    3    3    0    0 -0.14552334522E+01  0.15913694263E+00 -0.24884688575E+01  0.28871277219E+01  0.51100000000E-03 0.  1.
        -12    1    3    3    0    0  0.49256125901E+01 -0.17400601632E+00 -0.46475431788E+01  0.67743335525E+01  0.00000000000E+00 0.  1.
</event>
<event>
 7    1  0.2983653E-010  0.4778726E+02  0.7816164E-02  0.1312668E+00
        -11   -1    0    0    0    0  0.00000000000E+00  0.00000000000E+00  0.45593999997E+02  0.45594000000E+02  0.51100000000E-03 0. -1.
         11   -1    0    0    0    0 -0.00000000000E+00 -0.00000000000E+00 -0.45593999997E+02  0.45594000000E+02  0.51100000000E-03 0.  1.
    9900012    2    1    2    0    0 -0.51313751426E+00  0.30540412708E+02  0.30832512785E+02  0.47787263104E+02  0.19999963796E+02 0.  0.
        -12    1    1    2    0    0  0.51313751426E+00 -0.30540412708E+02 -0.30832512785E+02  0.43400736896E+02  0.00000000000E+00 0.  1.
         11    1    3    3    0    0 -0.18902849430E+01  0.96513119313E+01  0.19766661265E+02  0.22078086352E+02  0.51100000000E-03 0. -1.
        -11    1    3    3    0    0  0.40359783558E+01  0.41407963914E+01  0.67678669443E+00  0.58218001112E+01  0.51100000000E-03 0.  1.
        -12    1    3    3    0    0 -0.26588309271E+01  0.16748304385E+02  0.10389064826E+02  0.19887376640E+02  0.00000000000E+00 0.  1.
</event>
<event>
 7    1  0.2983653E-010  0.4778727E+02  0.7816164E-02  0.1312668E+00
        -11   -1    0    0    0    0  0.00000000000E+00  0.00000000000E+00  0.45593999997E+02  0.45594000000E+02  0.51100000000E-03 0. -1.
         11   -1    0    0    0    0 -0.00000000000E+00 -0.00000000000E+00 -0.45593999997E+02  0.45594000000E+02  0.51100000000E-03 0.  1.
    9900012    2    1    2    0    0  0.92349112678E+01 -0.41924471565E+02  0.63779738678E+01  0.47787268983E+02  0.19999990601E+02 0.  0.
        -12    1    1    2    0    0 -0.92349112678E+01  0.41924471565E+02 -0.63779738678E+01  0.43400731017E+02  0.00000000000E+00 0.  1.
         11    1    3    3    0    0  0.27645383455E+01 -0.21770306642E+02 -0.25191488819E+01  0.22089251569E+02  0.51100000000E-03 0. -1.
        -11    1    3    3    0    0  0.73625684856E+01 -0.20630408082E+02  0.10104475190E+02  0.24123050625E+02  0.51100000000E-03 0.  1.
         12    1    3    3    0    0 -0.89219556339E+00  0.47624315881E+00 -0.12073524402E+01  0.15749667884E+01  0.00000000000E+00 0. -1.
</event>
<event>
 7    1  0.3456370E-010  0.4778729E+02  0.7816164E-02  0.1312668E+00
        -11   -1    0    0    0    0  0.00000000000E+00  0.00000000000E+00  0.45593999997E+02  0.45594000000E+02  0.51100000000E-03 0.  1.
         11   -1    0    0    0    0 -0.00000000000E+00 -0.00000000000E+00 -0.45593999997E+02  0.45594000000E+02  0.51100000000E-03 0. -1.
    9900012    2    1    2    0    0  0.42109716089E+02 -0.27480462554E+01 -0.10141103485E+02  0.47787286559E+02  0.20000070736E+02 0.  0.
        -12    1    1    2    0    0 -0.42109716089E+02  0.27480462554E+01  0.10141103485E+02  0.43400713441E+02  0.00000000000E+00 0.  1.
         11    1    3    3    0    0  0.21958958480E+02  0.30528126633E+01 -0.40937051507E+01  0.22544931687E+02  0.51100000000E-03 0. -1.
        -11    1    3    3    0    0  0.17260922691E+01 -0.91404760683E+00 -0.58629621607E+01  0.61797413464E+01  0.51100000000E-03 0.  1.
        -12    1    3    3    0    0  0.18424665340E+02 -0.48868113119E+01 -0.18443617360E+00  0.19062613525E+02  0.00000000000E+00 0.  1.
</event>
<event>
 7    1  0.2983653E-010  0.4778727E+02  0.7816164E-02  0.1312668E+00
        -11   -1    0    0    0    0  0.00000000000E+00  0.00000000000E+00  0.45593999997E+02  0.45594000000E+02  0.51100000000E-03 0.  1.
         11   -1    0    0    0    0 -0.00000000000E+00 -0.00000000000E+00 -0.45593999997E+02  0.45594000000E+02  0.51100000000E-03 0. -1.
    9900012    2    1    2    0    0  0.14496385491E+02  0.96996844989E+01 -0.39741592070E+02  0.47787271758E+02  0.20000003254E+02 0.  0.
        -12    1    1    2    0    0 -0.14496385491E+02 -0.96996844989E+01  0.39741592070E+02  0.43400728242E+02  0.00000000000E+00 0.  1.
         11    1    3    3    0    0  0.21448862566E+01 -0.13424142192E+01  0.15398001752E+00  0.25350193484E+01  0.51100000000E-03 0. -1.
        -11    1    3    3    0    0  0.44520088217E+01  0.12287366253E+02 -0.28234402301E+02  0.31112396654E+02  0.51100000000E-03 0.  1.
         12    1    3    3    0    0  0.78994904127E+01 -0.12452675354E+01 -0.11661169786E+02  0.14139855756E+02  0.00000000000E+00 0. -1.
</event>
<event>
 7    1  0.2983653E-010  0.4778727E+02  0.7816164E-02  0.1312668E+00
        -11   -1    0    0    0    0  0.00000000000E+00  0.00000000000E+00  0.45593999997E+02  0.45594000000E+02  0.51100000000E-03 0. -1.
         11   -1    0    0    0    0 -0.00000000000E+00 -0.00000000000E+00 -0.45593999997E+02  0.45594000000E+02  0.51100000000E-03 0.  1.
    9900012    2    1    2    0    0  0.15075251287E+02 -0.26921740193E+02  0.30521795683E+02  0.47787270650E+02  0.19999998201E+02 0.  0.
        -12    1    1    2    0    0 -0.15075251287E+02  0.26921740193E+02 -0.30521795683E+02  0.43400729350E+02  0.00000000000E+00 0.  1.
         11    1    3    3    0    0  0.14986530942E+02 -0.19549435475E+02  0.25407105363E+02  0.35387816269E+02  0.51100000000E-03 0. -1.
        -11    1    3    3    0    0  0.82646655346E+00 -0.45485511618E+01 -0.17476029534E+01  0.49423153460E+01  0.51100000000E-03 0.  1.
         12    1    3    3    0    0 -0.73774620920E+00 -0.28237535565E+01  0.68622932732E+01  0.74571390348E+01  0.00000000000E+00 0. -1.
</event>
<event>
 7    1  0.2983653E-010  0.4778727E+02  0.7816164E-02  0.1312668E+00
        -11   -1    0    0    0    0  0.00000000000E+00  0.00000000000E+00  0.45593999997E+02  0.45594000000E+02  0.51100000000E-03 0. -1.
         11   -1    0    0    0    0 -0.00000000000E+00 -0.00000000000E+00 -0.45593999997E+02  0.45594000000E+02  0.51100000000E-03 0.  1.
    9900012    2    1    2    0    0 -0.13933867694E+02 -0.35010855231E+02 -0.21533944325E+02  0.47787269463E+02  0.19999992792E+02 0.  0.
        -12    1    1    2    0    0  0.13933867694E+02  0.35010855231E+02  0.21533944325E+02  0.43400730537E+02  0.00000000000E+00 0.  1.
         11    1    3    3    0    0 -0.26448747037E+01 -0.20877908804E+02 -0.11517291500E+02  0.23990215547E+02  0.51100000000E-03 0. -1.
        -11    1    3    3    0    0 -0.52438047608E+01 -0.17274200065E+01  0.16112282399E+01  0.57513063690E+01  0.51100000000E-03 0.  1.
        -12    1    3    3    0    0 -0.60451882295E+01 -0.12405526421E+02 -0.11627881064E+02  0.18045747548E+02  0.00000000000E+00 0.  1.
</event>
<event>
 7    1  0.2983653E-010  0.4778727E+02  0.7816164E-02  0.1312668E+00
        -11   -1    0    0    0    0  0.00000000000E+00  0.00000000000E+00  0.45593999997E+02  0.45594000000E+02  0.51100000000E-03 0.  1.
         11   -1    0    0    0    0 -0.00000000000E+00 -0.00000000000E+00 -0.45593999997E+02  0.45594000000E+02  0.51100000000E-03 0. -1.
    9900012    2    1    2    0    0  0.19117264606E+02  0.38661904958E+02  0.48384291604E+01  0.47787273074E+02  0.20000009253E+02 0.  0.
        -12    1    1    2    0    0 -0.19117264606E+02 -0.38661904958E+02 -0.48384291604E+01  0.43400726926E+02  0.00000000000E+00 0.  1.
         11    1    3    3    0    0  0.13818672169E+02  0.16906226789E+02 -0.21467171440E+01  0.21940478561E+02  0.51100000000E-03 0. -1.
        -11    1    3    3    0    0  0.32349291708E+01  0.84711317513E+01  0.83591400895E+01  0.12332885436E+02  0.51100000000E-03 0.  1.
        -12    1    3    3    0    0  0.20636632664E+01  0.13284546418E+02 -0.13739937851E+01  0.13513909076E+02  0.00000000000E+00 0.  1.
</event>
<event>
 7    1  0.2983653E-010  0.4778728E+02  0.7816164E-02  0.1312668E+00
        -11   -1    0    0    0    0  0.00000000000E+00  0.00000000000E+00  0.45593999997E+02  0.45594000000E+02  0.51100000000E-03 0.  1.
         11   -1    0    0    0    0 -0.00000000000E+00 -0.00000000000E+00 -0.45593999997E+02  0.45594000000E+02  0.51100000000E-03 0. -1.
    9900012    2    1    2    0    0  0.32528385832E+02  0.20642608608E+02  0.19985238097E+02  0.47787275159E+02  0.20000018758E+02 0.  0.
        -12    1    1    2    0    0 -0.32528385832E+02 -0.20642608608E+02 -0.19985238097E+02  0.43400724841E+02  0.00000000000E+00 0.  1.
         11    1    3    3    0    0  0.22769680344E+01  0.14895317996E+01 -0.34558099438E+01  0.43983986905E+01  0.51100000000E-03 0. -1.
        -11    1    3    3    0    0  0.23251829122E+02  0.17075781209E+02  0.21029080700E+02  0.35699469138E+02  0.51100000000E-03 0.  1.
        -12    1    3    3    0    0  0.69995886756E+01  0.20772956000E+01  0.24119673411E+01  0.76894073303E+01  0.00000000000E+00 0.  1.
</event>
<event>
 7    1  0.2983653E-010  0.4778727E+02  0.7816164E-02  0.1312668E+00
        -11   -1    0    0    0    0  0.00000000000E+00  0.00000000000E+00  0.45593999997E+02  0.45594000000E+02  0.51100000000E-03 0.  1.
         11   -1    0    0    0    0 -0.00000000000E+00 -0.00000000000E+00 -0.45593999997E+02  0.45594000000E+02  0.51100000000E-03 0. -1.
    9900012    2    1    2    0    0 -0.98496371134E+01 -0.29078539320E+02 -0.30676481228E+02  0.47787270734E+02  0.19999998587E+02 0.  0.
        -12    1    1    2    0    0  0.98496371134E+01  0.29078539320E+02  0.30676481228E+02  0.43400729266E+02  0.00000000000E+00 0.  1.
         11    1    3    3    0    0 -0.53231303943E+01 -0.20380133567E+02 -0.26575676107E+02  0.33910943989E+02  0.51100000000E-03 0. -1.
        -11    1    3    3    0    0 -0.25041015160E+01 -0.48272355643E+01  0.24809197990E+01  0.59772645002E+01  0.51100000000E-03 0.  1.
        -12    1    3    3    0    0 -0.20224052031E+01 -0.38711701887E+01 -0.65817249202E+01  0.78990622456E+01  0.00000000000E+00 0.  1.
</event>
<event>
 7    1  0.2983653E-010  0.4778727E+02  0.7816164E-02  0.1312668E+00
        -11   -1    0    0    0    0  0.00000000000E+00  0.00000000000E+00  0.45593999997E+02  0.45594000000E+02  0.51100000000E-03 0.  1.
         11   -1    0    0    0    0 -0.00000000000E+00 -0.00000000000E+00 -0.45593999997E+02  0.45594000000E+02  0.51100000000E-03 0. -1.
    9900012    2    1    2    0    0  0.62818739018E+01  0.22095960755E+01 -0.42886816559E+02  0.47787270869E+02  0.19999999198E+02 0.  0.
        -12    1    1    2    0    0 -0.62818739018E+01 -0.22095960755E+01  0.42886816559E+02  0.43400729131E+02  0.00000000000E+00 0.  1.
         11    1    3    3    0    0 -0.40418050660E+01  0.47986175717E+01 -0.14866127293E+02  0.16135819153E+02  0.51100000000E-03 0.  1.
        -11    1    3    3    0    0  0.93468392545E+01  0.93125505497E+00 -0.12105428409E+02  0.15322272588E+02  0.51100000000E-03 0. -1.
         12    1    3    3    0    0  0.97683971326E+00 -0.35202765511E+01 -0.15915260857E+02  0.16329179127E+02  0.00000000000E+00 0. -1.
</event>
<event>
 7    1  0.2983653E-010  0.4778727E+02  0.7816164E-02  0.1312668E+00
        -11   -1    0    0    0    0  0.00000000000E+00  0.00000000000E+00  0.45593999997E+02  0.45594000000E+02  0.51100000000E-03 0.  1.
         11   -1    0    0    0    0 -0.00000000000E+00 -0.00000000000E+00 -0.45593999997E+02  0.45594000000E+02  0.51100000000E-03 0. -1.
    9900012    2    1    2    0    0  0.40010902055E+02 -0.82203142283E+01 -0.14668929905E+02  0.47787270123E+02  0.19999995800E+02 0.  0.
        -12    1    1    2    0    0 -0.40010902055E+02  0.82203142283E+01  0.14668929905E+02  0.43400729877E+02  0.00000000000E+00 0.  1.
         11    1    3    3    0    0  0.22512195718E+02 -0.10439501122E+02 -0.12541679199E+02  0.27804241711E+02  0.51100000000E-03 0. -1.
        -11    1    3    3    0    0  0.54704319437E+01 -0.35313816239E+01 -0.21900849668E+00  0.65149249272E+01  0.51100000000E-03 0.  1.
         12    1    3    3    0    0  0.12028274393E+02  0.57505685178E+01 -0.19082422096E+01  0.13468103485E+02  0.00000000000E+00 0. -1.
</event>
<event>
 7    1  0.2983653E-010  0.4778727E+02  0.7816164E-02  0.1312668E+00
        -11   -1    0    0    0    0  0.00000000000E+00  0.00000000000E+00  0.45593999997E+02  0.45594000000E+02  0.51100000000E-03 0.  1.
         11   -1    0    0    0    0 -0.00000000000E+00 -0.00000000000E+00 -0.45593999997E+02  0.45594000000E+02  0.51100000000E-03 0. -1.
    9900012    2    1    2    0    0  0.38438776222E+02 -0.57631022843E+01 -0.19309858919E+02  0.47787268246E+02  0.19999987239E+02 0.  0.
        -12    1    1    2    0    0 -0.38438776222E+02  0.57631022843E+01  0.19309858919E+02  0.43400731754E+02  0.00000000000E+00 0.  1.
         11    1    3    3    0    0  0.28800071131E+02 -0.54362892458E+01 -0.14359160898E+02  0.32637138966E+02  0.51100000000E-03 0. -1.
        -11    1    3    3    0    0 -0.61827112237E+00  0.30667890331E+01  0.29082559408E+00  0.31419793032E+01  0.51100000000E-03 0.  1.
        -12    1    3    3    0    0  0.10256976213E+02 -0.33936020716E+01 -0.52415236149E+01  0.12008149977E+02  0.00000000000E+00 0.  1.
</event>
<event>
 7    1  0.2983653E-010  0.4778727E+02  0.7816164E-02  0.1312668E+00
        -11   -1    0    0    0    0  0.00000000000E+00  0.00000000000E+00  0.45593999997E+02  0.45594000000E+02  0.51100000000E-03 0.  1.
         11   -1    0    0    0    0 -0.00000000000E+00 -0.00000000000E+00 -0.45593999997E+02  0.45594000000E+02  0.51100000000E-03 0. -1.
    9900012    2    1    2    0    0  0.14566485898E+02  0.10871743943E+02 -0.39411241140E+02  0.47787271250E+02  0.20000000939E+02 0.  0.
        -12    1    1    2    0    0 -0.14566485898E+02 -0.10871743943E+02  0.39411241140E+02  0.43400728750E+02  0.00000000000E+00 0.  1.
         11    1    3    3    0    0  0.94620627484E+01  0.47374278172E+01 -0.66727115915E+01  0.12509953398E+02  0.51100000000E-03 0. -1.
        -11    1    3    3    0    0 -0.32591901968E+00 -0.11928942761E+01  0.56368030919E-01  0.12379004715E+01  0.51100000000E-03 0.  1.
         12    1    3    3    0    0  0.54303421691E+01  0.73272104023E+01 -0.32794897580E+02  0.34039417381E+02  0.00000000000E+00 0. -1.
</event>
<event>
 7    1  0.2983653E-010  0.4778726E+02  0.7816164E-02  0.1312668E+00
        -11   -1    0    0    0    0  0.00000000000E+00  0.00000000000E+00  0.45593999997E+02  0.45594000000E+02  0.51100000000E-03 0.  1.
         11   -1    0    0    0    0 -0.00000000000E+00 -0.00000000000E+00 -0.45593999997E+02  0.45594000000E+02  0.51100000000E-03 0. -1.
    9900012    2    1    2    0    0 -0.31745722322E+02  0.29247964015E+02  0.45155667640E+01  0.47787255444E+02  0.19999928873E+02 0.  0.
        -12    1    1    2    0    0  0.31745722322E+02 -0.29247964015E+02 -0.45155667640E+01  0.43400744556E+02  0.00000000000E+00 0.  1.
         11    1    3    3    0    0 -0.20535015015E+02  0.16650159105E+02 -0.64047051121E+01  0.27201744204E+02  0.51100000000E-03 0. -1.
        -11    1    3    3    0    0 -0.31000211224E+01  0.41180222028E+01  0.10684502816E+01  0.52640121663E+01  0.51100000000E-03 0.  1.
         12    1    3    3    0    0 -0.81106861847E+01  0.84797827075E+01  0.98518215945E+01  0.15321499074E+02  0.00000000000E+00 0. -1.
</event>
<event>
 7    1  0.2983653E-010  0.4778727E+02  0.7816164E-02  0.1312668E+00
        -11   -1    0    0    0    0  0.00000000000E+00  0.00000000000E+00  0.45593999997E+02  0.45594000000E+02  0.51100000000E-03 0.  1.
         11   -1    0    0    0    0 -0.00000000000E+00 -0.00000000000E+00 -0.45593999997E+02  0.45594000000E+02  0.51100000000E-03 0. -1.
    9900012    2    1    2    0    0 -0.32888301966E+02 -0.18450246084E+02 -0.21484210147E+02  0.47787271062E+02  0.20000000078E+02 0.  0.
        -12    1    1    2    0    0  0.32888301966E+02  0.18450246084E+02  0.21484210147E+02  0.43400728938E+02  0.00000000000E+00 0.  1.
         11    1    3    3    0    0 -0.93478635183E+01 -0.65050586510E+01 -0.26192958772E+01  0.11685848346E+02  0.51100000000E-03 0. -1.
        -11    1    3    3    0    0 -0.69513028887E+00 -0.26124748862E+01  0.23315581031E+01  0.35699292149E+01  0.51100000000E-03 0.  1.
        -12    1    3    3    0    0 -0.22845308158E+02 -0.93327125467E+01 -0.21196472373E+02  0.32531493501E+02  0.00000000000E+00 0.  1.
</event>
<event>
 7    1  0.2983653E-010  0.4778727E+02  0.7816164E-02  0.1312668E+00
        -11   -1    0    0    0    0  0.00000000000E+00  0.00000000000E+00  0.45593999997E+02  0.45594000000E+02  0.51100000000E-03 0.  1.
         11   -1    0    0    0    0 -0.00000000000E+00 -0.00000000000E+00 -0.45593999997E+02  0.45594000000E+02  0.51100000000E-03 0. -1.
    9900012    2    1    2    0    0 -0.12814487031E+02 -0.94934005550E+00 -0.41454927668E+02  0.47787270140E+02  0.19999995877E+02 0.  0.
        -12    1    1    2    0    0  0.12814487031E+02  0.94934005550E+00  0.41454927668E+02  0.43400729860E+02  0.00000000000E+00 0.  1.
         11    1    3    3    0    0 -0.53415154300E+01 -0.14477008972E+01 -0.23374449494E+02  0.24020668484E+02  0.51100000000E-03 0. -1.
        -11    1    3    3    0    0 -0.58552419174E+01  0.59706694243E+01 -0.56599077608E+01  0.10097886284E+02  0.51100000000E-03 0.  1.
        -12    1    3    3    0    0 -0.16177296837E+01 -0.54723085826E+01 -0.12420570413E+02  0.13668715372E+02  0.00000000000E+00 0.  1.
</event>
<event>
 7    1  0.2983653E-010  0.4778727E+02  0.7816164E-02  0.1312668E+00
        -11   -1    0    0    0    0  0.00000000000E+00  0.00000000000E+00  0.45593999997E+02  0.45594000000E+02  0.51100000000E-03 0. -1.
         11   -1    0    0    0    0 -0.00000000000E+00 -0.00000000000E+00 -0.45593999997E+02  0.45594000000E+02  0.51100000000E-03 0.  1.
    9900012    2    1    2    0    0 -0.38380765919E+02 -0.18972490074E+02  0.71123024475E+01  0.47787269381E+02  0.19999992417E+02 0.  0.
        -12    1    1    2    0    0  0.38380765919E+02  0.18972490074E+02 -0.71123024475E+01  0.43400730619E+02  0.00000000000E+00 0.  1.
         11    1    3    3    0    0 -0.22968338554E+02 -0.12913491665E+01  0.45690903797E+01  0.23453970788E+02  0.51100000000E-03 0. -1.
        -11    1    3    3    0    0 -0.15266815899E+02 -0.16394179703E+02  0.11504858174E+01  0.22431415776E+02  0.51100000000E-03 0.  1.
         12    1    3    3    0    0 -0.14561146634E+00 -0.12869612049E+01  0.13927262504E+01  0.19018828173E+01  0.00000000000E+00 0. -1.
</event>
<event>
 7    1  0.2983653E-010  0.4778724E+02  0.7816164E-02  0.1312668E+00
        -11   -1    0    0    0    0  0.00000000000E+00  0.00000000000E+00  0.45593999997E+02  0.45594000000E+02  0.51100000000E-03 0.  1.
         11   -1    0    0    0    0 -0.00000000000E+00 -0.00000000000E+00 -0.45593999997E+02  0.45594000000E+02  0.51100000000E-03 0. -1.
    9900012    2    1    2    0    0  0.33280596793E+02  0.50942176872E+01 -0.27387524513E+02  0.47787243374E+02  0.19999873841E+02 0.  0.
        -12    1    1    2    0    0 -0.33280596793E+02 -0.50942176872E+01  0.27387524513E+02  0.43400756626E+02  0.00000000000E+00 0.  1.
         11    1    3    3    0    0  0.23816415338E+01 -0.17382453315E+00  0.25789128593E+01  0.35147152319E+01  0.51100000000E-03 0.  1.
        -11    1    3    3    0    0  0.28877003721E+02  0.71881380062E+01 -0.26729659191E+02  0.40000316907E+02  0.51100000000E-03 0. -1.
        -12    1    3    3    0    0  0.20219515378E+01 -0.19200957859E+01 -0.32367781813E+01  0.42722112358E+01  0.00000000000E+00 0.  1.
</event>
<event>
 7    1  0.2983653E-010  0.4778727E+02  0.7816164E-02  0.1312668E+00
        -11   -1    0    0    0    0  0.00000000000E+00  0.00000000000E+00  0.45593999997E+02  0.45594000000E+02  0.51100000000E-03 0.  1.
         11   -1    0    0    0    0 -0.00000000000E+00 -0.00000000000E+00 -0.45593999997E+02  0.45594000000E+02  0.51100000000E-03 0. -1.
    9900012    2    1    2    0    0  0.38004435809E+02  0.60333876023E+01 -0.20071974108E+02  0.47787273604E+02  0.20000011669E+02 0.  0.
        -12    1    1    2    0    0 -0.38004435809E+02 -0.60333876023E+01  0.20071974108E+02  0.43400726396E+02  0.00000000000E+00 0.  1.
         11    1    3    3    0    0  0.20082547013E+02  0.11144491198E+02 -0.15817278755E+02  0.27887177807E+02  0.51100000000E-03 0. -1.
        -11    1    3    3    0    0  0.76482032264E+01 -0.45463835185E+01 -0.38014560591E+00  0.89055671707E+01  0.51100000000E-03 0.  1.
         12    1    3    3    0    0  0.10273685570E+02 -0.56472007713E+00 -0.38745497466E+01  0.10994528626E+02  0.00000000000E+00 0. -1.
</event>
<event>
 7    1  0.2983653E-010  0.4778727E+02  0.7816164E-02  0.1312668E+00
        -11   -1    0    0    0    0  0.00000000000E+00  0.00000000000E+00  0.45593999997E+02  0.45594000000E+02  0.51100000000E-03 0. -1.
         11   -1    0    0    0    0 -0.00000000000E+00 -0.00000000000E+00 -0.45593999997E+02  0.45594000000E+02  0.51100000000E-03 0.  1.
    9900012    2    1    2    0    0  0.41021953403E+02 -0.13976526305E+02  0.23408191949E+01  0.47787269786E+02  0.19999994263E+02 0.  0.
        -12    1    1    2    0    0 -0.41021953403E+02  0.13976526305E+02 -0.23408191949E+01  0.43400730214E+02  0.00000000000E+00 0.  1.
         11    1    3    3    0    0  0.25485067092E+00 -0.18375952136E+01 -0.29537068132E+01  0.34879921492E+01  0.51100000000E-03 0. -1.
        -11    1    3    3    0    0  0.29774501313E+02 -0.87810884337E+01 -0.12596089685E+01  0.31067910415E+02  0.51100000000E-03 0.  1.
         12    1    3    3    0    0  0.10992601420E+02 -0.33578426576E+01  0.65541349766E+01  0.13231367222E+02  0.00000000000E+00 0. -1.
</event>
<event>
 7    1  0.3066945E-010  0.4778726E+02  0.7816164E-02  0.1312668E+00
        -11   -1    0    0    0    0  0.00000000000E+00  0.00000000000E+00  0.45593999997E+02  0.45594000000E+02  0.51100000000E-03 0.  1.
         11   -1    0    0    0    0 -0.00000000000E+00 -0.00000000000E+00 -0.45593999997E+02  0.45594000000E+02  0.51100000000E-03 0. -1.
    9900012    2    1    2    0    0  0.10253250015E+02 -0.36687018603E+02 -0.20798013059E+02  0.47787264787E+02  0.19999971468E+02 0.  0.
        -12    1    1    2    0    0 -0.10253250015E+02  0.36687018603E+02  0.20798013059E+02  0.43400735213E+02  0.00000000000E+00 0.  1.
         11    1    3    3    0    0  0.36689230473E+01 -0.22398765940E+02 -0.18975284482E+02  0.29584237922E+02  0.51100000000E-03 0. -1.
        -11    1    3    3    0    0  0.26532315965E+01 -0.96199686802E+01  0.30046097905E+01  0.10421665681E+02  0.51100000000E-03 0.  1.
        -12    1    3    3    0    0  0.39310953709E+01 -0.46682839829E+01 -0.48273383676E+01  0.77813611840E+01  0.00000000000E+00 0.  1.
</event>
<event>
 7    1  0.3236750E-010  0.4778726E+02  0.7816164E-02  0.1312668E+00
        -11   -1    0    0    0    0  0.00000000000E+00  0.00000000000E+00  0.45593999997E+02  0.45594000000E+02  0.51100000000E-03 0.  1.
         11   -1    0    0    0    0 -0.00000000000E+00 -0.00000000000E+00 -0.45593999997E+02  0.45594000000E+02  0.51100000000E-03 0. -1.
    9900012    2    1    2    0    0 -0.28394539117E+01 -0.43303156808E+02 -0.63102118429E+00  0.47787261806E+02  0.19999957880E+02 0.  0.
        -12    1    1    2    0    0  0.28394539117E+01  0.43303156808E+02  0.63102118429E+00  0.43400738194E+02  0.00000000000E+00 0.  1.
         11    1    3    3    0    0 -0.44528836660E+01 -0.19540343971E+02  0.86345182335E+00  0.20059879480E+02  0.51100000000E-03 0. -1.
        -11    1    3    3    0    0  0.61919805018E+01 -0.16506712805E+02 -0.52011321232E+01  0.18381076296E+02  0.51100000000E-03 0.  1.
        -12    1    3    3    0    0 -0.45785507475E+01 -0.72561000319E+01  0.37066591156E+01  0.93463060307E+01  0.00000000000E+00 0.  1.
</event>
<event>
 7    1  0.2983653E-010  0.4778727E+02  0.7816164E-02  0.1312668E+00
        -11   -1    0    0    0    0  0.00000000000E+00  0.00000000000E+00  0.45593999997E+02  0.45594000000E+02  0.51100000000E-03 0. -1.
         11   -1    0    0    0    0 -0.00000000000E+00 -0.00000000000E+00 -0.45593999997E+02  0.45594000000E+02  0.51100000000E-03 0.  1.
    9900012    2    1    2    0    0  0.14429242261E+02 -0.25089809812E+02  0.32340711834E+02  0.47787271543E+02  0.20000002273E+02 0.  0.
        -12    1    1    2    0    0 -0.14429242261E+02  0.25089809812E+02 -0.32340711834E+02  0.43400728457E+02  0.00000000000E+00 0.  1.
         11    1    3    3    0    0  0.92800008827E+01 -0.15162173312E+02  0.31124349574E+02  0.35843200925E+02  0.51100000000E-03 0. -1.
        -11    1    3    3    0    0  0.21505484328E+01 -0.56887687534E+01 -0.12291763173E+01  0.62046614067E+01  0.51100000000E-03 0.  1.
         12    1    3    3    0    0  0.29986929452E+01 -0.42388677467E+01  0.24455385780E+01  0.57394092109E+01  0.00000000000E+00 0. -1.
</event>
<event>
 7    1  0.2983653E-010  0.4778727E+02  0.7816164E-02  0.1312668E+00
        -11   -1    0    0    0    0  0.00000000000E+00  0.00000000000E+00  0.45593999997E+02  0.45594000000E+02  0.51100000000E-03 0. -1.
         11   -1    0    0    0    0 -0.00000000000E+00 -0.00000000000E+00 -0.45593999997E+02  0.45594000000E+02  0.51100000000E-03 0.  1.
    9900012    2    1    2    0    0  0.15172536565E+02 -0.35452684606E+02  0.19912925203E+02  0.47787270723E+02  0.19999998537E+02 0.  0.
        -12    1    1    2    0    0 -0.15172536565E+02  0.35452684606E+02 -0.19912925203E+02  0.43400729277E+02  0.00000000000E+00 0.  1.
         11    1    3    3    0    0  0.97640520252E+01 -0.22811462052E+02  0.25861951972E+01  0.24947703677E+02  0.51100000000E-03 0. -1.
        -11    1    3    3    0    0  0.62506179820E+01 -0.79624763137E+01  0.11547824589E+02  0.15356546070E+02  0.51100000000E-03 0.  1.
         12    1    3    3    0    0 -0.84213344241E+00 -0.46787462409E+01  0.57789054162E+01  0.74830209763E+01  0.00000000000E+00 0. -1.
</event>
<event>
 7    1  0.2983653E-010  0.4778726E+02  0.7816164E-02  0.1312668E+00
        -11   -1    0    0    0    0  0.00000000000E+00  0.00000000000E+00  0.45593999997E+02  0.45594000000E+02  0.51100000000E-03 0.  1.
         11   -1    0    0    0    0 -0.00000000000E+00 -0.00000000000E+00 -0.45593999997E+02  0.45594000000E+02  0.51100000000E-03 0. -1.
    9900012    2    1    2    0    0  0.12389260655E+02  0.39917551929E+02 -0.11692719541E+02  0.47787257819E+02  0.19999939701E+02 0.  0.
        -12    1    1    2    0    0 -0.12389260655E+02 -0.39917551929E+02  0.11692719541E+02  0.43400742181E+02  0.00000000000E+00 0.  1.
         11    1    3    3    0    0 -0.25814013913E+01  0.75438566413E+01 -0.29708658399E+01  0.85087866507E+01  0.51100000000E-03 0. -1.
        -11    1    3    3    0    0  0.11484184881E+02  0.89031772207E+01 -0.24577418372E+01  0.14737488328E+02  0.51100000000E-03 0.  1.
        -12    1    3    3    0    0  0.34864771655E+01  0.23470518067E+02 -0.62641118639E+01  0.24540982841E+02  0.00000000000E+00 0.  1.
</event>
<event>
 7    1  0.2983653E-010  0.4778727E+02  0.7816164E-02  0.1312668E+00
        -11   -1    0    0    0    0  0.00000000000E+00  0.00000000000E+00  0.45593999997E+02  0.45594000000E+02  0.51100000000E-03 0.  1.
         11   -1    0    0    0    0 -0.00000000000E+00 -0.00000000000E+00 -0.45593999997E+02  0.45594000000E+02  0.51100000000E-03 0. -1.
    9900012    2    1    2    0    0 -0.29497096667E+01 -0.54670633266E+01 -0.42953856753E+02  0.47787269839E+02  0.19999994503E+02 0.  0.
        -12    1    1    2    0    0  0.29497096667E+01  0.54670633266E+01  0.42953856753E+02  0.43400730161E+02  0.00000000000E+00 0.  1.
         11    1    3    3    0    0  0.50508521811E+01  0.54174969217E+01 -0.16217921427E+02  0.17829227586E+02  0.51100000000E-03 0. -1.
        -11    1    3    3    0    0 -0.30337793738E+01 -0.42600759529E+01 -0.99138516533E+01  0.11208769749E+02  0.51100000000E-03 0.  1.
         12    1    3    3    0    0 -0.49667824741E+01 -0.66244842954E+01 -0.16822083673E+02  0.18749272504E+02  0.00000000000E+00 0. -1.
</event>
<event>
 7    1  0.2983653E-010  0.4778727E+02  0.7816164E-02  0.1312668E+00
        -11   -1    0    0    0    0  0.00000000000E+00  0.00000000000E+00  0.45593999997E+02  0.45594000000E+02  0.51100000000E-03 0. -1.
         11   -1    0    0    0    0 -0.00000000000E+00 -0.00000000000E+00 -0.45593999997E+02  0.45594000000E+02  0.51100000000E-03 0.  1.
    9900012    2    1    2    0    0  0.72601396132E+01 -0.34994923002E+02  0.24622524756E+02  0.47787274333E+02  0.20000014992E+02 0.  0.
        -12    1    1    2    0    0 -0.72601396132E+01  0.34994923002E+02 -0.24622524756E+02  0.43400725667E+02  0.00000000000E+00 0.  1.
         11    1    3    3    0    0 -0.18049297524E+01 -0.19957874621E+02  0.11398348112E+02  0.23054215899E+02  0.51100000000E-03 0. -1.
        -11    1    3    3    0    0  0.11697053637E+02 -0.11929080136E+02  0.95266941664E+01  0.19232314439E+02  0.51100000000E-03 0.  1.
        -12    1    3    3    0    0 -0.26319842716E+01 -0.31079682454E+01  0.36974824770E+01  0.55007439940E+01  0.00000000000E+00 0.  1.
</event>
<event>
 7    1  0.2983653E-010  0.4778727E+02  0.7816164E-02  0.1312668E+00
        -11   -1    0    0    0    0  0.00000000000E+00  0.00000000000E+00  0.45593999997E+02  0.45594000000E+02  0.51100000000E-03 0.  1.
         11   -1    0    0    0    0 -0.00000000000E+00 -0.00000000000E+00 -0.45593999997E+02  0.45594000000E+02  0.51100000000E-03 0. -1.
    9900012    2    1    2    0    0  0.99503812410E+00  0.30896094288E+02 -0.30464153568E+02  0.47787269640E+02  0.19999993597E+02 0.  0.
        -12    1    1    2    0    0 -0.99503812410E+00 -0.30896094288E+02  0.30464153568E+02  0.43400730360E+02  0.00000000000E+00 0.  1.
         11    1    3    3    0    0 -0.22028912219E+01  0.63047324843E+00 -0.75978185659E+01  0.79358095664E+01  0.51100000000E-03 0. -1.
        -11    1    3    3    0    0  0.46383680686E+01  0.19580621097E+02 -0.83905883091E+01  0.21801769499E+02  0.51100000000E-03 0.  1.
        -12    1    3    3    0    0 -0.14404387226E+01  0.10684999943E+02 -0.14475746693E+02  0.18049690574E+02  0.00000000000E+00 0.  1.
</event>
<event>
 7    1  0.2983653E-010  0.4778728E+02  0.7816164E-02  0.1312668E+00
        -11   -1    0    0    0    0  0.00000000000E+00  0.00000000000E+00  0.45593999997E+02  0.45594000000E+02  0.51100000000E-03 0.  1.
         11   -1    0    0    0    0 -0.00000000000E+00 -0.00000000000E+00 -0.45593999997E+02  0.45594000000E+02  0.51100000000E-03 0. -1.
    9900012    2    1    2    0    0  0.19294214092E+02  0.47042896018E+01 -0.38590487560E+02  0.47787276870E+02  0.20000026561E+02 0.  0.
        -12    1    1    2    0    0 -0.19294214092E+02 -0.47042896018E+01  0.38590487560E+02  0.43400723130E+02  0.00000000000E+00 0.  1.
         11    1    3    3    0    0  0.12549162556E+02 -0.39645599685E+01 -0.30644085426E+02  0.33350550048E+02  0.51100000000E-03 0. -1.
        -11    1    3    3    0    0  0.75160043529E+01  0.80147463036E+01 -0.68628640124E+01  0.12954743628E+02  0.51100000000E-03 0.  1.
         12    1    3    3    0    0 -0.77095281696E+00  0.65410326671E+00 -0.10835381214E+01  0.14819831949E+01  0.00000000000E+00 0. -1.
</event>
<event>
 7    1  0.2983653E-010  0.4778728E+02  0.7816164E-02  0.1312668E+00
        -11   -1    0    0    0    0  0.00000000000E+00  0.00000000000E+00  0.45593999997E+02  0.45594000000E+02  0.51100000000E-03 0.  1.
         11   -1    0    0    0    0 -0.00000000000E+00 -0.00000000000E+00 -0.45593999997E+02  0.45594000000E+02  0.51100000000E-03 0. -1.
    9900012    2    1    2    0    0  0.80001776904E+01 -0.42039152602E+02 -0.72339258428E+01  0.47787275609E+02  0.20000020811E+02 0.  0.
        -12    1    1    2    0    0 -0.80001776904E+01  0.42039152602E+02  0.72339258428E+01  0.43400724391E+02  0.00000000000E+00 0.  1.
         11    1    3    3    0    0  0.43007143543E+01 -0.20764921232E+02 -0.10603409998E+02  0.23708867573E+02  0.51100000000E-03 0. -1.
        -11    1    3    3    0    0  0.81297026938E+00 -0.20684663699E+02  0.19041593616E+01  0.20788026749E+02  0.51100000000E-03 0.  1.
         12    1    3    3    0    0  0.28864930667E+01 -0.58956767142E+00  0.14653247938E+01  0.32903812871E+01  0.00000000000E+00 0. -1.
</event>
<event>
 7    1  0.2983653E-010  0.4778727E+02  0.7816164E-02  0.1312668E+00
        -11   -1    0    0    0    0  0.00000000000E+00  0.00000000000E+00  0.45593999997E+02  0.45594000000E+02  0.51100000000E-03 0.  1.
         11   -1    0    0    0    0 -0.00000000000E+00 -0.00000000000E+00 -0.45593999997E+02  0.45594000000E+02  0.51100000000E-03 0. -1.
    9900012    2    1    2    0    0  0.22267249716E+02 -0.31980883604E+01 -0.37115565034E+02  0.47787270204E+02  0.19999996167E+02 0.  0.
        -12    1    1    2    0    0 -0.22267249716E+02  0.31980883604E+01  0.37115565034E+02  0.43400729796E+02  0.00000000000E+00 0.  1.
         11    1    3    3    0    0  0.54039559346E+01 -0.29396687614E+01 -0.19976771177E+02  0.20902530447E+02  0.51100000000E-03 0.  1.
        -11    1    3    3    0    0  0.97212839582E+01 -0.79961081735E+00 -0.17141311890E+02  0.19722254254E+02  0.51100000000E-03 0. -1.
         12    1    3    3    0    0  0.71420098228E+01  0.54119121835E+00  0.25180334603E-02  0.71624855033E+01  0.00000000000E+00 0. -1.
</event>
<event>
 7    1  0.2983653E-010  0.4778727E+02  0.7816164E-02  0.1312668E+00
        -11   -1    0    0    0    0  0.00000000000E+00  0.00000000000E+00  0.45593999997E+02  0.45594000000E+02  0.51100000000E-03 0.  1.
         11   -1    0    0    0    0 -0.00000000000E+00 -0.00000000000E+00 -0.45593999997E+02  0.45594000000E+02  0.51100000000E-03 0. -1.
    9900012    2    1    2    0    0  0.33177231710E+02 -0.15398523129E+02  0.23361936599E+02  0.47787270742E+02  0.19999998620E+02 0.  0.
        -12    1    1    2    0    0 -0.33177231710E+02  0.15398523129E+02 -0.23361936599E+02  0.43400729258E+02  0.00000000000E+00 0.  1.
         11    1    3    3    0    0  0.26323709164E+02 -0.12781014059E+02  0.16958452450E+02  0.33821311244E+02  0.51100000000E-03 0. -1.
        -11    1    3    3    0    0  0.19794756138E+01  0.31855510539E+01  0.50136177317E+01  0.62611837733E+01  0.51100000000E-03 0.  1.
        -12    1    3    3    0    0  0.48740469322E+01 -0.58030601242E+01  0.13898664177E+01  0.77047757243E+01  0.00000000000E+00 0.  1.
</event>
<event>
 7    1  0.2983653E-010  0.4778727E+02  0.7816164E-02  0.1312668E+00
        -11   -1    0    0    0    0  0.00000000000E+00  0.00000000000E+00  0.45593999997E+02  0.45594000000E+02  0.51100000000E-03 0.  1.
         11   -1    0    0    0    0 -0.00000000000E+00 -0.00000000000E+00 -0.45593999997E+02  0.45594000000E+02  0.51100000000E-03 0. -1.
    9900012    2    1    2    0    0  0.74936921098E+01  0.32884560378E+00 -0.42747631969E+02  0.47787267289E+02  0.19999982878E+02 0.  0.
        -12    1    1    2    0    0 -0.74936921098E+01 -0.32884560378E+00  0.42747631969E+02  0.43400732711E+02  0.00000000000E+00 0.  1.
         11    1    3    3    0    0  0.11783358220E+01  0.45079097481E+01 -0.17268443955E+02  0.17885996827E+02  0.51100000000E-03 0. -1.
        -11    1    3    3    0    0 -0.28484028258E+00 -0.76295113487E+01 -0.16872916376E+02  0.18519878096E+02  0.51100000000E-03 0.  1.
        -12    1    3    3    0    0  0.66001965703E+01  0.34504472044E+01 -0.86062716384E+01  0.11381392366E+02  0.00000000000E+00 0.  1.
</event>
<event>
 7    1  0.2983653E-010  0.4778727E+02  0.7816164E-02  0.1312668E+00
        -11   -1    0    0    0    0  0.00000000000E+00  0.00000000000E+00  0.45593999997E+02  0.45594000000E+02  0.51100000000E-03 0.  1.
         11   -1    0    0    0    0 -0.00000000000E+00 -0.00000000000E+00 -0.45593999997E+02  0.45594000000E+02  0.51100000000E-03 0. -1.
    9900012    2    1    2    0    0 -0.27453367505E+02  0.25736486090E+01 -0.33515846339E+02  0.47787274080E+02  0.20000013842E+02 0.  0.
        -12    1    1    2    0    0  0.27453367505E+02 -0.25736486090E+01  0.33515846339E+02  0.43400725920E+02  0.00000000000E+00 0.  1.
         11    1    3    3    0    0 -0.82191258483E+01  0.49034843743E+01 -0.19007687524E+02  0.21281221158E+02  0.51100000000E-03 0. -1.
        -11    1    3    3    0    0 -0.16196865428E+02  0.16098560973E+01 -0.75244850871E+01  0.17931758487E+02  0.51100000000E-03 0.  1.
        -12    1    3    3    0    0 -0.30373762291E+01 -0.39396918626E+01 -0.69836737278E+01  0.85742944355E+01  0.00000000000E+00 0.  1.
</event>
<event>
 7    1  0.2983653E-010  0.4778728E+02  0.7816164E-02  0.1312668E+00
        -11   -1    0    0    0    0  0.00000000000E+00  0.00000000000E+00  0.45593999997E+02  0.45594000000E+02  0.51100000000E-03 0.  1.
         11   -1    0    0    0    0 -0.00000000000E+00 -0.00000000000E+00 -0.45593999997E+02  0.45594000000E+02  0.51100000000E-03 0. -1.
    9900012    2    1    2    0    0 -0.16123357012E+02  0.17972154183E+02 -0.36064687750E+02  0.47787278003E+02  0.20000031729E+02 0.  0.
        -12    1    1    2    0    0  0.16123357012E+02 -0.17972154183E+02  0.36064687750E+02  0.43400721997E+02  0.00000000000E+00 0.  1.
         11    1    3    3    0    0 -0.17639367143E+02  0.92503784786E+01 -0.18920228206E+02  0.27471654680E+02  0.51100000000E-03 0. -1.
        -11    1    3    3    0    0  0.31011333327E+01  0.35049164301E+01 -0.42738927019E+01  0.63377934818E+01  0.51100000000E-03 0.  1.
         12    1    3    3    0    0 -0.15851232014E+01  0.52168592743E+01 -0.12870566842E+02  0.13977829842E+02  0.00000000000E+00 0. -1.
</event>
<event>
 7    1  0.2983653E-010  0.4778727E+02  0.7816164E-02  0.1312668E+00
        -11   -1    0    0    0    0  0.00000000000E+00  0.00000000000E+00  0.45593999997E+02  0.45594000000E+02  0.51100000000E-03 0.  1.
         11   -1    0    0    0    0 -0.00000000000E+00 -0.00000000000E+00 -0.45593999997E+02  0.45594000000E+02  0.51100000000E-03 0. -1.
    9900012    2    1    2    0    0  0.31209645148E+02 -0.29190932939E+02 -0.75809389075E+01  0.47787272462E+02  0.20000006463E+02 0.  0.
        -12    1    1    2    0    0 -0.31209645148E+02  0.29190932939E+02  0.75809389075E+01  0.43400727538E+02  0.00000000000E+00 0.  1.
         11    1    3    3    0    0  0.84326648902E+01 -0.28121239424E+01  0.43791028971E+01  0.99093097975E+01  0.51100000000E-03 0. -1.
        -11    1    3    3    0    0  0.11819286935E+02 -0.15507011640E+02 -0.22147239331E+01  0.19623148474E+02  0.51100000000E-03 0.  1.
         12    1    3    3    0    0  0.10957693323E+02 -0.10871797357E+02 -0.97453178715E+01  0.18254814191E+02  0.00000000000E+00 0. -1.
</event>
<event>
 7    1  0.2983653E-010  0.4778727E+02  0.7816164E-02  0.1312668E+00
        -11   -1    0    0    0    0  0.00000000000E+00  0.00000000000E+00  0.45593999997E+02  0.45594000000E+02  0.51100000000E-03 0.  1.
         11   -1    0    0    0    0 -0.00000000000E+00 -0.00000000000E+00 -0.45593999997E+02  0.45594000000E+02  0.51100000000E-03 0. -1.
    9900012    2    1    2    0    0  0.24518738269E+02  0.20918703989E+02 -0.29066520829E+02  0.47787270329E+02  0.19999996739E+02 0.  0.
        -12    1    1    2    0    0 -0.24518738269E+02 -0.20918703989E+02  0.29066520829E+02  0.43400729671E+02  0.00000000000E+00 0.  1.
         11    1    3    3    0    0  0.86578256262E+00  0.12328486121E+02 -0.99932265538E+01  0.15893575013E+02  0.51100000000E-03 0. -1.
        -11    1    3    3    0    0  0.14054876859E+02  0.33376560981E+01 -0.89901105426E+01  0.17014746533E+02  0.51100000000E-03 0.  1.
         12    1    3    3    0    0  0.95980788479E+01  0.52525617694E+01 -0.10083183732E+02  0.14878948783E+02  0.00000000000E+00 0. -1.
</event>
<event>
 7    1  0.2983653E-010  0.4778727E+02  0.7816164E-02  0.1312668E+00
        -11   -1    0    0    0    0  0.00000000000E+00  0.00000000000E+00  0.45593999997E+02  0.45594000000E+02  0.51100000000E-03 0. -1.
         11   -1    0    0    0    0 -0.00000000000E+00 -0.00000000000E+00 -0.45593999997E+02  0.45594000000E+02  0.51100000000E-03 0.  1.
    9900012    2    1    2    0    0  0.31030427939E+02 -0.10188064763E+02  0.28582149818E+02  0.47787269477E+02  0.19999992853E+02 0.  0.
        -12    1    1    2    0    0 -0.31030427939E+02  0.10188064763E+02 -0.28582149818E+02  0.43400730523E+02  0.00000000000E+00 0.  1.
         11    1    3    3    0    0  0.27248264872E+02 -0.90249814820E+01  0.17555624524E+02  0.33646963934E+02  0.51100000000E-03 0. -1.
        -11    1    3    3    0    0  0.20475225978E+01  0.96665967425E+00  0.11162827368E+02  0.11390149025E+02  0.51100000000E-03 0.  1.
        -12    1    3    3    0    0  0.17346404696E+01 -0.21297429556E+01 -0.13630207371E+00  0.27501565175E+01  0.00000000000E+00 0.  1.
</event>
<event>
 7    1  0.2983653E-010  0.4778728E+02  0.7816164E-02  0.1312668E+00
        -11   -1    0    0    0    0  0.00000000000E+00  0.00000000000E+00  0.45593999997E+02  0.45594000000E+02  0.51100000000E-03 0.  1.
         11   -1    0    0    0    0 -0.00000000000E+00 -0.00000000000E+00 -0.45593999997E+02  0.45594000000E+02  0.51100000000E-03 0. -1.
    9900012    2    1    2    0    0 -0.98613148969E+01  0.28291584959E+02 -0.31400057051E+02  0.47787275424E+02  0.20000019966E+02 0.  0.
        -12    1    1    2    0    0  0.98613148969E+01 -0.28291584959E+02  0.31400057051E+02  0.43400724576E+02  0.00000000000E+00 0.  1.
         11    1    3    3    0    0 -0.61633416458E+01  0.20028283712E+02 -0.15306939285E+02  0.25950362603E+02  0.51100000000E-03 0. -1.
        -11    1    3    3    0    0  0.12667324984E+01  0.22846629682E+00 -0.11059937525E+02  0.11134586943E+02  0.51100000000E-03 0.  1.
         12    1    3    3    0    0 -0.49647057494E+01  0.80348349496E+01 -0.50331802402E+01  0.10702325877E+02  0.00000000000E+00 0. -1.
</event>
<event>
 7    1  0.2983653E-010  0.4778727E+02  0.7816164E-02  0.1312668E+00
        -11   -1    0    0    0    0  0.00000000000E+00  0.00000000000E+00  0.45593999997E+02  0.45594000000E+02  0.51100000000E-03 0.  1.
         11   -1    0    0    0    0 -0.00000000000E+00 -0.00000000000E+00 -0.45593999997E+02  0.45594000000E+02  0.51100000000E-03 0. -1.
    9900012    2    1    2    0    0  0.36595247271E+02  0.69772426126E+01 -0.22264979343E+02  0.47787270254E+02  0.19999996398E+02 0.  0.
        -12    1    1    2    0    0 -0.36595247271E+02 -0.69772426126E+01  0.22264979343E+02  0.43400729746E+02  0.00000000000E+00 0.  1.
         11    1    3    3    0    0  0.21160804468E+02  0.10076026509E+02 -0.97229231420E+01  0.25374025905E+02  0.51100000000E-03 0. -1.
        -11    1    3    3    0    0  0.31957683439E+00 -0.61818512453E+00 -0.55192550806E+01  0.55629541709E+01  0.51100000000E-03 0.  1.
         12    1    3    3    0    0  0.15114865969E+02 -0.24805987722E+01 -0.70228011205E+01  0.16850290178E+02  0.00000000000E+00 0. -1.
</event>
<event>
 7    1  0.2983653E-010  0.4778724E+02  0.7816164E-02  0.1312668E+00
        -11   -1    0    0    0    0  0.00000000000E+00  0.00000000000E+00  0.45593999997E+02  0.45594000000E+02  0.51100000000E-03 0.  1.
         11   -1    0    0    0    0 -0.00000000000E+00 -0.00000000000E+00 -0.45593999997E+02  0.45594000000E+02  0.51100000000E-03 0. -1.
    9900012    2    1    2    0    0 -0.38388828571E+02 -0.19921679132E+02 -0.36125706893E+01  0.47787238192E+02  0.19999850213E+02 0.  0.
        -12    1    1    2    0    0  0.38388828571E+02  0.19921679132E+02  0.36125706893E+01  0.43400761808E+02  0.00000000000E+00 0.  1.
         11    1    3    3    0    0 -0.17140500341E+02 -0.63470743125E+01  0.51553669168E+01  0.18991048222E+02  0.51100000000E-03 0. -1.
        -11    1    3    3    0    0 -0.10222323227E+02 -0.10558919823E+01 -0.59586666300E+01  0.11879246959E+02  0.51100000000E-03 0.  1.
         12    1    3    3    0    0 -0.11026005003E+02 -0.12518712837E+02 -0.28092709762E+01  0.16916943011E+02  0.00000000000E+00 0. -1.
</event>
<event>
 7    1  0.3072603E-010  0.4778727E+02  0.7816164E-02  0.1312668E+00
        -11   -1    0    0    0    0  0.00000000000E+00  0.00000000000E+00  0.45593999997E+02  0.45594000000E+02  0.51100000000E-03 0. -1.
         11   -1    0    0    0    0 -0.00000000000E+00 -0.00000000000E+00 -0.45593999997E+02  0.45594000000E+02  0.51100000000E-03 0.  1.
    9900012    2    1    2    0    0  0.42638766667E+02 -0.72272276725E+01  0.36504540115E+01  0.47787273541E+02  0.20000011382E+02 0.  0.
        -12    1    1    2    0    0 -0.42638766667E+02  0.72272276725E+01 -0.36504540115E+01  0.43400726459E+02  0.00000000000E+00 0.  1.
         11    1    3    3    0    0  0.19569886581E+02  0.21982985823E+01  0.10448317950E+01  0.19720665587E+02  0.51100000000E-03 0. -1.
        -11    1    3    3    0    0  0.12289570913E+02 -0.96421038987E+01  0.60454786994E+01  0.16749672647E+02  0.51100000000E-03 0.  1.
        -12    1    3    3    0    0  0.10779309173E+02  0.21657764383E+00 -0.34398564829E+01  0.11316935307E+02  0.00000000000E+00 0.  1.
</event>
<event>
 7    1  0.2983653E-010  0.4778727E+02  0.7816164E-02  0.1312668E+00
        -11   -1    0    0    0    0  0.00000000000E+00  0.00000000000E+00  0.45593999997E+02  0.45594000000E+02  0.51100000000E-03 0. -1.
         11   -1    0    0    0    0 -0.00000000000E+00 -0.00000000000E+00 -0.45593999997E+02  0.45594000000E+02  0.51100000000E-03 0.  1.
    9900012    2    1    2    0    0 -0.22565247349E+01 -0.20701591609E+02  0.38078541534E+02  0.47787272766E+02  0.20000007851E+02 0.  0.
        -12    1    1    2    0    0  0.22565247349E+01  0.20701591609E+02 -0.38078541534E+02  0.43400727234E+02  0.00000000000E+00 0.  1.
         11    1    3    3    0    0 -0.43797253257E+01 -0.70781343210E+01  0.15786644857E+02  0.17846572093E+02  0.51100000000E-03 0. -1.
        -11    1    3    3    0    0  0.50342337586E+01 -0.88435617294E+00  0.12820194210E+02  0.13801556986E+02  0.51100000000E-03 0.  1.
        -12    1    3    3    0    0 -0.29110331679E+01 -0.12739101116E+02  0.94717024669E+01  0.16139143687E+02  0.00000000000E+00 0.  1.
</event>
<event>
 7    1  0.2983653E-010  0.4778727E+02  0.7816164E-02  0.1312668E+00
        -11   -1    0    0    0    0  0.00000000000E+00  0.00000000000E+00  0.45593999997E+02  0.45594000000E+02  0.51100000000E-03 0. -1.
         11   -1    0    0    0    0 -0.00000000000E+00 -0.00000000000E+00 -0.45593999997E+02  0.45594000000E+02  0.51100000000E-03 0.  1.
    9900012    2    1    2    0    0  0.23258478815E+02  0.31230727498E+02  0.19165281805E+02  0.47787271855E+02  0.20000003697E+02 0.  0.
        -12    1    1    2    0    0 -0.23258478815E+02 -0.31230727498E+02 -0.19165281805E+02  0.43400728145E+02  0.00000000000E+00 0.  1.
         11    1    3    3    0    0  0.11471052739E+02  0.23451289810E+02  0.56590356069E+01  0.26712782126E+02  0.51100000000E-03 0. -1.
        -11    1    3    3    0    0  0.50183790123E+01 -0.83759362416E+00  0.55746995829E+01  0.75473814460E+01  0.51100000000E-03 0.  1.
        -12    1    3    3    0    0  0.67690470633E+01  0.86170313124E+01  0.79315466154E+01  0.13527108283E+02  0.00000000000E+00 0.  1.
</event>
<event>
 7    1  0.2983653E-010  0.4778727E+02  0.7816164E-02  0.1312668E+00
        -11   -1    0    0    0    0  0.00000000000E+00  0.00000000000E+00  0.45593999997E+02  0.45594000000E+02  0.51100000000E-03 0. -1.
         11   -1    0    0    0    0 -0.00000000000E+00 -0.00000000000E+00 -0.45593999997E+02  0.45594000000E+02  0.51100000000E-03 0.  1.
    9900012    2    1    2    0    0  0.38830114037E+01  0.43203202855E+02  0.14243182266E+01  0.47787271931E+02  0.20000004044E+02 0.  0.
        -12    1    1    2    0    0 -0.38830114037E+01 -0.43203202855E+02 -0.14243182266E+01  0.43400728069E+02  0.00000000000E+00 0.  1.
         11    1    3    3    0    0  0.25157209917E+01  0.28402991806E+02  0.41737046438E+01  0.28818025719E+02  0.51100000000E-03 0. -1.
        -11    1    3    3    0    0 -0.42948077796E+01  0.82122687893E+01 -0.41780315428E+01  0.10165760196E+02  0.51100000000E-03 0.  1.
        -12    1    3    3    0    0  0.56620981915E+01  0.65879422599E+01  0.14286451256E+01  0.88034860166E+01  0.00000000000E+00 0.  1.
</event>
<event>
 7    1  0.2983653E-010  0.4778727E+02  0.7816164E-02  0.1312668E+00
        -11   -1    0    0    0    0  0.00000000000E+00  0.00000000000E+00  0.45593999997E+02  0.45594000000E+02  0.51100000000E-03 0.  1.
         11   -1    0    0    0    0 -0.00000000000E+00 -0.00000000000E+00 -0.45593999997E+02  0.45594000000E+02  0.51100000000E-03 0. -1.
    9900012    2    1    2    0    0  0.26382583005E+02 -0.32640682846E+01 -0.34306390323E+02  0.47787271380E+02  0.20000001530E+02 0.  0.
        -12    1    1    2    0    0 -0.26382583005E+02  0.32640682846E+01  0.34306390323E+02  0.43400728620E+02  0.00000000000E+00 0.  1.
         11    1    3    3    0    0  0.13144015133E+02 -0.58988146067E+01 -0.10563118441E+02  0.17864507243E+02  0.51100000000E-03 0. -1.
        -11    1    3    3    0    0  0.18858448468E+01  0.57373048116E+01 -0.52501438613E+01  0.80023176713E+01  0.51100000000E-03 0.  1.
        -12    1    3    3    0    0  0.11352723025E+02 -0.31025584896E+01 -0.18493128021E+02  0.21920446466E+02  0.00000000000E+00 0.  1.
</event>
<event>
 7    1  0.2983653E-010  0.4778727E+02  0.7816164E-02  0.1312668E+00
        -11   -1    0    0    0    0  0.00000000000E+00  0.00000000000E+00  0.45593999997E+02  0.45594000000E+02  0.51100000000E-03 0.  1.
         11   -1    0    0    0    0 -0.00000000000E+00 -0.00000000000E+00 -0.45593999997E+02  0.45594000000E+02  0.51100000000E-03 0. -1.
    9900012    2    1    2    0    0 -0.35907507709E+02 -0.77954182449E+01 -0.23097747482E+02  0.47787267353E+02  0.19999983171E+02 0.  0.
        -12    1    1    2    0    0  0.35907507709E+02  0.77954182449E+01  0.23097747482E+02  0.43400732647E+02  0.00000000000E+00 0.  1.
         11    1    3    3    0    0 -0.97118967323E+01 -0.20735691823E+01 -0.56083048461E+01  0.11404986225E+02  0.51100000000E-03 0. -1.
        -11    1    3    3    0    0 -0.12805879780E+02  0.10450944139E+01  0.62283711442E+00  0.12863541721E+02  0.51100000000E-03 0.  1.
        -12    1    3    3    0    0 -0.13389731197E+02 -0.67669434764E+01 -0.18112279750E+02  0.23518739407E+02  0.00000000000E+00 0.  1.
</event>
<event>
 7    1  0.2983653E-010  0.4778727E+02  0.7816164E-02  0.1312668E+00
        -11   -1    0    0    0    0  0.00000000000E+00  0.00000000000E+00  0.45593999997E+02  0.45594000000E+02  0.51100000000E-03 0.  1.
         11   -1    0    0    0    0 -0.00000000000E+00 -0.00000000000E+00 -0.45593999997E+02  0.45594000000E+02  0.51100000000E-03 0. -1.
    9900012    2    1    2    0    0  0.13211832431E+02  0.25384755020E+02 -0.32629515088E+02  0.47787267765E+02  0.19999985050E+02 0.  0.
        -12    1    1    2    0    0 -0.13211832431E+02 -0.25384755020E+02  0.32629515088E+02  0.43400732235E+02  0.00000000000E+00 0.  1.
         11    1    3    3    0    0  0.37495817670E+01  0.20078460628E+01 -0.63992593698E+01  0.76838356296E+01  0.51100000000E-03 0. -1.
        -11    1    3    3    0    0  0.14502238000E+01  0.15922979025E+02 -0.24151642332E+02  0.28964568661E+02  0.51100000000E-03 0.  1.
        -12    1    3    3    0    0  0.80120268638E+01  0.74539299327E+01 -0.20786133858E+01  0.11138863475E+02  0.00000000000E+00 0.  1.
</event>
<event>
 7    1  0.2983653E-010  0.4778727E+02  0.7816164E-02  0.1312668E+00
        -11   -1    0    0    0    0  0.00000000000E+00  0.00000000000E+00  0.45593999997E+02  0.45594000000E+02  0.51100000000E-03 0. -1.
         11   -1    0    0    0    0 -0.00000000000E+00 -0.00000000000E+00 -0.45593999997E+02  0.45594000000E+02  0.51100000000E-03 0.  1.
    9900012    2    1    2    0    0 -0.28627136165E+02 -0.32617749649E+02 -0.43886685193E+00  0.47787272803E+02  0.20000008016E+02 0.  0.
        -12    1    1    2    0    0  0.28627136165E+02  0.32617749649E+02  0.43886685193E+00  0.43400727197E+02  0.00000000000E+00 0.  1.
         11    1    3    3    0    0 -0.98782018496E+01 -0.17093098897E+02  0.28893439692E+01  0.19952473794E+02  0.51100000000E-03 0. -1.
        -11    1    3    3    0    0 -0.12148981735E+02 -0.72751266489E+01 -0.80211239512E+01  0.16274632243E+02  0.51100000000E-03 0.  1.
        -12    1    3    3    0    0 -0.65999525802E+01 -0.82495241032E+01  0.46929131302E+01  0.11560166765E+02  0.00000000000E+00 0.  1.
</event>
<event>
 7    1  0.2983653E-010  0.4778727E+02  0.7816164E-02  0.1312668E+00
        -11   -1    0    0    0    0  0.00000000000E+00  0.00000000000E+00  0.45593999997E+02  0.45594000000E+02  0.51100000000E-03 0. -1.
         11   -1    0    0    0    0 -0.00000000000E+00 -0.00000000000E+00 -0.45593999997E+02  0.45594000000E+02  0.51100000000E-03 0.  1.
    9900012    2    1    2    0    0 -0.90236097495E+01  0.36467867782E+02  0.21732289244E+02  0.47787270637E+02  0.19999998141E+02 0.  0.
        -12    1    1    2    0    0  0.90236097495E+01 -0.36467867782E+02 -0.21732289244E+02  0.43400729363E+02  0.00000000000E+00 0.  1.
         11    1    3    3    0    0  0.23295758484E+01  0.49692028021E-01  0.40244923751E+01  0.46503690251E+01  0.51100000000E-03 0. -1.
        -11    1    3    3    0    0  0.20689285378E+00 -0.22535843827E+00 -0.52427146170E+00  0.60700239317E+00  0.51100000000E-03 0.  1.
         12    1    3    3    0    0 -0.11560078452E+02  0.36643534192E+02  0.18232068331E+02  0.42529899218E+02  0.00000000000E+00 0. -1.
</event>
<event>
 7    1  0.2983653E-010  0.4778727E+02  0.7816164E-02  0.1312668E+00
        -11   -1    0    0    0    0  0.00000000000E+00  0.00000000000E+00  0.45593999997E+02  0.45594000000E+02  0.51100000000E-03 0.  1.
         11   -1    0    0    0    0 -0.00000000000E+00 -0.00000000000E+00 -0.45593999997E+02  0.45594000000E+02  0.51100000000E-03 0. -1.
    9900012    2    1    2    0    0 -0.99565613460E+01  0.25537463380E+02  0.33650081632E+02  0.47787272546E+02  0.20000006847E+02 0.  0.
        -12    1    1    2    0    0  0.99565613460E+01 -0.25537463380E+02 -0.33650081632E+02  0.43400727454E+02  0.00000000000E+00 0.  1.
         11    1    3    3    0    0 -0.13792851183E+02  0.17921058686E+02  0.23714282477E+02  0.32768495264E+02  0.51100000000E-03 0. -1.
        -11    1    3    3    0    0  0.15215288743E+01  0.10971198219E+01 -0.96390160884E+00  0.21089875751E+01  0.51100000000E-03 0.  1.
        -12    1    3    3    0    0  0.23147609629E+01  0.65192848717E+01  0.10899700763E+02  0.12909789707E+02  0.00000000000E+00 0.  1.
</event>
<event>
 7    1  0.2983653E-010  0.4778727E+02  0.7816164E-02  0.1312668E+00
        -11   -1    0    0    0    0  0.00000000000E+00  0.00000000000E+00  0.45593999997E+02  0.45594000000E+02  0.51100000000E-03 0.  1.
         11   -1    0    0    0    0 -0.00000000000E+00 -0.00000000000E+00 -0.45593999997E+02  0.45594000000E+02  0.51100000000E-03 0. -1.
    9900012    2    1    2    0    0  0.19922464128E+01 -0.65583944226E+01 -0.42856059747E+02  0.47787269128E+02  0.19999991262E+02 0.  0.
        -12    1    1    2    0    0 -0.19922464128E+01  0.65583944226E+01  0.42856059747E+02  0.43400730872E+02  0.00000000000E+00 0.  1.
         11    1    3    3    0    0 -0.26378133153E+01 -0.27524499711E+01 -0.26151715912E+00  0.38213127869E+01  0.51100000000E-03 0. -1.
        -11    1    3    3    0    0  0.49347431256E+01  0.46024266061E+00 -0.10774307550E+02  0.11859562237E+02  0.51100000000E-03 0.  1.
         12    1    3    3    0    0 -0.30468339744E+00 -0.42661871121E+01 -0.31820235039E+02  0.32106394104E+02  0.00000000000E+00 0. -1.
</event>
<event>
 7    1  0.2983653E-010  0.4778727E+02  0.7816164E-02  0.1312668E+00
        -11   -1    0    0    0    0  0.00000000000E+00  0.00000000000E+00  0.45593999997E+02  0.45594000000E+02  0.51100000000E-03 0. -1.
         11   -1    0    0    0    0 -0.00000000000E+00 -0.00000000000E+00 -0.45593999997E+02  0.45594000000E+02  0.51100000000E-03 0.  1.
    9900012    2    1    2    0    0  0.57753670103E+01 -0.35409732799E+02  0.24421695727E+02  0.47787271167E+02  0.20000000560E+02 0.  0.
        -12    1    1    2    0    0 -0.57753670103E+01  0.35409732799E+02 -0.24421695727E+02  0.43400728833E+02  0.00000000000E+00 0.  1.
         11    1    3    3    0    0  0.98177674325E+01 -0.16411594724E+02  0.16622737452E+02  0.25338595056E+02  0.51100000000E-03 0. -1.
        -11    1    3    3    0    0  0.23108327679E+00  0.36109063526E-01 -0.10151998390E+01  0.10417937990E+01  0.51100000000E-03 0.  1.
         12    1    3    3    0    0 -0.42734836990E+01 -0.19034247139E+02  0.88141581142E+01  0.21406882312E+02  0.00000000000E+00 0. -1.
</event>
<event>
 7    1  0.3435103E-010  0.4778727E+02  0.7816164E-02  0.1312668E+00
        -11   -1    0    0    0    0  0.00000000000E+00  0.00000000000E+00  0.45593999997E+02  0.45594000000E+02  0.51100000000E-03 0. -1.
         11   -1    0    0    0    0 -0.00000000000E+00 -0.00000000000E+00 -0.45593999997E+02  0.45594000000E+02  0.51100000000E-03 0.  1.
    9900012    2    1    2    0    0  0.34675216585E+02  0.17330906811E+02  0.19516471219E+02  0.47787267000E+02  0.19999981560E+02 0.  0.
        -12    1    1    2    0    0 -0.34675216585E+02 -0.17330906811E+02 -0.19516471219E+02  0.43400733000E+02  0.00000000000E+00 0.  1.
         11    1    3    3    0    0  0.21506447791E+02  0.74229524066E+01  0.13118801907E+02  0.26262720399E+02  0.51100000000E-03 0. -1.
        -11    1    3    3    0    0 -0.14881948168E+01  0.46407311941E+01  0.62016886727E+00  0.49128117727E+01  0.51100000000E-03 0.  1.
        -12    1    3    3    0    0  0.14656963611E+02  0.52672232102E+01  0.57775004453E+01  0.16611734829E+02  0.00000000000E+00 0.  1.
</event>
<event>
 7    1  0.2983653E-010  0.4778727E+02  0.7816164E-02  0.1312668E+00
        -11   -1    0    0    0    0  0.00000000000E+00  0.00000000000E+00  0.45593999997E+02  0.45594000000E+02  0.51100000000E-03 0.  1.
         11   -1    0    0    0    0 -0.00000000000E+00 -0.00000000000E+00 -0.45593999997E+02  0.45594000000E+02  0.51100000000E-03 0. -1.
    9900012    2    1    2    0    0  0.40056467637E+02 -0.82564368125E+01 -0.14523566340E+02  0.47787270426E+02  0.19999997178E+02 0.  0.
        -12    1    1    2    0    0 -0.40056467637E+02  0.82564368125E+01  0.14523566340E+02  0.43400729574E+02  0.00000000000E+00 0.  1.
         11    1    3    3    0    0  0.13831283713E+02 -0.65815773102E+01  0.18635279448E+01  0.15430304783E+02  0.51100000000E-03 0. -1.
        -11    1    3    3    0    0  0.11792598570E+02 -0.34553030446E+01 -0.11980264055E+02  0.17161912110E+02  0.51100000000E-03 0.  1.
         12    1    3    3    0    0  0.14432585353E+02  0.17804435423E+01 -0.44068302298E+01  0.15195053533E+02  0.00000000000E+00 0. -1.
</event>
<event>
 7    1  0.2983653E-010  0.4778727E+02  0.7816164E-02  0.1312668E+00
        -11   -1    0    0    0    0  0.00000000000E+00  0.00000000000E+00  0.45593999997E+02  0.45594000000E+02  0.51100000000E-03 0.  1.
         11   -1    0    0    0    0 -0.00000000000E+00 -0.00000000000E+00 -0.45593999997E+02  0.45594000000E+02  0.51100000000E-03 0. -1.
    9900012    2    1    2    0    0 -0.31116934827E+02  0.11237864721E+02 -0.28090392427E+02  0.47787269785E+02  0.19999994258E+02 0.  0.
        -12    1    1    2    0    0  0.31116934827E+02 -0.11237864721E+02  0.28090392427E+02  0.43400730215E+02  0.00000000000E+00 0.  1.
         11    1    3    3    0    0 -0.18512537408E+02  0.92398191841E+01 -0.15588136448E+02  0.25905178981E+02  0.51100000000E-03 0. -1.
        -11    1    3    3    0    0 -0.33119607883E+01 -0.15572404208E+00  0.24664763560E+01  0.41324133526E+01  0.51100000000E-03 0.  1.
         12    1    3    3    0    0 -0.92924366304E+01  0.21537695791E+01 -0.14968732335E+02  0.17749677452E+02  0.00000000000E+00 0. -1.
</event>
<event>
 7    1  0.2983653E-010  0.4778727E+02  0.7816164E-02  0.1312668E+00
        -11   -1    0    0    0    0  0.00000000000E+00  0.00000000000E+00  0.45593999997E+02  0.45594000000E+02  0.51100000000E-03 0.  1.
         11   -1    0    0    0    0 -0.00000000000E+00 -0.00000000000E+00 -0.45593999997E+02  0.45594000000E+02  0.51100000000E-03 0. -1.
    9900012    2    1    2    0    0  0.48436757000E+01  0.11523657617E+02 -0.41561610933E+02  0.47787269793E+02  0.19999994296E+02 0.  0.
        -12    1    1    2    0    0 -0.48436757000E+01 -0.11523657617E+02  0.41561610933E+02  0.43400730207E+02  0.00000000000E+00 0.  1.
         11    1    3    3    0    0  0.27716657693E+00 -0.77806756742E+00 -0.36599335842E+01  0.37519760864E+01  0.51100000000E-03 0. -1.
        -11    1    3    3    0    0  0.86141819237E+01  0.39453975431E+01 -0.70310641893E+01  0.11798565840E+02  0.51100000000E-03 0.  1.
        -12    1    3    3    0    0 -0.40476728006E+01  0.83563276413E+01 -0.30870613159E+02  0.32236727867E+02  0.00000000000E+00 0.  1.
</event>
<event>
 7    1  0.2983653E-010  0.4778728E+02  0.7816164E-02  0.1312668E+00
        -11   -1    0    0    0    0  0.00000000000E+00  0.00000000000E+00  0.45593999997E+02  0.45594000000E+02  0.51100000000E-03 0.  1.
         11   -1    0    0    0    0 -0.00000000000E+00 -0.00000000000E+00 -0.45593999997E+02  0.45594000000E+02  0.51100000000E-03 0. -1.
    9900012    2    1    2    0    0 -0.37928268889E+02 -0.74439732710E+00 -0.21083528779E+02  0.47787275420E+02  0.20000019948E+02 0.  0.
        -12    1    1    2    0    0  0.37928268889E+02  0.74439732710E+00  0.21083528779E+02  0.43400724580E+02  0.00000000000E+00 0.  1.
         11    1    3    3    0    0 -0.73374095343E+01  0.45877825044E+01 -0.98466696208E+01  0.13108860739E+02  0.51100000000E-03 0. -1.
        -11    1    3    3    0    0 -0.16057019321E+02 -0.56681283317E+00 -0.65650458966E+00  0.16080427383E+02  0.51100000000E-03 0.  1.
         12    1    3    3    0    0 -0.14533840034E+02 -0.47653669983E+01 -0.10580354569E+02  0.18597987298E+02  0.00000000000E+00 0. -1.
</event>
<event>
 7    1  0.2983653E-010  0.4778727E+02  0.7816164E-02  0.1312668E+00
        -11   -1    0    0    0    0  0.00000000000E+00  0.00000000000E+00  0.45593999997E+02  0.45594000000E+02  0.51100000000E-03 0.  1.
         11   -1    0    0    0    0 -0.00000000000E+00 -0.00000000000E+00 -0.45593999997E+02  0.45594000000E+02  0.51100000000E-03 0. -1.
    9900012    2    1    2    0    0 -0.15295900594E+02  0.38760680129E+02 -0.12135412056E+02  0.47787272762E+02  0.20000007830E+02 0.  0.
        -12    1    1    2    0    0  0.15295900594E+02 -0.38760680129E+02  0.12135412056E+02  0.43400727238E+02  0.00000000000E+00 0.  1.
         11    1    3    3    0    0 -0.98776404694E+01  0.19179654873E+02 -0.35625587442E+01  0.21865927086E+02  0.51100000000E-03 0. -1.
        -11    1    3    3    0    0 -0.17540583970E+01  0.20574723782E+02 -0.75851189537E+01  0.21998409246E+02  0.51100000000E-03 0.  1.
        -12    1    3    3    0    0 -0.36642017280E+01 -0.99369852607E+00 -0.98773435792E+00  0.39229364290E+01  0.00000000000E+00 0.  1.
</event>
<event>
 7    1  0.2983653E-010  0.4778733E+02  0.7816164E-02  0.1312668E+00
        -11   -1    0    0    0    0  0.00000000000E+00  0.00000000000E+00  0.45593999997E+02  0.45594000000E+02  0.51100000000E-03 0. -1.
         11   -1    0    0    0    0 -0.00000000000E+00 -0.00000000000E+00 -0.45593999997E+02  0.45594000000E+02  0.51100000000E-03 0.  1.
    9900012    2    1    2    0    0  0.55151761789E+01 -0.38468717332E+02  0.19322504243E+02  0.47787325446E+02  0.20000248038E+02 0.  0.
        -12    1    1    2    0    0 -0.55151761789E+01  0.38468717332E+02 -0.19322504243E+02  0.43400674554E+02  0.00000000000E+00 0.  1.
         11    1    3    3    0    0  0.63128436933E+01 -0.11265405367E+02  0.13919769113E+02  0.18987399137E+02  0.51100000000E-03 0. -1.
        -11    1    3    3    0    0 -0.16114056705E+01 -0.25948477317E+02  0.66691054420E+01  0.26840213690E+02  0.51100000000E-03 0.  1.
         12    1    3    3    0    0  0.81373815622E+00 -0.12548346486E+01 -0.12663703113E+01  0.19597126186E+01  0.00000000000E+00 0. -1.
</event>
<event>
 7    1  0.2983653E-010  0.4778727E+02  0.7816164E-02  0.1312668E+00
        -11   -1    0    0    0    0  0.00000000000E+00  0.00000000000E+00  0.45593999997E+02  0.45594000000E+02  0.51100000000E-03 0.  1.
         11   -1    0    0    0    0 -0.00000000000E+00 -0.00000000000E+00 -0.45593999997E+02  0.45594000000E+02  0.51100000000E-03 0. -1.
    9900012    2    1    2    0    0  0.12238071597E+02 -0.13777610330E+02 -0.39294153683E+02  0.47787268940E+02  0.19999990406E+02 0.  0.
        -12    1    1    2    0    0 -0.12238071597E+02  0.13777610330E+02  0.39294153683E+02  0.43400731060E+02  0.00000000000E+00 0.  1.
         11    1    3    3    0    0  0.99537761861E+01 -0.41728527955E+01 -0.25496183685E+02  0.27686562509E+02  0.51100000000E-03 0. -1.
        -11    1    3    3    0    0  0.28670807396E+01 -0.11621775903E+02 -0.93741845057E+01  0.15203985087E+02  0.51100000000E-03 0.  1.
        -12    1    3    3    0    0 -0.58278532826E+00  0.20170183684E+01 -0.44237854928E+01  0.48967213443E+01  0.00000000000E+00 0.  1.
</event>
<event>
 7    1  0.2983653E-010  0.4778724E+02  0.7816164E-02  0.1312668E+00
        -11   -1    0    0    0    0  0.00000000000E+00  0.00000000000E+00  0.45593999997E+02  0.45594000000E+02  0.51100000000E-03 0.  1.
         11   -1    0    0    0    0 -0.00000000000E+00 -0.00000000000E+00 -0.45593999997E+02  0.45594000000E+02  0.51100000000E-03 0. -1.
    9900012    2    1    2    0    0  0.41680825433E+02  0.39359103558E+01 -0.11438692227E+02  0.47787236424E+02  0.19999842152E+02 0.  0.
        -12    1    1    2    0    0 -0.41680825433E+02 -0.39359103558E+01  0.11438692227E+02  0.43400763576E+02  0.00000000000E+00 0.  1.
         11    1    3    3    0    0  0.21236245360E+02  0.66873817609E+01 -0.64166607200E+01  0.23170514169E+02  0.51100000000E-03 0. -1.
        -11    1    3    3    0    0  0.19846673401E+02 -0.48380038954E+01 -0.15041706210E+01  0.20483145664E+02  0.51100000000E-03 0.  1.
        -12    1    3    3    0    0  0.59790667192E+00  0.20865324903E+01 -0.35178608857E+01  0.41335765908E+01  0.00000000000E+00 0.  1.
</event>
<event>
 7    1  0.2983653E-010  0.4778727E+02  0.7816164E-02  0.1312668E+00
        -11   -1    0    0    0    0  0.00000000000E+00  0.00000000000E+00  0.45593999997E+02  0.45594000000E+02  0.51100000000E-03 0. -1.
         11   -1    0    0    0    0 -0.00000000000E+00 -0.00000000000E+00 -0.45593999997E+02  0.45594000000E+02  0.51100000000E-03 0.  1.
    9900012    2    1    2    0    0  0.26983595656E+02 -0.33614095460E+02 -0.50597710743E+01  0.47787272685E+02  0.20000007482E+02 0.  0.
        -12    1    1    2    0    0 -0.26983595656E+02  0.33614095460E+02  0.50597710743E+01  0.43400727315E+02  0.00000000000E+00 0.  1.
         11    1    3    3    0    0  0.12666934475E+02 -0.14058186556E+02  0.98947794213E+00  0.18948955251E+02  0.51100000000E-03 0. -1.
        -11    1    3    3    0    0  0.50366005420E+01 -0.18118080912E+02 -0.41383899753E+01  0.19255089530E+02  0.51100000000E-03 0.  1.
        -12    1    3    3    0    0  0.92800606386E+01 -0.14378279913E+01 -0.19108590411E+01  0.95832279042E+01  0.00000000000E+00 0.  1.
</event>
<event>
 7    1  0.2983653E-010  0.4778728E+02  0.7816164E-02  0.1312668E+00
        -11   -1    0    0    0    0  0.00000000000E+00  0.00000000000E+00  0.45593999997E+02  0.45594000000E+02  0.51100000000E-03 0. -1.
         11   -1    0    0    0    0 -0.00000000000E+00 -0.00000000000E+00 -0.45593999997E+02  0.45594000000E+02  0.51100000000E-03 0.  1.
    9900012    2    1    2    0    0  0.17625123076E+01  0.38653235350E+02  0.19658174719E+02  0.47787275513E+02  0.20000020375E+02 0.  0.
        -12    1    1    2    0    0 -0.17625123076E+01 -0.38653235350E+02 -0.19658174719E+02  0.43400724487E+02  0.00000000000E+00 0.  1.
         11    1    3    3    0    0 -0.27352345632E+01  0.28024542433E+02  0.19436763791E+02  0.34214679212E+02  0.51100000000E-03 0. -1.
        -11    1    3    3    0    0  0.26449955677E+01  0.27336460685E+00 -0.12714595471E+01  0.29474292871E+01  0.51100000000E-03 0.  1.
         12    1    3    3    0    0  0.18527513031E+01  0.10355328311E+02  0.14928704756E+01  0.10625167014E+02  0.00000000000E+00 0. -1.
</event>
<event>
 7    1  0.2983653E-010  0.4778727E+02  0.7816164E-02  0.1312668E+00
        -11   -1    0    0    0    0  0.00000000000E+00  0.00000000000E+00  0.45593999997E+02  0.45594000000E+02  0.51100000000E-03 0. -1.
         11   -1    0    0    0    0 -0.00000000000E+00 -0.00000000000E+00 -0.45593999997E+02  0.45594000000E+02  0.51100000000E-03 0.  1.
    9900012    2    1    2    0    0 -0.22888145493E+02 -0.30458932075E+00  0.36873608963E+02  0.47787274007E+02  0.20000013509E+02 0.  0.
        -12    1    1    2    0    0  0.22888145493E+02  0.30458932075E+00 -0.36873608963E+02  0.43400725993E+02  0.00000000000E+00 0.  1.
         11    1    3    3    0    0 -0.68193967806E+01  0.68047558563E+01  0.13427884672E+02  0.16526250686E+02  0.51100000000E-03 0. -1.
        -11    1    3    3    0    0 -0.58544972722E+01 -0.78197639550E+01  0.15409977342E+02  0.18245307576E+02  0.51100000000E-03 0.  1.
         12    1    3    3    0    0 -0.10214251440E+02  0.71041877798E+00  0.80357469494E+01  0.13015715745E+02  0.00000000000E+00 0. -1.
</event>
<event>
 7    1  0.2983653E-010  0.4778727E+02  0.7816164E-02  0.1312668E+00
        -11   -1    0    0    0    0  0.00000000000E+00  0.00000000000E+00  0.45593999997E+02  0.45594000000E+02  0.51100000000E-03 0. -1.
         11   -1    0    0    0    0 -0.00000000000E+00 -0.00000000000E+00 -0.45593999997E+02  0.45594000000E+02  0.51100000000E-03 0.  1.
    9900012    2    1    2    0    0  0.34495368893E+02 -0.43968179658E+01  0.25968451121E+02  0.47787274926E+02  0.20000017697E+02 0.  0.
        -12    1    1    2    0    0 -0.34495368893E+02  0.43968179658E+01 -0.25968451121E+02  0.43400725074E+02  0.00000000000E+00 0.  1.
         11    1    3    3    0    0  0.14282446027E+02 -0.22976233708E+01  0.51073039380E+01  0.15341182857E+02  0.51100000000E-03 0. -1.
        -11    1    3    3    0    0  0.47811433379E+01 -0.42030496166E+01  0.14093865350E+02  0.15464863351E+02  0.51100000000E-03 0.  1.
        -12    1    3    3    0    0  0.15431779528E+02  0.21038550216E+01  0.67672818336E+01  0.16981228718E+02  0.00000000000E+00 0.  1.
</event>
<event>
 7    1  0.2983653E-010  0.4778727E+02  0.7816164E-02  0.1312668E+00
        -11   -1    0    0    0    0  0.00000000000E+00  0.00000000000E+00  0.45593999997E+02  0.45594000000E+02  0.51100000000E-03 0.  1.
         11   -1    0    0    0    0 -0.00000000000E+00 -0.00000000000E+00 -0.45593999997E+02  0.45594000000E+02  0.51100000000E-03 0. -1.
    9900012    2    1    2    0    0  0.37718184403E+01  0.17800869400E+02 -0.39402108983E+02  0.47787265466E+02  0.19999974568E+02 0.  0.
        -12    1    1    2    0    0 -0.37718184403E+01 -0.17800869400E+02  0.39402108983E+02  0.43400734534E+02  0.00000000000E+00 0.  1.
         11    1    3    3    0    0 -0.35043975056E+01  0.13561846181E+02 -0.35226980174E+02  0.37909690135E+02  0.51100000000E-03 0. -1.
        -11    1    3    3    0    0  0.21772858292E+01  0.86247100770E+00  0.21153479563E+00  0.23514202202E+01  0.51100000000E-03 0.  1.
         12    1    3    3    0    0  0.50989301167E+01  0.33765522121E+01 -0.43866636043E+01  0.75261551109E+01  0.00000000000E+00 0. -1.
</event>
<event>
 7    1  0.2983653E-010  0.4778727E+02  0.7816164E-02  0.1312668E+00
        -11   -1    0    0    0    0  0.00000000000E+00  0.00000000000E+00  0.45593999997E+02  0.45594000000E+02  0.51100000000E-03 0.  1.
         11   -1    0    0    0    0 -0.00000000000E+00 -0.00000000000E+00 -0.45593999997E+02  0.45594000000E+02  0.51100000000E-03 0. -1.
    9900012    2    1    2    0    0  0.56631890055E+01  0.25335972701E+02 -0.34779875860E+02  0.47787274347E+02  0.20000015057E+02 0.  0.
        -12    1    1    2    0    0 -0.56631890055E+01 -0.25335972701E+02  0.34779875860E+02  0.43400725653E+02  0.00000000000E+00 0.  1.
         11    1    3    3    0    0  0.59658072676E+01  0.18654835268E+02 -0.10136913568E+02  0.22053361471E+02  0.51100000000E-03 0. -1.
        -11    1    3    3    0    0 -0.12218148184E+01  0.91192071114E+00 -0.63647880736E+01  0.65448421155E+01  0.51100000000E-03 0.  1.
         12    1    3    3    0    0  0.91919655627E+00  0.57692167218E+01 -0.18278174219E+02  0.19189070761E+02  0.00000000000E+00 0. -1.
</event>
<event>
 7    1  0.2983653E-010  0.4778727E+02  0.7816164E-02  0.1312668E+00
        -11   -1    0    0    0    0  0.00000000000E+00  0.00000000000E+00  0.45593999997E+02  0.45594000000E+02  0.51100000000E-03 0.  1.
         11   -1    0    0    0    0 -0.00000000000E+00 -0.00000000000E+00 -0.45593999997E+02  0.45594000000E+02  0.51100000000E-03 0. -1.
    9900012    2    1    2    0    0  0.15778532189E+02  0.38817494524E+02 -0.11307667054E+02  0.47787270820E+02  0.19999998976E+02 0.  0.
        -12    1    1    2    0    0 -0.15778532189E+02 -0.38817494524E+02  0.11307667054E+02  0.43400729180E+02  0.00000000000E+00 0.  1.
         11    1    3    3    0    0  0.12351536249E+02  0.31374541495E+02 -0.15475618989E+01  0.33753773860E+02  0.51100000000E-03 0. -1.
        -11    1    3    3    0    0 -0.11685361752E+01  0.42808812174E+01 -0.51387702212E+01  0.67895788115E+01  0.51100000000E-03 0.  1.
        -12    1    3    3    0    0  0.45955321151E+01  0.31620718118E+01 -0.46213349336E+01  0.72439181478E+01  0.00000000000E+00 0.  1.
</event>
<event>
 7    1  0.2983653E-010  0.4778726E+02  0.7816164E-02  0.1312668E+00
        -11   -1    0    0    0    0  0.00000000000E+00  0.00000000000E+00  0.45593999997E+02  0.45594000000E+02  0.51100000000E-03 0.  1.
         11   -1    0    0    0    0 -0.00000000000E+00 -0.00000000000E+00 -0.45593999997E+02  0.45594000000E+02  0.51100000000E-03 0. -1.
    9900012    2    1    2    0    0  0.28736068190E+02 -0.29884242784E+02 -0.12837230170E+02  0.47787261985E+02  0.19999958694E+02 0.  0.
        -12    1    1    2    0    0 -0.28736068190E+02  0.29884242784E+02  0.12837230170E+02  0.43400738015E+02  0.00000000000E+00 0.  1.
         11    1    3    3    0    0  0.56555601260E+01 -0.78573394912E+01 -0.24098740332E+01  0.99765042643E+01  0.51100000000E-03 0. -1.
        -11    1    3    3    0    0  0.75232618621E+01 -0.15040739711E+02 -0.12036821237E+02  0.20681111814E+02  0.51100000000E-03 0.  1.
        -12    1    3    3    0    0  0.15557246202E+02 -0.69861635815E+01  0.16094651001E+01  0.17129645907E+02  0.00000000000E+00 0.  1.
</event>
<event>
 7    1  0.2983653E-010  0.4778728E+02  0.7816164E-02  0.1312668E+00
        -11   -1    0    0    0    0  0.00000000000E+00  0.00000000000E+00  0.45593999997E+02  0.45594000000E+02  0.51100000000E-03 0.  1.
         11   -1    0    0    0    0 -0.00000000000E+00 -0.00000000000E+00 -0.45593999997E+02  0.45594000000E+02  0.51100000000E-03 0. -1.
    9900012    2    1    2    0    0  0.64976976671E+01 -0.25829106491E+02 -0.34267472552E+02  0.47787280050E+02  0.20000041059E+02 0.  0.
        -12    1    1    2    0    0 -0.64976976671E+01  0.25829106491E+02  0.34267472552E+02  0.43400719950E+02  0.00000000000E+00 0.  1.
         11    1    3    3    0    0  0.88087617205E+01 -0.18481997814E+02 -0.12222909068E+02  0.23844874346E+02  0.51100000000E-03 0. -1.
        -11    1    3    3    0    0 -0.32557090562E+01 -0.40422401885E+01 -0.84220240582E+01  0.98929185127E+01  0.51100000000E-03 0.  1.
         12    1    3    3    0    0  0.94464500283E+00 -0.33048684878E+01 -0.13622539426E+02  0.14049487191E+02  0.00000000000E+00 0. -1.
</event>
<event>
 7    1  0.2983653E-010  0.4778726E+02  0.7816164E-02  0.1312668E+00
        -11   -1    0    0    0    0  0.00000000000E+00  0.00000000000E+00  0.45593999997E+02  0.45594000000E+02  0.51100000000E-03 0.  1.
         11   -1    0    0    0    0 -0.00000000000E+00 -0.00000000000E+00 -0.45593999997E+02  0.45594000000E+02  0.51100000000E-03 0. -1.
    9900012    2    1    2    0    0  0.10441311339E+02  0.19029809674E+02 -0.37582838160E+02  0.47787258499E+02  0.19999942799E+02 0.  0.
        -12    1    1    2    0    0 -0.10441311339E+02 -0.19029809674E+02  0.37582838160E+02  0.43400741501E+02  0.00000000000E+00 0.  1.
         11    1    3    3    0    0  0.34562870169E+01  0.96691045012E+01 -0.16681776628E+02  0.19588751198E+02  0.51100000000E-03 0. -1.
        -11    1    3    3    0    0 -0.39906272888E+01  0.43165549830E+01 -0.29909560207E+01  0.65957237099E+01  0.51100000000E-03 0.  1.
        -12    1    3    3    0    0  0.10975651611E+02  0.50441501901E+01 -0.17910105511E+02  0.21602783591E+02  0.00000000000E+00 0.  1.
</event>
<event>
 7    1  0.2983653E-010  0.4778728E+02  0.7816164E-02  0.1312668E+00
        -11   -1    0    0    0    0  0.00000000000E+00  0.00000000000E+00  0.45593999997E+02  0.45594000000E+02  0.51100000000E-03 0.  1.
         11   -1    0    0    0    0 -0.00000000000E+00 -0.00000000000E+00 -0.45593999997E+02  0.45594000000E+02  0.51100000000E-03 0. -1.
    9900012    2    1    2    0    0  0.21290564188E+02 -0.35960267793E+02 -0.11712953286E+02  0.47787282749E+02  0.20000053366E+02 0.  0.
        -12    1    1    2    0    0 -0.21290564188E+02  0.35960267793E+02  0.11712953286E+02  0.43400717251E+02  0.00000000000E+00 0.  1.
         11    1    3    3    0    0  0.11717061988E+02 -0.94416635989E+01 -0.50628355684E+01  0.15876613537E+02  0.51100000000E-03 0. -1.
        -11    1    3    3    0    0  0.42752014328E+01 -0.25009940180E+02 -0.36383989472E+01  0.25632253163E+02  0.51100000000E-03 0.  1.
        -12    1    3    3    0    0  0.52983007677E+01 -0.15086640148E+01 -0.30117187702E+01  0.62784160491E+01  0.00000000000E+00 0.  1.
</event>
<event>
 7    1  0.2983653E-010  0.4778727E+02  0.7816164E-02  0.1312668E+00
        -11   -1    0    0    0    0  0.00000000000E+00  0.00000000000E+00  0.45593999997E+02  0.45594000000E+02  0.51100000000E-03 0.  1.
         11   -1    0    0    0    0 -0.00000000000E+00 -0.00000000000E+00 -0.45593999997E+02  0.45594000000E+02  0.51100000000E-03 0. -1.
    9900012    2    1    2    0    0 -0.24317832974E+02 -0.19645058405E+02 -0.30105443137E+02  0.47787273891E+02  0.20000012980E+02 0.  0.
        -12    1    1    2    0    0  0.24317832974E+02  0.19645058405E+02  0.30105443137E+02  0.43400726109E+02  0.00000000000E+00 0.  1.
         11    1    3    3    0    0 -0.94043782338E+01 -0.45639119896E+01 -0.18882095924E+02  0.21582519996E+02  0.51100000000E-03 0. -1.
        -11    1    3    3    0    0 -0.16259650480E+02 -0.12147368842E+02 -0.85906554607E+01  0.22039377601E+02  0.51100000000E-03 0.  1.
        -12    1    3    3    0    0  0.13461957396E+01 -0.29337775733E+01 -0.26326917519E+01  0.41653762951E+01  0.00000000000E+00 0.  1.
</event>
<event>
 7    1  0.2983653E-010  0.4778727E+02  0.7816164E-02  0.1312668E+00
        -11   -1    0    0    0    0  0.00000000000E+00  0.00000000000E+00  0.45593999997E+02  0.45594000000E+02  0.51100000000E-03 0.  1.
         11   -1    0    0    0    0 -0.00000000000E+00 -0.00000000000E+00 -0.45593999997E+02  0.45594000000E+02  0.51100000000E-03 0. -1.
    9900012    2    1    2    0    0 -0.41928194140E+02  0.10955941044E+02 -0.23699999641E+01  0.47787274110E+02  0.20000013976E+02 0.  0.
        -12    1    1    2    0    0  0.41928194140E+02 -0.10955941044E+02  0.23699999641E+01  0.43400725890E+02  0.00000000000E+00 0.  1.
         11    1    3    3    0    0 -0.11761697927E+02  0.22058804990E+01 -0.58264203822E+01  0.13309794200E+02  0.51100000000E-03 0. -1.
        -11    1    3    3    0    0 -0.29020207676E+02  0.78660996584E+01  0.68063825009E+01  0.30828149805E+02  0.51100000000E-03 0.  1.
        -12    1    3    3    0    0 -0.11462885360E+01  0.88396088681E+00 -0.33499620829E+01  0.36493301048E+01  0.00000000000E+00 0.  1.
</event>
<event>
 7    1  0.2983653E-010  0.4778727E+02  0.7816164E-02  0.1312668E+00
        -11   -1    0    0    0    0  0.00000000000E+00  0.00000000000E+00  0.45593999997E+02  0.45594000000E+02  0.51100000000E-03 0.  1.
         11   -1    0    0    0    0 -0.00000000000E+00 -0.00000000000E+00 -0.45593999997E+02  0.45594000000E+02  0.51100000000E-03 0. -1.
    9900012    2    1    2    0    0 -0.35903325492E+02  0.19946780629E+02  0.14024991981E+02  0.47787271447E+02  0.20000001835E+02 0.  0.
        -12    1    1    2    0    0  0.35903325492E+02 -0.19946780629E+02 -0.14024991981E+02  0.43400728553E+02  0.00000000000E+00 0.  1.
         11    1    3    3    0    0 -0.12241097442E+02  0.14126335962E+02  0.15897070513E+01  0.18759664258E+02  0.51100000000E-03 0. -1.
        -11    1    3    3    0    0 -0.19566470423E+02  0.67686536618E+01  0.13467208779E+02  0.24698727695E+02  0.51100000000E-03 0.  1.
        -12    1    3    3    0    0 -0.40957576281E+01 -0.94820899454E+00 -0.10319238493E+01  0.43288794943E+01  0.00000000000E+00 0.  1.
</event>
<event>
 7    1  0.2983653E-010  0.4778727E+02  0.7816164E-02  0.1312668E+00
        -11   -1    0    0    0    0  0.00000000000E+00  0.00000000000E+00  0.45593999997E+02  0.45594000000E+02  0.51100000000E-03 0. -1.
         11   -1    0    0    0    0 -0.00000000000E+00 -0.00000000000E+00 -0.45593999997E+02  0.45594000000E+02  0.51100000000E-03 0.  1.
    9900012    2    1    2    0    0 -0.18586318460E+02 -0.25131149645E+02  0.30109754095E+02  0.47787271803E+02  0.20000003458E+02 0.  0.
        -12    1    1    2    0    0  0.18586318460E+02  0.25131149645E+02 -0.30109754095E+02  0.43400728197E+02  0.00000000000E+00 0.  1.
         11    1    3    3    0    0 -0.81276147160E+01 -0.14458078570E+02  0.16268298330E+02  0.23232556633E+02  0.51100000000E-03 0. -1.
        -11    1    3    3    0    0  0.28990217839E+01 -0.99070706162E+00  0.69910363699E-01  0.30644274352E+01  0.51100000000E-03 0.  1.
        -12    1    3    3    0    0 -0.13357725528E+02 -0.96823640132E+01  0.13771545402E+02  0.21490287735E+02  0.00000000000E+00 0.  1.
</event>
<event>
 7    1  0.2983653E-010  0.4778727E+02  0.7816164E-02  0.1312668E+00
        -11   -1    0    0    0    0  0.00000000000E+00  0.00000000000E+00  0.45593999997E+02  0.45594000000E+02  0.51100000000E-03 0.  1.
         11   -1    0    0    0    0 -0.00000000000E+00 -0.00000000000E+00 -0.45593999997E+02  0.45594000000E+02  0.51100000000E-03 0. -1.
    9900012    2    1    2    0    0 -0.36712409837E+02 -0.14085988170E+02 -0.18368646219E+02  0.47787271173E+02  0.20000000587E+02 0.  0.
        -12    1    1    2    0    0  0.36712409837E+02  0.14085988170E+02  0.18368646219E+02  0.43400728827E+02  0.00000000000E+00 0.  1.
         11    1    3    3    0    0 -0.79622245748E+01 -0.34757118872E+01 -0.13583879796E+01  0.87933390397E+01  0.51100000000E-03 0. -1.
        -11    1    3    3    0    0 -0.62943443052E+01  0.47456958043E+01 -0.36998971620E+01  0.87080214842E+01  0.51100000000E-03 0.  1.
        -12    1    3    3    0    0 -0.22455840957E+02 -0.15355972087E+02 -0.13310361077E+02  0.30285910649E+02  0.00000000000E+00 0.  1.
</event>
<event>
 7    1  0.2983653E-010  0.4778727E+02  0.7816164E-02  0.1312668E+00
        -11   -1    0    0    0    0  0.00000000000E+00  0.00000000000E+00  0.45593999997E+02  0.45594000000E+02  0.51100000000E-03 0. -1.
         11   -1    0    0    0    0 -0.00000000000E+00 -0.00000000000E+00 -0.45593999997E+02  0.45594000000E+02  0.51100000000E-03 0.  1.
    9900012    2    1    2    0    0 -0.23577329071E+02  0.29497185905E+02  0.21392724612E+02  0.47787273177E+02  0.20000009721E+02 0.  0.
        -12    1    1    2    0    0  0.23577329071E+02 -0.29497185905E+02 -0.21392724612E+02  0.43400726823E+02  0.00000000000E+00 0.  1.
         11    1    3    3    0    0 -0.92056883143E+01 -0.11223684270E+00  0.43372141374E+01  0.10176871876E+02  0.51100000000E-03 0.  1.
        -11    1    3    3    0    0 -0.48721162945E+01  0.15517832795E+02  0.10688161550E+02  0.19462205667E+02  0.51100000000E-03 0. -1.
        -12    1    3    3    0    0 -0.94995244625E+01  0.14091589954E+02  0.63673489244E+01  0.18148195634E+02  0.00000000000E+00 0.  1.
</event>
<event>
 7    1  0.3377062E-010  0.4778728E+02  0.7816164E-02  0.1312668E+00
        -11   -1    0    0    0    0  0.00000000000E+00  0.00000000000E+00  0.45593999997E+02  0.45594000000E+02  0.51100000000E-03 0. -1.
         11   -1    0    0    0    0 -0.00000000000E+00 -0.00000000000E+00 -0.45593999997E+02  0.45594000000E+02  0.51100000000E-03 0.  1.
    9900012    2    1    2    0    0  0.22446074364E+02  0.26230559434E+02  0.26301219900E+02  0.47787277993E+02  0.20000031679E+02 0.  0.
        -12    1    1    2    0    0 -0.22446074364E+02 -0.26230559434E+02 -0.26301219900E+02  0.43400722007E+02  0.00000000000E+00 0.  1.
         11    1    3    3    0    0  0.64150178852E+01  0.49573438839E+01  0.82757208127E+01  0.11585131336E+02  0.51100000000E-03 0. -1.
        -11    1    3    3    0    0  0.13346007464E+02  0.51466203800E+01  0.45335247849E+01  0.15005214554E+02  0.51100000000E-03 0.  1.
        -12    1    3    3    0    0  0.26850490142E+01  0.16126595170E+02  0.13491974302E+02  0.21196932102E+02  0.00000000000E+00 0.  1.
</event>
<event>
 7    1  0.2983653E-010  0.4778727E+02  0.7816164E-02  0.1312668E+00
        -11   -1    0    0    0    0  0.00000000000E+00  0.00000000000E+00  0.45593999997E+02  0.45594000000E+02  0.51100000000E-03 0. -1.
         11   -1    0    0    0    0 -0.00000000000E+00 -0.00000000000E+00 -0.45593999997E+02  0.45594000000E+02  0.51100000000E-03 0.  1.
    9900012    2    1    2    0    0 -0.15688383833E+02  0.11635652749E+02  0.38757057277E+02  0.47787270848E+02  0.19999999104E+02 0.  0.
        -12    1    1    2    0    0  0.15688383833E+02 -0.11635652749E+02 -0.38757057277E+02  0.43400729152E+02  0.00000000000E+00 0.  1.
         11    1    3    3    0    0 -0.43003163379E+01  0.44465090601E+00  0.26116542489E+01  0.50508586608E+01  0.51100000000E-03 0. -1.
        -11    1    3    3    0    0 -0.79430258745E+01  0.11075321510E+02  0.11446746097E+02  0.17798382035E+02  0.51100000000E-03 0.  1.
        -12    1    3    3    0    0 -0.34450416205E+01  0.11568033292E+00  0.24698656930E+02  0.24938030152E+02  0.00000000000E+00 0.  1.
</event>
<event>
 7    1  0.2983653E-010  0.4778727E+02  0.7816164E-02  0.1312668E+00
        -11   -1    0    0    0    0  0.00000000000E+00  0.00000000000E+00  0.45593999997E+02  0.45594000000E+02  0.51100000000E-03 0. -1.
         11   -1    0    0    0    0 -0.00000000000E+00 -0.00000000000E+00 -0.45593999997E+02  0.45594000000E+02  0.51100000000E-03 0.  1.
    9900012    2    1    2    0    0 -0.40983556765E+02 -0.13258348915E+02 -0.53091872288E+01  0.47787271779E+02  0.20000003350E+02 0.  0.
        -12    1    1    2    0    0  0.40983556765E+02  0.13258348915E+02  0.53091872288E+01  0.43400728221E+02  0.00000000000E+00 0.  1.
         11    1    3    3    0    0 -0.15604622050E+02 -0.10512783787E+02 -0.40147858131E+01  0.19239058129E+02  0.51100000000E-03 0. -1.
        -11    1    3    3    0    0 -0.11748708612E+02  0.44762888754E+01 -0.32861044017E+01  0.12994914334E+02  0.51100000000E-03 0.  1.
        -12    1    3    3    0    0 -0.13630226103E+02 -0.72218540027E+01  0.19917029860E+01  0.15553299317E+02  0.00000000000E+00 0.  1.
</event>
<event>
 7    1  0.2983653E-010  0.4778727E+02  0.7816164E-02  0.1312668E+00
        -11   -1    0    0    0    0  0.00000000000E+00  0.00000000000E+00  0.45593999997E+02  0.45594000000E+02  0.51100000000E-03 0.  1.
         11   -1    0    0    0    0 -0.00000000000E+00 -0.00000000000E+00 -0.45593999997E+02  0.45594000000E+02  0.51100000000E-03 0. -1.
    9900012    2    1    2    0    0 -0.14849577738E+02 -0.38703906826E+02 -0.12849940225E+02  0.47787270439E+02  0.19999997241E+02 0.  0.
        -12    1    1    2    0    0  0.14849577738E+02  0.38703906826E+02  0.12849940225E+02  0.43400729561E+02  0.00000000000E+00 0.  1.
         11    1    3    3    0    0 -0.61888711468E+01 -0.13641535875E+02 -0.11056026262E+02  0.18617984426E+02  0.51100000000E-03 0. -1.
        -11    1    3    3    0    0 -0.10114552524E+02 -0.16293702527E+02  0.24248711373E+01  0.19330517714E+02  0.51100000000E-03 0.  1.
        -12    1    3    3    0    0  0.14538459326E+01 -0.87686684241E+01 -0.42187851006E+01  0.98387682996E+01  0.00000000000E+00 0.  1.
</event>
<event>
 7    1  0.2983653E-010  0.4778727E+02  0.7816164E-02  0.1312668E+00
        -11   -1    0    0    0    0  0.00000000000E+00  0.00000000000E+00  0.45593999997E+02  0.45594000000E+02  0.51100000000E-03 0.  1.
         11   -1    0    0    0    0 -0.00000000000E+00 -0.00000000000E+00 -0.45593999997E+02  0.45594000000E+02  0.51100000000E-03 0. -1.
    9900012    2    1    2    0    0  0.99923089481E+01  0.30542975977E+02 -0.29170253830E+02  0.47787270419E+02  0.19999997148E+02 0.  0.
        -12    1    1    2    0    0 -0.99923089481E+01 -0.30542975977E+02  0.29170253830E+02  0.43400729581E+02  0.00000000000E+00 0.  1.
         11    1    3    3    0    0  0.63339077059E+01  0.11443583987E+02 -0.65487097220E+01  0.14627357949E+02  0.51100000000E-03 0. -1.
        -11    1    3    3    0    0 -0.12015700731E+01  0.16836430744E+02 -0.22049469469E+02  0.27768476281E+02  0.51100000000E-03 0.  1.
        -12    1    3    3    0    0  0.48599713153E+01  0.22629612466E+01 -0.57207463978E+00  0.53914361892E+01  0.00000000000E+00 0.  1.
</event>
<event>
 7    1  0.2983653E-010  0.4778727E+02  0.7816164E-02  0.1312668E+00
        -11   -1    0    0    0    0  0.00000000000E+00  0.00000000000E+00  0.45593999997E+02  0.45594000000E+02  0.51100000000E-03 0.  1.
         11   -1    0    0    0    0 -0.00000000000E+00 -0.00000000000E+00 -0.45593999997E+02  0.45594000000E+02  0.51100000000E-03 0. -1.
    9900012    2    1    2    0    0 -0.11052613302E+02 -0.15005921373E+02 -0.39195475107E+02  0.47787271827E+02  0.20000003570E+02 0.  0.
        -12    1    1    2    0    0  0.11052613302E+02  0.15005921373E+02  0.39195475107E+02  0.43400728173E+02  0.00000000000E+00 0.  1.
         11    1    3    3    0    0 -0.46674972931E+01 -0.67445074402E+01 -0.24971300659E+02  0.26283830932E+02  0.51100000000E-03 0. -1.
        -11    1    3    3    0    0  0.58024812512E+00 -0.80930474987E+01 -0.37862878671E+01  0.89537747223E+01  0.51100000000E-03 0.  1.
        -12    1    3    3    0    0 -0.69653641345E+01 -0.16836643364E+00 -0.10437886581E+02  0.12549666173E+02  0.00000000000E+00 0.  1.
</event>
<event>
 7    1  0.2983653E-010  0.4778727E+02  0.7816164E-02  0.1312668E+00
        -11   -1    0    0    0    0  0.00000000000E+00  0.00000000000E+00  0.45593999997E+02  0.45594000000E+02  0.51100000000E-03 0.  1.
         11   -1    0    0    0    0 -0.00000000000E+00 -0.00000000000E+00 -0.45593999997E+02  0.45594000000E+02  0.51100000000E-03 0. -1.
    9900012    2    1    2    0    0 -0.33176070295E+02  0.18881201353E+02 -0.20651198266E+02  0.47787269654E+02  0.19999993659E+02 0.  0.
        -12    1    1    2    0    0  0.33176070295E+02 -0.18881201353E+02  0.20651198266E+02  0.43400730346E+02  0.00000000000E+00 0.  1.
         11    1    3    3    0    0 -0.19713489295E+02  0.75073560915E+01 -0.14570406295E+02  0.25637449084E+02  0.51100000000E-03 0. -1.
        -11    1    3    3    0    0 -0.14281474190E+02  0.12626048778E+02 -0.38242036493E+01  0.19442277300E+02  0.51100000000E-03 0.  1.
        -12    1    3    3    0    0  0.81889319010E+00 -0.12522035162E+01 -0.22565883224E+01  0.27075432702E+01  0.00000000000E+00 0.  1.
</event>
<event>
 7    1  0.2983653E-010  0.4778728E+02  0.7816164E-02  0.1312668E+00
        -11   -1    0    0    0    0  0.00000000000E+00  0.00000000000E+00  0.45593999997E+02  0.45594000000E+02  0.51100000000E-03 0.  1.
         11   -1    0    0    0    0 -0.00000000000E+00 -0.00000000000E+00 -0.45593999997E+02  0.45594000000E+02  0.51100000000E-03 0. -1.
    9900012    2    1    2    0    0 -0.57027638323E+01 -0.30184926869E+02 -0.30658949012E+02  0.47787280192E+02  0.20000041706E+02 0.  0.
        -12    1    1    2    0    0  0.57027638323E+01  0.30184926869E+02  0.30658949012E+02  0.43400719808E+02  0.00000000000E+00 0.  1.
         11    1    3    3    0    0 -0.11666073600E+02 -0.14541961292E+02 -0.17799112016E+02  0.25775459264E+02  0.51100000000E-03 0. -1.
        -11    1    3    3    0    0  0.47495700990E+01 -0.44210481456E+01 -0.36574276840E+01  0.74485475333E+01  0.51100000000E-03 0.  1.
        -12    1    3    3    0    0  0.12137396690E+01 -0.11221917431E+02 -0.92024093119E+01  0.14563273394E+02  0.00000000000E+00 0.  1.
</event>
<event>
 7    1  0.2983653E-010  0.4778727E+02  0.7816164E-02  0.1312668E+00
        -11   -1    0    0    0    0  0.00000000000E+00  0.00000000000E+00  0.45593999997E+02  0.45594000000E+02  0.51100000000E-03 0. -1.
         11   -1    0    0    0    0 -0.00000000000E+00 -0.00000000000E+00 -0.45593999997E+02  0.45594000000E+02  0.51100000000E-03 0.  1.
    9900012    2    1    2    0    0  0.42147376322E+02  0.98449368814E+01  0.32092440903E+01  0.47787270045E+02  0.19999995441E+02 0.  0.
        -12    1    1    2    0    0 -0.42147376322E+02 -0.98449368814E+01 -0.32092440903E+01  0.43400729955E+02  0.00000000000E+00 0.  1.
         11    1    3    3    0    0  0.12681028357E+02  0.48599800926E+00  0.60129472139E+01  0.14042799177E+02  0.51100000000E-03 0.  1.
        -11    1    3    3    0    0  0.85882785181E+01 -0.10561685013E+01 -0.55068900376E+01  0.10256698199E+02  0.51100000000E-03 0. -1.
        -12    1    3    3    0    0  0.20878069447E+02  0.10415107373E+02  0.27031869141E+01  0.23487772668E+02  0.00000000000E+00 0.  1.
</event>
<event>
 7    1  0.2983653E-010  0.4778725E+02  0.7816164E-02  0.1312668E+00
        -11   -1    0    0    0    0  0.00000000000E+00  0.00000000000E+00  0.45593999997E+02  0.45594000000E+02  0.51100000000E-03 0. -1.
         11   -1    0    0    0    0 -0.00000000000E+00 -0.00000000000E+00 -0.45593999997E+02  0.45594000000E+02  0.51100000000E-03 0.  1.
    9900012    2    1    2    0    0 -0.30305224005E+02  0.29278386655E+02 -0.10392024807E+02  0.47787254538E+02  0.19999924739E+02 0.  0.
        -12    1    1    2    0    0  0.30305224005E+02 -0.29278386655E+02  0.10392024807E+02  0.43400745462E+02  0.00000000000E+00 0.  1.
         11    1    3    3    0    0 -0.13887575963E+02  0.19956364748E+02 -0.11480156294E+02  0.26887083309E+02  0.51100000000E-03 0. -1.
        -11    1    3    3    0    0 -0.15387661362E+02  0.72987947514E+01 -0.19119168674E+01  0.17137909831E+02  0.51100000000E-03 0.  1.
         12    1    3    3    0    0 -0.10299866790E+01  0.20232271562E+01  0.30000483552E+01  0.37622613968E+01  0.00000000000E+00 0. -1.
</event>
<event>
 7    1  0.2983653E-010  0.4778727E+02  0.7816164E-02  0.1312668E+00
        -11   -1    0    0    0    0  0.00000000000E+00  0.00000000000E+00  0.45593999997E+02  0.45594000000E+02  0.51100000000E-03 0.  1.
         11   -1    0    0    0    0 -0.00000000000E+00 -0.00000000000E+00 -0.45593999997E+02  0.45594000000E+02  0.51100000000E-03 0. -1.
    9900012    2    1    2    0    0 -0.22116014567E+02  0.17547628638E+00 -0.37342665654E+02  0.47787267628E+02  0.19999984423E+02 0.  0.
        -12    1    1    2    0    0  0.22116014567E+02 -0.17547628638E+00  0.37342665654E+02  0.43400732372E+02  0.00000000000E+00 0.  1.
         11    1    3    3    0    0 -0.17281157343E+02  0.32769118701E+01 -0.22579042192E+02  0.28621490127E+02  0.51100000000E-03 0. -1.
        -11    1    3    3    0    0  0.34333113352E+01 -0.80758474845E+00 -0.31694030332E+01  0.47418283076E+01  0.51100000000E-03 0.  1.
        -12    1    3    3    0    0 -0.82681685594E+01 -0.22938508353E+01 -0.11594220429E+02  0.14423949194E+02  0.00000000000E+00 0.  1.
</event>
<event>
 7    1  0.2983653E-010  0.4778727E+02  0.7816164E-02  0.1312668E+00
        -11   -1    0    0    0    0  0.00000000000E+00  0.00000000000E+00  0.45593999997E+02  0.45594000000E+02  0.51100000000E-03 0.  1.
         11   -1    0    0    0    0 -0.00000000000E+00 -0.00000000000E+00 -0.45593999997E+02  0.45594000000E+02  0.51100000000E-03 0. -1.
    9900012    2    1    2    0    0  0.42415952375E+02 -0.11258658894E+01  0.91237430855E+01  0.47787270999E+02  0.19999999794E+02 0.  0.
        -12    1    1    2    0    0 -0.42415952375E+02  0.11258658894E+01 -0.91237430855E+01  0.43400729001E+02  0.00000000000E+00 0.  1.
         11    1    3    3    0    0  0.39921945690E+02 -0.30091758847E+00  0.13618128236E+02  0.42181817362E+02  0.51100000000E-03 0. -1.
        -11    1    3    3    0    0  0.12192439308E+01 -0.11116920970E+00 -0.37913193421E+01  0.39840955022E+01  0.51100000000E-03 0.  1.
         12    1    3    3    0    0  0.12747627549E+01 -0.71377909123E+00 -0.70306580824E+00  0.16213581353E+01  0.00000000000E+00 0. -1.
</event>
<event>
 7    1  0.2983653E-010  0.4778726E+02  0.7816164E-02  0.1312668E+00
        -11   -1    0    0    0    0  0.00000000000E+00  0.00000000000E+00  0.45593999997E+02  0.45594000000E+02  0.51100000000E-03 0. -1.
         11   -1    0    0    0    0 -0.00000000000E+00 -0.00000000000E+00 -0.45593999997E+02  0.45594000000E+02  0.51100000000E-03 0.  1.
    9900012    2    1    2    0    0  0.31766513764E+02  0.12514664761E+02  0.26793579956E+02  0.47787260863E+02  0.19999953577E+02 0.  0.
        -12    1    1    2    0    0 -0.31766513764E+02 -0.12514664761E+02 -0.26793579956E+02  0.43400739137E+02  0.00000000000E+00 0.  1.
         11    1    3    3    0    0  0.16407275922E+02  0.59737239017E+00  0.13792750151E+02  0.21442842954E+02  0.51100000000E-03 0. -1.
        -11    1    3    3    0    0  0.14815988075E+02  0.14180550088E+02  0.10984762960E+02  0.23265135310E+02  0.51100000000E-03 0.  1.
        -12    1    3    3    0    0  0.54324976782E+00 -0.22632577171E+01  0.20160668443E+01  0.30792825991E+01  0.00000000000E+00 0.  1.
</event>
<event>
 7    1  0.2983653E-010  0.4778727E+02  0.7816164E-02  0.1312668E+00
        -11   -1    0    0    0    0  0.00000000000E+00  0.00000000000E+00  0.45593999997E+02  0.45594000000E+02  0.51100000000E-03 0.  1.
         11   -1    0    0    0    0 -0.00000000000E+00 -0.00000000000E+00 -0.45593999997E+02  0.45594000000E+02  0.51100000000E-03 0. -1.
    9900012    2    1    2    0    0 -0.14698471656E+02  0.18446685484E+02 -0.36432103068E+02  0.47787269496E+02  0.19999992939E+02 0.  0.
        -12    1    1    2    0    0  0.14698471656E+02 -0.18446685484E+02  0.36432103068E+02  0.43400730504E+02  0.00000000000E+00 0.  1.
         11    1    3    3    0    0 -0.40860998537E+01  0.14004662316E+02 -0.13750705532E+02  0.20047660249E+02  0.51100000000E-03 0. -1.
        -11    1    3    3    0    0 -0.85075181391E+01 -0.99534442813E+00 -0.19006844017E+02  0.20847750362E+02  0.51100000000E-03 0.  1.
        -12    1    3    3    0    0 -0.21048536635E+01  0.54373675958E+01 -0.36745535195E+01  0.68918588845E+01  0.00000000000E+00 0.  1.
</event>
<event>
 7    1  0.2983653E-010  0.4778727E+02  0.7816164E-02  0.1312668E+00
        -11   -1    0    0    0    0  0.00000000000E+00  0.00000000000E+00  0.45593999997E+02  0.45594000000E+02  0.51100000000E-03 0.  1.
         11   -1    0    0    0    0 -0.00000000000E+00 -0.00000000000E+00 -0.45593999997E+02  0.45594000000E+02  0.51100000000E-03 0. -1.
    9900012    2    1    2    0    0 -0.41759303540E+02 -0.12911221596E+01 -0.11752327320E+02  0.47787266988E+02  0.19999981504E+02 0.  0.
        -12    1    1    2    0    0  0.41759303540E+02  0.12911221596E+01  0.11752327320E+02  0.43400733012E+02  0.00000000000E+00 0.  1.
         11    1    3    3    0    0 -0.11087882201E+02  0.22007119913E+00  0.40710357494E+01  0.11813674084E+02  0.51100000000E-03 0. -1.
        -11    1    3    3    0    0 -0.12870993554E+02 -0.54731713514E+01 -0.55865154248E+01  0.15060784659E+02  0.51100000000E-03 0.  1.
         12    1    3    3    0    0 -0.17800427786E+02  0.39619779927E+01 -0.10236847645E+02  0.20912808244E+02  0.00000000000E+00 0. -1.
</event>
<event>
 7    1  0.2983653E-010  0.4778728E+02  0.7816164E-02  0.1312668E+00
        -11   -1    0    0    0    0  0.00000000000E+00  0.00000000000E+00  0.45593999997E+02  0.45594000000E+02  0.51100000000E-03 0. -1.
         11   -1    0    0    0    0 -0.00000000000E+00 -0.00000000000E+00 -0.45593999997E+02  0.45594000000E+02  0.51100000000E-03 0.  1.
    9900012    2    1    2    0    0 -0.10530713098E+02 -0.20744097061E+02  0.36638899165E+02  0.47787280959E+02  0.20000045205E+02 0.  0.
        -12    1    1    2    0    0  0.10530713098E+02  0.20744097061E+02 -0.36638899165E+02  0.43400719041E+02  0.00000000000E+00 0.  1.
         11    1    3    3    0    0 -0.41129399334E+01  0.17934236448E+01  0.33669038475E+01  0.56096956285E+01  0.51100000000E-03 0. -1.
        -11    1    3    3    0    0  0.25146045051E+01 -0.95334155310E+01  0.15920056780E+02  0.18725849931E+02  0.51100000000E-03 0.  1.
         12    1    3    3    0    0 -0.89323776698E+01 -0.13004105174E+02  0.17351938537E+02  0.23451735399E+02  0.00000000000E+00 0. -1.
</event>
<event>
 7    1  0.2983653E-010  0.4778727E+02  0.7816164E-02  0.1312668E+00
        -11   -1    0    0    0    0  0.00000000000E+00  0.00000000000E+00  0.45593999997E+02  0.45594000000E+02  0.51100000000E-03 0.  1.
         11   -1    0    0    0    0 -0.00000000000E+00 -0.00000000000E+00 -0.45593999997E+02  0.45594000000E+02  0.51100000000E-03 0. -1.
    9900012    2    1    2    0    0 -0.65364483816E+01  0.37586494965E+02 -0.20691875121E+02  0.47787268932E+02  0.19999990370E+02 0.  0.
        -12    1    1    2    0    0  0.65364483816E+01 -0.37586494965E+02  0.20691875121E+02  0.43400731068E+02  0.00000000000E+00 0.  1.
         11    1    3    3    0    0 -0.43135643957E+01  0.78781424237E+01 -0.11296742564E+02  0.14432198677E+02  0.51100000000E-03 0. -1.
        -11    1    3    3    0    0 -0.15669093615E+01  0.73186005846E+01  0.26285731913E+01  0.79326235727E+01  0.51100000000E-03 0.  1.
         12    1    3    3    0    0 -0.65597462427E+00  0.22389751957E+02 -0.12023705748E+02  0.25422446682E+02  0.00000000000E+00 0. -1.
</event>
<event>
 7    1  0.2983653E-010  0.4778727E+02  0.7816164E-02  0.1312668E+00
        -11   -1    0    0    0    0  0.00000000000E+00  0.00000000000E+00  0.45593999997E+02  0.45594000000E+02  0.51100000000E-03 0. -1.
         11   -1    0    0    0    0 -0.00000000000E+00 -0.00000000000E+00 -0.45593999997E+02  0.45594000000E+02  0.51100000000E-03 0.  1.
    9900012    2    1    2    0    0  0.26112810300E+02  0.91811905791E+01  0.33428285881E+02  0.47787269371E+02  0.19999992370E+02 0.  0.
        -12    1    1    2    0    0 -0.26112810300E+02 -0.91811905791E+01 -0.33428285881E+02  0.43400730629E+02  0.00000000000E+00 0.  1.
         11    1    3    3    0    0  0.43495568567E+01  0.75967220576E+01  0.19083191919E+02  0.20995167181E+02  0.51100000000E-03 0. -1.
        -11    1    3    3    0    0  0.15778517661E+02  0.38288859424E+01  0.10290816372E+02  0.19222978151E+02  0.51100000000E-03 0.  1.
         12    1    3    3    0    0  0.59847357818E+01 -0.22444174209E+01  0.40542775898E+01  0.75691240387E+01  0.00000000000E+00 0. -1.
</event>
<event>
 7    1  0.3030942E-010  0.4778727E+02  0.7816164E-02  0.1312668E+00
        -11   -1    0    0    0    0  0.00000000000E+00  0.00000000000E+00  0.45593999997E+02  0.45594000000E+02  0.51100000000E-03 0.  1.
         11   -1    0    0    0    0 -0.00000000000E+00 -0.00000000000E+00 -0.45593999997E+02  0.45594000000E+02  0.51100000000E-03 0. -1.
    9900012    2    1    2    0    0  0.38883382547E+02  0.10808053794E+02  0.15965322082E+02  0.47787274496E+02  0.20000015738E+02 0.  0.
        -12    1    1    2    0    0 -0.38883382547E+02 -0.10808053794E+02 -0.15965322082E+02  0.43400725504E+02  0.00000000000E+00 0.  1.
         11    1    3    3    0    0  0.10937466521E+02  0.75388811967E+01  0.11783210948E+02  0.17756884977E+02  0.51100000000E-03 0. -1.
        -11    1    3    3    0    0  0.14768450311E+02  0.51621632507E+01 -0.11559813908E+01  0.15687298916E+02  0.51100000000E-03 0.  1.
        -12    1    3    3    0    0  0.13177465714E+02 -0.18929906533E+01  0.53380925249E+01  0.14343090603E+02  0.00000000000E+00 0.  1.
</event>
<event>
 7    1  0.3533311E-010  0.4778728E+02  0.7816164E-02  0.1312668E+00
        -11   -1    0    0    0    0  0.00000000000E+00  0.00000000000E+00  0.45593999997E+02  0.45594000000E+02  0.51100000000E-03 0. -1.
         11   -1    0    0    0    0 -0.00000000000E+00 -0.00000000000E+00 -0.45593999997E+02  0.45594000000E+02  0.51100000000E-03 0.  1.
    9900012    2    1    2    0    0  0.81942462133E+01  0.11514602745E+02  0.41035243067E+02  0.47787275110E+02  0.20000018537E+02 0.  0.
        -12    1    1    2    0    0 -0.81942462133E+01 -0.11514602745E+02 -0.41035243067E+02  0.43400724890E+02  0.00000000000E+00 0.  1.
         11    1    3    3    0    0  0.36945048481E+01  0.16417365960E+01  0.63488154107E+01  0.75267604256E+01  0.51100000000E-03 0.  1.
        -11    1    3    3    0    0  0.46834766548E+01 -0.40653118724E+01  0.14043687537E+02  0.15352096733E+02  0.51100000000E-03 0. -1.
        -12    1    3    3    0    0 -0.18373528954E+00  0.13938178022E+02  0.20642740119E+02  0.24908417952E+02  0.00000000000E+00 0.  1.
</event>
<event>
 7    1  0.2983653E-010  0.4778727E+02  0.7816164E-02  0.1312668E+00
        -11   -1    0    0    0    0  0.00000000000E+00  0.00000000000E+00  0.45593999997E+02  0.45594000000E+02  0.51100000000E-03 0.  1.
         11   -1    0    0    0    0 -0.00000000000E+00 -0.00000000000E+00 -0.45593999997E+02  0.45594000000E+02  0.51100000000E-03 0. -1.
    9900012    2    1    2    0    0  0.37126274400E+02 -0.14406035392E+02  0.17254826685E+02  0.47787272466E+02  0.20000006480E+02 0.  0.
        -12    1    1    2    0    0 -0.37126274400E+02  0.14406035392E+02 -0.17254826685E+02  0.43400727534E+02  0.00000000000E+00 0.  1.
         11    1    3    3    0    0  0.95231515710E+00 -0.24323516398E+01  0.19342210357E+01  0.32502999760E+01  0.51100000000E-03 0. -1.
        -11    1    3    3    0    0  0.21928158156E+02 -0.14387840136E+02  0.47973191904E+01  0.26662114237E+02  0.51100000000E-03 0.  1.
        -12    1    3    3    0    0  0.14245801087E+02  0.24141563839E+01  0.10523286459E+02  0.17874858253E+02  0.00000000000E+00 0.  1.
</event>
<event>
 7    1  0.2983653E-010  0.4778727E+02  0.7816164E-02  0.1312668E+00
        -11   -1    0    0    0    0  0.00000000000E+00  0.00000000000E+00  0.45593999997E+02  0.45594000000E+02  0.51100000000E-03 0.  1.
         11   -1    0    0    0    0 -0.00000000000E+00 -0.00000000000E+00 -0.45593999997E+02  0.45594000000E+02  0.51100000000E-03 0. -1.
    9900012    2    1    2    0    0  0.14876829481E+02  0.40769181701E+02  0.42097516760E+00  0.47787268991E+02  0.19999990638E+02 0.  0.
        -12    1    1    2    0    0 -0.14876829481E+02 -0.40769181701E+02 -0.42097516760E+00  0.43400731009E+02  0.00000000000E+00 0.  1.
         11    1    3    3    0    0  0.72747836236E+01  0.68249248179E+01 -0.26395240486E+01  0.10318389555E+02  0.51100000000E-03 0. -1.
        -11    1    3    3    0    0 -0.14194660810E+01  0.58552091777E+01  0.51037209176E+01  0.78959689675E+01  0.51100000000E-03 0.  1.
        -12    1    3    3    0    0  0.90215119388E+01  0.28089047706E+02 -0.20432217014E+01  0.29572910469E+02  0.00000000000E+00 0.  1.
</event>
<event>
 7    1  0.2983653E-010  0.4778727E+02  0.7816164E-02  0.1312668E+00
        -11   -1    0    0    0    0  0.00000000000E+00  0.00000000000E+00  0.45593999997E+02  0.45594000000E+02  0.51100000000E-03 0.  1.
         11   -1    0    0    0    0 -0.00000000000E+00 -0.00000000000E+00 -0.45593999997E+02  0.45594000000E+02  0.51100000000E-03 0. -1.
    9900012    2    1    2    0    0  0.21339344429E+02  0.23221245928E+02 -0.29816596228E+02  0.47787270816E+02  0.19999998957E+02 0.  0.
        -12    1    1    2    0    0 -0.21339344429E+02 -0.23221245928E+02  0.29816596228E+02  0.43400729184E+02  0.00000000000E+00 0.  1.
         11    1    3    3    0    0  0.55687930929E+01  0.66546643792E+01 -0.85805822111E+01  0.12203376822E+02  0.51100000000E-03 0. -1.
        -11    1    3    3    0    0  0.10416687029E+02  0.83094436114E+00 -0.13964380117E+02  0.17441380379E+02  0.51100000000E-03 0.  1.
        -12    1    3    3    0    0  0.53538643067E+01  0.15735637187E+02 -0.72716338998E+01  0.18142513615E+02  0.00000000000E+00 0.  1.
</event>
<event>
 7    1  0.2983653E-010  0.4778727E+02  0.7816164E-02  0.1312668E+00
        -11   -1    0    0    0    0  0.00000000000E+00  0.00000000000E+00  0.45593999997E+02  0.45594000000E+02  0.51100000000E-03 0.  1.
         11   -1    0    0    0    0 -0.00000000000E+00 -0.00000000000E+00 -0.45593999997E+02  0.45594000000E+02  0.51100000000E-03 0. -1.
    9900012    2    1    2    0    0 -0.53997833687E+01 -0.18788533871E+02 -0.38748632229E+02  0.47787272297E+02  0.20000005713E+02 0.  0.
        -12    1    1    2    0    0  0.53997833687E+01  0.18788533871E+02  0.38748632229E+02  0.43400727703E+02  0.00000000000E+00 0.  1.
         11    1    3    3    0    0 -0.48082314358E+01 -0.40175739380E+01 -0.14102039288E+02  0.15431380439E+02  0.51100000000E-03 0. -1.
        -11    1    3    3    0    0  0.12129901714E+01 -0.53347999627E+01 -0.21592730002E+02  0.22275040404E+02  0.51100000000E-03 0.  1.
        -12    1    3    3    0    0 -0.18045421042E+01 -0.94361599708E+01 -0.30538629384E+01  0.10080851454E+02  0.00000000000E+00 0.  1.
</event>
<event>
 7    1  0.2983653E-010  0.4778727E+02  0.7816164E-02  0.1312668E+00
        -11   -1    0    0    0    0  0.00000000000E+00  0.00000000000E+00  0.45593999997E+02  0.45594000000E+02  0.51100000000E-03 0. -1.
         11   -1    0    0    0    0 -0.00000000000E+00 -0.00000000000E+00 -0.45593999997E+02  0.45594000000E+02  0.51100000000E-03 0.  1.
    9900012    2    1    2    0    0 -0.21913696008E+02 -0.36931692218E+02 -0.62820038943E+01  0.47787268028E+02  0.19999986246E+02 0.  0.
        -12    1    1    2    0    0  0.21913696008E+02  0.36931692218E+02  0.62820038943E+01  0.43400731972E+02  0.00000000000E+00 0.  1.
         11    1    3    3    0    0 -0.49411035750E+01 -0.63219330897E+01  0.14767204680E+01  0.81585566206E+01  0.51100000000E-03 0. -1.
        -11    1    3    3    0    0 -0.19157037192E+02 -0.21649075877E+02 -0.25102400387E+01  0.29016820391E+02  0.51100000000E-03 0.  1.
        -12    1    3    3    0    0  0.21844447594E+01 -0.89606832515E+01 -0.52484843237E+01  0.10611891016E+02  0.00000000000E+00 0.  1.
</event>
<event>
 7    1  0.2983653E-010  0.4778727E+02  0.7816164E-02  0.1312668E+00
        -11   -1    0    0    0    0  0.00000000000E+00  0.00000000000E+00  0.45593999997E+02  0.45594000000E+02  0.51100000000E-03 0.  1.
         11   -1    0    0    0    0 -0.00000000000E+00 -0.00000000000E+00 -0.45593999997E+02  0.45594000000E+02  0.51100000000E-03 0. -1.
    9900012    2    1    2    0    0  0.34889693598E+02  0.11976258144E+00  0.25813138764E+02  0.47787271950E+02  0.20000004128E+02 0.  0.
        -12    1    1    2    0    0 -0.34889693598E+02 -0.11976258144E+00 -0.25813138764E+02  0.43400728050E+02  0.00000000000E+00 0.  1.
         11    1    3    3    0    0  0.16894439419E+02  0.35681423648E+00  0.52528884031E+01  0.17695825398E+02  0.51100000000E-03 0. -1.
        -11    1    3    3    0    0  0.96255177630E+01 -0.59577419946E+00  0.19359266189E+02  0.21628377811E+02  0.51100000000E-03 0.  1.
        -12    1    3    3    0    0  0.83697364153E+01  0.35872254441E+00  0.12009841729E+01  0.84630687406E+01  0.00000000000E+00 0.  1.
</event>
<event>
 7    1  0.2983653E-010  0.4778729E+02  0.7816164E-02  0.1312668E+00
        -11   -1    0    0    0    0  0.00000000000E+00  0.00000000000E+00  0.45593999997E+02  0.45594000000E+02  0.51100000000E-03 0.  1.
         11   -1    0    0    0    0 -0.00000000000E+00 -0.00000000000E+00 -0.45593999997E+02  0.45594000000E+02  0.51100000000E-03 0. -1.
    9900012    2    1    2    0    0 -0.12762043551E+02  0.23600343513E+02 -0.34114149978E+02  0.47787294956E+02  0.20000109024E+02 0.  0.
        -12    1    1    2    0    0  0.12762043551E+02 -0.23600343513E+02  0.34114149978E+02  0.43400705044E+02  0.00000000000E+00 0.  1.
         11    1    3    3    0    0 -0.13351276779E+02  0.11913781339E+02 -0.95296299758E+01  0.20273347656E+02  0.51100000000E-03 0. -1.
        -11    1    3    3    0    0  0.35684106428E+00  0.26656321087E+01 -0.10069951164E+02  0.10422900114E+02  0.51100000000E-03 0.  1.
         12    1    3    3    0    0  0.23239216383E+00  0.90209300656E+01 -0.14514568839E+02  0.17091047187E+02  0.00000000000E+00 0. -1.
</event>
<event>
 7    1  0.2983653E-010  0.4778727E+02  0.7816164E-02  0.1312668E+00
        -11   -1    0    0    0    0  0.00000000000E+00  0.00000000000E+00  0.45593999997E+02  0.45594000000E+02  0.51100000000E-03 0. -1.
         11   -1    0    0    0    0 -0.00000000000E+00 -0.00000000000E+00 -0.45593999997E+02  0.45594000000E+02  0.51100000000E-03 0.  1.
    9900012    2    1    2    0    0  0.37323378513E+02 -0.19808839060E+02  0.99095369842E+01  0.47787267151E+02  0.19999982250E+02 0.  0.
        -12    1    1    2    0    0 -0.37323378513E+02  0.19808839060E+02 -0.99095369842E+01  0.43400732849E+02  0.00000000000E+00 0.  1.
         11    1    3    3    0    0  0.26319437436E+02 -0.77818387455E+01  0.26889068704E+01  0.27577164858E+02  0.51100000000E-03 0. -1.
        -11    1    3    3    0    0  0.21550568970E+01 -0.71973255627E+01 -0.47402667538E+00  0.75279789476E+01  0.51100000000E-03 0.  1.
        -12    1    3    3    0    0  0.88488841803E+01 -0.48296747518E+01  0.76946567892E+01  0.12682123345E+02  0.00000000000E+00 0.  1.
</event>
<event>
 7    1  0.2983653E-010  0.4778727E+02  0.7816164E-02  0.1312668E+00
        -11   -1    0    0    0    0  0.00000000000E+00  0.00000000000E+00  0.45593999997E+02  0.45594000000E+02  0.51100000000E-03 0.  1.
         11   -1    0    0    0    0 -0.00000000000E+00 -0.00000000000E+00 -0.45593999997E+02  0.45594000000E+02  0.51100000000E-03 0. -1.
    9900012    2    1    2    0    0 -0.38484280591E+02 -0.35805815980E+01 -0.19742410043E+02  0.47787272224E+02  0.20000005380E+02 0.  0.
        -12    1    1    2    0    0  0.38484280591E+02  0.35805815980E+01  0.19742410043E+02  0.43400727776E+02  0.00000000000E+00 0.  1.
         11    1    3    3    0    0 -0.16136938461E+02 -0.15363603750E+01 -0.39095253746E+01  0.16674698649E+02  0.51100000000E-03 0. -1.
        -11    1    3    3    0    0 -0.49368612089E+01 -0.27490960337E+00 -0.12303767686E+02  0.13260123431E+02  0.51100000000E-03 0.  1.
        -12    1    3    3    0    0 -0.17410480920E+02 -0.17693116196E+01 -0.35291169822E+01  0.17852450144E+02  0.00000000000E+00 0.  1.
</event>
<event>
 7    1  0.2983653E-010  0.4778726E+02  0.7816164E-02  0.1312668E+00
        -11   -1    0    0    0    0  0.00000000000E+00  0.00000000000E+00  0.45593999997E+02  0.45594000000E+02  0.51100000000E-03 0.  1.
         11   -1    0    0    0    0 -0.00000000000E+00 -0.00000000000E+00 -0.45593999997E+02  0.45594000000E+02  0.51100000000E-03 0. -1.
    9900012    2    1    2    0    0  0.36578843318E+02 -0.12753030526E+02 -0.19569679582E+02  0.47787263543E+02  0.19999965799E+02 0.  0.
        -12    1    1    2    0    0 -0.36578843318E+02  0.12753030526E+02  0.19569679582E+02  0.43400736457E+02  0.00000000000E+00 0.  1.
         11    1    3    3    0    0  0.22818896499E+02 -0.20741091821E+01 -0.15953655953E+02  0.27919940990E+02  0.51100000000E-03 0. -1.
        -11    1    3    3    0    0 -0.84179417649E+00 -0.21255174281E+01 -0.16744999512E+01  0.28337946503E+01  0.51100000000E-03 0.  1.
         12    1    3    3    0    0  0.14601740995E+02 -0.85534039160E+01 -0.19415236770E+01  0.17033527903E+02  0.00000000000E+00 0. -1.
</event>
<event>
 7    1  0.2983653E-010  0.4778727E+02  0.7816164E-02  0.1312668E+00
        -11   -1    0    0    0    0  0.00000000000E+00  0.00000000000E+00  0.45593999997E+02  0.45594000000E+02  0.51100000000E-03 0.  1.
         11   -1    0    0    0    0 -0.00000000000E+00 -0.00000000000E+00 -0.45593999997E+02  0.45594000000E+02  0.51100000000E-03 0. -1.
    9900012    2    1    2    0    0  0.25027450547E+02 -0.20384444930E+02 -0.29012491388E+02  0.47787268064E+02  0.19999986412E+02 0.  0.
        -12    1    1    2    0    0 -0.25027450547E+02  0.20384444930E+02  0.29012491388E+02  0.43400731936E+02  0.00000000000E+00 0.  1.
         11    1    3    3    0    0  0.15983449221E+02 -0.14452154851E+02 -0.10654661890E+02  0.24038661550E+02  0.51100000000E-03 0. -1.
        -11    1    3    3    0    0  0.77958801809E+01  0.84779862137E+00 -0.12211266774E+02  0.14512392869E+02  0.51100000000E-03 0.  1.
        -12    1    3    3    0    0  0.12481211448E+01 -0.67800887009E+01 -0.61465627242E+01  0.92362136456E+01  0.00000000000E+00 0.  1.
</event>
<event>
 7    1  0.2983653E-010  0.4778731E+02  0.7816164E-02  0.1312668E+00
        -11   -1    0    0    0    0  0.00000000000E+00  0.00000000000E+00  0.45593999997E+02  0.45594000000E+02  0.51100000000E-03 0. -1.
         11   -1    0    0    0    0 -0.00000000000E+00 -0.00000000000E+00 -0.45593999997E+02  0.45594000000E+02  0.51100000000E-03 0.  1.
    9900012    2    1    2    0    0 -0.87968031480E+01 -0.36956777655E+02 -0.20986497272E+02  0.47787306135E+02  0.20000159990E+02 0.  0.
        -12    1    1    2    0    0  0.87968031480E+01  0.36956777655E+02  0.20986497272E+02  0.43400693865E+02  0.00000000000E+00 0.  1.
         11    1    3    3    0    0 -0.12289503587E+02 -0.18947481603E+02 -0.15479993611E+02  0.27380086924E+02  0.51100000000E-03 0. -1.
        -11    1    3    3    0    0  0.19031764840E+01 -0.15243324424E+02 -0.70040268677E+01  0.16883051052E+02  0.51100000000E-03 0.  1.
         12    1    3    3    0    0  0.15895239554E+01 -0.27659716282E+01  0.14975232067E+01  0.35241681582E+01  0.00000000000E+00 0. -1.
</event>
<event>
 7    1  0.2983653E-010  0.4778727E+02  0.7816164E-02  0.1312668E+00
        -11   -1    0    0    0    0  0.00000000000E+00  0.00000000000E+00  0.45593999997E+02  0.45594000000E+02  0.51100000000E-03 0. -1.
         11   -1    0    0    0    0 -0.00000000000E+00 -0.00000000000E+00 -0.45593999997E+02  0.45594000000E+02  0.51100000000E-03 0.  1.
    9900012    2    1    2    0    0 -0.38301263511E+02 -0.58792710980E+01  0.19546623035E+02  0.47787273194E+02  0.20000009802E+02 0.  0.
        -12    1    1    2    0    0  0.38301263511E+02  0.58792710980E+01 -0.19546623035E+02  0.43400726806E+02  0.00000000000E+00 0.  1.
         11    1    3    3    0    0 -0.25578232967E+02 -0.72415106339E+01  0.75305890629E+01  0.27629608211E+02  0.51100000000E-03 0. -1.
        -11    1    3    3    0    0 -0.77022647822E+01  0.56372594114E+01  0.78444744586E+01  0.12354730116E+02  0.51100000000E-03 0.  1.
        -12    1    3    3    0    0 -0.50207657619E+01 -0.42750198755E+01  0.41715595131E+01  0.78029348673E+01  0.00000000000E+00 0.  1.
</event>
<event>
 7    1  0.2983653E-010  0.4778727E+02  0.7816164E-02  0.1312668E+00
        -11   -1    0    0    0    0  0.00000000000E+00  0.00000000000E+00  0.45593999997E+02  0.45594000000E+02  0.51100000000E-03 0.  1.
         11   -1    0    0    0    0 -0.00000000000E+00 -0.00000000000E+00 -0.45593999997E+02  0.45594000000E+02  0.51100000000E-03 0. -1.
    9900012    2    1    2    0    0 -0.96109028265E+01  0.22398563899E+02  0.35910424892E+02  0.47787265745E+02  0.19999975840E+02 0.  0.
        -12    1    1    2    0    0  0.96109028265E+01 -0.22398563899E+02 -0.35910424892E+02  0.43400734255E+02  0.00000000000E+00 0.  1.
         11    1    3    3    0    0 -0.94339886238E+01  0.23684392263E+02  0.25069800862E+02  0.35755356155E+02  0.51100000000E-03 0. -1.
        -11    1    3    3    0    0 -0.22441183526E+01 -0.18120120177E+01  0.78120986190E+01  0.83275650599E+01  0.51100000000E-03 0.  1.
         12    1    3    3    0    0  0.20672041499E+01  0.52618365308E+00  0.30285254114E+01  0.37043445306E+01  0.00000000000E+00 0. -1.
</event>
<event>
 7    1  0.2983653E-010  0.4778727E+02  0.7816164E-02  0.1312668E+00
        -11   -1    0    0    0    0  0.00000000000E+00  0.00000000000E+00  0.45593999997E+02  0.45594000000E+02  0.51100000000E-03 0.  1.
         11   -1    0    0    0    0 -0.00000000000E+00 -0.00000000000E+00 -0.45593999997E+02  0.45594000000E+02  0.51100000000E-03 0. -1.
    9900012    2    1    2    0    0  0.40692521428E+02  0.84870574660E+01 -0.12478460225E+02  0.47787269428E+02  0.19999992629E+02 0.  0.
        -12    1    1    2    0    0 -0.40692521428E+02 -0.84870574660E+01  0.12478460225E+02  0.43400730572E+02  0.00000000000E+00 0.  1.
         11    1    3    3    0    0  0.37984919221E+02  0.12090443450E+02 -0.12811777589E+02  0.41870927340E+02  0.51100000000E-03 0. -1.
        -11    1    3    3    0    0  0.24604898611E+01 -0.37962883839E+01 -0.92674864152E+00  0.46178652163E+01  0.51100000000E-03 0.  1.
        -12    1    3    3    0    0  0.24711234588E+00  0.19290240024E+00  0.12600660054E+01  0.12984768714E+01  0.00000000000E+00 0.  1.
</event>
<event>
 7    1  0.2983653E-010  0.4778727E+02  0.7816164E-02  0.1312668E+00
        -11   -1    0    0    0    0  0.00000000000E+00  0.00000000000E+00  0.45593999997E+02  0.45594000000E+02  0.51100000000E-03 0.  1.
         11   -1    0    0    0    0 -0.00000000000E+00 -0.00000000000E+00 -0.45593999997E+02  0.45594000000E+02  0.51100000000E-03 0. -1.
    9900012    2    1    2    0    0 -0.31648875038E+02  0.28751556114E+02 -0.74377742139E+01  0.47787265496E+02  0.19999974704E+02 0.  0.
        -12    1    1    2    0    0  0.31648875038E+02 -0.28751556114E+02  0.74377742139E+01  0.43400734504E+02  0.00000000000E+00 0.  1.
         11    1    3    3    0    0 -0.80207707575E+01  0.13935173339E+02 -0.10977715032E+01  0.16116045485E+02  0.51100000000E-03 0. -1.
        -11    1    3    3    0    0 -0.18245993569E+02  0.11532686117E+02 -0.10614730684E+02  0.24053931865E+02  0.51100000000E-03 0.  1.
        -12    1    3    3    0    0 -0.53821107116E+01  0.32836966578E+01  0.42747279737E+01  0.76172881461E+01  0.00000000000E+00 0.  1.
</event>
<event>
 7    1  0.2983653E-010  0.4778727E+02  0.7816164E-02  0.1312668E+00
        -11   -1    0    0    0    0  0.00000000000E+00  0.00000000000E+00  0.45593999997E+02  0.45594000000E+02  0.51100000000E-03 0. -1.
         11   -1    0    0    0    0 -0.00000000000E+00 -0.00000000000E+00 -0.45593999997E+02  0.45594000000E+02  0.51100000000E-03 0.  1.
    9900012    2    1    2    0    0 -0.21258224602E+01 -0.40514173762E+02  0.15417715969E+02  0.47787270024E+02  0.19999995346E+02 0.  0.
        -12    1    1    2    0    0  0.21258224602E+01  0.40514173762E+02 -0.15417715969E+02  0.43400729976E+02  0.00000000000E+00 0.  1.
         11    1    3    3    0    0 -0.13994162715E+01 -0.16514680053E+02  0.40146801442E+01  0.17053172141E+02  0.51100000000E-03 0. -1.
        -11    1    3    3    0    0  0.64762494011E+01 -0.13148563878E+02  0.22809996877E+01  0.14833391325E+02  0.51100000000E-03 0.  1.
        -12    1    3    3    0    0 -0.72026555898E+01 -0.10850929831E+02  0.91220361369E+01  0.15900706557E+02  0.00000000000E+00 0.  1.
</event>
<event>
 7    1  0.2983653E-010  0.4778727E+02  0.7816164E-02  0.1312668E+00
        -11   -1    0    0    0    0  0.00000000000E+00  0.00000000000E+00  0.45593999997E+02  0.45594000000E+02  0.51100000000E-03 0.  1.
         11   -1    0    0    0    0 -0.00000000000E+00 -0.00000000000E+00 -0.45593999997E+02  0.45594000000E+02  0.51100000000E-03 0. -1.
    9900012    2    1    2    0    0  0.17125991894E+02  0.14158969459E+01 -0.39853717025E+02  0.47787272780E+02  0.20000007912E+02 0.  0.
        -12    1    1    2    0    0 -0.17125991894E+02 -0.14158969459E+01  0.39853717025E+02  0.43400727220E+02  0.00000000000E+00 0.  1.
         11    1    3    3    0    0  0.15785935211E+02 -0.32867227796E+01 -0.22270815650E+02  0.27495227352E+02  0.51100000000E-03 0. -1.
        -11    1    3    3    0    0 -0.32522578932E+01  0.43234871641E+01 -0.79834439429E+01  0.96439151859E+01  0.51100000000E-03 0.  1.
        -12    1    3    3    0    0  0.45923145758E+01  0.37913256140E+00 -0.95994574321E+01  0.10648130242E+02  0.00000000000E+00 0.  1.
</event>
<event>
 7    1  0.2983653E-010  0.4778727E+02  0.7816164E-02  0.1312668E+00
        -11   -1    0    0    0    0  0.00000000000E+00  0.00000000000E+00  0.45593999997E+02  0.45594000000E+02  0.51100000000E-03 0. -1.
         11   -1    0    0    0    0 -0.00000000000E+00 -0.00000000000E+00 -0.45593999997E+02  0.45594000000E+02  0.51100000000E-03 0.  1.
    9900012    2    1    2    0    0  0.38973720327E+02 -0.18489740894E+02 -0.47751338516E+01  0.47787270769E+02  0.19999998745E+02 0.  0.
        -12    1    1    2    0    0 -0.38973720327E+02  0.18489740894E+02  0.47751338516E+01  0.43400729231E+02  0.00000000000E+00 0.  1.
         11    1    3    3    0    0  0.21912148027E+01  0.28029799637E+01 -0.20896343720E+01  0.41260987698E+01  0.51100000000E-03 0. -1.
        -11    1    3    3    0    0  0.13915963138E+02 -0.61126891620E+01  0.33377992841E+01  0.15561487820E+02  0.51100000000E-03 0.  1.
         12    1    3    3    0    0  0.22866542387E+02 -0.15180031695E+02 -0.60232987637E+01  0.28099684180E+02  0.00000000000E+00 0. -1.
</event>
<event>
 7    1  0.2983653E-010  0.4778728E+02  0.7816164E-02  0.1312668E+00
        -11   -1    0    0    0    0  0.00000000000E+00  0.00000000000E+00  0.45593999997E+02  0.45594000000E+02  0.51100000000E-03 0. -1.
         11   -1    0    0    0    0 -0.00000000000E+00 -0.00000000000E+00 -0.45593999997E+02  0.45594000000E+02  0.51100000000E-03 0.  1.
    9900012    2    1    2    0    0 -0.41536238341E+02  0.62191015917E+01  0.10940136168E+02  0.47787275358E+02  0.20000019665E+02 0.  0.
        -12    1    1    2    0    0  0.41536238341E+02 -0.62191015917E+01 -0.10940136168E+02  0.43400724642E+02  0.00000000000E+00 0.  1.
         11    1    3    3    0    0 -0.13578721296E+01  0.58763142851E+01  0.26262149036E+01  0.65781373715E+01  0.51100000000E-03 0. -1.
        -11    1    3    3    0    0 -0.14207136421E+02 -0.10214881241E+01  0.14885778263E+01  0.14321383574E+02  0.51100000000E-03 0.  1.
         12    1    3    3    0    0 -0.25971229790E+02  0.13642754308E+01  0.68253434385E+01  0.26887754412E+02  0.00000000000E+00 0. -1.
</event>
<event>
 7    1  0.2983653E-010  0.4778727E+02  0.7816164E-02  0.1312668E+00
        -11   -1    0    0    0    0  0.00000000000E+00  0.00000000000E+00  0.45593999997E+02  0.45594000000E+02  0.51100000000E-03 0.  1.
         11   -1    0    0    0    0 -0.00000000000E+00 -0.00000000000E+00 -0.45593999997E+02  0.45594000000E+02  0.51100000000E-03 0. -1.
    9900012    2    1    2    0    0  0.40684048726E+02  0.18172081875E+01 -0.15004317369E+02  0.47787267218E+02  0.19999982553E+02 0.  0.
        -12    1    1    2    0    0 -0.40684048726E+02 -0.18172081875E+01  0.15004317369E+02  0.43400732782E+02  0.00000000000E+00 0.  1.
         11    1    3    3    0    0  0.14799374230E+02 -0.80751051134E+01 -0.30781157543E+01  0.17137782734E+02  0.51100000000E-03 0. -1.
        -11    1    3    3    0    0  0.16804765538E+02  0.39304165022E+01 -0.86450232766E+01  0.19302454414E+02  0.51100000000E-03 0.  1.
         12    1    3    3    0    0  0.90799089579E+01  0.59618967987E+01 -0.32811783381E+01  0.11347030070E+02  0.00000000000E+00 0. -1.
</event>
<event>
 7    1  0.2983653E-010  0.4778727E+02  0.7816164E-02  0.1312668E+00
        -11   -1    0    0    0    0  0.00000000000E+00  0.00000000000E+00  0.45593999997E+02  0.45594000000E+02  0.51100000000E-03 0.  1.
         11   -1    0    0    0    0 -0.00000000000E+00 -0.00000000000E+00 -0.45593999997E+02  0.45594000000E+02  0.51100000000E-03 0. -1.
    9900012    2    1    2    0    0 -0.22110967427E+02 -0.76868119690E+01 -0.36546430336E+02  0.47787268104E+02  0.19999986594E+02 0.  0.
        -12    1    1    2    0    0  0.22110967427E+02  0.76868119690E+01  0.36546430336E+02  0.43400731896E+02  0.00000000000E+00 0.  1.
         11    1    3    3    0    0 -0.77538701887E+01  0.29705614574E+01 -0.20521840561E+02  0.22138036917E+02  0.51100000000E-03 0. -1.
        -11    1    3    3    0    0 -0.96280683292E+01 -0.20582903337E+01 -0.10472320625E+02  0.14373787197E+02  0.51100000000E-03 0.  1.
         12    1    3    3    0    0 -0.47290289091E+01 -0.85990830926E+01 -0.55522691498E+01  0.11275443990E+02  0.00000000000E+00 0. -1.
</event>
<event>
 7    1  0.2983653E-010  0.4778727E+02  0.7816164E-02  0.1312668E+00
        -11   -1    0    0    0    0  0.00000000000E+00  0.00000000000E+00  0.45593999997E+02  0.45594000000E+02  0.51100000000E-03 0.  1.
         11   -1    0    0    0    0 -0.00000000000E+00 -0.00000000000E+00 -0.45593999997E+02  0.45594000000E+02  0.51100000000E-03 0. -1.
    9900012    2    1    2    0    0 -0.23960441214E+02 -0.74004195091E+01 -0.35422518616E+02  0.47787265246E+02  0.19999973564E+02 0.  0.
        -12    1    1    2    0    0  0.23960441214E+02  0.74004195091E+01  0.35422518616E+02  0.43400734754E+02  0.00000000000E+00 0.  1.
         11    1    3    3    0    0 -0.60305218461E+01 -0.28988063483E+01 -0.45607206602E+01  0.80975579765E+01  0.51100000000E-03 0. -1.
        -11    1    3    3    0    0 -0.19343468153E+02 -0.50410854671E+01 -0.32045298384E+02  0.37768815862E+02  0.51100000000E-03 0.  1.
        -12    1    3    3    0    0  0.14135487851E+01  0.53947230629E+00  0.11835004281E+01  0.19208914078E+01  0.00000000000E+00 0.  1.
</event>
<event>
 7    1  0.2983653E-010  0.4778727E+02  0.7816164E-02  0.1312668E+00
        -11   -1    0    0    0    0  0.00000000000E+00  0.00000000000E+00  0.45593999997E+02  0.45594000000E+02  0.51100000000E-03 0.  1.
         11   -1    0    0    0    0 -0.00000000000E+00 -0.00000000000E+00 -0.45593999997E+02  0.45594000000E+02  0.51100000000E-03 0. -1.
    9900012    2    1    2    0    0  0.38758082075E+02  0.19449161448E+02  0.17789866140E+01  0.47787267282E+02  0.19999982844E+02 0.  0.
        -12    1    1    2    0    0 -0.38758082075E+02 -0.19449161448E+02 -0.17789866140E+01  0.43400732718E+02  0.00000000000E+00 0.  1.
         11    1    3    3    0    0  0.28143451349E+02  0.12582678228E+02 -0.43055021908E+00  0.30831202036E+02  0.51100000000E-03 0. -1.
        -11    1    3    3    0    0  0.36057596497E+01  0.75617624969E+01  0.45509892980E+01  0.95337956011E+01  0.51100000000E-03 0.  1.
         12    1    3    3    0    0  0.70088710758E+01 -0.69527927753E+00 -0.23414524649E+01  0.74222696446E+01  0.00000000000E+00 0. -1.
</event>
<event>
 7    1  0.2983653E-010  0.4778727E+02  0.7816164E-02  0.1312668E+00
        -11   -1    0    0    0    0  0.00000000000E+00  0.00000000000E+00  0.45593999997E+02  0.45594000000E+02  0.51100000000E-03 0. -1.
         11   -1    0    0    0    0 -0.00000000000E+00 -0.00000000000E+00 -0.45593999997E+02  0.45594000000E+02  0.51100000000E-03 0.  1.
    9900012    2    1    2    0    0  0.23919732337E+02 -0.19560464305E+02  0.30477167840E+02  0.47787272835E+02  0.20000008164E+02 0.  0.
        -12    1    1    2    0    0 -0.23919732337E+02  0.19560464305E+02 -0.30477167840E+02  0.43400727165E+02  0.00000000000E+00 0.  1.
         11    1    3    3    0    0  0.13572923731E+02 -0.12303365466E+02  0.22708028924E+02  0.29176216997E+02  0.51100000000E-03 0. -1.
        -11    1    3    3    0    0 -0.17315997530E+01  0.81717190876E-01 -0.97765601131E+00  0.19902077634E+01  0.51100000000E-03 0.  1.
        -12    1    3    3    0    0  0.12078408359E+02 -0.73388160294E+01  0.87467949275E+01  0.16620848074E+02  0.00000000000E+00 0.  1.
</event>
<event>
 7    1  0.2983653E-010  0.4778727E+02  0.7816164E-02  0.1312668E+00
        -11   -1    0    0    0    0  0.00000000000E+00  0.00000000000E+00  0.45593999997E+02  0.45594000000E+02  0.51100000000E-03 0. -1.
         11   -1    0    0    0    0 -0.00000000000E+00 -0.00000000000E+00 -0.45593999997E+02  0.45594000000E+02  0.51100000000E-03 0.  1.
    9900012    2    1    2    0    0  0.39843189524E+02 -0.13636739309E+02  0.10496795535E+02  0.47787272737E+02  0.20000007719E+02 0.  0.
        -12    1    1    2    0    0 -0.39843189524E+02  0.13636739309E+02 -0.10496795535E+02  0.43400727263E+02  0.00000000000E+00 0.  1.
         11    1    3    3    0    0  0.10418540977E+02  0.21331468699E+01  0.62868714246E+01  0.12353989810E+02  0.51100000000E-03 0. -1.
        -11    1    3    3    0    0  0.29716824452E+02 -0.13859881196E+02  0.25553514042E+01  0.32889447902E+02  0.51100000000E-03 0.  1.
        -12    1    3    3    0    0 -0.29217590481E+00 -0.19100049830E+01  0.16545727057E+01  0.25438350248E+01  0.00000000000E+00 0.  1.
</event>
<event>
 7    1  0.2983653E-010  0.4778727E+02  0.7816164E-02  0.1312668E+00
        -11   -1    0    0    0    0  0.00000000000E+00  0.00000000000E+00  0.45593999997E+02  0.45594000000E+02  0.51100000000E-03 0.  1.
         11   -1    0    0    0    0 -0.00000000000E+00 -0.00000000000E+00 -0.45593999997E+02  0.45594000000E+02  0.51100000000E-03 0. -1.
    9900012    2    1    2    0    0  0.21246875160E+01 -0.42287566951E+02  0.95326181830E+01  0.47787269302E+02  0.19999992057E+02 0.  0.
        -12    1    1    2    0    0 -0.21246875160E+01  0.42287566951E+02 -0.95326181830E+01  0.43400730698E+02  0.00000000000E+00 0.  1.
         11    1    3    3    0    0  0.41213459618E+01 -0.97296108418E+01 -0.51049796514E+01  0.11735060169E+02  0.51100000000E-03 0. -1.
        -11    1    3    3    0    0 -0.24464473557E+01 -0.76342918708E+01  0.33703898732E+01  0.86963811549E+01  0.51100000000E-03 0.  1.
         12    1    3    3    0    0  0.44978890999E+00 -0.24923664238E+02  0.11267207961E+02  0.27355827978E+02  0.00000000000E+00 0. -1.
</event>
<event>
 7    1  0.2983653E-010  0.4778725E+02  0.7816164E-02  0.1312668E+00
        -11   -1    0    0    0    0  0.00000000000E+00  0.00000000000E+00  0.45593999997E+02  0.45594000000E+02  0.51100000000E-03 0.  1.
         11   -1    0    0    0    0 -0.00000000000E+00 -0.00000000000E+00 -0.45593999997E+02  0.45594000000E+02  0.51100000000E-03 0. -1.
    9900012    2    1    2    0    0  0.24398391039E+02  0.15158492269E+02 -0.32535572686E+02  0.47787252735E+02  0.19999916519E+02 0.  0.
        -12    1    1    2    0    0 -0.24398391039E+02 -0.15158492269E+02  0.32535572686E+02  0.43400747265E+02  0.00000000000E+00 0.  1.
         11    1    3    3    0    0 -0.34614147859E+00 -0.27673735732E+01 -0.46613903279E+01  0.54320098000E+01  0.51100000000E-03 0. -1.
        -11    1    3    3    0    0  0.19220229147E+01  0.33566225624E+01 -0.58365642987E+00  0.39117441379E+01  0.51100000000E-03 0.  1.
         12    1    3    3    0    0  0.22822509603E+02  0.14569243279E+02 -0.27290525929E+02  0.38443498797E+02  0.00000000000E+00 0. -1.
</event>
<event>
 7    1  0.2983653E-010  0.4778727E+02  0.7816164E-02  0.1312668E+00
        -11   -1    0    0    0    0  0.00000000000E+00  0.00000000000E+00  0.45593999997E+02  0.45594000000E+02  0.51100000000E-03 0.  1.
         11   -1    0    0    0    0 -0.00000000000E+00 -0.00000000000E+00 -0.45593999997E+02  0.45594000000E+02  0.51100000000E-03 0. -1.
    9900012    2    1    2    0    0 -0.30937181265E+02 -0.15804410252E+02  0.26014130622E+02  0.47787267747E+02  0.19999984968E+02 0.  0.
        -12    1    1    2    0    0  0.30937181265E+02  0.15804410252E+02 -0.26014130622E+02  0.43400732253E+02  0.00000000000E+00 0.  1.
         11    1    3    3    0    0 -0.11693151606E+02 -0.58220799515E+01  0.14143914941E+02  0.19252967033E+02  0.51100000000E-03 0. -1.
        -11    1    3    3    0    0 -0.55208421097E+01 -0.68089233224E+01 -0.17521111457E+01  0.89392968481E+01  0.51100000000E-03 0.  1.
        -12    1    3    3    0    0 -0.13723187549E+02 -0.31734069782E+01  0.13622326826E+02  0.19595003866E+02  0.00000000000E+00 0.  1.
</event>
<event>
 7    1  0.2983653E-010  0.4778727E+02  0.7816164E-02  0.1312668E+00
        -11   -1    0    0    0    0  0.00000000000E+00  0.00000000000E+00  0.45593999997E+02  0.45594000000E+02  0.51100000000E-03 0.  1.
         11   -1    0    0    0    0 -0.00000000000E+00 -0.00000000000E+00 -0.45593999997E+02  0.45594000000E+02  0.51100000000E-03 0. -1.
    9900012    2    1    2    0    0  0.30170917694E+02 -0.30523519871E+02 -0.64539710055E+01  0.47787270956E+02  0.19999999598E+02 0.  0.
        -12    1    1    2    0    0 -0.30170917694E+02  0.30523519871E+02  0.64539710055E+01  0.43400729044E+02  0.00000000000E+00 0.  1.
         11    1    3    3    0    0 -0.13598611067E+00 -0.45409916519E+01 -0.48543615518E+01  0.66486031422E+01  0.51100000000E-03 0. -1.
        -11    1    3    3    0    0  0.16274370415E+02 -0.20064801762E+02 -0.95311201589E-01  0.25835256659E+02  0.51100000000E-03 0.  1.
         12    1    3    3    0    0  0.14032533390E+02 -0.59177264565E+01 -0.15042982521E+01  0.15303411155E+02  0.00000000000E+00 0. -1.
</event>
<event>
 7    1  0.2983653E-010  0.4778727E+02  0.7816164E-02  0.1312668E+00
        -11   -1    0    0    0    0  0.00000000000E+00  0.00000000000E+00  0.45593999997E+02  0.45594000000E+02  0.51100000000E-03 0.  1.
         11   -1    0    0    0    0 -0.00000000000E+00 -0.00000000000E+00 -0.45593999997E+02  0.45594000000E+02  0.51100000000E-03 0. -1.
    9900012    2    1    2    0    0  0.78238399069E+01 -0.64361445003E+01 -0.42201740731E+02  0.47787270194E+02  0.19999996124E+02 0.  0.
        -12    1    1    2    0    0 -0.78238399069E+01  0.64361445003E+01  0.42201740731E+02  0.43400729806E+02  0.00000000000E+00 0.  1.
         11    1    3    3    0    0  0.40990171992E+00 -0.94229094873E+01 -0.11747289248E+02  0.15065126868E+02  0.51100000000E-03 0.  1.
        -11    1    3    3    0    0  0.68661554095E+01  0.25735512576E+01 -0.30993803780E+02  0.31849381928E+02  0.51100000000E-03 0. -1.
         12    1    3    3    0    0  0.54778277751E+00  0.41321372942E+00  0.53935229680E+00  0.87276139785E+00  0.00000000000E+00 0. -1.
</event>
<event>
 7    1  0.2983653E-010  0.4778727E+02  0.7816164E-02  0.1312668E+00
        -11   -1    0    0    0    0  0.00000000000E+00  0.00000000000E+00  0.45593999997E+02  0.45594000000E+02  0.51100000000E-03 0. -1.
         11   -1    0    0    0    0 -0.00000000000E+00 -0.00000000000E+00 -0.45593999997E+02  0.45594000000E+02  0.51100000000E-03 0.  1.
    9900012    2    1    2    0    0  0.26306789201E+02 -0.34063518163E+02 -0.55904177060E+01  0.47787271920E+02  0.20000003993E+02 0.  0.
        -12    1    1    2    0    0 -0.26306789201E+02  0.34063518163E+02  0.55904177060E+01  0.43400728080E+02  0.00000000000E+00 0.  1.
         11    1    3    3    0    0  0.16737724032E+01  0.95795159306E+00 -0.21255611316E+01  0.28700515148E+01  0.51100000000E-03 0. -1.
        -11    1    3    3    0    0  0.17056122855E+02 -0.30520118553E+02 -0.65669670775E+01  0.35574063869E+02  0.51100000000E-03 0.  1.
        -12    1    3    3    0    0  0.75768939431E+01 -0.45013512036E+01  0.31021105031E+01  0.93431565360E+01  0.00000000000E+00 0.  1.
</event>
<event>
 7    1  0.2983653E-010  0.4778727E+02  0.7816164E-02  0.1312668E+00
        -11   -1    0    0    0    0  0.00000000000E+00  0.00000000000E+00  0.45593999997E+02  0.45594000000E+02  0.51100000000E-03 0.  1.
         11   -1    0    0    0    0 -0.00000000000E+00 -0.00000000000E+00 -0.45593999997E+02  0.45594000000E+02  0.51100000000E-03 0. -1.
    9900012    2    1    2    0    0 -0.11047038281E+02  0.36334575231E+02  0.21009164729E+02  0.47787269423E+02  0.19999992609E+02 0.  0.
        -12    1    1    2    0    0  0.11047038281E+02 -0.36334575231E+02 -0.21009164729E+02  0.43400730577E+02  0.00000000000E+00 0.  1.
         11    1    3    3    0    0 -0.97988356365E+01  0.23578182095E+02  0.67770702670E+01  0.26417352865E+02  0.51100000000E-03 0. -1.
        -11    1    3    3    0    0 -0.43074228003E+01  0.24351304894E+01  0.62328992181E+01  0.79581897819E+01  0.51100000000E-03 0.  1.
         12    1    3    3    0    0  0.30592201556E+01  0.10321262646E+02  0.79991952440E+01  0.13411726776E+02  0.00000000000E+00 0. -1.
</event>
<event>
 7    1  0.2983653E-010  0.4778727E+02  0.7816164E-02  0.1312668E+00
        -11   -1    0    0    0    0  0.00000000000E+00  0.00000000000E+00  0.45593999997E+02  0.45594000000E+02  0.51100000000E-03 0.  1.
         11   -1    0    0    0    0 -0.00000000000E+00 -0.00000000000E+00 -0.45593999997E+02  0.45594000000E+02  0.51100000000E-03 0. -1.
    9900012    2    1    2    0    0 -0.29282761261E+02  0.30787875572E+02  0.88459242487E+01  0.47787265385E+02  0.19999974196E+02 0.  0.
        -12    1    1    2    0    0  0.29282761261E+02 -0.30787875572E+02 -0.88459242487E+01  0.43400734615E+02  0.00000000000E+00 0.  1.
         11    1    3    3    0    0 -0.58294605156E+01  0.15387161946E+01 -0.13629147879E+01  0.61812453770E+01  0.51100000000E-03 0. -1.
        -11    1    3    3    0    0 -0.19181946944E+01  0.52091048986E+01  0.73412913638E+01  0.92037385817E+01  0.51100000000E-03 0.  1.
        -12    1    3    3    0    0 -0.21535106051E+02  0.24040054479E+02  0.28675476727E+01  0.32402281426E+02  0.00000000000E+00 0.  1.
</event>
<event>
 7    1  0.2983653E-010  0.4778725E+02  0.7816164E-02  0.1312668E+00
        -11   -1    0    0    0    0  0.00000000000E+00  0.00000000000E+00  0.45593999997E+02  0.45594000000E+02  0.51100000000E-03 0.  1.
         11   -1    0    0    0    0 -0.00000000000E+00 -0.00000000000E+00 -0.45593999997E+02  0.45594000000E+02  0.51100000000E-03 0. -1.
    9900012    2    1    2    0    0  0.39842633517E+02 -0.78006065433E+00 -0.17192464283E+02  0.47787253828E+02  0.19999921502E+02 0.  0.
        -12    1    1    2    0    0 -0.39842633517E+02  0.78006065433E+00  0.17192464283E+02  0.43400746172E+02  0.00000000000E+00 0.  1.
         11    1    3    3    0    0  0.25678652682E-01  0.21747869456E+00  0.17542807826E+01  0.17678964056E+01  0.51100000000E-03 0. -1.
        -11    1    3    3    0    0 -0.90856199527E+00 -0.18118438357E+00  0.29134230199E+00  0.97118138272E+00  0.51100000000E-03 0.  1.
         12    1    3    3    0    0  0.40725516860E+02 -0.81635496532E+00 -0.19238087367E+02  0.45048176039E+02  0.00000000000E+00 0. -1.
</event>
<event>
 7    1  0.2983653E-010  0.4778727E+02  0.7816164E-02  0.1312668E+00
        -11   -1    0    0    0    0  0.00000000000E+00  0.00000000000E+00  0.45593999997E+02  0.45594000000E+02  0.51100000000E-03 0.  1.
         11   -1    0    0    0    0 -0.00000000000E+00 -0.00000000000E+00 -0.45593999997E+02  0.45594000000E+02  0.51100000000E-03 0. -1.
    9900012    2    1    2    0    0  0.36313960469E+01 -0.20168516848E+02 -0.38257909507E+02  0.47787265571E+02  0.19999975045E+02 0.  0.
        -12    1    1    2    0    0 -0.36313960469E+01  0.20168516848E+02  0.38257909507E+02  0.43400734429E+02  0.00000000000E+00 0.  1.
         11    1    3    3    0    0 -0.39107976497E+01 -0.95572566212E+01 -0.15008766362E+02  0.18218083334E+02  0.51100000000E-03 0. -1.
        -11    1    3    3    0    0  0.87307233553E+01 -0.12708286666E+02 -0.21969964374E+02  0.26840369132E+02  0.51100000000E-03 0.  1.
        -12    1    3    3    0    0 -0.11885296586E+01  0.20970264391E+01 -0.12791787712E+01  0.27288131054E+01  0.00000000000E+00 0.  1.
</event>
<event>
 7    1  0.2983653E-010  0.4778727E+02  0.7816164E-02  0.1312668E+00
        -11   -1    0    0    0    0  0.00000000000E+00  0.00000000000E+00  0.45593999997E+02  0.45594000000E+02  0.51100000000E-03 0.  1.
         11   -1    0    0    0    0 -0.00000000000E+00 -0.00000000000E+00 -0.45593999997E+02  0.45594000000E+02  0.51100000000E-03 0. -1.
    9900012    2    1    2    0    0 -0.36823006466E+01 -0.28539776837E+01 -0.43149955299E+02  0.47787272253E+02  0.20000005511E+02 0.  0.
        -12    1    1    2    0    0  0.36823006466E+01  0.28539776837E+01  0.43149955299E+02  0.43400727747E+02  0.00000000000E+00 0.  1.
         11    1    3    3    0    0 -0.26128777312E+01  0.26561325366E+01 -0.44888398222E+01  0.58336826534E+01  0.51100000000E-03 0. -1.
        -11    1    3    3    0    0 -0.11018537066E+01 -0.78728011274E+01 -0.38781244569E+02  0.39587624453E+02  0.51100000000E-03 0.  1.
        -12    1    3    3    0    0  0.32430791149E-01  0.23626909070E+01  0.12012909276E+00  0.23659651471E+01  0.00000000000E+00 0.  1.
</event>
<event>
 7    1  0.2983653E-010  0.4778727E+02  0.7816164E-02  0.1312668E+00
        -11   -1    0    0    0    0  0.00000000000E+00  0.00000000000E+00  0.45593999997E+02  0.45594000000E+02  0.51100000000E-03 0. -1.
         11   -1    0    0    0    0 -0.00000000000E+00 -0.00000000000E+00 -0.45593999997E+02  0.45594000000E+02  0.51100000000E-03 0.  1.
    9900012    2    1    2    0    0 -0.16233694730E+02  0.38849898901E+02  0.10525009694E+02  0.47787270533E+02  0.19999997666E+02 0.  0.
        -12    1    1    2    0    0  0.16233694730E+02 -0.38849898901E+02 -0.10525009694E+02  0.43400729467E+02  0.00000000000E+00 0.  1.
         11    1    3    3    0    0 -0.50355169008E+01  0.20744675103E+02  0.14509099098E+02  0.25811081583E+02  0.51100000000E-03 0. -1.
        -11    1    3    3    0    0 -0.17642508822E+00  0.21135109306E+01  0.12398985721E+00  0.21244829986E+01  0.51100000000E-03 0.  1.
         12    1    3    3    0    0 -0.11021752741E+02  0.15991712868E+02 -0.41080792619E+01  0.19851705951E+02  0.00000000000E+00 0. -1.
</event>
<event>
 7    1  0.2983653E-010  0.4778727E+02  0.7816164E-02  0.1312668E+00
        -11   -1    0    0    0    0  0.00000000000E+00  0.00000000000E+00  0.45593999997E+02  0.45594000000E+02  0.51100000000E-03 0.  1.
         11   -1    0    0    0    0 -0.00000000000E+00 -0.00000000000E+00 -0.45593999997E+02  0.45594000000E+02  0.51100000000E-03 0. -1.
    9900012    2    1    2    0    0 -0.15079589557E+02 -0.33325674261E+02 -0.23358698715E+02  0.47787269685E+02  0.19999993803E+02 0.  0.
        -12    1    1    2    0    0  0.15079589557E+02  0.33325674261E+02  0.23358698715E+02  0.43400730315E+02  0.00000000000E+00 0.  1.
         11    1    3    3    0    0 -0.99290119566E+01 -0.12809003663E+02 -0.18314308906E+02  0.24455464916E+02  0.51100000000E-03 0. -1.
        -11    1    3    3    0    0  0.45249465272E-02 -0.27595747934E+01  0.21427977336E+01  0.34938311212E+01  0.51100000000E-03 0.  1.
         12    1    3    3    0    0 -0.51551025468E+01 -0.17757095805E+02 -0.71871875428E+01  0.19837973648E+02  0.00000000000E+00 0. -1.
</event>
<event>
 7    1  0.2983653E-010  0.4778727E+02  0.7816164E-02  0.1312668E+00
        -11   -1    0    0    0    0  0.00000000000E+00  0.00000000000E+00  0.45593999997E+02  0.45594000000E+02  0.51100000000E-03 0.  1.
         11   -1    0    0    0    0 -0.00000000000E+00 -0.00000000000E+00 -0.45593999997E+02  0.45594000000E+02  0.51100000000E-03 0. -1.
    9900012    2    1    2    0    0  0.74534507054E+01  0.40043148635E+02  0.14987173332E+02  0.47787273687E+02  0.20000012047E+02 0.  0.
        -12    1    1    2    0    0 -0.74534507054E+01 -0.40043148635E+02 -0.14987173332E+02  0.43400726313E+02  0.00000000000E+00 0.  1.
         11    1    3    3    0    0  0.20713667402E+01  0.75833406266E+01  0.56101861082E+00  0.78811393450E+01  0.51100000000E-03 0. -1.
        -11    1    3    3    0    0 -0.10430007812E+01  0.26366347976E+02  0.47881930662E+01  0.26817884877E+02  0.51100000000E-03 0.  1.
        -12    1    3    3    0    0  0.64250847464E+01  0.60934600330E+01  0.96379616552E+01  0.13088249464E+02  0.00000000000E+00 0.  1.
</event>
<event>
 7    1  0.2983653E-010  0.4778727E+02  0.7816164E-02  0.1312668E+00
        -11   -1    0    0    0    0  0.00000000000E+00  0.00000000000E+00  0.45593999997E+02  0.45594000000E+02  0.51100000000E-03 0.  1.
         11   -1    0    0    0    0 -0.00000000000E+00 -0.00000000000E+00 -0.45593999997E+02  0.45594000000E+02  0.51100000000E-03 0. -1.
    9900012    2    1    2    0    0 -0.85400561363E+00 -0.80325159573E+01 -0.42642379277E+02  0.47787272488E+02  0.20000006581E+02 0.  0.
        -12    1    1    2    0    0  0.85400561363E+00  0.80325159573E+01  0.42642379277E+02  0.43400727512E+02  0.00000000000E+00 0.  1.
         11    1    3    3    0    0  0.81179115165E+01 -0.26098664047E+01 -0.28390073660E+02  0.29643012208E+02  0.51100000000E-03 0. -1.
        -11    1    3    3    0    0 -0.49305333833E+01 -0.47098396769E+01 -0.10844673283E+02  0.12810140050E+02  0.51100000000E-03 0.  1.
         12    1    3    3    0    0 -0.40413837468E+01 -0.71280987565E+00 -0.34076323332E+01  0.53341202298E+01  0.00000000000E+00 0. -1.
</event>
<event>
 7    1  0.2983653E-010  0.4778728E+02  0.7816164E-02  0.1312668E+00
        -11   -1    0    0    0    0  0.00000000000E+00  0.00000000000E+00  0.45593999997E+02  0.45594000000E+02  0.51100000000E-03 0.  1.
         11   -1    0    0    0    0 -0.00000000000E+00 -0.00000000000E+00 -0.45593999997E+02  0.45594000000E+02  0.51100000000E-03 0. -1.
    9900012    2    1    2    0    0  0.41994872006E+02 -0.10613040063E+02  0.27234232658E+01  0.47787275024E+02  0.20000018144E+02 0.  0.
        -12    1    1    2    0    0 -0.41994872006E+02  0.10613040063E+02 -0.27234232658E+01  0.43400724976E+02  0.00000000000E+00 0.  1.
         11    1    3    3    0    0  0.22005302154E+02 -0.35940471909E+01 -0.44058637638E+01  0.22728003297E+02  0.51100000000E-03 0. -1.
        -11    1    3    3    0    0  0.98247731941E+01 -0.72623242658E+00  0.85185870546E+01  0.13023820773E+02  0.51100000000E-03 0.  1.
        -12    1    3    3    0    0  0.10164796658E+02 -0.62927604453E+01 -0.13893000249E+01  0.12035450955E+02  0.00000000000E+00 0.  1.
</event>
<event>
 7    1  0.2983653E-010  0.4778726E+02  0.7816164E-02  0.1312668E+00
        -11   -1    0    0    0    0  0.00000000000E+00  0.00000000000E+00  0.45593999997E+02  0.45594000000E+02  0.51100000000E-03 0.  1.
         11   -1    0    0    0    0 -0.00000000000E+00 -0.00000000000E+00 -0.45593999997E+02  0.45594000000E+02  0.51100000000E-03 0. -1.
    9900012    2    1    2    0    0 -0.36175710402E+02  0.23296278863E+02 -0.56767672529E+01  0.47787259011E+02  0.19999945135E+02 0.  0.
        -12    1    1    2    0    0  0.36175710402E+02 -0.23296278863E+02  0.56767672529E+01  0.43400740989E+02  0.00000000000E+00 0.  1.
         11    1    3    3    0    0 -0.28801252001E+02  0.17971093048E+02  0.64222679357E+00  0.33954156707E+02  0.51100000000E-03 0. -1.
        -11    1    3    3    0    0 -0.79323215481E+00  0.36398676132E+01 -0.59619630064E+01  0.70301391625E+01  0.51100000000E-03 0.  1.
         12    1    3    3    0    0 -0.65812262457E+01  0.16853182018E+01 -0.35703104001E+00  0.68029631413E+01  0.00000000000E+00 0. -1.
</event>
<event>
 7    1  0.2983653E-010  0.4778727E+02  0.7816164E-02  0.1312668E+00
        -11   -1    0    0    0    0  0.00000000000E+00  0.00000000000E+00  0.45593999997E+02  0.45594000000E+02  0.51100000000E-03 0. -1.
         11   -1    0    0    0    0 -0.00000000000E+00 -0.00000000000E+00 -0.45593999997E+02  0.45594000000E+02  0.51100000000E-03 0.  1.
    9900012    2    1    2    0    0 -0.41597855501E+02  0.63204517566E+01  0.10643943019E+02  0.47787271715E+02  0.20000003057E+02 0.  0.
        -12    1    1    2    0    0  0.41597855501E+02 -0.63204517566E+01 -0.10643943019E+02  0.43400728285E+02  0.00000000000E+00 0.  1.
         11    1    3    3    0    0 -0.17989591842E+02  0.11275222784E+02  0.77855694969E+01  0.22613517111E+02  0.51100000000E-03 0. -1.
        -11    1    3    3    0    0 -0.91906630475E+00  0.21772744526E+00  0.16129345941E+01  0.18691298454E+01  0.51100000000E-03 0.  1.
         12    1    3    3    0    0 -0.22689197354E+02 -0.51724984726E+01  0.12454389275E+01  0.23304624759E+02  0.00000000000E+00 0. -1.
</event>
<event>
 7    1  0.2983653E-010  0.4778726E+02  0.7816164E-02  0.1312668E+00
        -11   -1    0    0    0    0  0.00000000000E+00  0.00000000000E+00  0.45593999997E+02  0.45594000000E+02  0.51100000000E-03 0.  1.
         11   -1    0    0    0    0 -0.00000000000E+00 -0.00000000000E+00 -0.45593999997E+02  0.45594000000E+02  0.51100000000E-03 0. -1.
    9900012    2    1    2    0    0  0.39354042116E+02  0.67428850973E+01 -0.17012254018E+02  0.47787263634E+02  0.19999966214E+02 0.  0.
        -12    1    1    2    0    0 -0.39354042116E+02 -0.67428850973E+01  0.17012254018E+02  0.43400736366E+02  0.00000000000E+00 0.  1.
         11    1    3    3    0    0  0.12786534587E+02  0.10289539057E+02 -0.88997810786E+01  0.18670195079E+02  0.51100000000E-03 0. -1.
        -11    1    3    3    0    0  0.75502077095E+01  0.13169546458E+01  0.50197801757E+00  0.76806242056E+01  0.51100000000E-03 0.  1.
         12    1    3    3    0    0  0.19017299819E+02 -0.48636086057E+01 -0.86144509567E+01  0.21436444350E+02  0.00000000000E+00 0. -1.
</event>
<event>
 7    1  0.2983653E-010  0.4778727E+02  0.7816164E-02  0.1312668E+00
        -11   -1    0    0    0    0  0.00000000000E+00  0.00000000000E+00  0.45593999997E+02  0.45594000000E+02  0.51100000000E-03 0.  1.
         11   -1    0    0    0    0 -0.00000000000E+00 -0.00000000000E+00 -0.45593999997E+02  0.45594000000E+02  0.51100000000E-03 0. -1.
    9900012    2    1    2    0    0 -0.17762316419E+02 -0.49352102987E+01 -0.39290801736E+02  0.47787270901E+02  0.19999999348E+02 0.  0.
        -12    1    1    2    0    0  0.17762316419E+02  0.49352102987E+01  0.39290801736E+02  0.43400729099E+02  0.00000000000E+00 0.  1.
         11    1    3    3    0    0 -0.67785158380E+01 -0.18293859551E+01 -0.16433021150E+01  0.72107816525E+01  0.51100000000E-03 0. -1.
        -11    1    3    3    0    0 -0.11590654864E+02 -0.41220160266E+01 -0.37394682805E+02  0.39366185981E+02  0.51100000000E-03 0.  1.
        -12    1    3    3    0    0  0.60685428375E+00  0.10161916830E+01 -0.25281681543E+00  0.12103032680E+01  0.00000000000E+00 0.  1.
</event>
<event>
 7    1  0.2983653E-010  0.4778727E+02  0.7816164E-02  0.1312668E+00
        -11   -1    0    0    0    0  0.00000000000E+00  0.00000000000E+00  0.45593999997E+02  0.45594000000E+02  0.51100000000E-03 0.  1.
         11   -1    0    0    0    0 -0.00000000000E+00 -0.00000000000E+00 -0.45593999997E+02  0.45594000000E+02  0.51100000000E-03 0. -1.
    9900012    2    1    2    0    0 -0.29820580936E+02  0.31164591103E+02 -0.48087787871E+01  0.47787272593E+02  0.20000007061E+02 0.  0.
        -12    1    1    2    0    0  0.29820580936E+02 -0.31164591103E+02  0.48087787871E+01  0.43400727407E+02  0.00000000000E+00 0.  1.
         11    1    3    3    0    0 -0.74780045092E+01  0.19824609106E+02 -0.16102622534E+01  0.21249202866E+02  0.51100000000E-03 0. -1.
        -11    1    3    3    0    0 -0.21436858140E+02  0.83151622486E+01 -0.17365923746E+01  0.23058546431E+02  0.51100000000E-03 0.  1.
         12    1    3    3    0    0 -0.90571828690E+00  0.30248197482E+01 -0.14619241590E+01  0.34795232965E+01  0.00000000000E+00 0. -1.
</event>
<event>
 7    1  0.2983653E-010  0.4778727E+02  0.7816164E-02  0.1312668E+00
        -11   -1    0    0    0    0  0.00000000000E+00  0.00000000000E+00  0.45593999997E+02  0.45594000000E+02  0.51100000000E-03 0.  1.
         11   -1    0    0    0    0 -0.00000000000E+00 -0.00000000000E+00 -0.45593999997E+02  0.45594000000E+02  0.51100000000E-03 0. -1.
    9900012    2    1    2    0    0 -0.24493591994E+02 -0.23606931953E+02 -0.26951811494E+02  0.47787269271E+02  0.19999991916E+02 0.  0.
        -12    1    1    2    0    0  0.24493591994E+02  0.23606931953E+02  0.26951811494E+02  0.43400730729E+02  0.00000000000E+00 0.  1.
         11    1    3    3    0    0 -0.12532527272E+02 -0.65405850125E+01 -0.19057968877E+02  0.23728667686E+02  0.51100000000E-03 0. -1.
        -11    1    3    3    0    0 -0.15564312092E+01  0.58924851169E+00  0.73931953221E+00  0.18210671457E+01  0.51100000000E-03 0.  1.
         12    1    3    3    0    0 -0.10404633512E+02 -0.17655595452E+02 -0.86331621489E+01  0.22237534440E+02  0.00000000000E+00 0. -1.
</event>
<event>
 7    1  0.2983653E-010  0.4778731E+02  0.7816164E-02  0.1312668E+00
        -11   -1    0    0    0    0  0.00000000000E+00  0.00000000000E+00  0.45593999997E+02  0.45594000000E+02  0.51100000000E-03 0.  1.
         11   -1    0    0    0    0 -0.00000000000E+00 -0.00000000000E+00 -0.45593999997E+02  0.45594000000E+02  0.51100000000E-03 0. -1.
    9900012    2    1    2    0    0  0.13355869164E+02 -0.33550266001E+02 -0.24075304396E+02  0.47787310241E+02  0.20000178710E+02 0.  0.
        -12    1    1    2    0    0 -0.13355869164E+02  0.33550266001E+02  0.24075304396E+02  0.43400689759E+02  0.00000000000E+00 0.  1.
         11    1    3    3    0    0  0.29348906901E+01 -0.10394643651E+02 -0.47604750696E+01  0.11803572474E+02  0.51100000000E-03 0. -1.
        -11    1    3    3    0    0  0.86569805366E+01 -0.16688653558E+02 -0.39366606911E+01  0.19208117223E+02  0.51100000000E-03 0.  1.
        -12    1    3    3    0    0  0.17639979376E+01 -0.64669687921E+01 -0.15378168635E+02  0.16775620544E+02  0.00000000000E+00 0.  1.
</event>
<event>
 7    1  0.2983653E-010  0.4778726E+02  0.7816164E-02  0.1312668E+00
        -11   -1    0    0    0    0  0.00000000000E+00  0.00000000000E+00  0.45593999997E+02  0.45594000000E+02  0.51100000000E-03 0. -1.
         11   -1    0    0    0    0 -0.00000000000E+00 -0.00000000000E+00 -0.45593999997E+02  0.45594000000E+02  0.51100000000E-03 0.  1.
    9900012    2    1    2    0    0  0.17894405313E+02  0.28181247424E+02  0.27735020880E+02  0.47787264625E+02  0.19999970733E+02 0.  0.
        -12    1    1    2    0    0 -0.17894405313E+02 -0.28181247424E+02 -0.27735020880E+02  0.43400735375E+02  0.00000000000E+00 0.  1.
         11    1    3    3    0    0  0.17262797615E+02  0.24587025414E+02  0.23013249888E+02  0.37843568422E+02  0.51100000000E-03 0. -1.
        -11    1    3    3    0    0 -0.32413008667E+01  0.35082307435E+01  0.18528290828E+01  0.51231523625E+01  0.51100000000E-03 0.  1.
         12    1    3    3    0    0  0.38729085646E+01  0.85991265743E-01  0.28689419089E+01  0.48205438411E+01  0.00000000000E+00 0. -1.
</event>
<event>
 7    1  0.2983653E-010  0.4778727E+02  0.7816164E-02  0.1312668E+00
        -11   -1    0    0    0    0  0.00000000000E+00  0.00000000000E+00  0.45593999997E+02  0.45594000000E+02  0.51100000000E-03 0.  1.
         11   -1    0    0    0    0 -0.00000000000E+00 -0.00000000000E+00 -0.45593999997E+02  0.45594000000E+02  0.51100000000E-03 0. -1.
    9900012    2    1    2    0    0  0.27227939592E+02 -0.33792630658E+02  0.56617078257E+00  0.47787272695E+02  0.20000007527E+02 0.  0.
        -12    1    1    2    0    0 -0.27227939592E+02  0.33792630658E+02 -0.56617078257E+00  0.43400727305E+02  0.00000000000E+00 0.  1.
         11    1    3    3    0    0  0.19067012167E+02 -0.18455506958E+02  0.92492016473E+01  0.28101680046E+02  0.51100000000E-03 0.  1.
        -11    1    3    3    0    0  0.56969412666E+01 -0.11362334886E+02 -0.47298698380E+01  0.13562059681E+02  0.51100000000E-03 0. -1.
        -12    1    3    3    0    0  0.24639861591E+01 -0.39747888137E+01 -0.39531610267E+01  0.61235329679E+01  0.00000000000E+00 0.  1.
</event>
<event>
 7    1  0.2983653E-010  0.4778727E+02  0.7816164E-02  0.1312668E+00
        -11   -1    0    0    0    0  0.00000000000E+00  0.00000000000E+00  0.45593999997E+02  0.45594000000E+02  0.51100000000E-03 0.  1.
         11   -1    0    0    0    0 -0.00000000000E+00 -0.00000000000E+00 -0.45593999997E+02  0.45594000000E+02  0.51100000000E-03 0. -1.
    9900012    2    1    2    0    0  0.10558116628E+02 -0.22326247834E+02 -0.35688767340E+02  0.47787270935E+02  0.19999999502E+02 0.  0.
        -12    1    1    2    0    0 -0.10558116628E+02  0.22326247834E+02  0.35688767340E+02  0.43400729065E+02  0.00000000000E+00 0.  1.
         11    1    3    3    0    0  0.82526897046E+01 -0.75464340204E+01 -0.24103305994E+02  0.26571129330E+02  0.51100000000E-03 0. -1.
        -11    1    3    3    0    0  0.12559483297E+01 -0.17146471281E+01  0.15724263417E+01  0.26438505710E+01  0.51100000000E-03 0.  1.
         12    1    3    3    0    0  0.10494785937E+01 -0.13065166686E+02 -0.13157887688E+02  0.18572291034E+02  0.00000000000E+00 0. -1.
</event>
<event>
 7    1  0.2983653E-010  0.4778728E+02  0.7816164E-02  0.1312668E+00
        -11   -1    0    0    0    0  0.00000000000E+00  0.00000000000E+00  0.45593999997E+02  0.45594000000E+02  0.51100000000E-03 0. -1.
         11   -1    0    0    0    0 -0.00000000000E+00 -0.00000000000E+00 -0.45593999997E+02  0.45594000000E+02  0.51100000000E-03 0.  1.
    9900012    2    1    2    0    0  0.21966583862E+02  0.13829672967E+02  0.34782642761E+02  0.47787275370E+02  0.20000019723E+02 0.  0.
        -12    1    1    2    0    0 -0.21966583862E+02 -0.13829672967E+02 -0.34782642761E+02  0.43400724630E+02  0.00000000000E+00 0.  1.
         11    1    3    3    0    0  0.15418741861E+02  0.28231411884E+01  0.94121781004E+01  0.18283785812E+02  0.51100000000E-03 0. -1.
        -11    1    3    3    0    0 -0.18580562790E+01  0.22278587098E+01  0.46071138079E+01  0.54443755810E+01  0.51100000000E-03 0.  1.
         12    1    3    3    0    0  0.84058982795E+01  0.87786730691E+01  0.20763350853E+02  0.24059113977E+02  0.00000000000E+00 0. -1.
</event>
<event>
 7    1  0.2983653E-010  0.4778727E+02  0.7816164E-02  0.1312668E+00
        -11   -1    0    0    0    0  0.00000000000E+00  0.00000000000E+00  0.45593999997E+02  0.45594000000E+02  0.51100000000E-03 0. -1.
         11   -1    0    0    0    0 -0.00000000000E+00 -0.00000000000E+00 -0.45593999997E+02  0.45594000000E+02  0.51100000000E-03 0.  1.
    9900012    2    1    2    0    0 -0.40926329836E+02  0.14242515798E+02 -0.24103036663E+01  0.47787270814E+02  0.19999998950E+02 0.  0.
        -12    1    1    2    0    0  0.40926329836E+02 -0.14242515798E+02  0.24103036663E+01  0.43400729186E+02  0.00000000000E+00 0.  1.
         11    1    3    3    0    0 -0.12423842580E+02  0.58076701061E+01 -0.81785292174E+01  0.15967756164E+02  0.51100000000E-03 0. -1.
        -11    1    3    3    0    0 -0.89783468146E+01  0.70585319795E+01  0.21717105069E-01  0.11420773053E+02  0.51100000000E-03 0.  1.
         12    1    3    3    0    0 -0.19524140442E+02  0.13763137127E+01  0.57465084460E+01  0.20398741597E+02  0.00000000000E+00 0. -1.
</event>
<event>
 7    1  0.2983653E-010  0.4778727E+02  0.7816164E-02  0.1312668E+00
        -11   -1    0    0    0    0  0.00000000000E+00  0.00000000000E+00  0.45593999997E+02  0.45594000000E+02  0.51100000000E-03 0.  1.
         11   -1    0    0    0    0 -0.00000000000E+00 -0.00000000000E+00 -0.45593999997E+02  0.45594000000E+02  0.51100000000E-03 0. -1.
    9900012    2    1    2    0    0  0.23660267863E+02 -0.18711087601E+02 -0.31204337393E+02  0.47787265597E+02  0.19999975164E+02 0.  0.
        -12    1    1    2    0    0 -0.23660267863E+02  0.18711087601E+02  0.31204337393E+02  0.43400734403E+02  0.00000000000E+00 0.  1.
         11    1    3    3    0    0  0.18488936175E+01 -0.24987388821E+01 -0.50951351993E+01  0.59684593129E+01  0.51100000000E-03 0. -1.
        -11    1    3    3    0    0  0.11644020683E+02 -0.18259934564E+02 -0.13614934819E+02  0.25580752106E+02  0.51100000000E-03 0.  1.
        -12    1    3    3    0    0  0.10167353562E+02  0.20475858444E+01 -0.12494267375E+02  0.16238054178E+02  0.00000000000E+00 0.  1.
</event>
<event>
 7    1  0.3588457E-010  0.4778727E+02  0.7816164E-02  0.1312668E+00
        -11   -1    0    0    0    0  0.00000000000E+00  0.00000000000E+00  0.45593999997E+02  0.45594000000E+02  0.51100000000E-03 0.  1.
         11   -1    0    0    0    0 -0.00000000000E+00 -0.00000000000E+00 -0.45593999997E+02  0.45594000000E+02  0.51100000000E-03 0. -1.
    9900012    2    1    2    0    0 -0.35611243270E+02 -0.23668908645E+02 -0.74327088143E+01  0.47787273693E+02  0.20000012075E+02 0.  0.
        -12    1    1    2    0    0  0.35611243270E+02  0.23668908645E+02  0.74327088143E+01  0.43400726307E+02  0.00000000000E+00 0.  1.
         11    1    3    3    0    0 -0.96747480750E+01 -0.62930919119E+01 -0.25523119083E+01  0.11820239104E+02  0.51100000000E-03 0. -1.
        -11    1    3    3    0    0 -0.20949592611E+02 -0.10197670670E+02 -0.10520540758E+02  0.25564813627E+02  0.51100000000E-03 0.  1.
        -12    1    3    3    0    0 -0.49869025840E+01 -0.71781460630E+01  0.56401438521E+01  0.10402220963E+02  0.00000000000E+00 0.  1.
</event>
<event>
 7    1  0.2983653E-010  0.4778727E+02  0.7816164E-02  0.1312668E+00
        -11   -1    0    0    0    0  0.00000000000E+00  0.00000000000E+00  0.45593999997E+02  0.45594000000E+02  0.51100000000E-03 0. -1.
         11   -1    0    0    0    0 -0.00000000000E+00 -0.00000000000E+00 -0.45593999997E+02  0.45594000000E+02  0.51100000000E-03 0.  1.
    9900012    2    1    2    0    0 -0.19898386330E+02  0.31129739794E+02 -0.22773170505E+02  0.47787265294E+02  0.19999973783E+02 0.  0.
        -12    1    1    2    0    0  0.19898386330E+02 -0.31129739794E+02  0.22773170505E+02  0.43400734706E+02  0.00000000000E+00 0.  1.
         11    1    3    3    0    0 -0.27847822551E+01  0.17383048885E+01 -0.20906418672E+01  0.38919789018E+01  0.51100000000E-03 0. -1.
        -11    1    3    3    0    0 -0.64562023115E+01  0.97202371070E+00 -0.95450374384E+01  0.11564390098E+02  0.51100000000E-03 0.  1.
        -12    1    3    3    0    0 -0.10657401764E+02  0.28419411194E+02 -0.11137491199E+02  0.32330896294E+02  0.00000000000E+00 0.  1.
</event>
<event>
 7    1  0.2983653E-010  0.4778727E+02  0.7816164E-02  0.1312668E+00
        -11   -1    0    0    0    0  0.00000000000E+00  0.00000000000E+00  0.45593999997E+02  0.45594000000E+02  0.51100000000E-03 0.  1.
         11   -1    0    0    0    0 -0.00000000000E+00 -0.00000000000E+00 -0.45593999997E+02  0.45594000000E+02  0.51100000000E-03 0. -1.
    9900012    2    1    2    0    0 -0.27740940545E+02  0.33143568141E+02  0.39455120990E+01  0.47787274693E+02  0.20000016636E+02 0.  0.
        -12    1    1    2    0    0  0.27740940545E+02 -0.33143568141E+02 -0.39455120990E+01  0.43400725307E+02  0.00000000000E+00 0.  1.
         11    1    3    3    0    0 -0.11827615894E+02  0.55252989958E+01  0.58192999869E+00  0.13067519639E+02  0.51100000000E-03 0.  1.
        -11    1    3    3    0    0 -0.19678212615E+01  0.11360558903E+02 -0.37911212540E+01  0.12137018568E+02  0.51100000000E-03 0. -1.
        -12    1    3    3    0    0 -0.13945503389E+02  0.16257710242E+02  0.71547033543E+01  0.22582736486E+02  0.00000000000E+00 0.  1.
</event>
<event>
 7    1  0.2983653E-010  0.4778727E+02  0.7816164E-02  0.1312668E+00
        -11   -1    0    0    0    0  0.00000000000E+00  0.00000000000E+00  0.45593999997E+02  0.45594000000E+02  0.51100000000E-03 0.  1.
         11   -1    0    0    0    0 -0.00000000000E+00 -0.00000000000E+00 -0.45593999997E+02  0.45594000000E+02  0.51100000000E-03 0. -1.
    9900012    2    1    2    0    0  0.82510690975E+01 -0.19472453982E+02 -0.37899428975E+02  0.47787270491E+02  0.19999997475E+02 0.  0.
        -12    1    1    2    0    0 -0.82510690975E+01  0.19472453982E+02  0.37899428975E+02  0.43400729509E+02  0.00000000000E+00 0.  1.
         11    1    3    3    0    0 -0.91228710224E+00 -0.13978595149E+02 -0.14763478023E+02  0.20351748665E+02  0.51100000000E-03 0. -1.
        -11    1    3    3    0    0  0.10431774405E+02 -0.66210623410E+01 -0.22408878089E+02  0.25589415805E+02  0.51100000000E-03 0.  1.
         12    1    3    3    0    0 -0.12684182054E+01  0.11272035085E+01 -0.72707286285E+00  0.18461060212E+01  0.00000000000E+00 0. -1.
</event>
<event>
 7    1  0.2983653E-010  0.4778728E+02  0.7816164E-02  0.1312668E+00
        -11   -1    0    0    0    0  0.00000000000E+00  0.00000000000E+00  0.45593999997E+02  0.45594000000E+02  0.51100000000E-03 0.  1.
         11   -1    0    0    0    0 -0.00000000000E+00 -0.00000000000E+00 -0.45593999997E+02  0.45594000000E+02  0.51100000000E-03 0. -1.
    9900012    2    1    2    0    0 -0.19738247022E+02  0.18185690804E+02  0.34107259810E+02  0.47787275153E+02  0.20000018732E+02 0.  0.
        -12    1    1    2    0    0  0.19738247022E+02 -0.18185690804E+02 -0.34107259810E+02  0.43400724847E+02  0.00000000000E+00 0.  1.
         11    1    3    3    0    0  0.20780853371E+01  0.80673538370E+01  0.85971557351E+01  0.11971287466E+02  0.51100000000E-03 0. -1.
        -11    1    3    3    0    0 -0.12105656156E+01 -0.10668966462E+01  0.10034912854E+01  0.19001927756E+01  0.51100000000E-03 0.  1.
         12    1    3    3    0    0 -0.20605766743E+02  0.11185233613E+02  0.24506612789E+02  0.33915794911E+02  0.00000000000E+00 0. -1.
</event>
<event>
 7    1  0.2983653E-010  0.4778727E+02  0.7816164E-02  0.1312668E+00
        -11   -1    0    0    0    0  0.00000000000E+00  0.00000000000E+00  0.45593999997E+02  0.45594000000E+02  0.51100000000E-03 0.  1.
         11   -1    0    0    0    0 -0.00000000000E+00 -0.00000000000E+00 -0.45593999997E+02  0.45594000000E+02  0.51100000000E-03 0. -1.
    9900012    2    1    2    0    0 -0.24902118135E+02 -0.11156609075E+02 -0.33749634125E+02  0.47787271697E+02  0.20000002975E+02 0.  0.
        -12    1    1    2    0    0  0.24902118135E+02  0.11156609075E+02  0.33749634125E+02  0.43400728303E+02  0.00000000000E+00 0.  1.
         11    1    3    3    0    0 -0.25492582194E+02 -0.11879414424E+02 -0.32897357381E+02  0.43280808181E+02  0.51100000000E-03 0. -1.
        -11    1    3    3    0    0  0.96056026647E+00  0.12982393383E+01 -0.23548717626E+01  0.28554373894E+01  0.51100000000E-03 0.  1.
         12    1    3    3    0    0 -0.37009620785E+00 -0.57543399002E+00  0.15025950185E+01  0.16510261262E+01  0.00000000000E+00 0. -1.
</event>
<event>
 7    1  0.2983653E-010  0.4778727E+02  0.7816164E-02  0.1312668E+00
        -11   -1    0    0    0    0  0.00000000000E+00  0.00000000000E+00  0.45593999997E+02  0.45594000000E+02  0.51100000000E-03 0.  1.
         11   -1    0    0    0    0 -0.00000000000E+00 -0.00000000000E+00 -0.45593999997E+02  0.45594000000E+02  0.51100000000E-03 0. -1.
    9900012    2    1    2    0    0 -0.15458169340E+02 -0.80292499106E+01 -0.39751723374E+02  0.47787269998E+02  0.19999995231E+02 0.  0.
        -12    1    1    2    0    0  0.15458169340E+02  0.80292499106E+01  0.39751723374E+02  0.43400730002E+02  0.00000000000E+00 0.  1.
         11    1    3    3    0    0 -0.34178719719E+01 -0.17253709318E+01 -0.20999543145E+02  0.21345715407E+02  0.51100000000E-03 0. -1.
        -11    1    3    3    0    0 -0.29266028568E+01 -0.75594546924E+01 -0.39596415178E+01  0.90215919182E+01  0.51100000000E-03 0.  1.
        -12    1    3    3    0    0 -0.91136945109E+01  0.12555757136E+01 -0.14792538711E+02  0.17419962673E+02  0.00000000000E+00 0.  1.
</event>
<event>
 7    1  0.2983653E-010  0.4778727E+02  0.7816164E-02  0.1312668E+00
        -11   -1    0    0    0    0  0.00000000000E+00  0.00000000000E+00  0.45593999997E+02  0.45594000000E+02  0.51100000000E-03 0.  1.
         11   -1    0    0    0    0 -0.00000000000E+00 -0.00000000000E+00 -0.45593999997E+02  0.45594000000E+02  0.51100000000E-03 0. -1.
    9900012    2    1    2    0    0  0.30646509204E+02 -0.12178604151E+02 -0.28215179102E+02  0.47787271236E+02  0.20000000875E+02 0.  0.
        -12    1    1    2    0    0 -0.30646509204E+02  0.12178604151E+02  0.28215179102E+02  0.43400728764E+02  0.00000000000E+00 0.  1.
         11    1    3    3    0    0  0.80483152524E+01 -0.70798126005E+01 -0.27971703696E+01  0.11078054306E+02  0.51100000000E-03 0. -1.
        -11    1    3    3    0    0  0.97021038516E+01 -0.64299402595E+01 -0.18904554199E+02  0.22200385596E+02  0.51100000000E-03 0.  1.
        -12    1    3    3    0    0  0.12896090100E+02  0.13311487093E+01 -0.65134545342E+01  0.14508831335E+02  0.00000000000E+00 0.  1.
</event>
<event>
 7    1  0.2983653E-010  0.4778727E+02  0.7816164E-02  0.1312668E+00
        -11   -1    0    0    0    0  0.00000000000E+00  0.00000000000E+00  0.45593999997E+02  0.45594000000E+02  0.51100000000E-03 0. -1.
         11   -1    0    0    0    0 -0.00000000000E+00 -0.00000000000E+00 -0.45593999997E+02  0.45594000000E+02  0.51100000000E-03 0.  1.
    9900012    2    1    2    0    0 -0.65419910528E+01 -0.33269300900E+02 -0.27092049956E+02  0.47787271894E+02  0.20000003875E+02 0.  0.
        -12    1    1    2    0    0  0.65419910528E+01  0.33269300900E+02  0.27092049956E+02  0.43400728106E+02  0.00000000000E+00 0.  1.
         11    1    3    3    0    0 -0.32923150981E+01 -0.34949286213E+01  0.16276075168E+01  0.50698097857E+01  0.51100000000E-03 0. -1.
        -11    1    3    3    0    0 -0.34199939979E+00 -0.13480435094E+02 -0.19685097329E+02  0.23860891665E+02  0.51100000000E-03 0.  1.
        -12    1    3    3    0    0 -0.29076765550E+01 -0.16293937184E+02 -0.90345601431E+01  0.18856570444E+02  0.00000000000E+00 0.  1.
</event>
<event>
 7    1  0.2983653E-010  0.4778727E+02  0.7816164E-02  0.1312668E+00
        -11   -1    0    0    0    0  0.00000000000E+00  0.00000000000E+00  0.45593999997E+02  0.45594000000E+02  0.51100000000E-03 0.  1.
         11   -1    0    0    0    0 -0.00000000000E+00 -0.00000000000E+00 -0.45593999997E+02  0.45594000000E+02  0.51100000000E-03 0. -1.
    9900012    2    1    2    0    0 -0.21415018285E+02 -0.37295550571E+02 -0.58362704162E+01  0.47787272438E+02  0.20000006353E+02 0.  0.
        -12    1    1    2    0    0  0.21415018285E+02  0.37295550571E+02  0.58362704162E+01  0.43400727562E+02  0.00000000000E+00 0.  1.
         11    1    3    3    0    0 -0.96104167662E+00 -0.35151511001E+01 -0.39753454428E+00  0.36657771803E+01  0.51100000000E-03 0. -1.
        -11    1    3    3    0    0 -0.72104356195E+01 -0.28488278317E+02 -0.52900729996E+01  0.29858956042E+02  0.51100000000E-03 0.  1.
        -12    1    3    3    0    0 -0.13243540989E+02 -0.52921211541E+01 -0.14866287224E+00  0.14262539216E+02  0.00000000000E+00 0.  1.
</event>
<event>
 7    1  0.2983653E-010  0.4778727E+02  0.7816164E-02  0.1312668E+00
        -11   -1    0    0    0    0  0.00000000000E+00  0.00000000000E+00  0.45593999997E+02  0.45594000000E+02  0.51100000000E-03 0.  1.
         11   -1    0    0    0    0 -0.00000000000E+00 -0.00000000000E+00 -0.45593999997E+02  0.45594000000E+02  0.51100000000E-03 0. -1.
    9900012    2    1    2    0    0 -0.19154728817E+02 -0.68402381205E+01 -0.38339681928E+02  0.47787266090E+02  0.19999977411E+02 0.  0.
        -12    1    1    2    0    0  0.19154728817E+02  0.68402381205E+01  0.38339681928E+02  0.43400733910E+02  0.00000000000E+00 0.  1.
         11    1    3    3    0    0 -0.68572977596E+01  0.68921793394E+00 -0.97003682624E+01  0.11899357067E+02  0.51100000000E-03 0. -1.
        -11    1    3    3    0    0 -0.13059943250E+02 -0.15664904756E+01 -0.26358564616E+02  0.29458274542E+02  0.51100000000E-03 0.  1.
        -12    1    3    3    0    0  0.76251219191E+00 -0.59629655789E+01 -0.22807490489E+01  0.64296344812E+01  0.00000000000E+00 0.  1.
</event>
<event>
 7    1  0.2983653E-010  0.4778727E+02  0.7816164E-02  0.1312668E+00
        -11   -1    0    0    0    0  0.00000000000E+00  0.00000000000E+00  0.45593999997E+02  0.45594000000E+02  0.51100000000E-03 0.  1.
         11   -1    0    0    0    0 -0.00000000000E+00 -0.00000000000E+00 -0.45593999997E+02  0.45594000000E+02  0.51100000000E-03 0. -1.
    9900012    2    1    2    0    0  0.13221293039E+02  0.41181175019E+02 -0.35960420949E+01  0.47787270924E+02  0.19999999452E+02 0.  0.
        -12    1    1    2    0    0 -0.13221293039E+02 -0.41181175019E+02  0.35960420949E+01  0.43400729076E+02  0.00000000000E+00 0.  1.
         11    1    3    3    0    0  0.27744241873E+01  0.31466399038E+02 -0.25906265769E+01  0.31694527041E+02  0.51100000000E-03 0. -1.
        -11    1    3    3    0    0  0.74721097365E+01  0.43972596231E+01 -0.37050109480E+01  0.94284369061E+01  0.51100000000E-03 0.  1.
        -12    1    3    3    0    0  0.29747591154E+01  0.53175163572E+01  0.26995954300E+01  0.66643069774E+01  0.00000000000E+00 0.  1.
</event>
<event>
 7    1  0.2983653E-010  0.4778727E+02  0.7816164E-02  0.1312668E+00
        -11   -1    0    0    0    0  0.00000000000E+00  0.00000000000E+00  0.45593999997E+02  0.45594000000E+02  0.51100000000E-03 0.  1.
         11   -1    0    0    0    0 -0.00000000000E+00 -0.00000000000E+00 -0.45593999997E+02  0.45594000000E+02  0.51100000000E-03 0. -1.
    9900012    2    1    2    0    0  0.51314146901E+01  0.21955248440E+02 -0.37084484842E+02  0.47787269974E+02  0.19999995121E+02 0.  0.
        -12    1    1    2    0    0 -0.51314146901E+01 -0.21955248440E+02  0.37084484842E+02  0.43400730026E+02  0.00000000000E+00 0.  1.
         11    1    3    3    0    0  0.17996111966E+00  0.15084101725E+02 -0.28325664086E+02  0.32092144787E+02  0.51100000000E-03 0. -1.
        -11    1    3    3    0    0  0.52734759070E+01 -0.22425160662E+00 -0.13850968252E+01  0.54569524829E+01  0.51100000000E-03 0.  1.
        -12    1    3    3    0    0 -0.32202233656E+00  0.70953983215E+01 -0.73737239311E+01  0.10238172705E+02  0.00000000000E+00 0.  1.
</event>
<event>
 7    1  0.2983653E-010  0.4778727E+02  0.7816164E-02  0.1312668E+00
        -11   -1    0    0    0    0  0.00000000000E+00  0.00000000000E+00  0.45593999997E+02  0.45594000000E+02  0.51100000000E-03 0.  1.
         11   -1    0    0    0    0 -0.00000000000E+00 -0.00000000000E+00 -0.45593999997E+02  0.45594000000E+02  0.51100000000E-03 0. -1.
    9900012    2    1    2    0    0 -0.38174718187E+02 -0.20635974951E+02 -0.68602324022E+00  0.47787271910E+02  0.20000003949E+02 0.  0.
        -12    1    1    2    0    0  0.38174718187E+02  0.20635974951E+02  0.68602324022E+00  0.43400728090E+02  0.00000000000E+00 0.  1.
         11    1    3    3    0    0 -0.84098135387E+01 -0.10721492186E+02 -0.57329283844E+01  0.14783160236E+02  0.51100000000E-03 0. -1.
        -11    1    3    3    0    0 -0.23396394603E+01  0.70770112159E+00 -0.15079298040E+01  0.28720386900E+01  0.51100000000E-03 0.  1.
         12    1    3    3    0    0 -0.27425265187E+02 -0.10622183887E+02  0.65548349482E+01  0.30132072984E+02  0.00000000000E+00 0. -1.
</event>
<event>
 7    1  0.2983653E-010  0.4778727E+02  0.7816164E-02  0.1312668E+00
        -11   -1    0    0    0    0  0.00000000000E+00  0.00000000000E+00  0.45593999997E+02  0.45594000000E+02  0.51100000000E-03 0.  1.
         11   -1    0    0    0    0 -0.00000000000E+00 -0.00000000000E+00 -0.45593999997E+02  0.45594000000E+02  0.51100000000E-03 0. -1.
    9900012    2    1    2    0    0 -0.21513399994E+02  0.27841090875E+02 -0.25410055111E+02  0.47787267043E+02  0.19999981757E+02 0.  0.
        -12    1    1    2    0    0  0.21513399994E+02 -0.27841090875E+02  0.25410055111E+02  0.43400732957E+02  0.00000000000E+00 0.  1.
         11    1    3    3    0    0 -0.47781718451E+01  0.13156341105E+02 -0.20024538635E+02  0.24431585812E+02  0.51100000000E-03 0. -1.
        -11    1    3    3    0    0 -0.85164013442E+01  0.62871864985E+01 -0.40499580438E+00  0.10593480438E+02  0.51100000000E-03 0.  1.
        -12    1    3    3    0    0 -0.82188268047E+01  0.83975632716E+01 -0.49805206715E+01  0.12762200794E+02  0.00000000000E+00 0.  1.
</event>
<event>
 7    1  0.2983653E-010  0.4778727E+02  0.7816164E-02  0.1312668E+00
        -11   -1    0    0    0    0  0.00000000000E+00  0.00000000000E+00  0.45593999997E+02  0.45594000000E+02  0.51100000000E-03 0. -1.
         11   -1    0    0    0    0 -0.00000000000E+00 -0.00000000000E+00 -0.45593999997E+02  0.45594000000E+02  0.51100000000E-03 0.  1.
    9900012    2    1    2    0    0 -0.29394754747E+02  0.30366678581E+02  0.98710016838E+01  0.47787269027E+02  0.19999990803E+02 0.  0.
        -12    1    1    2    0    0  0.29394754747E+02 -0.30366678581E+02 -0.98710016838E+01  0.43400730973E+02  0.00000000000E+00 0.  1.
         11    1    3    3    0    0 -0.24079586192E+02  0.19697317629E+02  0.13814388023E+02  0.34038920512E+02  0.51100000000E-03 0. -1.
        -11    1    3    3    0    0 -0.30982731951E+01  0.10329329399E+02 -0.24650373865E+01  0.11062131449E+02  0.51100000000E-03 0.  1.
         12    1    3    3    0    0 -0.22168953608E+01  0.34003155317E+00 -0.14783489526E+01  0.26862170656E+01  0.00000000000E+00 0. -1.
</event>
<event>
 7    1  0.2983653E-010  0.4778727E+02  0.7816164E-02  0.1312668E+00
        -11   -1    0    0    0    0  0.00000000000E+00  0.00000000000E+00  0.45593999997E+02  0.45594000000E+02  0.51100000000E-03 0. -1.
         11   -1    0    0    0    0 -0.00000000000E+00 -0.00000000000E+00 -0.45593999997E+02  0.45594000000E+02  0.51100000000E-03 0.  1.
    9900012    2    1    2    0    0  0.24050688332E+02 -0.34867061575E+02  0.94591589685E+01  0.47787270968E+02  0.19999999650E+02 0.  0.
        -12    1    1    2    0    0 -0.24050688332E+02  0.34867061575E+02 -0.94591589685E+01  0.43400729032E+02  0.00000000000E+00 0.  1.
         11    1    3    3    0    0  0.45225929963E+01 -0.73855397770E+01  0.58957921309E+01  0.10476660266E+02  0.51100000000E-03 0. -1.
        -11    1    3    3    0    0  0.14187921488E+02 -0.28367579622E+02  0.33349509676E+01  0.31892610241E+02  0.51100000000E-03 0.  1.
        -12    1    3    3    0    0  0.53401738474E+01  0.88605782341E+00  0.22841586998E+00  0.54180004611E+01  0.00000000000E+00 0.  1.
</event>
<event>
 7    1  0.2983653E-010  0.4778728E+02  0.7816164E-02  0.1312668E+00
        -11   -1    0    0    0    0  0.00000000000E+00  0.00000000000E+00  0.45593999997E+02  0.45594000000E+02  0.51100000000E-03 0.  1.
         11   -1    0    0    0    0 -0.00000000000E+00 -0.00000000000E+00 -0.45593999997E+02  0.45594000000E+02  0.51100000000E-03 0. -1.
    9900012    2    1    2    0    0 -0.37215776657E+02  0.93576379373E+01 -0.20274207665E+02  0.47787275163E+02  0.20000018776E+02 0.  0.
        -12    1    1    2    0    0  0.37215776657E+02 -0.93576379373E+01  0.20274207665E+02  0.43400724837E+02  0.00000000000E+00 0.  1.
         11    1    3    3    0    0 -0.69457973794E+01  0.77087785784E+01 -0.79737303804E+01  0.13086242579E+02  0.51100000000E-03 0. -1.
        -11    1    3    3    0    0 -0.23178245075E+02  0.34548353561E+01 -0.42412579891E+01  0.23815020505E+02  0.51100000000E-03 0.  1.
        -12    1    3    3    0    0 -0.70917342035E+01 -0.18059759971E+01 -0.80592192950E+01  0.10886012078E+02  0.00000000000E+00 0.  1.
</event>
<event>
 7    1  0.2983653E-010  0.4778727E+02  0.7816164E-02  0.1312668E+00
        -11   -1    0    0    0    0  0.00000000000E+00  0.00000000000E+00  0.45593999997E+02  0.45594000000E+02  0.51100000000E-03 0.  1.
         11   -1    0    0    0    0 -0.00000000000E+00 -0.00000000000E+00 -0.45593999997E+02  0.45594000000E+02  0.51100000000E-03 0. -1.
    9900012    2    1    2    0    0 -0.39677034338E+02  0.16143513442E+02  0.69816228562E+01  0.47787272612E+02  0.20000007145E+02 0.  0.
        -12    1    1    2    0    0  0.39677034338E+02 -0.16143513442E+02 -0.69816228562E+01  0.43400727388E+02  0.00000000000E+00 0.  1.
         11    1    3    3    0    0  0.38194496699E+00  0.27973859690E+01 -0.53437715397E+00  0.28734664468E+01  0.51100000000E-03 0. -1.
        -11    1    3    3    0    0 -0.30549576107E+02  0.71601396665E+01  0.13153301990E+00  0.31377723014E+02  0.51100000000E-03 0.  1.
        -12    1    3    3    0    0 -0.95094031986E+01  0.61859878069E+01  0.73844669903E+01  0.13536083151E+02  0.00000000000E+00 0.  1.
</event>
<event>
 7    1  0.2983653E-010  0.4778727E+02  0.7816164E-02  0.1312668E+00
        -11   -1    0    0    0    0  0.00000000000E+00  0.00000000000E+00  0.45593999997E+02  0.45594000000E+02  0.51100000000E-03 0.  1.
         11   -1    0    0    0    0 -0.00000000000E+00 -0.00000000000E+00 -0.45593999997E+02  0.45594000000E+02  0.51100000000E-03 0. -1.
    9900012    2    1    2    0    0  0.40502052558E+01  0.16067590160E+01 -0.43181448035E+02  0.47787270841E+02  0.19999999074E+02 0.  0.
        -12    1    1    2    0    0 -0.40502052558E+01 -0.16067590160E+01  0.43181448035E+02  0.43400729159E+02  0.00000000000E+00 0.  1.
         11    1    3    3    0    0 -0.27701590034E+00  0.66770278057E+01 -0.38353744938E+02  0.38931596283E+02  0.51100000000E-03 0. -1.
        -11    1    3    3    0    0  0.41334295671E+01 -0.24933088914E+01 -0.33876933601E+01  0.58973125895E+01  0.51100000000E-03 0.  1.
         12    1    3    3    0    0  0.19379158900E+00 -0.25769598983E+01 -0.14400097367E+01  0.29583619690E+01  0.00000000000E+00 0. -1.
</event>
<event>
 7    1  0.3565455E-010  0.4778727E+02  0.7816164E-02  0.1312668E+00
        -11   -1    0    0    0    0  0.00000000000E+00  0.00000000000E+00  0.45593999997E+02  0.45594000000E+02  0.51100000000E-03 0. -1.
         11   -1    0    0    0    0 -0.00000000000E+00 -0.00000000000E+00 -0.45593999997E+02  0.45594000000E+02  0.51100000000E-03 0.  1.
    9900012    2    1    2    0    0  0.12093013997E+02 -0.35172766182E+02  0.22366463159E+02  0.47787272556E+02  0.20000006892E+02 0.  0.
        -12    1    1    2    0    0 -0.12093013997E+02  0.35172766182E+02 -0.22366463159E+02  0.43400727444E+02  0.00000000000E+00 0.  1.
         11    1    3    3    0    0  0.10870395776E+02 -0.15318372711E+02  0.13537256259E+02  0.23153301150E+02  0.51100000000E-03 0.  1.
        -11    1    3    3    0    0 -0.16130086490E+01 -0.18225190446E+02  0.10356928666E+02  0.21024398573E+02  0.51100000000E-03 0. -1.
        -12    1    3    3    0    0  0.28356268705E+01 -0.16292030248E+01 -0.15277217664E+01  0.36095728335E+01  0.00000000000E+00 0.  1.
</event>
<event>
 7    1  0.2983653E-010  0.4778727E+02  0.7816164E-02  0.1312668E+00
        -11   -1    0    0    0    0  0.00000000000E+00  0.00000000000E+00  0.45593999997E+02  0.45594000000E+02  0.51100000000E-03 0. -1.
         11   -1    0    0    0    0 -0.00000000000E+00 -0.00000000000E+00 -0.45593999997E+02  0.45594000000E+02  0.51100000000E-03 0.  1.
    9900012    2    1    2    0    0  0.32997058783E+02 -0.47695750676E+01  0.27786124060E+02  0.47787269304E+02  0.19999992066E+02 0.  0.
        -12    1    1    2    0    0 -0.32997058783E+02  0.47695750676E+01 -0.27786124060E+02  0.43400730696E+02  0.00000000000E+00 0.  1.
         11    1    3    3    0    0  0.27645804025E+02 -0.23955872605E+01  0.25540699835E+02  0.37714144121E+02  0.51100000000E-03 0. -1.
        -11    1    3    3    0    0  0.70664737080E+01 -0.26072545732E+00  0.12862013041E+01  0.71873042572E+01  0.51100000000E-03 0.  1.
         12    1    3    3    0    0 -0.17152189497E+01 -0.21132623498E+01  0.95922292095E+00  0.28858209259E+01  0.00000000000E+00 0. -1.
</event>
<event>
 7    1  0.3040786E-010  0.4778727E+02  0.7816164E-02  0.1312668E+00
        -11   -1    0    0    0    0  0.00000000000E+00  0.00000000000E+00  0.45593999997E+02  0.45594000000E+02  0.51100000000E-03 0.  1.
         11   -1    0    0    0    0 -0.00000000000E+00 -0.00000000000E+00 -0.45593999997E+02  0.45594000000E+02  0.51100000000E-03 0. -1.
    9900012    2    1    2    0    0 -0.32656438568E+02 -0.26445447311E+02 -0.10854447846E+02  0.47787266119E+02  0.19999977542E+02 0.  0.
        -12    1    1    2    0    0  0.32656438568E+02  0.26445447311E+02  0.10854447846E+02  0.43400733881E+02  0.00000000000E+00 0.  1.
         11    1    3    3    0    0 -0.24054438225E+02 -0.19395446833E+02 -0.11113310491E+02  0.32837555123E+02  0.51100000000E-03 0. -1.
        -11    1    3    3    0    0  0.65193138862E+00  0.15365308762E+01 -0.14495641484E+01  0.22106963045E+01  0.51100000000E-03 0.  1.
        -12    1    3    3    0    0 -0.92539317312E+01 -0.85865313545E+01  0.17084267930E+01  0.12739014691E+02  0.00000000000E+00 0.  1.
</event>
<event>
 7    1  0.2983653E-010  0.4778726E+02  0.7816164E-02  0.1312668E+00
        -11   -1    0    0    0    0  0.00000000000E+00  0.00000000000E+00  0.45593999997E+02  0.45594000000E+02  0.51100000000E-03 0.  1.
         11   -1    0    0    0    0 -0.00000000000E+00 -0.00000000000E+00 -0.45593999997E+02  0.45594000000E+02  0.51100000000E-03 0. -1.
    9900012    2    1    2    0    0  0.19682681829E+02  0.38561653152E+02 -0.30356451785E+01  0.47787260381E+02  0.19999951382E+02 0.  0.
        -12    1    1    2    0    0 -0.19682681829E+02 -0.38561653152E+02  0.30356451785E+01  0.43400739619E+02  0.00000000000E+00 0.  1.
         11    1    3    3    0    0  0.15461647577E+02  0.19352890239E+02 -0.45585447092E+01  0.25186846498E+02  0.51100000000E-03 0. -1.
        -11    1    3    3    0    0 -0.73771769927E+00  0.97286242166E+01  0.54837653877E+01  0.11192052521E+02  0.51100000000E-03 0.  1.
        -12    1    3    3    0    0  0.49587519521E+01  0.94801386960E+01 -0.39608658571E+01  0.11408361362E+02  0.00000000000E+00 0.  1.
</event>
<event>
 7    1  0.2983653E-010  0.4778727E+02  0.7816164E-02  0.1312668E+00
        -11   -1    0    0    0    0  0.00000000000E+00  0.00000000000E+00  0.45593999997E+02  0.45594000000E+02  0.51100000000E-03 0. -1.
         11   -1    0    0    0    0 -0.00000000000E+00 -0.00000000000E+00 -0.45593999997E+02  0.45594000000E+02  0.51100000000E-03 0.  1.
    9900012    2    1    2    0    0 -0.23324929203E+02 -0.34715142578E+02  0.11594376901E+02  0.47787273943E+02  0.20000013215E+02 0.  0.
        -12    1    1    2    0    0  0.23324929203E+02  0.34715142578E+02 -0.11594376901E+02  0.43400726057E+02  0.00000000000E+00 0.  1.
         11    1    3    3    0    0 -0.31471412578E+01 -0.17551627757E+02  0.95513623065E+01  0.20228510997E+02  0.51100000000E-03 0. -1.
        -11    1    3    3    0    0 -0.58312097806E+01 -0.11403664436E+01 -0.12040360704E+00  0.59428899048E+01  0.51100000000E-03 0.  1.
         12    1    3    3    0    0 -0.14346578165E+02 -0.16023148378E+02  0.21634182011E+01  0.21615873041E+02  0.00000000000E+00 0. -1.
</event>
<event>
 7    1  0.2983653E-010  0.4778727E+02  0.7816164E-02  0.1312668E+00
        -11   -1    0    0    0    0  0.00000000000E+00  0.00000000000E+00  0.45593999997E+02  0.45594000000E+02  0.51100000000E-03 0. -1.
         11   -1    0    0    0    0 -0.00000000000E+00 -0.00000000000E+00 -0.45593999997E+02  0.45594000000E+02  0.51100000000E-03 0.  1.
    9900012    2    1    2    0    0 -0.17970149581E+02 -0.39233783998E+02  0.46268127380E+01  0.47787268683E+02  0.19999989234E+02 0.  0.
        -12    1    1    2    0    0  0.17970149581E+02  0.39233783998E+02 -0.46268127380E+01  0.43400731317E+02  0.00000000000E+00 0.  1.
         11    1    3    3    0    0 -0.10415715750E+02 -0.75639522813E+01 -0.11831577160E+01  0.12926730876E+02  0.51100000000E-03 0. -1.
        -11    1    3    3    0    0 -0.93899229964E+01 -0.30229185139E+02  0.39963457247E+01  0.31905251409E+02  0.51100000000E-03 0.  1.
        -12    1    3    3    0    0  0.18354891656E+01 -0.14406465772E+01  0.18136247292E+01  0.29552863983E+01  0.00000000000E+00 0.  1.
</event>
<event>
 7    1  0.2983653E-010  0.4778725E+02  0.7816164E-02  0.1312668E+00
        -11   -1    0    0    0    0  0.00000000000E+00  0.00000000000E+00  0.45593999997E+02  0.45594000000E+02  0.51100000000E-03 0.  1.
         11   -1    0    0    0    0 -0.00000000000E+00 -0.00000000000E+00 -0.45593999997E+02  0.45594000000E+02  0.51100000000E-03 0. -1.
    9900012    2    1    2    0    0  0.39910205959E+01  0.17136146276E+01 -0.43182868022E+02  0.47787253335E+02  0.19999919256E+02 0.  0.
        -12    1    1    2    0    0 -0.39910205959E+01 -0.17136146276E+01  0.43182868022E+02  0.43400746665E+02  0.00000000000E+00 0.  1.
         11    1    3    3    0    0  0.77765087185E+01  0.22757106965E+01 -0.10261053211E+02  0.13074485086E+02  0.51100000000E-03 0. -1.
        -11    1    3    3    0    0 -0.35007968098E+01 -0.51571581098E+01 -0.15864395401E+02  0.17044966993E+02  0.51100000000E-03 0.  1.
         12    1    3    3    0    0 -0.28469131287E+00  0.45950620410E+01 -0.17057419410E+02  0.17667801256E+02  0.00000000000E+00 0. -1.
</event>
<event>
 7    1  0.2983653E-010  0.4778728E+02  0.7816164E-02  0.1312668E+00
        -11   -1    0    0    0    0  0.00000000000E+00  0.00000000000E+00  0.45593999997E+02  0.45594000000E+02  0.51100000000E-03 0.  1.
         11   -1    0    0    0    0 -0.00000000000E+00 -0.00000000000E+00 -0.45593999997E+02  0.45594000000E+02  0.51100000000E-03 0. -1.
    9900012    2    1    2    0    0  0.27100089164E+01 -0.39236098298E+02 -0.18352308330E+02  0.47787276746E+02  0.20000025994E+02 0.  0.
        -12    1    1    2    0    0 -0.27100089164E+01  0.39236098298E+02  0.18352308330E+02  0.43400723254E+02  0.00000000000E+00 0.  1.
         11    1    3    3    0    0 -0.63043563724E+01 -0.82531320575E+01 -0.69541249630E+01  0.12498758030E+02  0.51100000000E-03 0. -1.
        -11    1    3    3    0    0  0.45621324773E+01 -0.18122349721E+02 -0.20986891361E+01  0.18805241517E+02  0.51100000000E-03 0.  1.
         12    1    3    3    0    0  0.44522328116E+01 -0.12860616520E+02 -0.92994942304E+01  0.16483277199E+02  0.00000000000E+00 0. -1.
</event>
<event>
 7    1  0.2983653E-010  0.4778727E+02  0.7816164E-02  0.1312668E+00
        -11   -1    0    0    0    0  0.00000000000E+00  0.00000000000E+00  0.45593999997E+02  0.45594000000E+02  0.51100000000E-03 0. -1.
         11   -1    0    0    0    0 -0.00000000000E+00 -0.00000000000E+00 -0.45593999997E+02  0.45594000000E+02  0.51100000000E-03 0.  1.
    9900012    2    1    2    0    0  0.40767015801E+02  0.69784494095E+01  0.13151992185E+02  0.47787271527E+02  0.20000002202E+02 0.  0.
        -12    1    1    2    0    0 -0.40767015801E+02 -0.69784494095E+01 -0.13151992185E+02  0.43400728473E+02  0.00000000000E+00 0.  1.
         11    1    3    3    0    0  0.11782019578E+02  0.29720215911E+01  0.12554283635E+02  0.17471660926E+02  0.51100000000E-03 0. -1.
        -11    1    3    3    0    0  0.29207058062E+02  0.40596669654E+01  0.13606551669E+01  0.29519222877E+02  0.51100000000E-03 0.  1.
        -12    1    3    3    0    0 -0.22206183816E+00 -0.53239146948E-01 -0.76294661702E+00  0.79638772414E+00  0.00000000000E+00 0.  1.
</event>
<event>
 7    1  0.2983653E-010  0.4778727E+02  0.7816164E-02  0.1312668E+00
        -11   -1    0    0    0    0  0.00000000000E+00  0.00000000000E+00  0.45593999997E+02  0.45594000000E+02  0.51100000000E-03 0. -1.
         11   -1    0    0    0    0 -0.00000000000E+00 -0.00000000000E+00 -0.45593999997E+02  0.45594000000E+02  0.51100000000E-03 0.  1.
    9900012    2    1    2    0    0 -0.12932914119E+02 -0.41415900804E+02  0.10422548223E+01  0.47787269567E+02  0.19999993262E+02 0.  0.
        -12    1    1    2    0    0  0.12932914119E+02  0.41415900804E+02 -0.10422548223E+01  0.43400730433E+02  0.00000000000E+00 0.  1.
         11    1    3    3    0    0 -0.42394026589E+01 -0.16016834513E+02 -0.22258730629E+01  0.16717237627E+02  0.51100000000E-03 0. -1.
        -11    1    3    3    0    0 -0.94502637977E+01 -0.14978347013E+02 -0.42315138065E+01  0.18208900968E+02  0.51100000000E-03 0.  1.
        -12    1    3    3    0    0  0.75675233748E+00 -0.10420719278E+02  0.74996416917E+01  0.12861130972E+02  0.00000000000E+00 0.  1.
</event>
<event>
 7    1  0.2983653E-010  0.4778728E+02  0.7816164E-02  0.1312668E+00
        -11   -1    0    0    0    0  0.00000000000E+00  0.00000000000E+00  0.45593999997E+02  0.45594000000E+02  0.51100000000E-03 0.  1.
         11   -1    0    0    0    0 -0.00000000000E+00 -0.00000000000E+00 -0.45593999997E+02  0.45594000000E+02  0.51100000000E-03 0. -1.
    9900012    2    1    2    0    0 -0.55567898356E+01 -0.13394861179E+02 -0.40906266463E+02  0.47787275867E+02  0.20000021988E+02 0.  0.
        -12    1    1    2    0    0  0.55567898356E+01  0.13394861179E+02  0.40906266463E+02  0.43400724133E+02  0.00000000000E+00 0.  1.
         11    1    3    3    0    0 -0.46413392958E+01 -0.14131522620E+02 -0.25437873838E+02  0.29467395332E+02  0.51100000000E-03 0. -1.
        -11    1    3    3    0    0  0.33361075029E+01  0.21237103087E+01 -0.26935223721E+01  0.47848533704E+01  0.51100000000E-03 0.  1.
         12    1    3    3    0    0 -0.42515580427E+01 -0.13870488682E+01 -0.12774870253E+02  0.13535027165E+02  0.00000000000E+00 0. -1.
</event>
<event>
 7    1  0.2983653E-010  0.4778727E+02  0.7816164E-02  0.1312668E+00
        -11   -1    0    0    0    0  0.00000000000E+00  0.00000000000E+00  0.45593999997E+02  0.45594000000E+02  0.51100000000E-03 0.  1.
         11   -1    0    0    0    0 -0.00000000000E+00 -0.00000000000E+00 -0.45593999997E+02  0.45594000000E+02  0.51100000000E-03 0. -1.
    9900012    2    1    2    0    0  0.32905270231E+02 -0.26402006271E+02 -0.10188243633E+02  0.47787273596E+02  0.20000011634E+02 0.  0.
        -12    1    1    2    0    0 -0.32905270231E+02  0.26402006271E+02  0.10188243633E+02  0.43400726404E+02  0.00000000000E+00 0.  1.
         11    1    3    3    0    0  0.20548000731E+02 -0.11839309356E+02 -0.23334505392E+01  0.23829279715E+02  0.51100000000E-03 0. -1.
        -11    1    3    3    0    0  0.52200067101E+01 -0.13565239530E+02 -0.82996824490E+01  0.16737649852E+02  0.51100000000E-03 0.  1.
        -12    1    3    3    0    0  0.71372627896E+01 -0.99745738556E+00  0.44488935521E+00  0.72203440294E+01  0.00000000000E+00 0.  1.
</event>
<event>
 7    1  0.2983653E-010  0.4778728E+02  0.7816164E-02  0.1312668E+00
        -11   -1    0    0    0    0  0.00000000000E+00  0.00000000000E+00  0.45593999997E+02  0.45594000000E+02  0.51100000000E-03 0. -1.
         11   -1    0    0    0    0 -0.00000000000E+00 -0.00000000000E+00 -0.45593999997E+02  0.45594000000E+02  0.51100000000E-03 0.  1.
    9900012    2    1    2    0    0  0.61924673758E+01  0.42724931143E+02 -0.44560628495E+01  0.47787275473E+02  0.20000020191E+02 0.  0.
        -12    1    1    2    0    0 -0.61924673758E+01 -0.42724931143E+02  0.44560628495E+01  0.43400724527E+02  0.00000000000E+00 0.  1.
         11    1    3    3    0    0  0.42150627057E+01  0.37734849631E+02 -0.62273712769E+00  0.37974641961E+02  0.51100000000E-03 0. -1.
        -11    1    3    3    0    0  0.22991325044E+01 -0.59793129950E+00  0.84118220747E+00  0.25201428291E+01  0.51100000000E-03 0.  1.
         12    1    3    3    0    0 -0.32172783436E+00  0.55880128117E+01 -0.46745079293E+01  0.72924906832E+01  0.00000000000E+00 0. -1.
</event>
<event>
 7    1  0.2983653E-010  0.4778727E+02  0.7816164E-02  0.1312668E+00
        -11   -1    0    0    0    0  0.00000000000E+00  0.00000000000E+00  0.45593999997E+02  0.45594000000E+02  0.51100000000E-03 0.  1.
         11   -1    0    0    0    0 -0.00000000000E+00 -0.00000000000E+00 -0.45593999997E+02  0.45594000000E+02  0.51100000000E-03 0. -1.
    9900012    2    1    2    0    0 -0.32804609916E+02 -0.13313143097E+02 -0.25104601453E+02  0.47787271607E+02  0.20000002567E+02 0.  0.
        -12    1    1    2    0    0  0.32804609916E+02  0.13313143097E+02  0.25104601453E+02  0.43400728393E+02  0.00000000000E+00 0.  1.
         11    1    3    3    0    0 -0.18308427558E+02 -0.10208387246E+02 -0.84208518808E+01  0.22590273050E+02  0.51100000000E-03 0. -1.
        -11    1    3    3    0    0 -0.11159629930E+02  0.33138881235E+01 -0.99553144966E+01  0.15317554689E+02  0.51100000000E-03 0.  1.
        -12    1    3    3    0    0 -0.33365524284E+01 -0.64186439750E+01 -0.67284350756E+01  0.98794438686E+01  0.00000000000E+00 0.  1.
</event>
<event>
 7    1  0.2983653E-010  0.4778727E+02  0.7816164E-02  0.1312668E+00
        -11   -1    0    0    0    0  0.00000000000E+00  0.00000000000E+00  0.45593999997E+02  0.45594000000E+02  0.51100000000E-03 0. -1.
         11   -1    0    0    0    0 -0.00000000000E+00 -0.00000000000E+00 -0.45593999997E+02  0.45594000000E+02  0.51100000000E-03 0.  1.
    9900012    2    1    2    0    0  0.19402660863E+02 -0.18616341770E+02  0.34067463785E+02  0.47787268230E+02  0.19999987166E+02 0.  0.
        -12    1    1    2    0    0 -0.19402660863E+02  0.18616341770E+02 -0.34067463785E+02  0.43400731770E+02  0.00000000000E+00 0.  1.
         11    1    3    3    0    0  0.82944886836E+01 -0.12448307729E+02  0.26791450115E+02  0.30684535313E+02  0.51100000000E-03 0. -1.
        -11    1    3    3    0    0  0.11900950438E+02 -0.63127649175E+01  0.82819960689E+01  0.15813762404E+02  0.51100000000E-03 0.  1.
         12    1    3    3    0    0 -0.79277825878E+00  0.14473087623E+00 -0.10059823992E+01  0.12889705123E+01  0.00000000000E+00 0. -1.
</event>
<event>
 7    1  0.2983653E-010  0.4778728E+02  0.7816164E-02  0.1312668E+00
        -11   -1    0    0    0    0  0.00000000000E+00  0.00000000000E+00  0.45593999997E+02  0.45594000000E+02  0.51100000000E-03 0.  1.
         11   -1    0    0    0    0 -0.00000000000E+00 -0.00000000000E+00 -0.45593999997E+02  0.45594000000E+02  0.51100000000E-03 0. -1.
    9900012    2    1    2    0    0 -0.99571701815E+01 -0.39849339896E+02 -0.14018122490E+02  0.47787275509E+02  0.20000020356E+02 0.  0.
        -12    1    1    2    0    0  0.99571701815E+01  0.39849339896E+02  0.14018122490E+02  0.43400724491E+02  0.00000000000E+00 0.  1.
         11    1    3    3    0    0 -0.27322752399E+01 -0.11441205562E+02 -0.80574386202E+01  0.14257939195E+02  0.51100000000E-03 0. -1.
        -11    1    3    3    0    0 -0.36712404515E+01 -0.48338014218E+01  0.44382536667E+01  0.75194240809E+01  0.51100000000E-03 0.  1.
        -12    1    3    3    0    0 -0.35536544901E+01 -0.23574332913E+02 -0.10398937536E+02  0.26009912234E+02  0.00000000000E+00 0.  1.
</event>
<event>
 7    1  0.2983653E-010  0.4778728E+02  0.7816164E-02  0.1312668E+00
        -11   -1    0    0    0    0  0.00000000000E+00  0.00000000000E+00  0.45593999997E+02  0.45594000000E+02  0.51100000000E-03 0.  1.
         11   -1    0    0    0    0 -0.00000000000E+00 -0.00000000000E+00 -0.45593999997E+02  0.45594000000E+02  0.51100000000E-03 0. -1.
    9900012    2    1    2    0    0 -0.24659207428E+02 -0.35430961955E+02  0.44936699754E+01  0.47787278280E+02  0.20000032988E+02 0.  0.
        -12    1    1    2    0    0  0.24659207428E+02  0.35430961955E+02 -0.44936699754E+01  0.43400721720E+02  0.00000000000E+00 0.  1.
         11    1    3    3    0    0 -0.17611481864E+02 -0.17778074977E+02  0.88433110388E+01  0.26541069943E+02  0.51100000000E-03 0. -1.
        -11    1    3    3    0    0  0.10075529816E+01 -0.20828319325E+01  0.15095070862E+01  0.27626009076E+01  0.51100000000E-03 0.  1.
         12    1    3    3    0    0 -0.80552785458E+01 -0.15570055045E+02 -0.58591481496E+01  0.18483607429E+02  0.00000000000E+00 0. -1.
</event>
<event>
 7    1  0.2983653E-010  0.4778728E+02  0.7816164E-02  0.1312668E+00
        -11   -1    0    0    0    0  0.00000000000E+00  0.00000000000E+00  0.45593999997E+02  0.45594000000E+02  0.51100000000E-03 0.  1.
         11   -1    0    0    0    0 -0.00000000000E+00 -0.00000000000E+00 -0.45593999997E+02  0.45594000000E+02  0.51100000000E-03 0. -1.
    9900012    2    1    2    0    0 -0.14441052039E+02  0.21969270483E+01 -0.40868721961E+02  0.47787275269E+02  0.20000019259E+02 0.  0.
        -12    1    1    2    0    0  0.14441052039E+02 -0.21969270483E+01  0.40868721961E+02  0.43400724731E+02  0.00000000000E+00 0.  1.
         11    1    3    3    0    0  0.46279183713E+00 -0.35188536369E+00 -0.16847649891E+01  0.17822550108E+01  0.51100000000E-03 0. -1.
        -11    1    3    3    0    0 -0.22853271565E+01  0.82415985791E+01 -0.23898169226E+02  0.25382457721E+02  0.51100000000E-03 0.  1.
        -12    1    3    3    0    0 -0.12618516720E+02 -0.56927861670E+01 -0.15285787747E+02  0.20622562537E+02  0.00000000000E+00 0.  1.
</event>
<event>
 7    1  0.2983653E-010  0.4778727E+02  0.7816164E-02  0.1312668E+00
        -11   -1    0    0    0    0  0.00000000000E+00  0.00000000000E+00  0.45593999997E+02  0.45594000000E+02  0.51100000000E-03 0. -1.
         11   -1    0    0    0    0 -0.00000000000E+00 -0.00000000000E+00 -0.45593999997E+02  0.45594000000E+02  0.51100000000E-03 0.  1.
    9900012    2    1    2    0    0  0.64388064612E+01  0.70095619303E+01  0.42344194681E+02  0.47787274081E+02  0.20000013845E+02 0.  0.
        -12    1    1    2    0    0 -0.64388064612E+01 -0.70095619303E+01 -0.42344194681E+02  0.43400725919E+02  0.00000000000E+00 0.  1.
         11    1    3    3    0    0  0.24087060702E+01  0.97086424344E+01  0.27721253767E+02  0.29470790853E+02  0.51100000000E-03 0. -1.
        -11    1    3    3    0    0  0.38927408249E+01 -0.34931798898E+01  0.15937933569E+02  0.16774190400E+02  0.51100000000E-03 0.  1.
        -12    1    3    3    0    0  0.13735956606E+00  0.79409938574E+00 -0.13149926545E+01  0.15422928277E+01  0.00000000000E+00 0.  1.
</event>
<event>
 7    1  0.2983653E-010  0.4778727E+02  0.7816164E-02  0.1312668E+00
        -11   -1    0    0    0    0  0.00000000000E+00  0.00000000000E+00  0.45593999997E+02  0.45594000000E+02  0.51100000000E-03 0. -1.
         11   -1    0    0    0    0 -0.00000000000E+00 -0.00000000000E+00 -0.45593999997E+02  0.45594000000E+02  0.51100000000E-03 0.  1.
    9900012    2    1    2    0    0  0.26990425457E+01  0.15006382884E+02  0.40634306156E+02  0.47787271957E+02  0.20000004159E+02 0.  0.
        -12    1    1    2    0    0 -0.26990425457E+01 -0.15006382884E+02 -0.40634306156E+02  0.43400728043E+02  0.00000000000E+00 0.  1.
         11    1    3    3    0    0  0.97314238688E-01  0.16912650149E+02  0.26991738358E+02  0.31852804351E+02  0.51100000000E-03 0. -1.
        -11    1    3    3    0    0  0.27027275946E+01 -0.21258367528E+01  0.14572986582E+02  0.14973171225E+02  0.51100000000E-03 0.  1.
         12    1    3    3    0    0 -0.10099928762E+00  0.21956948789E+00 -0.93041878493E+00  0.96129638065E+00  0.00000000000E+00 0. -1.
</event>
<event>
 7    1  0.2983653E-010  0.4778728E+02  0.7816164E-02  0.1312668E+00
        -11   -1    0    0    0    0  0.00000000000E+00  0.00000000000E+00  0.45593999997E+02  0.45594000000E+02  0.51100000000E-03 0.  1.
         11   -1    0    0    0    0 -0.00000000000E+00 -0.00000000000E+00 -0.45593999997E+02  0.45594000000E+02  0.51100000000E-03 0. -1.
    9900012    2    1    2    0    0  0.27041764929E+02  0.13835498331E+02 -0.30999107211E+02  0.47787277513E+02  0.20000029492E+02 0.  0.
        -12    1    1    2    0    0 -0.27041764929E+02 -0.13835498331E+02  0.30999107211E+02  0.43400722487E+02  0.00000000000E+00 0.  1.
         11    1    3    3    0    0 -0.93702314367E-01  0.59055321798E-01  0.18921835394E+01  0.18954225024E+01  0.51100000000E-03 0.  1.
        -11    1    3    3    0    0  0.21889865803E+02  0.15093588444E+02 -0.26996423286E+02  0.37891813199E+02  0.51100000000E-03 0. -1.
         12    1    3    3    0    0  0.52456014403E+01 -0.13171454348E+01 -0.58948674645E+01  0.80000418118E+01  0.00000000000E+00 0. -1.
</event>
<event>
 7    1  0.2983653E-010  0.4778727E+02  0.7816164E-02  0.1312668E+00
        -11   -1    0    0    0    0  0.00000000000E+00  0.00000000000E+00  0.45593999997E+02  0.45594000000E+02  0.51100000000E-03 0. -1.
         11   -1    0    0    0    0 -0.00000000000E+00 -0.00000000000E+00 -0.45593999997E+02  0.45594000000E+02  0.51100000000E-03 0.  1.
    9900012    2    1    2    0    0 -0.11611566222E+02  0.41462185895E+02  0.54480958357E+01  0.47787273306E+02  0.20000010310E+02 0.  0.
        -12    1    1    2    0    0  0.11611566222E+02 -0.41462185895E+02 -0.54480958357E+01  0.43400726694E+02  0.00000000000E+00 0.  1.
         11    1    3    3    0    0 -0.57722414853E+01  0.30048101692E+02 -0.14588854847E+01  0.30632262962E+02  0.51100000000E-03 0. -1.
        -11    1    3    3    0    0 -0.65807696070E+01  0.68868788535E+01  0.79997716688E+01  0.12439130837E+02  0.51100000000E-03 0.  1.
        -12    1    3    3    0    0  0.74144487033E+00  0.45272053498E+01 -0.10927903484E+01  0.47158795066E+01  0.00000000000E+00 0.  1.
</event>
<event>
 7    1  0.2983653E-010  0.4778727E+02  0.7816164E-02  0.1312668E+00
        -11   -1    0    0    0    0  0.00000000000E+00  0.00000000000E+00  0.45593999997E+02  0.45594000000E+02  0.51100000000E-03 0. -1.
         11   -1    0    0    0    0 -0.00000000000E+00 -0.00000000000E+00 -0.45593999997E+02  0.45594000000E+02  0.51100000000E-03 0.  1.
    9900012    2    1    2    0    0  0.12461619504E+02 -0.48623832256E+00  0.41570366966E+02  0.47787265005E+02  0.19999972465E+02 0.  0.
        -12    1    1    2    0    0 -0.12461619504E+02  0.48623832256E+00 -0.41570366966E+02  0.43400734995E+02  0.00000000000E+00 0.  1.
         11    1    3    3    0    0  0.81901060498E+01  0.46499299421E+01  0.33279945898E+02  0.34586912045E+02  0.51100000000E-03 0. -1.
        -11    1    3    3    0    0  0.62708416245E+01 -0.24186086203E+01  0.43182340749E+01  0.79887588601E+01  0.51100000000E-03 0.  1.
        -12    1    3    3    0    0 -0.19993281702E+01 -0.27175596443E+01  0.39721869935E+01  0.52115941000E+01  0.00000000000E+00 0.  1.
</event>
<event>
 7    1  0.2983653E-010  0.4778727E+02  0.7816164E-02  0.1312668E+00
        -11   -1    0    0    0    0  0.00000000000E+00  0.00000000000E+00  0.45593999997E+02  0.45594000000E+02  0.51100000000E-03 0.  1.
         11   -1    0    0    0    0 -0.00000000000E+00 -0.00000000000E+00 -0.45593999997E+02  0.45594000000E+02  0.51100000000E-03 0. -1.
    9900012    2    1    2    0    0  0.13241734342E+02 -0.11489881524E+02 -0.39702168267E+02  0.47787273382E+02  0.20000010659E+02 0.  0.
        -12    1    1    2    0    0 -0.13241734342E+02  0.11489881524E+02  0.39702168267E+02  0.43400726618E+02  0.00000000000E+00 0.  1.
         11    1    3    3    0    0  0.25062792426E+01 -0.37867640035E+01 -0.50553669423E+01  0.67954214323E+01  0.51100000000E-03 0. -1.
        -11    1    3    3    0    0 -0.33280104129E+01 -0.50392525170E+01 -0.42227592014E+01  0.73689493669E+01  0.51100000000E-03 0.  1.
         12    1    3    3    0    0  0.14063465513E+02 -0.26638650037E+01 -0.30424042123E+02  0.33622902583E+02  0.00000000000E+00 0. -1.
</event>
<event>
 7    1  0.2983653E-010  0.4778728E+02  0.7816164E-02  0.1312668E+00
        -11   -1    0    0    0    0  0.00000000000E+00  0.00000000000E+00  0.45593999997E+02  0.45594000000E+02  0.51100000000E-03 0.  1.
         11   -1    0    0    0    0 -0.00000000000E+00 -0.00000000000E+00 -0.45593999997E+02  0.45594000000E+02  0.51100000000E-03 0. -1.
    9900012    2    1    2    0    0  0.61249916149E+01  0.41271943864E+02 -0.11947109715E+02  0.47787282227E+02  0.20000050987E+02 0.  0.
        -12    1    1    2    0    0 -0.61249916149E+01 -0.41271943864E+02  0.11947109715E+02  0.43400717773E+02  0.00000000000E+00 0.  1.
         11    1    3    3    0    0  0.21567856626E-01  0.43762375250E+01  0.18575539590E+01  0.47542009865E+01  0.51100000000E-03 0. -1.
        -11    1    3    3    0    0  0.82399926678E+01  0.13386431802E+02 -0.64628485378E-01  0.15719357895E+02  0.51100000000E-03 0.  1.
        -12    1    3    3    0    0 -0.21365689095E+01  0.23509274538E+02 -0.13740035189E+02  0.27313723345E+02  0.00000000000E+00 0.  1.
</event>
<event>
 7    1  0.2983653E-010  0.4778728E+02  0.7816164E-02  0.1312668E+00
        -11   -1    0    0    0    0  0.00000000000E+00  0.00000000000E+00  0.45593999997E+02  0.45594000000E+02  0.51100000000E-03 0.  1.
         11   -1    0    0    0    0 -0.00000000000E+00 -0.00000000000E+00 -0.45593999997E+02  0.45594000000E+02  0.51100000000E-03 0. -1.
    9900012    2    1    2    0    0  0.45278254458E+01 -0.42059928353E+02 -0.96996644627E+01  0.47787282644E+02  0.20000052885E+02 0.  0.
        -12    1    1    2    0    0 -0.45278254458E+01  0.42059928353E+02  0.96996644627E+01  0.43400717356E+02  0.00000000000E+00 0.  1.
         11    1    3    3    0    0  0.26933130881E+01 -0.27839277245E+01 -0.75333136856E+00  0.39460990076E+01  0.51100000000E-03 0. -1.
        -11    1    3    3    0    0  0.41413690805E+01 -0.21059088215E+02  0.33775632888E+01  0.21726575164E+02  0.51100000000E-03 0.  1.
        -12    1    3    3    0    0 -0.23068567228E+01 -0.18216912414E+02 -0.12323896383E+02  0.22114608472E+02  0.00000000000E+00 0.  1.
</event>
<event>
 7    1  0.2983653E-010  0.4778727E+02  0.7816164E-02  0.1312668E+00
        -11   -1    0    0    0    0  0.00000000000E+00  0.00000000000E+00  0.45593999997E+02  0.45594000000E+02  0.51100000000E-03 0.  1.
         11   -1    0    0    0    0 -0.00000000000E+00 -0.00000000000E+00 -0.45593999997E+02  0.45594000000E+02  0.51100000000E-03 0. -1.
    9900012    2    1    2    0    0 -0.33997787621E+02  0.67236974765E+01 -0.26125955136E+02  0.47787271865E+02  0.20000003741E+02 0.  0.
        -12    1    1    2    0    0  0.33997787621E+02 -0.67236974765E+01  0.26125955136E+02  0.43400728135E+02  0.00000000000E+00 0.  1.
         11    1    3    3    0    0 -0.79056030562E+01  0.34766386925E+01 -0.79076169632E+01  0.11709653393E+02  0.51100000000E-03 0. -1.
        -11    1    3    3    0    0 -0.40722966641E+01  0.74541045596E+01 -0.70132441653E+01  0.11015120012E+02  0.51100000000E-03 0.  1.
        -12    1    3    3    0    0 -0.22019887901E+02 -0.42070457755E+01 -0.11205094007E+02  0.25062498460E+02  0.00000000000E+00 0.  1.
</event>
<event>
 7    1  0.2983653E-010  0.4778726E+02  0.7816164E-02  0.1312668E+00
        -11   -1    0    0    0    0  0.00000000000E+00  0.00000000000E+00  0.45593999997E+02  0.45594000000E+02  0.51100000000E-03 0.  1.
         11   -1    0    0    0    0 -0.00000000000E+00 -0.00000000000E+00 -0.45593999997E+02  0.45594000000E+02  0.51100000000E-03 0. -1.
    9900012    2    1    2    0    0  0.20851055117E+02 -0.32288775748E+02 -0.20156695896E+02  0.47787263506E+02  0.19999965627E+02 0.  0.
        -12    1    1    2    0    0 -0.20851055117E+02  0.32288775748E+02  0.20156695896E+02  0.43400736494E+02  0.00000000000E+00 0.  1.
         11    1    3    3    0    0  0.32757944715E+01 -0.31910329106E+01 -0.17995084836E+01  0.49144431526E+01  0.51100000000E-03 0. -1.
        -11    1    3    3    0    0  0.17854048623E+02 -0.31441013603E+02 -0.16004096427E+02  0.39540302115E+02  0.51100000000E-03 0.  1.
        -12    1    3    3    0    0 -0.27878797754E+00  0.23432707661E+01 -0.23530909852E+01  0.33325182377E+01  0.00000000000E+00 0.  1.
</event>
<event>
 7    1  0.2983653E-010  0.4778727E+02  0.7816164E-02  0.1312668E+00
        -11   -1    0    0    0    0  0.00000000000E+00  0.00000000000E+00  0.45593999997E+02  0.45594000000E+02  0.51100000000E-03 0.  1.
         11   -1    0    0    0    0 -0.00000000000E+00 -0.00000000000E+00 -0.45593999997E+02  0.45594000000E+02  0.51100000000E-03 0. -1.
    9900012    2    1    2    0    0  0.35522988483E+02 -0.11706298161E+02  0.22015976879E+02  0.47787269991E+02  0.19999995196E+02 0.  0.
        -12    1    1    2    0    0 -0.35522988483E+02  0.11706298161E+02 -0.22015976879E+02  0.43400730009E+02  0.00000000000E+00 0.  1.
         11    1    3    3    0    0  0.15918473492E+02  0.14213149481E+01  0.61687476566E+01  0.17131006462E+02  0.51100000000E-03 0. -1.
        -11    1    3    3    0    0  0.11264043144E+02 -0.10241225550E+02  0.15643042108E+02  0.21828104256E+02  0.51100000000E-03 0.  1.
        -12    1    3    3    0    0  0.83404718471E+01 -0.28863875585E+01  0.20418711353E+00  0.88281592729E+01  0.00000000000E+00 0.  1.
</event>
<event>
 7    1  0.2983653E-010  0.4778727E+02  0.7816164E-02  0.1312668E+00
        -11   -1    0    0    0    0  0.00000000000E+00  0.00000000000E+00  0.45593999997E+02  0.45594000000E+02  0.51100000000E-03 0.  1.
         11   -1    0    0    0    0 -0.00000000000E+00 -0.00000000000E+00 -0.45593999997E+02  0.45594000000E+02  0.51100000000E-03 0. -1.
    9900012    2    1    2    0    0  0.64645110172E+01  0.15791327233E+02 -0.39905732725E+02  0.47787269329E+02  0.19999992179E+02 0.  0.
        -12    1    1    2    0    0 -0.64645110172E+01 -0.15791327233E+02  0.39905732725E+02  0.43400730671E+02  0.00000000000E+00 0.  1.
         11    1    3    3    0    0  0.18117199168E+01  0.15946294440E+02 -0.21726152943E+02  0.27010967354E+02  0.51100000000E-03 0.  1.
        -11    1    3    3    0    0  0.12604826158E+01  0.18537853398E+01 -0.70277523882E-01  0.22428276132E+01  0.51100000000E-03 0. -1.
         12    1    3    3    0    0  0.33923084846E+01 -0.20087525472E+01 -0.18109302258E+02  0.18533474362E+02  0.00000000000E+00 0. -1.
</event>
<event>
 7    1  0.2983653E-010  0.4778727E+02  0.7816164E-02  0.1312668E+00
        -11   -1    0    0    0    0  0.00000000000E+00  0.00000000000E+00  0.45593999997E+02  0.45594000000E+02  0.51100000000E-03 0. -1.
         11   -1    0    0    0    0 -0.00000000000E+00 -0.00000000000E+00 -0.45593999997E+02  0.45594000000E+02  0.51100000000E-03 0.  1.
    9900012    2    1    2    0    0  0.20579838906E+02  0.28731987145E+02  0.25190602820E+02  0.47787270453E+02  0.19999997305E+02 0.  0.
        -12    1    1    2    0    0 -0.20579838906E+02 -0.28731987145E+02 -0.25190602820E+02  0.43400729547E+02  0.00000000000E+00 0.  1.
         11    1    3    3    0    0  0.14286867802E+02  0.17794450092E+02  0.21356770629E+02  0.31254898778E+02  0.51100000000E-03 0. -1.
        -11    1    3    3    0    0  0.66532786960E+01  0.64184846345E+01 -0.16780339036E+01  0.93956830753E+01  0.51100000000E-03 0.  1.
        -12    1    3    3    0    0 -0.36030759184E+00  0.45190524187E+01  0.55118660948E+01  0.71366885998E+01  0.00000000000E+00 0.  1.
</event>
<event>
 7    1  0.2983653E-010  0.4778727E+02  0.7816164E-02  0.1312668E+00
        -11   -1    0    0    0    0  0.00000000000E+00  0.00000000000E+00  0.45593999997E+02  0.45594000000E+02  0.51100000000E-03 0.  1.
         11   -1    0    0    0    0 -0.00000000000E+00 -0.00000000000E+00 -0.45593999997E+02  0.45594000000E+02  0.51100000000E-03 0. -1.
    9900012    2    1    2    0    0  0.39535709030E+02 -0.11341778904E+02 -0.13853356604E+02  0.47787265831E+02  0.19999976229E+02 0.  0.
        -12    1    1    2    0    0 -0.39535709030E+02  0.11341778904E+02  0.13853356604E+02  0.43400734169E+02  0.00000000000E+00 0.  1.
         11    1    3    3    0    0  0.81131087760E+01 -0.36264118825E+00 -0.10024775060E+02  0.12901556414E+02  0.51100000000E-03 0. -1.
        -11    1    3    3    0    0  0.31623889021E+02 -0.11056879539E+02 -0.25598688130E+01  0.33598777813E+02  0.51100000000E-03 0.  1.
        -12    1    3    3    0    0 -0.20128876673E+00  0.77741822679E-01 -0.12687127313E+01  0.12869316039E+01  0.00000000000E+00 0.  1.
</event>
<event>
 7    1  0.2983653E-010  0.4778727E+02  0.7816164E-02  0.1312668E+00
        -11   -1    0    0    0    0  0.00000000000E+00  0.00000000000E+00  0.45593999997E+02  0.45594000000E+02  0.51100000000E-03 0.  1.
         11   -1    0    0    0    0 -0.00000000000E+00 -0.00000000000E+00 -0.45593999997E+02  0.45594000000E+02  0.51100000000E-03 0. -1.
    9900012    2    1    2    0    0 -0.17458547824E+02 -0.28990594905E+00 -0.39733340247E+02  0.47787271149E+02  0.20000000477E+02 0.  0.
        -12    1    1    2    0    0  0.17458547824E+02  0.28990594905E+00  0.39733340247E+02  0.43400728851E+02  0.00000000000E+00 0.  1.
         11    1    3    3    0    0 -0.19209923699E+02 -0.11179410552E+01 -0.20515570434E+02  0.28127559283E+02  0.51100000000E-03 0. -1.
        -11    1    3    3    0    0  0.71737135019E+00  0.63662694312E+00 -0.18098695484E+02  0.18124091536E+02  0.51100000000E-03 0.  1.
         12    1    3    3    0    0  0.10340045251E+01  0.19140816304E+00 -0.11190743294E+01  0.15356203298E+01  0.00000000000E+00 0. -1.
</event>
<event>
 7    1  0.2983653E-010  0.4778728E+02  0.7816164E-02  0.1312668E+00
        -11   -1    0    0    0    0  0.00000000000E+00  0.00000000000E+00  0.45593999997E+02  0.45594000000E+02  0.51100000000E-03 0.  1.
         11   -1    0    0    0    0 -0.00000000000E+00 -0.00000000000E+00 -0.45593999997E+02  0.45594000000E+02  0.51100000000E-03 0. -1.
    9900012    2    1    2    0    0 -0.21736894776E+02 -0.37385946676E+02 -0.36633986060E+01  0.47787284652E+02  0.20000062044E+02 0.  0.
        -12    1    1    2    0    0  0.21736894776E+02  0.37385946676E+02  0.36633986060E+01  0.43400715348E+02  0.00000000000E+00 0.  1.
         11    1    3    3    0    0  0.24521109406E+01 -0.20758576178E+00  0.34676000969E-01  0.24611262868E+01  0.51100000000E-03 0. -1.
        -11    1    3    3    0    0 -0.13405649732E+02 -0.14180647055E+02 -0.40194913568E+01  0.19923817573E+02  0.51100000000E-03 0.  1.
         12    1    3    3    0    0 -0.10783355984E+02 -0.22997713859E+02  0.32141674983E+00  0.25402340793E+02  0.00000000000E+00 0. -1.
</event>
<event>
 7    1  0.2983653E-010  0.4778727E+02  0.7816164E-02  0.1312668E+00
        -11   -1    0    0    0    0  0.00000000000E+00  0.00000000000E+00  0.45593999997E+02  0.45594000000E+02  0.51100000000E-03 0.  1.
         11   -1    0    0    0    0 -0.00000000000E+00 -0.00000000000E+00 -0.45593999997E+02  0.45594000000E+02  0.51100000000E-03 0. -1.
    9900012    2    1    2    0    0  0.30530545250E+02  0.22262515638E+01 -0.30766100526E+02  0.47787270388E+02  0.19999997005E+02 0.  0.
        -12    1    1    2    0    0 -0.30530545250E+02 -0.22262515638E+01  0.30766100526E+02  0.43400729612E+02  0.00000000000E+00 0.  1.
         11    1    3    3    0    0  0.14875569961E+01 -0.43443842082E+01 -0.83353486714E+01  0.95165402169E+01  0.51100000000E-03 0.  1.
        -11    1    3    3    0    0  0.17589697531E+02  0.22051779357E+01 -0.83286342555E+01  0.19586383479E+02  0.51100000000E-03 0. -1.
         12    1    3    3    0    0  0.11453290723E+02  0.43654578363E+01 -0.14102117599E+02  0.18684346692E+02  0.00000000000E+00 0. -1.
</event>
<event>
 7    1  0.2983653E-010  0.4778727E+02  0.7816164E-02  0.1312668E+00
        -11   -1    0    0    0    0  0.00000000000E+00  0.00000000000E+00  0.45593999997E+02  0.45594000000E+02  0.51100000000E-03 0.  1.
         11   -1    0    0    0    0 -0.00000000000E+00 -0.00000000000E+00 -0.45593999997E+02  0.45594000000E+02  0.51100000000E-03 0. -1.
    9900012    2    1    2    0    0 -0.16427471013E+01 -0.29989139283E+02 -0.31330113927E+02  0.47787272683E+02  0.20000007470E+02 0.  0.
        -12    1    1    2    0    0  0.16427471013E+01  0.29989139283E+02  0.31330113927E+02  0.43400727317E+02  0.00000000000E+00 0.  1.
         11    1    3    3    0    0 -0.89649254928E+01 -0.16247536525E+02 -0.21094288599E+02  0.28094863302E+02  0.51100000000E-03 0. -1.
        -11    1    3    3    0    0  0.59327630272E+01 -0.56633531838E+01 -0.73170579078E+01  0.10991386769E+02  0.51100000000E-03 0.  1.
        -12    1    3    3    0    0  0.13894153643E+01 -0.80782495735E+01 -0.29187674210E+01  0.87010226114E+01  0.00000000000E+00 0.  1.
</event>
<event>
 7    1  0.2983653E-010  0.4778726E+02  0.7816164E-02  0.1312668E+00
        -11   -1    0    0    0    0  0.00000000000E+00  0.00000000000E+00  0.45593999997E+02  0.45594000000E+02  0.51100000000E-03 0. -1.
         11   -1    0    0    0    0 -0.00000000000E+00 -0.00000000000E+00 -0.45593999997E+02  0.45594000000E+02  0.51100000000E-03 0.  1.
    9900012    2    1    2    0    0  0.39053190142E+02 -0.17789052607E+02 -0.64824438531E+01  0.47787261168E+02  0.19999954968E+02 0.  0.
        -12    1    1    2    0    0 -0.39053190142E+02  0.17789052607E+02  0.64824438531E+01  0.43400738832E+02  0.00000000000E+00 0.  1.
         11    1    3    3    0    0 -0.56837029038E+00 -0.37461214267E+00 -0.29621446073E+00  0.74237612589E+00  0.51100000000E-03 0.  1.
        -11    1    3    3    0    0  0.18765651637E+02 -0.16416702222E+02 -0.77415766663E+01  0.26107274901E+02  0.51100000000E-03 0. -1.
        -12    1    3    3    0    0  0.20855908795E+02 -0.99773824150E+00  0.15553472739E+01  0.20937610141E+02  0.00000000000E+00 0.  1.
</event>
<event>
 7    1  0.2983653E-010  0.4778727E+02  0.7816164E-02  0.1312668E+00
        -11   -1    0    0    0    0  0.00000000000E+00  0.00000000000E+00  0.45593999997E+02  0.45594000000E+02  0.51100000000E-03 0. -1.
         11   -1    0    0    0    0 -0.00000000000E+00 -0.00000000000E+00 -0.45593999997E+02  0.45594000000E+02  0.51100000000E-03 0.  1.
    9900012    2    1    2    0    0  0.64839055752E+01 -0.13626325456E+02  0.40692818044E+02  0.47787271696E+02  0.20000002970E+02 0.  0.
        -12    1    1    2    0    0 -0.64839055752E+01  0.13626325456E+02 -0.40692818044E+02  0.43400728304E+02  0.00000000000E+00 0.  1.
         11    1    3    3    0    0  0.38555279123E+01 -0.87964692216E+01  0.12305961718E+02  0.15610242161E+02  0.51100000000E-03 0. -1.
        -11    1    3    3    0    0  0.31733996205E+01  0.45733591841E+01  0.83314761125E+01  0.10019958775E+02  0.51100000000E-03 0.  1.
        -12    1    3    3    0    0 -0.54502195750E+00 -0.94032154185E+01  0.20055380214E+02  0.22157070760E+02  0.00000000000E+00 0.  1.
</event>
<event>
 7    1  0.2983653E-010  0.4778727E+02  0.7816164E-02  0.1312668E+00
        -11   -1    0    0    0    0  0.00000000000E+00  0.00000000000E+00  0.45593999997E+02  0.45594000000E+02  0.51100000000E-03 0.  1.
         11   -1    0    0    0    0 -0.00000000000E+00 -0.00000000000E+00 -0.45593999997E+02  0.45594000000E+02  0.51100000000E-03 0. -1.
    9900012    2    1    2    0    0  0.13013636035E+02  0.40932566268E+02 -0.62284821329E+01  0.47787266206E+02  0.19999977941E+02 0.  0.
        -12    1    1    2    0    0 -0.13013636035E+02 -0.40932566268E+02  0.62284821329E+01  0.43400733794E+02  0.00000000000E+00 0.  1.
         11    1    3    3    0    0  0.81770048258E+01  0.14391866378E+02  0.11033496214E+01  0.16589352200E+02  0.51100000000E-03 0. -1.
        -11    1    3    3    0    0  0.71164923097E+01  0.60301080815E+01 -0.92888769115E-01  0.93281989072E+01  0.51100000000E-03 0.  1.
        -12    1    3    3    0    0 -0.22798611005E+01  0.20510591808E+02 -0.72389429852E+01  0.21869715099E+02  0.00000000000E+00 0.  1.
</event>
<event>
 7    1  0.2983653E-010  0.4778726E+02  0.7816164E-02  0.1312668E+00
        -11   -1    0    0    0    0  0.00000000000E+00  0.00000000000E+00  0.45593999997E+02  0.45594000000E+02  0.51100000000E-03 0.  1.
         11   -1    0    0    0    0 -0.00000000000E+00 -0.00000000000E+00 -0.45593999997E+02  0.45594000000E+02  0.51100000000E-03 0. -1.
    9900012    2    1    2    0    0 -0.97868049678E+01  0.42224907884E+02  0.22136550078E+01  0.47787255009E+02  0.19999926887E+02 0.  0.
        -12    1    1    2    0    0  0.97868049678E+01 -0.42224907884E+02 -0.22136550078E+01  0.43400744991E+02  0.00000000000E+00 0.  1.
         11    1    3    3    0    0 -0.11107338611E+02  0.14428528235E+02  0.38882569628E+00  0.18212813724E+02  0.51100000000E-03 0. -1.
        -11    1    3    3    0    0  0.11975907789E+00  0.26315964454E+02  0.40701347311E+01  0.26629125490E+02  0.51100000000E-03 0.  1.
        -12    1    3    3    0    0  0.12007745653E+01  0.14804151956E+01 -0.22453054195E+01  0.29453157955E+01  0.00000000000E+00 0.  1.
</event>
<event>
 7    1  0.2983653E-010  0.4778727E+02  0.7816164E-02  0.1312668E+00
        -11   -1    0    0    0    0  0.00000000000E+00  0.00000000000E+00  0.45593999997E+02  0.45594000000E+02  0.51100000000E-03 0. -1.
         11   -1    0    0    0    0 -0.00000000000E+00 -0.00000000000E+00 -0.45593999997E+02  0.45594000000E+02  0.51100000000E-03 0.  1.
    9900012    2    1    2    0    0 -0.34443778825E+02  0.51040151851E+00  0.26400550524E+02  0.47787268699E+02  0.19999989307E+02 0.  0.
        -12    1    1    2    0    0  0.34443778825E+02 -0.51040151851E+00 -0.26400550524E+02  0.43400731301E+02  0.00000000000E+00 0.  1.
         11    1    3    3    0    0 -0.20198835149E+02  0.43703136906E+01  0.71539818841E+01  0.21869431638E+02  0.51100000000E-03 0. -1.
        -11    1    3    3    0    0 -0.82459306320E+00 -0.38298276846E+01  0.48831863223E+01  0.62604347080E+01  0.51100000000E-03 0.  1.
        -12    1    3    3    0    0 -0.13420350613E+02 -0.30084487460E-01  0.14363382317E+02  0.19657402353E+02  0.00000000000E+00 0.  1.
</event>
<event>
 7    1  0.2983653E-010  0.4778727E+02  0.7816164E-02  0.1312668E+00
        -11   -1    0    0    0    0  0.00000000000E+00  0.00000000000E+00  0.45593999997E+02  0.45594000000E+02  0.51100000000E-03 0.  1.
         11   -1    0    0    0    0 -0.00000000000E+00 -0.00000000000E+00 -0.45593999997E+02  0.45594000000E+02  0.51100000000E-03 0. -1.
    9900012    2    1    2    0    0  0.18152446862E+02 -0.80593192797E+01 -0.38589627301E+02  0.47787270864E+02  0.19999999177E+02 0.  0.
        -12    1    1    2    0    0 -0.18152446862E+02  0.80593192797E+01  0.38589627301E+02  0.43400729136E+02  0.00000000000E+00 0.  1.
         11    1    3    3    0    0  0.19597101294E+01 -0.91652068190E+01 -0.18843518368E+02  0.21045656667E+02  0.51100000000E-03 0. -1.
        -11    1    3    3    0    0  0.95477744202E+01  0.32293772705E+01 -0.72005147342E+01  0.12386940164E+02  0.51100000000E-03 0.  1.
         12    1    3    3    0    0  0.66449623124E+01 -0.21234897312E+01 -0.12545594199E+02  0.14354674032E+02  0.00000000000E+00 0. -1.
</event>
<event>
 7    1  0.2983653E-010  0.4778727E+02  0.7816164E-02  0.1312668E+00
        -11   -1    0    0    0    0  0.00000000000E+00  0.00000000000E+00  0.45593999997E+02  0.45594000000E+02  0.51100000000E-03 0.  1.
         11   -1    0    0    0    0 -0.00000000000E+00 -0.00000000000E+00 -0.45593999997E+02  0.45594000000E+02  0.51100000000E-03 0. -1.
    9900012    2    1    2    0    0  0.36450620034E+02  0.16934364334E+02 -0.16376905501E+02  0.47787269245E+02  0.19999991795E+02 0.  0.
        -12    1    1    2    0    0 -0.36450620034E+02 -0.16934364334E+02  0.16376905501E+02  0.43400730755E+02  0.00000000000E+00 0.  1.
         11    1    3    3    0    0 -0.21444776662E+01  0.28522016777E+00 -0.28118132884E+01  0.35477357899E+01  0.51100000000E-03 0.  1.
        -11    1    3    3    0    0  0.31441677016E+02  0.12529820432E+02 -0.11233786897E+02  0.35661932392E+02  0.51100000000E-03 0. -1.
        -12    1    3    3    0    0  0.71534206847E+01  0.41193237344E+01 -0.23313053154E+01  0.85776010629E+01  0.00000000000E+00 0.  1.
</event>
<event>
 7    1  0.2983653E-010  0.4778728E+02  0.7816164E-02  0.1312668E+00
        -11   -1    0    0    0    0  0.00000000000E+00  0.00000000000E+00  0.45593999997E+02  0.45594000000E+02  0.51100000000E-03 0. -1.
         11   -1    0    0    0    0 -0.00000000000E+00 -0.00000000000E+00 -0.45593999997E+02  0.45594000000E+02  0.51100000000E-03 0.  1.
    9900012    2    1    2    0    0  0.13510705464E+02  0.10579408699E+02  0.39864267953E+02  0.47787275237E+02  0.20000019115E+02 0.  0.
        -12    1    1    2    0    0 -0.13510705464E+02 -0.10579408699E+02 -0.39864267953E+02  0.43400724763E+02  0.00000000000E+00 0.  1.
         11    1    3    3    0    0  0.38256310696E+01 -0.32253688387E+01  0.88127660333E+00  0.50808568115E+01  0.51100000000E-03 0. -1.
        -11    1    3    3    0    0  0.55732892916E+01  0.99471538943E+01  0.21493318452E+02  0.24330436956E+02  0.51100000000E-03 0.  1.
         12    1    3    3    0    0  0.41117851025E+01  0.38576236431E+01  0.17489672898E+02  0.18375981470E+02  0.00000000000E+00 0. -1.
</event>
<event>
 7    1  0.2983653E-010  0.4778725E+02  0.7816164E-02  0.1312668E+00
        -11   -1    0    0    0    0  0.00000000000E+00  0.00000000000E+00  0.45593999997E+02  0.45594000000E+02  0.51100000000E-03 0. -1.
         11   -1    0    0    0    0 -0.00000000000E+00 -0.00000000000E+00 -0.45593999997E+02  0.45594000000E+02  0.51100000000E-03 0.  1.
    9900012    2    1    2    0    0 -0.18891947833E+01 -0.34758165264E+02  0.25921539697E+02  0.47787247360E+02  0.19999892012E+02 0.  0.
        -12    1    1    2    0    0  0.18891947833E+01  0.34758165264E+02 -0.25921539697E+02  0.43400752640E+02  0.00000000000E+00 0.  1.
         11    1    3    3    0    0 -0.64547375970E+01 -0.20520818496E+02  0.87967003331E+01  0.23241118007E+02  0.51100000000E-03 0. -1.
        -11    1    3    3    0    0  0.47484918126E+01 -0.14444842759E+02  0.18038132438E+02  0.23591860438E+02  0.51100000000E-03 0.  1.
         12    1    3    3    0    0 -0.18294899890E+00  0.20749599007E+00 -0.91329307460E+00  0.95426891504E+00  0.00000000000E+00 0. -1.
</event>
<event>
 7    1  0.2983653E-010  0.4778727E+02  0.7816164E-02  0.1312668E+00
        -11   -1    0    0    0    0  0.00000000000E+00  0.00000000000E+00  0.45593999997E+02  0.45594000000E+02  0.51100000000E-03 0.  1.
         11   -1    0    0    0    0 -0.00000000000E+00 -0.00000000000E+00 -0.45593999997E+02  0.45594000000E+02  0.51100000000E-03 0. -1.
    9900012    2    1    2    0    0 -0.74141459833E+01  0.37627255417E+02 -0.20318544738E+02  0.47787272228E+02  0.20000005396E+02 0.  0.
        -12    1    1    2    0    0  0.74141459833E+01 -0.37627255417E+02  0.20318544738E+02  0.43400727772E+02  0.00000000000E+00 0.  1.
         11    1    3    3    0    0  0.10387259463E+01  0.10845400845E+02  0.22890366482E+01  0.11132895406E+02  0.51100000000E-03 0. -1.
        -11    1    3    3    0    0 -0.26448016737E+01  0.67996954717E+01 -0.98073106553E+01  0.12223509191E+02  0.51100000000E-03 0.  1.
         12    1    3    3    0    0 -0.58080702560E+01  0.19982159100E+02 -0.12800270731E+02  0.24430867631E+02  0.00000000000E+00 0. -1.
</event>
<event>
 7    1  0.2983653E-010  0.4778727E+02  0.7816164E-02  0.1312668E+00
        -11   -1    0    0    0    0  0.00000000000E+00  0.00000000000E+00  0.45593999997E+02  0.45594000000E+02  0.51100000000E-03 0.  1.
         11   -1    0    0    0    0 -0.00000000000E+00 -0.00000000000E+00 -0.45593999997E+02  0.45594000000E+02  0.51100000000E-03 0. -1.
    9900012    2    1    2    0    0 -0.37469784429E+02  0.19996464492E+02 -0.89319673554E+01  0.47787269843E+02  0.19999994522E+02 0.  0.
        -12    1    1    2    0    0  0.37469784429E+02 -0.19996464492E+02  0.89319673554E+01  0.43400730157E+02  0.00000000000E+00 0.  1.
         11    1    3    3    0    0 -0.17380899937E+02  0.14514852025E+02 -0.12944067244E+01  0.22681536565E+02  0.51100000000E-03 0. -1.
        -11    1    3    3    0    0 -0.26713342904E+01 -0.34186642858E+01 -0.17594968575E+01  0.46817861808E+01  0.51100000000E-03 0.  1.
        -12    1    3    3    0    0 -0.17417550202E+02  0.89002767525E+01 -0.58780637735E+01  0.20423947097E+02  0.00000000000E+00 0.  1.
</event>
<event>
 7    1  0.2983653E-010  0.4778727E+02  0.7816164E-02  0.1312668E+00
        -11   -1    0    0    0    0  0.00000000000E+00  0.00000000000E+00  0.45593999997E+02  0.45594000000E+02  0.51100000000E-03 0.  1.
         11   -1    0    0    0    0 -0.00000000000E+00 -0.00000000000E+00 -0.45593999997E+02  0.45594000000E+02  0.51100000000E-03 0. -1.
    9900012    2    1    2    0    0  0.35037056253E+02  0.18662784083E+02 -0.17542191222E+02  0.47787270818E+02  0.19999998969E+02 0.  0.
        -12    1    1    2    0    0 -0.35037056253E+02 -0.18662784083E+02  0.17542191222E+02  0.43400729182E+02  0.00000000000E+00 0.  1.
         11    1    3    3    0    0 -0.22005185200E+01  0.10730672737E+01 -0.29374564833E+01  0.38239254678E+01  0.51100000000E-03 0. -1.
        -11    1    3    3    0    0  0.25084102933E+02  0.13126613001E+02 -0.79500444736E+01  0.29406179559E+02  0.51100000000E-03 0.  1.
         12    1    3    3    0    0  0.12153471840E+02  0.44631038086E+01 -0.66546902648E+01  0.14557165792E+02  0.00000000000E+00 0. -1.
</event>
<event>
 7    1  0.2983653E-010  0.4778726E+02  0.7816164E-02  0.1312668E+00
        -11   -1    0    0    0    0  0.00000000000E+00  0.00000000000E+00  0.45593999997E+02  0.45594000000E+02  0.51100000000E-03 0.  1.
         11   -1    0    0    0    0 -0.00000000000E+00 -0.00000000000E+00 -0.45593999997E+02  0.45594000000E+02  0.51100000000E-03 0. -1.
    9900012    2    1    2    0    0 -0.18365391335E+02  0.64222228564E+01 -0.38795508086E+02  0.47787262761E+02  0.19999962231E+02 0.  0.
        -12    1    1    2    0    0  0.18365391335E+02 -0.64222228564E+01  0.38795508086E+02  0.43400737239E+02  0.00000000000E+00 0.  1.
         11    1    3    3    0    0 -0.11633762417E+02 -0.35394212670E+01 -0.23340608050E+02  0.26318357002E+02  0.51100000000E-03 0. -1.
        -11    1    3    3    0    0 -0.23929842029E+01  0.42321576367E+01 -0.51347196212E+00  0.48888838577E+01  0.51100000000E-03 0.  1.
         12    1    3    3    0    0 -0.43386447146E+01  0.57294864866E+01 -0.14941428074E+02  0.16580021901E+02  0.00000000000E+00 0. -1.
</event>
<event>
 7    1  0.2983653E-010  0.4778728E+02  0.7816164E-02  0.1312668E+00
        -11   -1    0    0    0    0  0.00000000000E+00  0.00000000000E+00  0.45593999997E+02  0.45594000000E+02  0.51100000000E-03 0. -1.
         11   -1    0    0    0    0 -0.00000000000E+00 -0.00000000000E+00 -0.45593999997E+02  0.45594000000E+02  0.51100000000E-03 0.  1.
    9900012    2    1    2    0    0  0.53857361968E+01  0.80230242765E+01  0.42311319466E+02  0.47787276182E+02  0.20000023426E+02 0.  0.
        -12    1    1    2    0    0 -0.53857361968E+01 -0.80230242765E+01 -0.42311319466E+02  0.43400723818E+02  0.00000000000E+00 0.  1.
         11    1    3    3    0    0  0.16690252693E+01 -0.29788071518E+01  0.27926521771E+02  0.28134490504E+02  0.51100000000E-03 0. -1.
        -11    1    3    3    0    0  0.19444590131E+01  0.22795418204E+01  0.32665344950E+00  0.30139566191E+01  0.51100000000E-03 0.  1.
         12    1    3    3    0    0  0.17722519144E+01  0.87222896079E+01  0.14058144245E+02  0.16638829059E+02  0.00000000000E+00 0. -1.
</event>
<event>
 7    1  0.2983653E-010  0.4778728E+02  0.7816164E-02  0.1312668E+00
        -11   -1    0    0    0    0  0.00000000000E+00  0.00000000000E+00  0.45593999997E+02  0.45594000000E+02  0.51100000000E-03 0. -1.
         11   -1    0    0    0    0 -0.00000000000E+00 -0.00000000000E+00 -0.45593999997E+02  0.45594000000E+02  0.51100000000E-03 0.  1.
    9900012    2    1    2    0    0 -0.31160412956E+02 -0.17004805952E+02  0.24969740459E+02  0.47787277660E+02  0.20000030162E+02 0.  0.
        -12    1    1    2    0    0  0.31160412956E+02  0.17004805952E+02 -0.24969740459E+02  0.43400722340E+02  0.00000000000E+00 0.  1.
         11    1    3    3    0    0 -0.24659377484E+02 -0.21424980807E+02  0.19712312185E+02  0.38153505113E+02  0.51100000000E-03 0. -1.
        -11    1    3    3    0    0 -0.27460988605E+01  0.27902944872E+01  0.19641286377E+01  0.43800232698E+01  0.51100000000E-03 0.  1.
         12    1    3    3    0    0 -0.37549366112E+01  0.16298803675E+01  0.32932996370E+01  0.52537492770E+01  0.00000000000E+00 0. -1.
</event>
<event>
 7    1  0.2983653E-010  0.4778727E+02  0.7816164E-02  0.1312668E+00
        -11   -1    0    0    0    0  0.00000000000E+00  0.00000000000E+00  0.45593999997E+02  0.45594000000E+02  0.51100000000E-03 0. -1.
         11   -1    0    0    0    0 -0.00000000000E+00 -0.00000000000E+00 -0.45593999997E+02  0.45594000000E+02  0.51100000000E-03 0.  1.
    9900012    2    1    2    0    0 -0.17990547008E+02 -0.30284183836E+02  0.25354119417E+02  0.47787274849E+02  0.20000017346E+02 0.  0.
        -12    1    1    2    0    0  0.17990547008E+02  0.30284183836E+02 -0.25354119417E+02  0.43400725151E+02  0.00000000000E+00 0.  1.
         11    1    3    3    0    0 -0.16067867276E+02 -0.10211942475E+02  0.83840156949E+01  0.20802688464E+02  0.51100000000E-03 0. -1.
        -11    1    3    3    0    0  0.59671075235E+00 -0.14036752227E+02  0.90447589125E+01  0.16709103533E+02  0.51100000000E-03 0.  1.
         12    1    3    3    0    0 -0.25193904844E+01 -0.60354891336E+01  0.79253448093E+01  0.10275482852E+02  0.00000000000E+00 0. -1.
</event>
<event>
 7    1  0.2983653E-010  0.4778727E+02  0.7816164E-02  0.1312668E+00
        -11   -1    0    0    0    0  0.00000000000E+00  0.00000000000E+00  0.45593999997E+02  0.45594000000E+02  0.51100000000E-03 0.  1.
         11   -1    0    0    0    0 -0.00000000000E+00 -0.00000000000E+00 -0.45593999997E+02  0.45594000000E+02  0.51100000000E-03 0. -1.
    9900012    2    1    2    0    0  0.18912272011E+02  0.86088325923E+01 -0.38102988910E+02  0.47787265040E+02  0.19999972621E+02 0.  0.
        -12    1    1    2    0    0 -0.18912272011E+02 -0.86088325923E+01  0.38102988910E+02  0.43400734960E+02  0.00000000000E+00 0.  1.
         11    1    3    3    0    0 -0.21876682164E+01  0.19558300274E+01 -0.51372766786E+01  0.59163143303E+01  0.51100000000E-03 0. -1.
        -11    1    3    3    0    0  0.18990298393E+02  0.95594007955E+01 -0.31474466343E+02  0.37982306518E+02  0.51100000000E-03 0.  1.
        -12    1    3    3    0    0  0.21096418338E+01 -0.29063982305E+01 -0.14912458890E+01  0.38886441909E+01  0.00000000000E+00 0.  1.
</event>
<event>
 7    1  0.2983653E-010  0.4778727E+02  0.7816164E-02  0.1312668E+00
        -11   -1    0    0    0    0  0.00000000000E+00  0.00000000000E+00  0.45593999997E+02  0.45594000000E+02  0.51100000000E-03 0.  1.
         11   -1    0    0    0    0 -0.00000000000E+00 -0.00000000000E+00 -0.45593999997E+02  0.45594000000E+02  0.51100000000E-03 0. -1.
    9900012    2    1    2    0    0 -0.31010529855E+02 -0.15189811330E+02 -0.26291441772E+02  0.47787271428E+02  0.20000001747E+02 0.  0.
        -12    1    1    2    0    0  0.31010529855E+02  0.15189811330E+02  0.26291441772E+02  0.43400728572E+02  0.00000000000E+00 0.  1.
         11    1    3    3    0    0 -0.22367640430E+02 -0.12930394393E+02 -0.17351068145E+02  0.31121793065E+02  0.51100000000E-03 0. -1.
        -11    1    3    3    0    0  0.23630827992E+01  0.93511471670E+00 -0.10397872606E+01  0.27458619153E+01  0.51100000000E-03 0.  1.
        -12    1    3    3    0    0 -0.11005972224E+02 -0.31945316541E+01 -0.79005863667E+01  0.13919616447E+02  0.00000000000E+00 0.  1.
</event>
<event>
 7    1  0.2983653E-010  0.4778728E+02  0.7816164E-02  0.1312668E+00
        -11   -1    0    0    0    0  0.00000000000E+00  0.00000000000E+00  0.45593999997E+02  0.45594000000E+02  0.51100000000E-03 0.  1.
         11   -1    0    0    0    0 -0.00000000000E+00 -0.00000000000E+00 -0.45593999997E+02  0.45594000000E+02  0.51100000000E-03 0. -1.
    9900012    2    1    2    0    0  0.15736991937E+02  0.20921693107E+01 -0.40392976173E+02  0.47787278672E+02  0.20000034776E+02 0.  0.
        -12    1    1    2    0    0 -0.15736991937E+02 -0.20921693107E+01  0.40392976173E+02  0.43400721328E+02  0.00000000000E+00 0.  1.
         11    1    3    3    0    0  0.15925439260E+02 -0.69970790292E+00 -0.28668946333E+02  0.32802708591E+02  0.51100000000E-03 0. -1.
        -11    1    3    3    0    0 -0.36260079806E+01  0.42597125650E+01 -0.70531510114E+01  0.90022233066E+01  0.51100000000E-03 0.  1.
        -12    1    3    3    0    0  0.34375606578E+01 -0.14678353514E+01 -0.46708788285E+01  0.59823467741E+01  0.00000000000E+00 0.  1.
</event>
<event>
 7    1  0.2983653E-010  0.4778727E+02  0.7816164E-02  0.1312668E+00
        -11   -1    0    0    0    0  0.00000000000E+00  0.00000000000E+00  0.45593999997E+02  0.45594000000E+02  0.51100000000E-03 0. -1.
         11   -1    0    0    0    0 -0.00000000000E+00 -0.00000000000E+00 -0.45593999997E+02  0.45594000000E+02  0.51100000000E-03 0.  1.
    9900012    2    1    2    0    0  0.38457012186E+02 -0.19253807014E+02 -0.58286167856E+01  0.47787266775E+02  0.19999980536E+02 0.  0.
        -12    1    1    2    0    0 -0.38457012186E+02  0.19253807014E+02  0.58286167856E+01  0.43400733225E+02  0.00000000000E+00 0.  1.
         11    1    3    3    0    0  0.23569114486E+02 -0.58429513779E+01 -0.83593138447E+01  0.25681148079E+02  0.51100000000E-03 0. -1.
        -11    1    3    3    0    0  0.42762241909E+01 -0.37155994671E+01 -0.33438291935E+01  0.65782191106E+01  0.51100000000E-03 0.  1.
         12    1    3    3    0    0  0.10611673509E+02 -0.96952561687E+01  0.58745262526E+01  0.15527899585E+02  0.00000000000E+00 0. -1.
</event>
<event>
 7    1  0.2983653E-010  0.4778727E+02  0.7816164E-02  0.1312668E+00
        -11   -1    0    0    0    0  0.00000000000E+00  0.00000000000E+00  0.45593999997E+02  0.45594000000E+02  0.51100000000E-03 0.  1.
         11   -1    0    0    0    0 -0.00000000000E+00 -0.00000000000E+00 -0.45593999997E+02  0.45594000000E+02  0.51100000000E-03 0. -1.
    9900012    2    1    2    0    0  0.20682858312E+02 -0.36814394753E+02 -0.10027118992E+02  0.47787269542E+02  0.19999993152E+02 0.  0.
        -12    1    1    2    0    0 -0.20682858312E+02  0.36814394753E+02  0.10027118992E+02  0.43400730458E+02  0.00000000000E+00 0.  1.
         11    1    3    3    0    0  0.82161894241E+01 -0.47486644450E+01 -0.49679860327E+01  0.10711511011E+02  0.51100000000E-03 0. -1.
        -11    1    3    3    0    0  0.12023318110E+02 -0.29816264745E+02 -0.70736235590E+00  0.32156961664E+02  0.51100000000E-03 0.  1.
        -12    1    3    3    0    0  0.44335077792E+00 -0.22494655629E+01 -0.43517706034E+01  0.49187968667E+01  0.00000000000E+00 0.  1.
</event>
<event>
 7    1  0.2983653E-010  0.4778727E+02  0.7816164E-02  0.1312668E+00
        -11   -1    0    0    0    0  0.00000000000E+00  0.00000000000E+00  0.45593999997E+02  0.45594000000E+02  0.51100000000E-03 0.  1.
         11   -1    0    0    0    0 -0.00000000000E+00 -0.00000000000E+00 -0.45593999997E+02  0.45594000000E+02  0.51100000000E-03 0. -1.
    9900012    2    1    2    0    0 -0.15572958330E+02 -0.86182981041E+01 -0.39583218625E+02  0.47787270858E+02  0.19999999149E+02 0.  0.
        -12    1    1    2    0    0  0.15572958330E+02  0.86182981041E+01  0.39583218625E+02  0.43400729142E+02  0.00000000000E+00 0.  1.
         11    1    3    3    0    0 -0.10753723904E+02  0.16661246228E+01 -0.97605592438E+01  0.14618039064E+02  0.51100000000E-03 0. -1.
        -11    1    3    3    0    0 -0.84981914797E+00 -0.21631417668E+01 -0.18666216511E+02  0.18810343272E+02  0.51100000000E-03 0.  1.
         12    1    3    3    0    0 -0.39694152776E+01 -0.81212809601E+01 -0.11156442870E+02  0.14358888522E+02  0.00000000000E+00 0. -1.
</event>
<event>
 7    1  0.2983653E-010  0.4778727E+02  0.7816164E-02  0.1312668E+00
        -11   -1    0    0    0    0  0.00000000000E+00  0.00000000000E+00  0.45593999997E+02  0.45594000000E+02  0.51100000000E-03 0.  1.
         11   -1    0    0    0    0 -0.00000000000E+00 -0.00000000000E+00 -0.45593999997E+02  0.45594000000E+02  0.51100000000E-03 0. -1.
    9900012    2    1    2    0    0  0.93353048381E+01  0.10297700188E+02 -0.41114870488E+02  0.47787272808E+02  0.20000008040E+02 0.  0.
        -12    1    1    2    0    0 -0.93353048381E+01 -0.10297700188E+02  0.41114870488E+02  0.43400727192E+02  0.00000000000E+00 0.  1.
         11    1    3    3    0    0  0.10141537671E+02  0.10796421005E+02 -0.18975015988E+02  0.24072073547E+02  0.51100000000E-03 0. -1.
        -11    1    3    3    0    0 -0.39904998991E+01  0.25781223640E+00 -0.57627652787E+01  0.70142726289E+01  0.51100000000E-03 0.  1.
         12    1    3    3    0    0  0.31842670659E+01 -0.75653305349E+00 -0.16377089221E+02  0.16700926632E+02  0.00000000000E+00 0. -1.
</event>
<event>
 7    1  0.2983653E-010  0.4778727E+02  0.7816164E-02  0.1312668E+00
        -11   -1    0    0    0    0  0.00000000000E+00  0.00000000000E+00  0.45593999997E+02  0.45594000000E+02  0.51100000000E-03 0.  1.
         11   -1    0    0    0    0 -0.00000000000E+00 -0.00000000000E+00 -0.45593999997E+02  0.45594000000E+02  0.51100000000E-03 0. -1.
    9900012    2    1    2    0    0  0.18157155328E+02  0.16901288714E+02 -0.35613025273E+02  0.47787269374E+02  0.19999992384E+02 0.  0.
        -12    1    1    2    0    0 -0.18157155328E+02 -0.16901288714E+02  0.35613025273E+02  0.43400730626E+02  0.00000000000E+00 0.  1.
         11    1    3    3    0    0  0.10119519807E+02  0.98876239784E+01 -0.65294410283E+01  0.15582149706E+02  0.51100000000E-03 0. -1.
        -11    1    3    3    0    0 -0.74530113846E+00 -0.81934858762E+00 -0.36077190588E+00  0.11648873440E+01  0.51100000000E-03 0.  1.
         12    1    3    3    0    0  0.87829366589E+01  0.78330133234E+01 -0.28722812338E+02  0.31040232324E+02  0.00000000000E+00 0. -1.
</event>
<event>
 7    1  0.2983653E-010  0.4778728E+02  0.7816164E-02  0.1312668E+00
        -11   -1    0    0    0    0  0.00000000000E+00  0.00000000000E+00  0.45593999997E+02  0.45594000000E+02  0.51100000000E-03 0. -1.
         11   -1    0    0    0    0 -0.00000000000E+00 -0.00000000000E+00 -0.45593999997E+02  0.45594000000E+02  0.51100000000E-03 0.  1.
    9900012    2    1    2    0    0  0.40578082152E+02 -0.54725411418E+01  0.14390741227E+02  0.47787275458E+02  0.20000020125E+02 0.  0.
        -12    1    1    2    0    0 -0.40578082152E+02  0.54725411418E+01 -0.14390741227E+02  0.43400724542E+02  0.00000000000E+00 0.  1.
         11    1    3    3    0    0  0.23520590838E+02 -0.97743395171E+01  0.10363396429E+02  0.27498288895E+02  0.51100000000E-03 0. -1.
        -11    1    3    3    0    0 -0.41382527036E+00  0.11097790748E+01 -0.12883323096E+01  0.17500460995E+01  0.51100000000E-03 0.  1.
         12    1    3    3    0    0  0.17471316584E+02  0.31920193004E+01  0.53156771074E+01  0.18538940464E+02  0.00000000000E+00 0. -1.
</event>
<event>
 7    1  0.2983653E-010  0.4778727E+02  0.7816164E-02  0.1312668E+00
        -11   -1    0    0    0    0  0.00000000000E+00  0.00000000000E+00  0.45593999997E+02  0.45594000000E+02  0.51100000000E-03 0.  1.
         11   -1    0    0    0    0 -0.00000000000E+00 -0.00000000000E+00 -0.45593999997E+02  0.45594000000E+02  0.51100000000E-03 0. -1.
    9900012    2    1    2    0    0 -0.14884845618E+02  0.39706173967E+02 -0.92457833068E+01  0.47787269716E+02  0.19999993945E+02 0.  0.
        -12    1    1    2    0    0  0.14884845618E+02 -0.39706173967E+02  0.92457833068E+01  0.43400730284E+02  0.00000000000E+00 0.  1.
         11    1    3    3    0    0  0.26309435775E+01  0.89977039665E+01 -0.57932560112E+01  0.11020088759E+02  0.51100000000E-03 0. -1.
        -11    1    3    3    0    0 -0.12441144182E+02  0.13176133998E+02  0.34247078496E+00  0.18124841026E+02  0.51100000000E-03 0.  1.
        -12    1    3    3    0    0 -0.50746450135E+01  0.17532336002E+02 -0.37949980806E+01  0.18642339932E+02  0.00000000000E+00 0.  1.
</event>
<event>
 7    1  0.4092348E-010  0.4778727E+02  0.7816164E-02  0.1312668E+00
        -11   -1    0    0    0    0  0.00000000000E+00  0.00000000000E+00  0.45593999997E+02  0.45594000000E+02  0.51100000000E-03 0. -1.
         11   -1    0    0    0    0 -0.00000000000E+00 -0.00000000000E+00 -0.45593999997E+02  0.45594000000E+02  0.51100000000E-03 0.  1.
    9900012    2    1    2    0    0 -0.31578681745E+01  0.21720291614E+02  0.37441690287E+02  0.47787269928E+02  0.19999994910E+02 0.  0.
        -12    1    1    2    0    0  0.31578681745E+01 -0.21720291614E+02 -0.37441690287E+02  0.43400730072E+02  0.00000000000E+00 0.  1.
         11    1    3    3    0    0  0.24310646583E+01  0.14109879675E+02  0.29181714122E+02  0.32504941458E+02  0.51100000000E-03 0. -1.
        -11    1    3    3    0    0 -0.20370622540E+00  0.16970513744E+01 -0.17655498419E+01  0.24573656827E+01  0.51100000000E-03 0.  1.
        -12    1    3    3    0    0 -0.53852266075E+01  0.59133605651E+01  0.10025526007E+02  0.12824962787E+02  0.00000000000E+00 0.  1.
</event>
<event>
 7    1  0.2983653E-010  0.4778726E+02  0.7816164E-02  0.1312668E+00
        -11   -1    0    0    0    0  0.00000000000E+00  0.00000000000E+00  0.45593999997E+02  0.45594000000E+02  0.51100000000E-03 0.  1.
         11   -1    0    0    0    0 -0.00000000000E+00 -0.00000000000E+00 -0.45593999997E+02  0.45594000000E+02  0.51100000000E-03 0. -1.
    9900012    2    1    2    0    0 -0.19952553263E+02  0.27471073169E+02 -0.27034420549E+02  0.47787261098E+02  0.19999954652E+02 0.  0.
        -12    1    1    2    0    0  0.19952553263E+02 -0.27471073169E+02  0.27034420549E+02  0.43400738902E+02  0.00000000000E+00 0.  1.
         11    1    3    3    0    0 -0.29935034543E+00 -0.12952893351E+00  0.15708399184E+01  0.16043461860E+01  0.51100000000E-03 0.  1.
        -11    1    3    3    0    0 -0.15529536885E+02  0.23892925974E+02 -0.16649501143E+02  0.33003701551E+02  0.51100000000E-03 0. -1.
        -12    1    3    3    0    0 -0.41236660328E+01  0.37076761286E+01 -0.11955759324E+02  0.13179213362E+02  0.00000000000E+00 0.  1.
</event>
<event>
 7    1  0.2983653E-010  0.4778727E+02  0.7816164E-02  0.1312668E+00
        -11   -1    0    0    0    0  0.00000000000E+00  0.00000000000E+00  0.45593999997E+02  0.45594000000E+02  0.51100000000E-03 0.  1.
         11   -1    0    0    0    0 -0.00000000000E+00 -0.00000000000E+00 -0.45593999997E+02  0.45594000000E+02  0.51100000000E-03 0. -1.
    9900012    2    1    2    0    0 -0.14802415010E+02 -0.26389424982E+02 -0.31114473834E+02  0.47787265870E+02  0.19999976410E+02 0.  0.
        -12    1    1    2    0    0  0.14802415010E+02  0.26389424982E+02  0.31114473834E+02  0.43400734130E+02  0.00000000000E+00 0.  1.
         11    1    3    3    0    0 -0.15544079277E+02 -0.16529354236E+02 -0.28876438577E+02  0.36724469461E+02  0.51100000000E-03 0. -1.
        -11    1    3    3    0    0 -0.12021026492E+01 -0.57837199611E+01  0.23872576626E+00  0.59121449255E+01  0.51100000000E-03 0.  1.
         12    1    3    3    0    0  0.19437669159E+01 -0.40763507846E+01 -0.24767610230E+01  0.51506514838E+01  0.00000000000E+00 0. -1.
</event>
<event>
 7    1  0.2983653E-010  0.4778727E+02  0.7816164E-02  0.1312668E+00
        -11   -1    0    0    0    0  0.00000000000E+00  0.00000000000E+00  0.45593999997E+02  0.45594000000E+02  0.51100000000E-03 0.  1.
         11   -1    0    0    0    0 -0.00000000000E+00 -0.00000000000E+00 -0.45593999997E+02  0.45594000000E+02  0.51100000000E-03 0. -1.
    9900012    2    1    2    0    0 -0.30678555083E+02  0.17751112421E+02 -0.25046905606E+02  0.47787271727E+02  0.20000003111E+02 0.  0.
        -12    1    1    2    0    0  0.30678555083E+02 -0.17751112421E+02  0.25046905606E+02  0.43400728273E+02  0.00000000000E+00 0.  1.
         11    1    3    3    0    0  0.17909100001E+01  0.39207938607E+00 -0.26040041216E+01  0.31846385352E+01  0.51100000000E-03 0. -1.
        -11    1    3    3    0    0 -0.24689207520E+02  0.16770879050E+02 -0.21411207310E+02  0.36732263077E+02  0.51100000000E-03 0.  1.
        -12    1    3    3    0    0 -0.77802575635E+01  0.58815398568E+00 -0.10316941750E+01  0.78703701143E+01  0.00000000000E+00 0.  1.
</event>
<event>
 7    1  0.2983653E-010  0.4778727E+02  0.7816164E-02  0.1312668E+00
        -11   -1    0    0    0    0  0.00000000000E+00  0.00000000000E+00  0.45593999997E+02  0.45594000000E+02  0.51100000000E-03 0.  1.
         11   -1    0    0    0    0 -0.00000000000E+00 -0.00000000000E+00 -0.45593999997E+02  0.45594000000E+02  0.51100000000E-03 0. -1.
    9900012    2    1    2    0    0  0.19961004288E+02 -0.15364888630E+02 -0.35342632201E+02  0.47787272521E+02  0.20000006731E+02 0.  0.
        -12    1    1    2    0    0 -0.19961004288E+02  0.15364888630E+02  0.35342632201E+02  0.43400727479E+02  0.00000000000E+00 0.  1.
         11    1    3    3    0    0  0.13752244843E+02 -0.17400864105E+02 -0.34129634098E+02  0.40703147713E+02  0.51100000000E-03 0. -1.
        -11    1    3    3    0    0  0.12194437469E+01  0.15267021887E+01 -0.16777080483E+00  0.19611246592E+01  0.51100000000E-03 0.  1.
         12    1    3    3    0    0  0.49893156981E+01  0.50927328655E+00 -0.10452272988E+01  0.51230001485E+01  0.00000000000E+00 0. -1.
</event>
<event>
 7    1  0.2983653E-010  0.4778727E+02  0.7816164E-02  0.1312668E+00
        -11   -1    0    0    0    0  0.00000000000E+00  0.00000000000E+00  0.45593999997E+02  0.45594000000E+02  0.51100000000E-03 0. -1.
         11   -1    0    0    0    0 -0.00000000000E+00 -0.00000000000E+00 -0.45593999997E+02  0.45594000000E+02  0.51100000000E-03 0.  1.
    9900012    2    1    2    0    0 -0.17644768413E+02  0.10498925617E+02  0.38236869258E+02  0.47787268876E+02  0.19999990114E+02 0.  0.
        -12    1    1    2    0    0  0.17644768413E+02 -0.10498925617E+02 -0.38236869258E+02  0.43400731124E+02  0.00000000000E+00 0.  1.
         11    1    3    3    0    0 -0.68173578356E+01  0.13182517224E+02  0.15347224419E+02  0.21349295676E+02  0.51100000000E-03 0. -1.
        -11    1    3    3    0    0 -0.33394135928E+01  0.95532521696E+00  0.21381759250E+01  0.40787407323E+01  0.51100000000E-03 0.  1.
         12    1    3    3    0    0 -0.74879969846E+01 -0.36389168240E+01  0.20751468913E+02  0.22359232468E+02  0.00000000000E+00 0. -1.
</event>
<event>
 7    1  0.2983653E-010  0.4778728E+02  0.7816164E-02  0.1312668E+00
        -11   -1    0    0    0    0  0.00000000000E+00  0.00000000000E+00  0.45593999997E+02  0.45594000000E+02  0.51100000000E-03 0.  1.
         11   -1    0    0    0    0 -0.00000000000E+00 -0.00000000000E+00 -0.45593999997E+02  0.45594000000E+02  0.51100000000E-03 0. -1.
    9900012    2    1    2    0    0 -0.21176539720E+02  0.12536543746E+02 -0.35749293063E+02  0.47787277447E+02  0.20000029192E+02 0.  0.
        -12    1    1    2    0    0  0.21176539720E+02 -0.12536543746E+02  0.35749293063E+02  0.43400722553E+02  0.00000000000E+00 0.  1.
         11    1    3    3    0    0 -0.12503411178E+02  0.12667319567E+02 -0.28337365913E+02  0.33463451454E+02  0.51100000000E-03 0. -1.
        -11    1    3    3    0    0  0.33715052070E+00 -0.21833451028E+01  0.37319127048E+00  0.22405218805E+01  0.51100000000E-03 0.  1.
         12    1    3    3    0    0 -0.90102790628E+01  0.20525692815E+01 -0.77851184208E+01  0.12083304112E+02  0.00000000000E+00 0. -1.
</event>
<event>
 7    1  0.2983653E-010  0.4778727E+02  0.7816164E-02  0.1312668E+00
        -11   -1    0    0    0    0  0.00000000000E+00  0.00000000000E+00  0.45593999997E+02  0.45594000000E+02  0.51100000000E-03 0.  1.
         11   -1    0    0    0    0 -0.00000000000E+00 -0.00000000000E+00 -0.45593999997E+02  0.45594000000E+02  0.51100000000E-03 0. -1.
    9900012    2    1    2    0    0  0.12697848186E+01  0.36649426710E+02 -0.23212722383E+02  0.47787270604E+02  0.19999997994E+02 0.  0.
        -12    1    1    2    0    0 -0.12697848186E+01 -0.36649426710E+02  0.23212722383E+02  0.43400729396E+02  0.00000000000E+00 0.  1.
         11    1    3    3    0    0  0.71137817748E+01  0.24705264502E+02 -0.12539158596E+02  0.28603959233E+02  0.51100000000E-03 0. -1.
        -11    1    3    3    0    0 -0.61132677900E+01  0.64714248902E+01 -0.23313426028E+01  0.92025290967E+01  0.51100000000E-03 0.  1.
         12    1    3    3    0    0  0.26927083383E+00  0.54727373177E+01 -0.83422211841E+01  0.99807822747E+01  0.00000000000E+00 0. -1.
</event>
<event>
 7    1  0.2983653E-010  0.4778730E+02  0.7816164E-02  0.1312668E+00
        -11   -1    0    0    0    0  0.00000000000E+00  0.00000000000E+00  0.45593999997E+02  0.45594000000E+02  0.51100000000E-03 0. -1.
         11   -1    0    0    0    0 -0.00000000000E+00 -0.00000000000E+00 -0.45593999997E+02  0.45594000000E+02  0.51100000000E-03 0.  1.
    9900012    2    1    2    0    0 -0.57785679271E+01 -0.30621585330E+02  0.30208406620E+02  0.47787295329E+02  0.20000110723E+02 0.  0.
        -12    1    1    2    0    0  0.57785679271E+01  0.30621585330E+02 -0.30208406620E+02  0.43400704671E+02  0.00000000000E+00 0.  1.
         11    1    3    3    0    0 -0.17918640174E+01 -0.94300147327E+01  0.12537166734E+02  0.15789759482E+02  0.51100000000E-03 0. -1.
        -11    1    3    3    0    0 -0.70029546925E+00 -0.56681894912E+01 -0.25827931845E+01  0.62681422086E+01  0.51100000000E-03 0.  1.
        -12    1    3    3    0    0 -0.32864084404E+01 -0.15523381107E+02  0.20254033070E+02  0.25729393639E+02  0.00000000000E+00 0.  1.
</event>
<event>
 7    1  0.3771866E-010  0.4778727E+02  0.7816164E-02  0.1312668E+00
        -11   -1    0    0    0    0  0.00000000000E+00  0.00000000000E+00  0.45593999997E+02  0.45594000000E+02  0.51100000000E-03 0.  1.
         11   -1    0    0    0    0 -0.00000000000E+00 -0.00000000000E+00 -0.45593999997E+02  0.45594000000E+02  0.51100000000E-03 0. -1.
    9900012    2    1    2    0    0  0.13991065523E+02  0.40967426113E+02 -0.30892522091E+01  0.47787269638E+02  0.19999993585E+02 0.  0.
        -12    1    1    2    0    0 -0.13991065523E+02 -0.40967426113E+02  0.30892522091E+01  0.43400730362E+02  0.00000000000E+00 0.  1.
         11    1    3    3    0    0  0.14828531943E+02  0.33617788995E+02  0.15684610214E+01  0.36776366960E+02  0.51100000000E-03 0. -1.
        -11    1    3    3    0    0 -0.42578141199E+00 -0.12114800048E+01 -0.12353917762E+01  0.17818997487E+01  0.51100000000E-03 0.  1.
        -12    1    3    3    0    0 -0.41168500808E+00  0.85611171224E+01 -0.34223214543E+01  0.92290029291E+01  0.00000000000E+00 0.  1.
</event>
<event>
 7    1  0.2983653E-010  0.4778727E+02  0.7816164E-02  0.1312668E+00
        -11   -1    0    0    0    0  0.00000000000E+00  0.00000000000E+00  0.45593999997E+02  0.45594000000E+02  0.51100000000E-03 0. -1.
         11   -1    0    0    0    0 -0.00000000000E+00 -0.00000000000E+00 -0.45593999997E+02  0.45594000000E+02  0.51100000000E-03 0.  1.
    9900012    2    1    2    0    0  0.11803305780E+02 -0.23198739713E+01  0.41700400986E+02  0.47787270917E+02  0.19999999417E+02 0.  0.
        -12    1    1    2    0    0 -0.11803305780E+02  0.23198739713E+01 -0.41700400986E+02  0.43400729083E+02  0.00000000000E+00 0.  1.
         11    1    3    3    0    0  0.33513081751E+01 -0.82436759951E+01  0.84735634069E+01  0.12287828835E+02  0.51100000000E-03 0. -1.
        -11    1    3    3    0    0  0.94119733533E+01  0.38464843267E+01  0.25931347099E+02  0.27853463819E+02  0.51100000000E-03 0.  1.
         12    1    3    3    0    0 -0.95997574881E+00  0.20773176970E+01  0.72954904805E+01  0.76459782633E+01  0.00000000000E+00 0. -1.
</event>
<event>
 7    1  0.2983653E-010  0.4778726E+02  0.7816164E-02  0.1312668E+00
        -11   -1    0    0    0    0  0.00000000000E+00  0.00000000000E+00  0.45593999997E+02  0.45594000000E+02  0.51100000000E-03 0.  1.
         11   -1    0    0    0    0 -0.00000000000E+00 -0.00000000000E+00 -0.45593999997E+02  0.45594000000E+02  0.51100000000E-03 0. -1.
    9900012    2    1    2    0    0  0.14983239847E+02 -0.90754084030E+01 -0.39708487541E+02  0.47787256955E+02  0.19999935762E+02 0.  0.
        -12    1    1    2    0    0 -0.14983239847E+02  0.90754084030E+01  0.39708487541E+02  0.43400743045E+02  0.00000000000E+00 0.  1.
         11    1    3    3    0    0 -0.12596935358E+01  0.26567131962E+00 -0.17290538231E+02  0.17338400204E+02  0.51100000000E-03 0. -1.
        -11    1    3    3    0    0  0.21239384703E+01 -0.32555796650E+00 -0.81995057876E+01  0.84763788281E+01  0.51100000000E-03 0.  1.
         12    1    3    3    0    0  0.14118994913E+02 -0.90155217561E+01 -0.14218443523E+02  0.21972477923E+02  0.00000000000E+00 0. -1.
</event>
<event>
 7    1  0.2983653E-010  0.4778727E+02  0.7816164E-02  0.1312668E+00
        -11   -1    0    0    0    0  0.00000000000E+00  0.00000000000E+00  0.45593999997E+02  0.45594000000E+02  0.51100000000E-03 0.  1.
         11   -1    0    0    0    0 -0.00000000000E+00 -0.00000000000E+00 -0.45593999997E+02  0.45594000000E+02  0.51100000000E-03 0. -1.
    9900012    2    1    2    0    0 -0.27783050432E+02 -0.16656267045E+02 -0.28884151756E+02  0.47787270215E+02  0.19999996218E+02 0.  0.
        -12    1    1    2    0    0  0.27783050432E+02  0.16656267045E+02  0.28884151756E+02  0.43400729785E+02  0.00000000000E+00 0.  1.
         11    1    3    3    0    0 -0.43718292735E+01 -0.57446409370E+01 -0.11840866957E+02  0.13867945819E+02  0.51100000000E-03 0. -1.
        -11    1    3    3    0    0 -0.23630671269E+02 -0.71051846858E+01 -0.11581704886E+02  0.27258542925E+02  0.51100000000E-03 0.  1.
        -12    1    3    3    0    0  0.21945011073E+00 -0.38064414227E+01 -0.54615799129E+01  0.66607814708E+01  0.00000000000E+00 0.  1.
</event>
<event>
 7    1  0.2983653E-010  0.4778727E+02  0.7816164E-02  0.1312668E+00
        -11   -1    0    0    0    0  0.00000000000E+00  0.00000000000E+00  0.45593999997E+02  0.45594000000E+02  0.51100000000E-03 0.  1.
         11   -1    0    0    0    0 -0.00000000000E+00 -0.00000000000E+00 -0.45593999997E+02  0.45594000000E+02  0.51100000000E-03 0. -1.
    9900012    2    1    2    0    0  0.76995912134E+01  0.32579032469E+02 -0.27621487634E+02  0.47787266819E+02  0.19999980737E+02 0.  0.
        -12    1    1    2    0    0 -0.76995912134E+01 -0.32579032469E+02  0.27621487634E+02  0.43400733181E+02  0.00000000000E+00 0.  1.
         11    1    3    3    0    0  0.12033422369E+02  0.19099631191E+02 -0.15163369281E+02  0.27194244497E+02  0.51100000000E-03 0. -1.
        -11    1    3    3    0    0 -0.34582185897E+01  0.66138206254E+00 -0.31902438473E+01  0.47512480584E+01  0.51100000000E-03 0.  1.
         12    1    3    3    0    0 -0.87561256597E+00  0.12818019216E+02 -0.92678745053E+01  0.15841774264E+02  0.00000000000E+00 0. -1.
</event>
<event>
 7    1  0.2983653E-010  0.4778727E+02  0.7816164E-02  0.1312668E+00
        -11   -1    0    0    0    0  0.00000000000E+00  0.00000000000E+00  0.45593999997E+02  0.45594000000E+02  0.51100000000E-03 0. -1.
         11   -1    0    0    0    0 -0.00000000000E+00 -0.00000000000E+00 -0.45593999997E+02  0.45594000000E+02  0.51100000000E-03 0.  1.
    9900012    2    1    2    0    0  0.34748594723E+02 -0.16343113903E+02  0.20225253730E+02  0.47787273097E+02  0.20000009360E+02 0.  0.
        -12    1    1    2    0    0 -0.34748594723E+02  0.16343113903E+02 -0.20225253730E+02  0.43400726903E+02  0.00000000000E+00 0.  1.
         11    1    3    3    0    0  0.34524807356E+02 -0.17949235392E+02  0.19621908573E+02  0.43579314708E+02  0.51100000000E-03 0. -1.
        -11    1    3    3    0    0 -0.12635430935E+01 -0.24964284187E-01  0.13768850242E+01  0.18689507740E+01  0.51100000000E-03 0.  1.
         12    1    3    3    0    0  0.14873304598E+01  0.16310857729E+01 -0.77353986776E+00  0.23390076148E+01  0.00000000000E+00 0. -1.
</event>
<event>
 7    1  0.2983653E-010  0.4778727E+02  0.7816164E-02  0.1312668E+00
        -11   -1    0    0    0    0  0.00000000000E+00  0.00000000000E+00  0.45593999997E+02  0.45594000000E+02  0.51100000000E-03 0.  1.
         11   -1    0    0    0    0 -0.00000000000E+00 -0.00000000000E+00 -0.45593999997E+02  0.45594000000E+02  0.51100000000E-03 0. -1.
    9900012    2    1    2    0    0 -0.18432536726E+02 -0.79892169572E+01 -0.38471249586E+02  0.47787273711E+02  0.20000012156E+02 0.  0.
        -12    1    1    2    0    0  0.18432536726E+02  0.79892169572E+01  0.38471249586E+02  0.43400726289E+02  0.00000000000E+00 0.  1.
         11    1    3    3    0    0 -0.25486490965E+01 -0.92671275173E+01 -0.14631026199E+02  0.17505490354E+02  0.51100000000E-03 0.  1.
        -11    1    3    3    0    0 -0.38842722326E+01  0.25987501550E+00 -0.14578875260E+02  0.15089688861E+02  0.51100000000E-03 0. -1.
         12    1    3    3    0    0 -0.11999615397E+02  0.10180355446E+01 -0.92613481269E+01  0.15192094496E+02  0.00000000000E+00 0. -1.
</event>
<event>
 7    1  0.2983653E-010  0.4778727E+02  0.7816164E-02  0.1312668E+00
        -11   -1    0    0    0    0  0.00000000000E+00  0.00000000000E+00  0.45593999997E+02  0.45594000000E+02  0.51100000000E-03 0. -1.
         11   -1    0    0    0    0 -0.00000000000E+00 -0.00000000000E+00 -0.45593999997E+02  0.45594000000E+02  0.51100000000E-03 0.  1.
    9900012    2    1    2    0    0 -0.43242046227E+02  0.17631668344E+00 -0.37036955407E+01  0.47787274083E+02  0.20000013855E+02 0.  0.
        -12    1    1    2    0    0  0.43242046227E+02 -0.17631668344E+00  0.37036955407E+01  0.43400725917E+02  0.00000000000E+00 0.  1.
         11    1    3    3    0    0 -0.26898037301E+02  0.43363965102E+01  0.61963979541E+01  0.27941082535E+02  0.51100000000E-03 0. -1.
        -11    1    3    3    0    0 -0.68056295205E+01 -0.18205487981E+00 -0.47343343195E+01  0.82923855952E+01  0.51100000000E-03 0.  1.
         12    1    3    3    0    0 -0.95383794051E+01 -0.39780249469E+01 -0.51657591752E+01  0.11553805953E+02  0.00000000000E+00 0. -1.
</event>
<event>
 7    1  0.2983653E-010  0.4778727E+02  0.7816164E-02  0.1312668E+00
        -11   -1    0    0    0    0  0.00000000000E+00  0.00000000000E+00  0.45593999997E+02  0.45594000000E+02  0.51100000000E-03 0.  1.
         11   -1    0    0    0    0 -0.00000000000E+00 -0.00000000000E+00 -0.45593999997E+02  0.45594000000E+02  0.51100000000E-03 0. -1.
    9900012    2    1    2    0    0  0.23455896697E+01 -0.42991674328E+02 -0.54623618197E+01  0.47787271330E+02  0.20000001302E+02 0.  0.
        -12    1    1    2    0    0 -0.23455896697E+01  0.42991674328E+02  0.54623618197E+01  0.43400728670E+02  0.00000000000E+00 0.  1.
         11    1    3    3    0    0 -0.28114729388E+00 -0.17445984444E+01 -0.54353852430E+01  0.57154247903E+01  0.51100000000E-03 0. -1.
        -11    1    3    3    0    0  0.37312014808E+01 -0.25854042581E+02 -0.31976873393E+01  0.26316887864E+02  0.51100000000E-03 0.  1.
         12    1    3    3    0    0 -0.11044645172E+01 -0.15393033303E+02  0.31707107627E+01  0.15754958676E+02  0.00000000000E+00 0. -1.
</event>
<event>
 7    1  0.2983653E-010  0.4778727E+02  0.7816164E-02  0.1312668E+00
        -11   -1    0    0    0    0  0.00000000000E+00  0.00000000000E+00  0.45593999997E+02  0.45594000000E+02  0.51100000000E-03 0.  1.
         11   -1    0    0    0    0 -0.00000000000E+00 -0.00000000000E+00 -0.45593999997E+02  0.45594000000E+02  0.51100000000E-03 0. -1.
    9900012    2    1    2    0    0 -0.42924641811E+02 -0.36196240083E+01  0.52911896034E+01  0.47787271435E+02  0.20000001780E+02 0.  0.
        -12    1    1    2    0    0  0.42924641811E+02  0.36196240083E+01 -0.52911896034E+01  0.43400728565E+02  0.00000000000E+00 0.  1.
         11    1    3    3    0    0 -0.16489011685E+02  0.31292414172E+01 -0.45180207050E+01  0.17380798875E+02  0.51100000000E-03 0. -1.
        -11    1    3    3    0    0 -0.38482470534E+01 -0.36146131280E+01  0.46293375764E+01  0.70217661672E+01  0.51100000000E-03 0.  1.
         12    1    3    3    0    0 -0.22587383073E+02 -0.31342522975E+01  0.51798727320E+01  0.23384706392E+02  0.00000000000E+00 0. -1.
</event>
<event>
 7    1  0.2983653E-010  0.4778727E+02  0.7816164E-02  0.1312668E+00
        -11   -1    0    0    0    0  0.00000000000E+00  0.00000000000E+00  0.45593999997E+02  0.45594000000E+02  0.51100000000E-03 0.  1.
         11   -1    0    0    0    0 -0.00000000000E+00 -0.00000000000E+00 -0.45593999997E+02  0.45594000000E+02  0.51100000000E-03 0. -1.
    9900012    2    1    2    0    0 -0.22072747377E+01 -0.18169201019E+02 -0.39352655863E+02  0.47787269005E+02  0.19999990701E+02 0.  0.
        -12    1    1    2    0    0  0.22072747377E+01  0.18169201019E+02  0.39352655863E+02  0.43400730995E+02  0.00000000000E+00 0.  1.
         11    1    3    3    0    0 -0.11973838051E+01 -0.14490889066E+02 -0.21288238037E+02  0.25780005292E+02  0.51100000000E-03 0. -1.
        -11    1    3    3    0    0  0.27739982753E+01  0.13583419084E+01 -0.14382746956E+02  0.14710661760E+02  0.51100000000E-03 0.  1.
         12    1    3    3    0    0 -0.37838892078E+01 -0.50366538610E+01 -0.36816708706E+01  0.72966019524E+01  0.00000000000E+00 0. -1.
</event>
<event>
 7    1  0.3150377E-010  0.4778727E+02  0.7816164E-02  0.1312668E+00
        -11   -1    0    0    0    0  0.00000000000E+00  0.00000000000E+00  0.45593999997E+02  0.45594000000E+02  0.51100000000E-03 0. -1.
         11   -1    0    0    0    0 -0.00000000000E+00 -0.00000000000E+00 -0.45593999997E+02  0.45594000000E+02  0.51100000000E-03 0.  1.
    9900012    2    1    2    0    0 -0.85827467357E+00 -0.78398896728E+01  0.42678130223E+02  0.47787270688E+02  0.19999998376E+02 0.  0.
        -12    1    1    2    0    0  0.85827467357E+00  0.78398896728E+01 -0.42678130223E+02  0.43400729312E+02  0.00000000000E+00 0.  1.
         11    1    3    3    0    0  0.40341621489E+01  0.29044148592E+00  0.24964337981E+02  0.25289859461E+02  0.51100000000E-03 0. -1.
        -11    1    3    3    0    0 -0.28867720801E+01 -0.10375092165E+02  0.14838660731E+02  0.18334716879E+02  0.51100000000E-03 0.  1.
        -12    1    3    3    0    0 -0.20056647424E+01  0.22447610059E+01  0.28751315108E+01  0.41626943482E+01  0.00000000000E+00 0.  1.
</event>
<event>
 7    1  0.2983653E-010  0.4778727E+02  0.7816164E-02  0.1312668E+00
        -11   -1    0    0    0    0  0.00000000000E+00  0.00000000000E+00  0.45593999997E+02  0.45594000000E+02  0.51100000000E-03 0. -1.
         11   -1    0    0    0    0 -0.00000000000E+00 -0.00000000000E+00 -0.45593999997E+02  0.45594000000E+02  0.51100000000E-03 0.  1.
    9900012    2    1    2    0    0  0.16255487652E+02 -0.14216661506E+02  0.37646635201E+02  0.47787268611E+02  0.19999988904E+02 0.  0.
        -12    1    1    2    0    0 -0.16255487652E+02  0.14216661506E+02 -0.37646635201E+02  0.43400731389E+02  0.00000000000E+00 0.  1.
         11    1    3    3    0    0  0.61093456353E+01 -0.14583994875E+02  0.13231681939E+02  0.20617817969E+02  0.51100000000E-03 0. -1.
        -11    1    3    3    0    0  0.74159763730E+01  0.24758987055E+01  0.12313425613E+02  0.14585857210E+02  0.51100000000E-03 0.  1.
         12    1    3    3    0    0  0.27301656438E+01 -0.21085653364E+01  0.12101527649E+02  0.12583593432E+02  0.00000000000E+00 0. -1.
</event>
<event>
 7    1  0.2983653E-010  0.4778730E+02  0.7816164E-02  0.1312668E+00
        -11   -1    0    0    0    0  0.00000000000E+00  0.00000000000E+00  0.45593999997E+02  0.45594000000E+02  0.51100000000E-03 0.  1.
         11   -1    0    0    0    0 -0.00000000000E+00 -0.00000000000E+00 -0.45593999997E+02  0.45594000000E+02  0.51100000000E-03 0. -1.
    9900012    2    1    2    0    0 -0.40170334995E+02 -0.22913964008E+01 -0.16270040399E+02  0.47787302705E+02  0.20000144355E+02 0.  0.
        -12    1    1    2    0    0  0.40170334995E+02  0.22913964008E+01  0.16270040399E+02  0.43400697295E+02  0.00000000000E+00 0.  1.
         11    1    3    3    0    0 -0.20520806368E+02  0.53488256413E+01 -0.35327995867E+01  0.21498700028E+02  0.51100000000E-03 0. -1.
        -11    1    3    3    0    0 -0.52577380279E+01  0.20457101232E+01 -0.28396126960E+01  0.63160224511E+01  0.51100000000E-03 0.  1.
         12    1    3    3    0    0 -0.14391790599E+02 -0.96859321652E+01 -0.98976281162E+01  0.19972580226E+02  0.00000000000E+00 0. -1.
</event>
<event>
 7    1  0.2983653E-010  0.4778727E+02  0.7816164E-02  0.1312668E+00
        -11   -1    0    0    0    0  0.00000000000E+00  0.00000000000E+00  0.45593999997E+02  0.45594000000E+02  0.51100000000E-03 0. -1.
         11   -1    0    0    0    0 -0.00000000000E+00 -0.00000000000E+00 -0.45593999997E+02  0.45594000000E+02  0.51100000000E-03 0.  1.
    9900012    2    1    2    0    0  0.54374764452E+01  0.49206691590E+01  0.42776678057E+02  0.47787270506E+02  0.19999997545E+02 0.  0.
        -12    1    1    2    0    0 -0.54374764452E+01 -0.49206691590E+01 -0.42776678057E+02  0.43400729494E+02  0.00000000000E+00 0.  1.
         11    1    3    3    0    0 -0.26243975884E+00  0.40959038626E+01  0.21702053248E+02  0.22086747577E+02  0.51100000000E-03 0. -1.
        -11    1    3    3    0    0  0.56579044353E+01 -0.40569704453E+01  0.41931492118E+01  0.81273238133E+01  0.51100000000E-03 0.  1.
        -12    1    3    3    0    0  0.42011768737E-01  0.48817357416E+01  0.16881475597E+02  0.17573199116E+02  0.00000000000E+00 0.  1.
</event>
<event>
 7    1  0.2983653E-010  0.4778727E+02  0.7816164E-02  0.1312668E+00
        -11   -1    0    0    0    0  0.00000000000E+00  0.00000000000E+00  0.45593999997E+02  0.45594000000E+02  0.51100000000E-03 0.  1.
         11   -1    0    0    0    0 -0.00000000000E+00 -0.00000000000E+00 -0.45593999997E+02  0.45594000000E+02  0.51100000000E-03 0. -1.
    9900012    2    1    2    0    0  0.91257516360E+01 -0.96048323291E+01 -0.41329060009E+02  0.47787270188E+02  0.19999996093E+02 0.  0.
        -12    1    1    2    0    0 -0.91257516360E+01  0.96048323291E+01  0.41329060009E+02  0.43400729812E+02  0.00000000000E+00 0.  1.
         11    1    3    3    0    0  0.29265184696E+01 -0.12657721919E+02 -0.18955535832E+02  0.22980312737E+02  0.51100000000E-03 0. -1.
        -11    1    3    3    0    0  0.71456364834E+01  0.32751738361E-01 -0.18319487091E+02  0.19663794165E+02  0.51100000000E-03 0.  1.
        -12    1    3    3    0    0 -0.94640331707E+00  0.30201378520E+01 -0.40540370857E+01  0.51431632850E+01  0.00000000000E+00 0.  1.
</event>
<event>
 7    1  0.2983653E-010  0.4778728E+02  0.7816164E-02  0.1312668E+00
        -11   -1    0    0    0    0  0.00000000000E+00  0.00000000000E+00  0.45593999997E+02  0.45594000000E+02  0.51100000000E-03 0.  1.
         11   -1    0    0    0    0 -0.00000000000E+00 -0.00000000000E+00 -0.45593999997E+02  0.45594000000E+02  0.51100000000E-03 0. -1.
    9900012    2    1    2    0    0 -0.20687856358E+01 -0.82241924816E+00 -0.43343586640E+02  0.47787277077E+02  0.20000027506E+02 0.  0.
        -12    1    1    2    0    0  0.20687856358E+01  0.82241924816E+00  0.43343586640E+02  0.43400722923E+02  0.00000000000E+00 0.  1.
         11    1    3    3    0    0 -0.13837261283E+01  0.11581230411E+01 -0.72603958161E+01  0.74812629044E+01  0.51100000000E-03 0. -1.
        -11    1    3    3    0    0  0.39011421338E+01  0.43354143458E+01 -0.29571209523E+02  0.30140855336E+02  0.51100000000E-03 0.  1.
        -12    1    3    3    0    0 -0.45862016413E+01 -0.63159566350E+01 -0.65119813006E+01  0.10165158836E+02  0.00000000000E+00 0.  1.
</event>
<event>
 7    1  0.2983653E-010  0.4778726E+02  0.7816164E-02  0.1312668E+00
        -11   -1    0    0    0    0  0.00000000000E+00  0.00000000000E+00  0.45593999997E+02  0.45594000000E+02  0.51100000000E-03 0.  1.
         11   -1    0    0    0    0 -0.00000000000E+00 -0.00000000000E+00 -0.45593999997E+02  0.45594000000E+02  0.51100000000E-03 0. -1.
    9900012    2    1    2    0    0 -0.32801380971E+02  0.27607614999E+02  0.67463339994E+01  0.47787262426E+02  0.19999960707E+02 0.  0.
        -12    1    1    2    0    0  0.32801380971E+02 -0.27607614999E+02 -0.67463339994E+01  0.43400737574E+02  0.00000000000E+00 0.  1.
         11    1    3    3    0    0 -0.31172028522E+02  0.20869257107E+02  0.49202143735E+01  0.37834240631E+02  0.51100000000E-03 0. -1.
        -11    1    3    3    0    0 -0.13289363667E+01  0.81892068933E+01  0.14224966556E+01  0.84174033053E+01  0.51100000000E-03 0.  1.
         12    1    3    3    0    0 -0.30041608178E+00 -0.14508490010E+01  0.40362297026E+00  0.15356184904E+01  0.00000000000E+00 0. -1.
</event>
<event>
 7    1  0.2983653E-010  0.4778727E+02  0.7816164E-02  0.1312668E+00
        -11   -1    0    0    0    0  0.00000000000E+00  0.00000000000E+00  0.45593999997E+02  0.45594000000E+02  0.51100000000E-03 0.  1.
         11   -1    0    0    0    0 -0.00000000000E+00 -0.00000000000E+00 -0.45593999997E+02  0.45594000000E+02  0.51100000000E-03 0. -1.
    9900012    2    1    2    0    0  0.22696168356E+02  0.18094479478E+02 -0.32266033052E+02  0.47787272650E+02  0.20000007320E+02 0.  0.
        -12    1    1    2    0    0 -0.22696168356E+02 -0.18094479478E+02  0.32266033052E+02  0.43400727350E+02  0.00000000000E+00 0.  1.
         11    1    3    3    0    0  0.11508206102E+02 -0.99422349859E+00 -0.13934488420E+02  0.18099647948E+02  0.51100000000E-03 0. -1.
        -11    1    3    3    0    0  0.16085782947E+01  0.81053583376E+01 -0.97270023220E+01  0.12763186606E+02  0.51100000000E-03 0.  1.
        -12    1    3    3    0    0  0.95793839588E+01  0.10983344639E+02 -0.86045423102E+01  0.16924438096E+02  0.00000000000E+00 0.  1.
</event>
<event>
 7    1  0.2983653E-010  0.4778727E+02  0.7816164E-02  0.1312668E+00
        -11   -1    0    0    0    0  0.00000000000E+00  0.00000000000E+00  0.45593999997E+02  0.45594000000E+02  0.51100000000E-03 0.  1.
         11   -1    0    0    0    0 -0.00000000000E+00 -0.00000000000E+00 -0.45593999997E+02  0.45594000000E+02  0.51100000000E-03 0. -1.
    9900012    2    1    2    0    0 -0.46093163329E+01 -0.32929897331E+02 -0.27892639308E+02  0.47787271172E+02  0.20000000580E+02 0.  0.
        -12    1    1    2    0    0  0.46093163329E+01  0.32929897331E+02  0.27892639308E+02  0.43400728828E+02  0.00000000000E+00 0.  1.
         11    1    3    3    0    0  0.25114322595E+01 -0.44542378235E+01 -0.99388797357E+01  0.11177157834E+02  0.51100000000E-03 0. -1.
        -11    1    3    3    0    0 -0.10742990855E+02 -0.20600098902E+02 -0.13326424008E+02  0.26783754486E+02  0.51100000000E-03 0.  1.
        -12    1    3    3    0    0  0.36222422622E+01 -0.78755606053E+01 -0.46273355642E+01  0.98263588515E+01  0.00000000000E+00 0.  1.
</event>
<event>
 7    1  0.2983653E-010  0.4778727E+02  0.7816164E-02  0.1312668E+00
        -11   -1    0    0    0    0  0.00000000000E+00  0.00000000000E+00  0.45593999997E+02  0.45594000000E+02  0.51100000000E-03 0.  1.
         11   -1    0    0    0    0 -0.00000000000E+00 -0.00000000000E+00 -0.45593999997E+02  0.45594000000E+02  0.51100000000E-03 0. -1.
    9900012    2    1    2    0    0  0.27060172112E+02 -0.33836830962E+02 -0.25375959989E+01  0.47787269157E+02  0.19999991394E+02 0.  0.
        -12    1    1    2    0    0 -0.27060172112E+02  0.33836830962E+02  0.25375959989E+01  0.43400730843E+02  0.00000000000E+00 0.  1.
         11    1    3    3    0    0  0.16420579623E+02 -0.30647029784E+02 -0.49608317335E+00  0.34772431156E+02  0.51100000000E-03 0. -1.
        -11    1    3    3    0    0  0.81718295698E+01 -0.14629286998E+01 -0.42054062876E+01  0.93061485698E+01  0.51100000000E-03 0.  1.
         12    1    3    3    0    0  0.24677629190E+01 -0.17268724781E+01  0.21638934621E+01  0.37086894309E+01  0.00000000000E+00 0. -1.
</event>
<event>
 7    1  0.2983653E-010  0.4778727E+02  0.7816164E-02  0.1312668E+00
        -11   -1    0    0    0    0  0.00000000000E+00  0.00000000000E+00  0.45593999997E+02  0.45594000000E+02  0.51100000000E-03 0.  1.
         11   -1    0    0    0    0 -0.00000000000E+00 -0.00000000000E+00 -0.45593999997E+02  0.45594000000E+02  0.51100000000E-03 0. -1.
    9900012    2    1    2    0    0  0.20634876648E+02 -0.38059738727E+02  0.30465578902E+01  0.47787270038E+02  0.19999995412E+02 0.  0.
        -12    1    1    2    0    0 -0.20634876648E+02  0.38059738727E+02 -0.30465578902E+01  0.43400729962E+02  0.00000000000E+00 0.  1.
         11    1    3    3    0    0  0.40521071746E+01 -0.21817812433E+02  0.12397565408E+01  0.22225514807E+02  0.51100000000E-03 0. -1.
        -11    1    3    3    0    0  0.16996305800E+02 -0.17361069855E+02  0.18654409075E+01  0.24367212138E+02  0.51100000000E-03 0.  1.
        -12    1    3    3    0    0 -0.41353632704E+00  0.11191435602E+01 -0.58639558093E-01  0.11945430925E+01  0.00000000000E+00 0.  1.
</event>
<event>
 7    1  0.2983653E-010  0.4778727E+02  0.7816164E-02  0.1312668E+00
        -11   -1    0    0    0    0  0.00000000000E+00  0.00000000000E+00  0.45593999997E+02  0.45594000000E+02  0.51100000000E-03 0.  1.
         11   -1    0    0    0    0 -0.00000000000E+00 -0.00000000000E+00 -0.45593999997E+02  0.45594000000E+02  0.51100000000E-03 0. -1.
    9900012    2    1    2    0    0 -0.16915741984E+02  0.23829627499E+02 -0.32087842699E+02  0.47787272786E+02  0.20000007942E+02 0.  0.
        -12    1    1    2    0    0  0.16915741984E+02 -0.23829627499E+02  0.32087842699E+02  0.43400727214E+02  0.00000000000E+00 0.  1.
         11    1    3    3    0    0 -0.11425189727E+02  0.14688551546E+02 -0.89039826538E+01  0.20629333828E+02  0.51100000000E-03 0. -1.
        -11    1    3    3    0    0 -0.47059011011E+01  0.45404223510E+01 -0.21019926876E+02  0.22013592765E+02  0.51100000000E-03 0.  1.
        -12    1    3    3    0    0 -0.78465115606E+00  0.46006536017E+01 -0.21639331694E+01  0.51443461937E+01  0.00000000000E+00 0.  1.
</event>
<event>
 7    1  0.2983653E-010  0.4778727E+02  0.7816164E-02  0.1312668E+00
        -11   -1    0    0    0    0  0.00000000000E+00  0.00000000000E+00  0.45593999997E+02  0.45594000000E+02  0.51100000000E-03 0.  1.
         11   -1    0    0    0    0 -0.00000000000E+00 -0.00000000000E+00 -0.45593999997E+02  0.45594000000E+02  0.51100000000E-03 0. -1.
    9900012    2    1    2    0    0 -0.31185804086E+01  0.17349669102E+02 -0.39659635140E+02  0.47787271652E+02  0.20000002772E+02 0.  0.
        -12    1    1    2    0    0  0.31185804086E+01 -0.17349669102E+02  0.39659635140E+02  0.43400728348E+02  0.00000000000E+00 0.  1.
         11    1    3    3    0    0 -0.38766318034E+01  0.68956033929E+01 -0.26308299436E+02  0.27471880892E+02  0.51100000000E-03 0. -1.
        -11    1    3    3    0    0 -0.41810100555E+01  0.82529124441E+01 -0.54392567692E+01  0.10732051218E+02  0.51100000000E-03 0.  1.
        -12    1    3    3    0    0  0.49390614503E+01  0.22011532647E+01 -0.79120789348E+01  0.95833395419E+01  0.00000000000E+00 0.  1.
</event>
<event>
 7    1  0.2983653E-010  0.4778727E+02  0.7816164E-02  0.1312668E+00
        -11   -1    0    0    0    0  0.00000000000E+00  0.00000000000E+00  0.45593999997E+02  0.45594000000E+02  0.51100000000E-03 0.  1.
         11   -1    0    0    0    0 -0.00000000000E+00 -0.00000000000E+00 -0.45593999997E+02  0.45594000000E+02  0.51100000000E-03 0. -1.
    9900012    2    1    2    0    0  0.40264148274E+02  0.12701362637E+02 -0.10054712147E+02  0.47787268607E+02  0.19999988887E+02 0.  0.
        -12    1    1    2    0    0 -0.40264148274E+02 -0.12701362637E+02  0.10054712147E+02  0.43400731393E+02  0.00000000000E+00 0.  1.
         11    1    3    3    0    0  0.22314524183E+02  0.14288941525E+02 -0.72133240871E+01  0.27461680285E+02  0.51100000000E-03 0. -1.
        -11    1    3    3    0    0  0.10555891472E+01 -0.26910406925E+00  0.23604831239E+01  0.25997242714E+01  0.51100000000E-03 0.  1.
         12    1    3    3    0    0  0.16894034944E+02 -0.13184748187E+01 -0.52018711836E+01  0.17725864051E+02  0.00000000000E+00 0. -1.
</event>
<event>
 7    1  0.2983653E-010  0.4778727E+02  0.7816164E-02  0.1312668E+00
        -11   -1    0    0    0    0  0.00000000000E+00  0.00000000000E+00  0.45593999997E+02  0.45594000000E+02  0.51100000000E-03 0.  1.
         11   -1    0    0    0    0 -0.00000000000E+00 -0.00000000000E+00 -0.45593999997E+02  0.45594000000E+02  0.51100000000E-03 0. -1.
    9900012    2    1    2    0    0  0.83605335834E+00 -0.16013060829E+02 -0.40329969329E+02  0.47787268112E+02  0.19999986630E+02 0.  0.
        -12    1    1    2    0    0 -0.83605335834E+00  0.16013060829E+02  0.40329969329E+02  0.43400731888E+02  0.00000000000E+00 0.  1.
         11    1    3    3    0    0 -0.24850021042E+01 -0.26573612497E+01 -0.64124709074E+01  0.73726920232E+01  0.51100000000E-03 0. -1.
        -11    1    3    3    0    0  0.10302610563E+02 -0.66806443536E+01 -0.17801241797E+02  0.21625424925E+02  0.51100000000E-03 0.  1.
        -12    1    3    3    0    0 -0.69815551005E+01 -0.66750552254E+01 -0.16116256624E+02  0.18789151164E+02  0.00000000000E+00 0.  1.
</event>
<event>
 7    1  0.2983653E-010  0.4778727E+02  0.7816164E-02  0.1312668E+00
        -11   -1    0    0    0    0  0.00000000000E+00  0.00000000000E+00  0.45593999997E+02  0.45594000000E+02  0.51100000000E-03 0. -1.
         11   -1    0    0    0    0 -0.00000000000E+00 -0.00000000000E+00 -0.45593999997E+02  0.45594000000E+02  0.51100000000E-03 0.  1.
    9900012    2    1    2    0    0 -0.12629240526E+02 -0.17174813082E+02  0.37804123381E+02  0.47787266535E+02  0.19999979439E+02 0.  0.
        -12    1    1    2    0    0  0.12629240526E+02  0.17174813082E+02 -0.37804123381E+02  0.43400733465E+02  0.00000000000E+00 0.  1.
         11    1    3    3    0    0 -0.13097324399E+02 -0.28575079360E+01  0.14525075611E+02  0.19765704637E+02  0.51100000000E-03 0. -1.
        -11    1    3    3    0    0  0.13096912014E+01 -0.23676764764E+01  0.13269491239E+01  0.30136318917E+01  0.51100000000E-03 0.  1.
         12    1    3    3    0    0 -0.84160732857E+00 -0.11949628669E+02  0.21952098646E+02  0.25007930006E+02  0.00000000000E+00 0. -1.
</event>
<event>
 7    1  0.2983653E-010  0.4778727E+02  0.7816164E-02  0.1312668E+00
        -11   -1    0    0    0    0  0.00000000000E+00  0.00000000000E+00  0.45593999997E+02  0.45594000000E+02  0.51100000000E-03 0.  1.
         11   -1    0    0    0    0 -0.00000000000E+00 -0.00000000000E+00 -0.45593999997E+02  0.45594000000E+02  0.51100000000E-03 0. -1.
    9900012    2    1    2    0    0 -0.26105715251E+02  0.34658801068E+02  0.93924265472E+00  0.47787273773E+02  0.20000012443E+02 0.  0.
        -12    1    1    2    0    0  0.26105715251E+02 -0.34658801068E+02 -0.93924265472E+00  0.43400726227E+02  0.00000000000E+00 0.  1.
         11    1    3    3    0    0 -0.30100200098E+01  0.48139497481E+01  0.68302390472E+01  0.88818071551E+01  0.51100000000E-03 0.  1.
        -11    1    3    3    0    0 -0.17318088169E+02  0.17900086215E+02 -0.60706390873E+01  0.25635559747E+02  0.51100000000E-03 0. -1.
        -12    1    3    3    0    0 -0.57776070725E+01  0.11944765105E+02  0.17964269480E+00  0.13269906872E+02  0.00000000000E+00 0.  1.
</event>
<event>
 7    1  0.2983653E-010  0.4778727E+02  0.7816164E-02  0.1312668E+00
        -11   -1    0    0    0    0  0.00000000000E+00  0.00000000000E+00  0.45593999997E+02  0.45594000000E+02  0.51100000000E-03 0.  1.
         11   -1    0    0    0    0 -0.00000000000E+00 -0.00000000000E+00 -0.45593999997E+02  0.45594000000E+02  0.51100000000E-03 0. -1.
    9900012    2    1    2    0    0  0.22172472907E+02 -0.11784326591E+02 -0.35399639530E+02  0.47787269743E+02  0.19999994065E+02 0.  0.
        -12    1    1    2    0    0 -0.22172472907E+02  0.11784326591E+02  0.35399639530E+02  0.43400730257E+02  0.00000000000E+00 0.  1.
         11    1    3    3    0    0  0.77609964927E+01 -0.13444987070E+02 -0.20334286058E+02  0.25582883606E+02  0.51100000000E-03 0. -1.
        -11    1    3    3    0    0 -0.63183544048E+00 -0.29943484879E+00  0.15351318465E+00  0.71585180833E+00  0.51100000000E-03 0.  1.
         12    1    3    3    0    0  0.15043311855E+02  0.19600953276E+01 -0.15218866657E+02  0.21488534328E+02  0.00000000000E+00 0. -1.
</event>
<event>
 7    1  0.2983653E-010  0.4778727E+02  0.7816164E-02  0.1312668E+00
        -11   -1    0    0    0    0  0.00000000000E+00  0.00000000000E+00  0.45593999997E+02  0.45594000000E+02  0.51100000000E-03 0. -1.
         11   -1    0    0    0    0 -0.00000000000E+00 -0.00000000000E+00 -0.45593999997E+02  0.45594000000E+02  0.51100000000E-03 0.  1.
    9900012    2    1    2    0    0  0.19455390549E+01 -0.35804135855E+02  0.24452028868E+02  0.47787274404E+02  0.20000015316E+02 0.  0.
        -12    1    1    2    0    0 -0.19455390549E+01  0.35804135855E+02 -0.24452028868E+02  0.43400725596E+02  0.00000000000E+00 0.  1.
         11    1    3    3    0    0 -0.34712019580E+01 -0.13297959125E+02  0.76255745544E+01  0.15717326346E+02  0.51100000000E-03 0. -1.
        -11    1    3    3    0    0  0.10004990540E+02 -0.18181306413E+02  0.14638770065E+02  0.25395931325E+02  0.51100000000E-03 0.  1.
        -12    1    3    3    0    0 -0.45882495266E+01 -0.43248703161E+01  0.21876842493E+01  0.66740167324E+01  0.00000000000E+00 0.  1.
</event>
<event>
 7    1  0.2983653E-010  0.4778727E+02  0.7816164E-02  0.1312668E+00
        -11   -1    0    0    0    0  0.00000000000E+00  0.00000000000E+00  0.45593999997E+02  0.45594000000E+02  0.51100000000E-03 0. -1.
         11   -1    0    0    0    0 -0.00000000000E+00 -0.00000000000E+00 -0.45593999997E+02  0.45594000000E+02  0.51100000000E-03 0.  1.
    9900012    2    1    2    0    0  0.41134968966E+02  0.91299978651E+01  0.10401003060E+02  0.47787269620E+02  0.19999993508E+02 0.  0.
        -12    1    1    2    0    0 -0.41134968966E+02 -0.91299978651E+01 -0.10401003060E+02  0.43400730380E+02  0.00000000000E+00 0.  1.
         11    1    3    3    0    0  0.43173235772E+00  0.24414800360E+01  0.10468054504E+01  0.26912858464E+01  0.51100000000E-03 0.  1.
        -11    1    3    3    0    0  0.13793986045E+02 -0.75454590200E+00  0.10186139239E+02  0.17163939624E+02  0.51100000000E-03 0. -1.
        -12    1    3    3    0    0  0.26909250563E+02  0.74430637311E+01 -0.83194163017E+00  0.27932044150E+02  0.00000000000E+00 0.  1.
</event>
<event>
 7    1  0.2983653E-010  0.4778727E+02  0.7816164E-02  0.1312668E+00
        -11   -1    0    0    0    0  0.00000000000E+00  0.00000000000E+00  0.45593999997E+02  0.45594000000E+02  0.51100000000E-03 0.  1.
         11   -1    0    0    0    0 -0.00000000000E+00 -0.00000000000E+00 -0.45593999997E+02  0.45594000000E+02  0.51100000000E-03 0. -1.
    9900012    2    1    2    0    0 -0.14273580756E+02 -0.12383144424E+02 -0.39071037283E+02  0.47787270423E+02  0.19999997166E+02 0.  0.
        -12    1    1    2    0    0  0.14273580756E+02  0.12383144424E+02  0.39071037283E+02  0.43400729577E+02  0.00000000000E+00 0.  1.
         11    1    3    3    0    0 -0.49100659569E+01 -0.46728228551E+01 -0.42421464611E+01  0.79962383653E+01  0.51100000000E-03 0. -1.
        -11    1    3    3    0    0 -0.12624935262E+02 -0.57817205750E+01 -0.32503543061E+02  0.35345404156E+02  0.51100000000E-03 0.  1.
        -12    1    3    3    0    0  0.32614204626E+01 -0.19286009940E+01 -0.23253477611E+01  0.44456279014E+01  0.00000000000E+00 0.  1.
</event>
<event>
 7    1  0.2983653E-010  0.4778727E+02  0.7816164E-02  0.1312668E+00
        -11   -1    0    0    0    0  0.00000000000E+00  0.00000000000E+00  0.45593999997E+02  0.45594000000E+02  0.51100000000E-03 0.  1.
         11   -1    0    0    0    0 -0.00000000000E+00 -0.00000000000E+00 -0.45593999997E+02  0.45594000000E+02  0.51100000000E-03 0. -1.
    9900012    2    1    2    0    0 -0.23700809166E+02 -0.28972629245E+02 -0.21965463527E+02  0.47787272029E+02  0.20000004488E+02 0.  0.
        -12    1    1    2    0    0  0.23700809166E+02  0.28972629245E+02  0.21965463527E+02  0.43400727971E+02  0.00000000000E+00 0.  1.
         11    1    3    3    0    0 -0.89088452521E+01 -0.15281440927E+02 -0.84489844877E+01  0.19602941097E+02  0.51100000000E-03 0. -1.
        -11    1    3    3    0    0 -0.16472961065E+02 -0.83341043305E+01 -0.12930598705E+02  0.22539213038E+02  0.51100000000E-03 0.  1.
        -12    1    3    3    0    0  0.16809971504E+01 -0.53570839873E+01 -0.58588033409E+00  0.56451178936E+01  0.00000000000E+00 0.  1.
</event>
<event>
 7    1  0.2983653E-010  0.4778726E+02  0.7816164E-02  0.1312668E+00
        -11   -1    0    0    0    0  0.00000000000E+00  0.00000000000E+00  0.45593999997E+02  0.45594000000E+02  0.51100000000E-03 0. -1.
         11   -1    0    0    0    0 -0.00000000000E+00 -0.00000000000E+00 -0.45593999997E+02  0.45594000000E+02  0.51100000000E-03 0.  1.
    9900012    2    1    2    0    0  0.31879202887E+02  0.28625998895E+02  0.69204384568E+01  0.47787264317E+02  0.19999969326E+02 0.  0.
        -12    1    1    2    0    0 -0.31879202887E+02 -0.28625998895E+02 -0.69204384568E+01  0.43400735683E+02  0.00000000000E+00 0.  1.
         11    1    3    3    0    0 -0.11268540972E+00 -0.21620566273E+01  0.13877262223E+01  0.25715697911E+01  0.51100000000E-03 0. -1.
        -11    1    3    3    0    0  0.17654878690E+02  0.20977991739E+02  0.20253407977E+01  0.27493142501E+02  0.51100000000E-03 0.  1.
         12    1    3    3    0    0  0.14337009606E+02  0.98100637829E+01  0.35073714368E+01  0.17722552025E+02  0.00000000000E+00 0. -1.
</event>
<event>
 7    1  0.2983653E-010  0.4778727E+02  0.7816164E-02  0.1312668E+00
        -11   -1    0    0    0    0  0.00000000000E+00  0.00000000000E+00  0.45593999997E+02  0.45594000000E+02  0.51100000000E-03 0. -1.
         11   -1    0    0    0    0 -0.00000000000E+00 -0.00000000000E+00 -0.45593999997E+02  0.45594000000E+02  0.51100000000E-03 0.  1.
    9900012    2    1    2    0    0  0.16614553332E+02  0.40093724215E+02  0.27041020294E+00  0.47787271601E+02  0.20000002539E+02 0.  0.
        -12    1    1    2    0    0 -0.16614553332E+02 -0.40093724215E+02 -0.27041020294E+00  0.43400728399E+02  0.00000000000E+00 0.  1.
         11    1    3    3    0    0  0.18530713218E+02  0.31442323871E+02  0.24086263515E+00  0.36497466732E+02  0.51100000000E-03 0. -1.
        -11    1    3    3    0    0 -0.25681973624E+01  0.91425405838E+01 -0.14436987767E+01  0.96055167710E+01  0.51100000000E-03 0.  1.
        -12    1    3    3    0    0  0.65203747616E+00 -0.49114023986E+00  0.14732463445E+01  0.16842880980E+01  0.00000000000E+00 0.  1.
</event>
<event>
 7    1  0.3382825E-010  0.4778727E+02  0.7816164E-02  0.1312668E+00
        -11   -1    0    0    0    0  0.00000000000E+00  0.00000000000E+00  0.45593999997E+02  0.45594000000E+02  0.51100000000E-03 0. -1.
         11   -1    0    0    0    0 -0.00000000000E+00 -0.00000000000E+00 -0.45593999997E+02  0.45594000000E+02  0.51100000000E-03 0.  1.
    9900012    2    1    2    0    0  0.34434107938E+02 -0.16617550636E+02 -0.20537092124E+02  0.47787274988E+02  0.20000017982E+02 0.  0.
        -12    1    1    2    0    0 -0.34434107938E+02  0.16617550636E+02  0.20537092124E+02  0.43400725012E+02  0.00000000000E+00 0.  1.
         11    1    3    3    0    0  0.74616810403E+01 -0.39895868232E+01 -0.73797792910E+01  0.11227405293E+02  0.51100000000E-03 0. -1.
        -11    1    3    3    0    0  0.29319990133E+02 -0.11970222377E+02 -0.12092395333E+02  0.33899470059E+02  0.51100000000E-03 0.  1.
        -12    1    3    3    0    0 -0.23475632356E+01 -0.65774143637E+00 -0.10649175002E+01  0.26603996362E+01  0.00000000000E+00 0.  1.
</event>
<event>
 7    1  0.2983653E-010  0.4778727E+02  0.7816164E-02  0.1312668E+00
        -11   -1    0    0    0    0  0.00000000000E+00  0.00000000000E+00  0.45593999997E+02  0.45594000000E+02  0.51100000000E-03 0. -1.
         11   -1    0    0    0    0 -0.00000000000E+00 -0.00000000000E+00 -0.45593999997E+02  0.45594000000E+02  0.51100000000E-03 0.  1.
    9900012    2    1    2    0    0  0.31521383054E+02  0.29282135903E+02  0.57080748937E+01  0.47787271991E+02  0.20000004318E+02 0.  0.
        -12    1    1    2    0    0 -0.31521383054E+02 -0.29282135903E+02 -0.57080748937E+01  0.43400728009E+02  0.00000000000E+00 0.  1.
         11    1    3    3    0    0  0.29667313288E+02  0.27435185982E+02  0.28774311560E+01  0.40510721024E+02  0.51100000000E-03 0. -1.
        -11    1    3    3    0    0 -0.26915478761E+00  0.35224358415E+01  0.29006305372E+01  0.45709579228E+01  0.51100000000E-03 0.  1.
         12    1    3    3    0    0  0.21232245529E+01 -0.16754859197E+01 -0.69986799416E-01  0.27055930443E+01  0.00000000000E+00 0. -1.
</event>
<event>
 7    1  0.2983653E-010  0.4778728E+02  0.7816164E-02  0.1312668E+00
        -11   -1    0    0    0    0  0.00000000000E+00  0.00000000000E+00  0.45593999997E+02  0.45594000000E+02  0.51100000000E-03 0.  1.
         11   -1    0    0    0    0 -0.00000000000E+00 -0.00000000000E+00 -0.45593999997E+02  0.45594000000E+02  0.51100000000E-03 0. -1.
    9900012    2    1    2    0    0 -0.75263465063E+01  0.42615918366E+02  0.32954512241E+01  0.47787281242E+02  0.20000046496E+02 0.  0.
        -12    1    1    2    0    0  0.75263465063E+01 -0.42615918366E+02 -0.32954512241E+01  0.43400718758E+02  0.00000000000E+00 0.  1.
         11    1    3    3    0    0 -0.50781747486E+01  0.10269960155E+02 -0.29988791766E+01  0.11842855101E+02  0.51100000000E-03 0. -1.
        -11    1    3    3    0    0  0.47791832534E+01  0.21162317338E+02  0.13389713275E+01  0.21736538642E+02  0.51100000000E-03 0.  1.
        -12    1    3    3    0    0 -0.72273550110E+01  0.11183640873E+02  0.49553590732E+01  0.14207887499E+02  0.00000000000E+00 0.  1.
</event>
<event>
 7    1  0.4281916E-010  0.4778727E+02  0.7816164E-02  0.1312668E+00
        -11   -1    0    0    0    0  0.00000000000E+00  0.00000000000E+00  0.45593999997E+02  0.45594000000E+02  0.51100000000E-03 0. -1.
         11   -1    0    0    0    0 -0.00000000000E+00 -0.00000000000E+00 -0.45593999997E+02  0.45594000000E+02  0.51100000000E-03 0.  1.
    9900012    2    1    2    0    0  0.27505161658E+02 -0.32271221846E+02 -0.92551287866E+01  0.47787273208E+02  0.20000009863E+02 0.  0.
        -12    1    1    2    0    0 -0.27505161658E+02  0.32271221846E+02  0.92551287866E+01  0.43400726792E+02  0.00000000000E+00 0.  1.
         11    1    3    3    0    0  0.16180732622E+02 -0.25110677537E+02 -0.49532537619E+01  0.30280306432E+02  0.51100000000E-03 0. -1.
        -11    1    3    3    0    0  0.11021714668E+02 -0.46591833288E+01 -0.69612009206E+01  0.13843572589E+02  0.51100000000E-03 0.  1.
        -12    1    3    3    0    0  0.30271436807E+00 -0.25013609802E+01  0.26593258959E+01  0.36633941861E+01  0.00000000000E+00 0.  1.
</event>
<event>
 7    1  0.2983653E-010  0.4778727E+02  0.7816164E-02  0.1312668E+00
        -11   -1    0    0    0    0  0.00000000000E+00  0.00000000000E+00  0.45593999997E+02  0.45594000000E+02  0.51100000000E-03 0.  1.
         11   -1    0    0    0    0 -0.00000000000E+00 -0.00000000000E+00 -0.45593999997E+02  0.45594000000E+02  0.51100000000E-03 0. -1.
    9900012    2    1    2    0    0  0.26446673287E+02 -0.32924122890E+02 -0.10009939814E+02  0.47787270846E+02  0.19999999096E+02 0.  0.
        -12    1    1    2    0    0 -0.26446673287E+02  0.32924122890E+02  0.10009939814E+02  0.43400729154E+02  0.00000000000E+00 0.  1.
         11    1    3    3    0    0  0.25406429567E+01 -0.86311538293E+00 -0.62169819624E+01  0.67713144794E+01  0.51100000000E-03 0. -1.
        -11    1    3    3    0    0  0.12453810864E+02 -0.22717775211E+02 -0.70627362897E+00  0.25917051111E+02  0.51100000000E-03 0.  1.
        -12    1    3    3    0    0  0.11452219466E+02 -0.93432322958E+01 -0.30866842225E+01  0.15098905256E+02  0.00000000000E+00 0.  1.
</event>
<event>
 7    1  0.2983653E-010  0.4778727E+02  0.7816164E-02  0.1312668E+00
        -11   -1    0    0    0    0  0.00000000000E+00  0.00000000000E+00  0.45593999997E+02  0.45594000000E+02  0.51100000000E-03 0.  1.
         11   -1    0    0    0    0 -0.00000000000E+00 -0.00000000000E+00 -0.45593999997E+02  0.45594000000E+02  0.51100000000E-03 0. -1.
    9900012    2    1    2    0    0  0.20071130699E+02  0.13300803901E+02 -0.36109025758E+02  0.47787269440E+02  0.19999992683E+02 0.  0.
        -12    1    1    2    0    0 -0.20071130699E+02 -0.13300803901E+02  0.36109025758E+02  0.43400730560E+02  0.00000000000E+00 0.  1.
         11    1    3    3    0    0  0.19369716340E+02  0.89834387274E+01 -0.27887190875E+02  0.35122407344E+02  0.51100000000E-03 0. -1.
        -11    1    3    3    0    0 -0.30119429600E+01  0.14685886362E+01 -0.17442603443E+00  0.33554400128E+01  0.51100000000E-03 0.  1.
        -12    1    3    3    0    0  0.37133573191E+01  0.28487765371E+01 -0.80474088488E+01  0.93094220829E+01  0.00000000000E+00 0.  1.
</event>
<event>
 7    1  0.2983654E-010  0.4778727E+02  0.7816164E-02  0.1312668E+00
        -11   -1    0    0    0    0  0.00000000000E+00  0.00000000000E+00  0.45593999997E+02  0.45594000000E+02  0.51100000000E-03 0.  1.
         11   -1    0    0    0    0 -0.00000000000E+00 -0.00000000000E+00 -0.45593999997E+02  0.45594000000E+02  0.51100000000E-03 0. -1.
    9900012    2    1    2    0    0  0.25111818993E+02  0.22710942016E+02 -0.27152032640E+02  0.47787271702E+02  0.20000002996E+02 0.  0.
        -12    1    1    2    0    0 -0.25111818993E+02 -0.22710942016E+02  0.27152032640E+02  0.43400728298E+02  0.00000000000E+00 0.  1.
         11    1    3    3    0    0  0.16884429821E+02  0.16947615619E+02 -0.21729159534E+02  0.32318137630E+02  0.51100000000E-03 0. -1.
        -11    1    3    3    0    0  0.51077628543E+01 -0.24695048612E+01 -0.24061181754E+01  0.61625563340E+01  0.51100000000E-03 0.  1.
        -12    1    3    3    0    0  0.31196263176E+01  0.82328312574E+01 -0.30167549302E+01  0.93065777375E+01  0.00000000000E+00 0.  1.
</event>
<event>
 7    1  0.2983653E-010  0.4778727E+02  0.7816164E-02  0.1312668E+00
        -11   -1    0    0    0    0  0.00000000000E+00  0.00000000000E+00  0.45593999997E+02  0.45594000000E+02  0.51100000000E-03 0.  1.
         11   -1    0    0    0    0 -0.00000000000E+00 -0.00000000000E+00 -0.45593999997E+02  0.45594000000E+02  0.51100000000E-03 0. -1.
    9900012    2    1    2    0    0  0.18800204142E+02 -0.36776492847E+02 -0.13329107646E+02  0.47787271751E+02  0.20000003219E+02 0.  0.
        -12    1    1    2    0    0 -0.18800204142E+02  0.36776492847E+02  0.13329107646E+02  0.43400728249E+02  0.00000000000E+00 0.  1.
         11    1    3    3    0    0  0.89469308551E+01 -0.24166871861E+02 -0.65316835198E+01  0.26584735416E+02  0.51100000000E-03 0. -1.
        -11    1    3    3    0    0 -0.58218094184E+00  0.15005910021E+01 -0.27587925540E+01  0.31940013497E+01  0.51100000000E-03 0.  1.
        -12    1    3    3    0    0  0.10435454229E+02 -0.14110211989E+02 -0.40386315721E+01  0.18008534985E+02  0.00000000000E+00 0.  1.
</event>
<event>
 7    1  0.2983653E-010  0.4778729E+02  0.7816164E-02  0.1312668E+00
        -11   -1    0    0    0    0  0.00000000000E+00  0.00000000000E+00  0.45593999997E+02  0.45594000000E+02  0.51100000000E-03 0.  1.
         11   -1    0    0    0    0 -0.00000000000E+00 -0.00000000000E+00 -0.45593999997E+02  0.45594000000E+02  0.51100000000E-03 0. -1.
    9900012    2    1    2    0    0 -0.27228012420E+02 -0.14001590611E+02 -0.30760564303E+02  0.47787291294E+02  0.20000092325E+02 0.  0.
        -12    1    1    2    0    0  0.27228012420E+02  0.14001590611E+02  0.30760564303E+02  0.43400708706E+02  0.00000000000E+00 0.  1.
         11    1    3    3    0    0 -0.10272905208E+02 -0.32996148543E+01 -0.17752683160E+02  0.20774450636E+02  0.51100000000E-03 0. -1.
        -11    1    3    3    0    0 -0.18684209153E+02 -0.92725234480E+01 -0.13318515418E+02  0.24747973978E+02  0.51100000000E-03 0.  1.
        -12    1    3    3    0    0  0.17291019413E+01 -0.14294523083E+01  0.31063427552E+00  0.22648666801E+01  0.00000000000E+00 0.  1.
</event>
<event>
 7    1  0.2983653E-010  0.4778727E+02  0.7816164E-02  0.1312668E+00
        -11   -1    0    0    0    0  0.00000000000E+00  0.00000000000E+00  0.45593999997E+02  0.45594000000E+02  0.51100000000E-03 0.  1.
         11   -1    0    0    0    0 -0.00000000000E+00 -0.00000000000E+00 -0.45593999997E+02  0.45594000000E+02  0.51100000000E-03 0. -1.
    9900012    2    1    2    0    0  0.21895435618E+02 -0.37161545629E+02 -0.48200601672E+01  0.47787267812E+02  0.19999985263E+02 0.  0.
        -12    1    1    2    0    0 -0.21895435618E+02  0.37161545629E+02  0.48200601672E+01  0.43400732188E+02  0.00000000000E+00 0.  1.
         11    1    3    3    0    0  0.31850096918E+01 -0.62841968142E+01 -0.20539438242E+01  0.73385354009E+01  0.51100000000E-03 0. -1.
        -11    1    3    3    0    0  0.20762660148E+02 -0.31654837601E+02 -0.14385393937E+01  0.37883851386E+02  0.51100000000E-03 0.  1.
        -12    1    3    3    0    0 -0.20522342224E+01  0.77748878669E+00 -0.13275769492E+01  0.25648810251E+01  0.00000000000E+00 0.  1.
</event>
<event>
 7    1  0.2983653E-010  0.4778727E+02  0.7816164E-02  0.1312668E+00
        -11   -1    0    0    0    0  0.00000000000E+00  0.00000000000E+00  0.45593999997E+02  0.45594000000E+02  0.51100000000E-03 0. -1.
         11   -1    0    0    0    0 -0.00000000000E+00 -0.00000000000E+00 -0.45593999997E+02  0.45594000000E+02  0.51100000000E-03 0.  1.
    9900012    2    1    2    0    0 -0.58684119282E+01  0.37899058847E+02  0.20318624382E+02  0.47787269398E+02  0.19999992492E+02 0.  0.
        -12    1    1    2    0    0  0.58684119282E+01 -0.37899058847E+02 -0.20318624382E+02  0.43400730602E+02  0.00000000000E+00 0.  1.
         11    1    3    3    0    0 -0.70504447659E+01  0.30263685775E+02  0.22428477532E+02  0.38322787643E+02  0.51100000000E-03 0. -1.
        -11    1    3    3    0    0  0.19370932603E+01  0.23642371231E+01 -0.27368968871E+01  0.41027493593E+01  0.51100000000E-03 0.  1.
         12    1    3    3    0    0 -0.75506042267E+00  0.52711359488E+01  0.62704373736E+00  0.53617323955E+01  0.00000000000E+00 0. -1.
</event>
<event>
 7    1  0.2983653E-010  0.4778727E+02  0.7816164E-02  0.1312668E+00
        -11   -1    0    0    0    0  0.00000000000E+00  0.00000000000E+00  0.45593999997E+02  0.45594000000E+02  0.51100000000E-03 0. -1.
         11   -1    0    0    0    0 -0.00000000000E+00 -0.00000000000E+00 -0.45593999997E+02  0.45594000000E+02  0.51100000000E-03 0.  1.
    9900012    2    1    2    0    0  0.20683909067E+02  0.14475361444E+02  0.35302451846E+02  0.47787270864E+02  0.19999999176E+02 0.  0.
        -12    1    1    2    0    0 -0.20683909067E+02 -0.14475361444E+02 -0.35302451846E+02  0.43400729136E+02  0.00000000000E+00 0.  1.
         11    1    3    3    0    0  0.10502218544E+02  0.76634314846E+01  0.10066251129E+02  0.16442450806E+02  0.51100000000E-03 0. -1.
        -11    1    3    3    0    0  0.34621966177E+00  0.70843770494E+01  0.17321165719E+02  0.18717132482E+02  0.51100000000E-03 0.  1.
        -12    1    3    3    0    0  0.98354708619E+01 -0.27244708998E+00  0.79150349977E+01  0.12627687576E+02  0.00000000000E+00 0.  1.
</event>
<event>
 7    1  0.2983653E-010  0.4778727E+02  0.7816164E-02  0.1312668E+00
        -11   -1    0    0    0    0  0.00000000000E+00  0.00000000000E+00  0.45593999997E+02  0.45594000000E+02  0.51100000000E-03 0.  1.
         11   -1    0    0    0    0 -0.00000000000E+00 -0.00000000000E+00 -0.45593999997E+02  0.45594000000E+02  0.51100000000E-03 0. -1.
    9900012    2    1    2    0    0 -0.19163446442E+02  0.22811981913E+02 -0.31559454728E+02  0.47787269809E+02  0.19999994369E+02 0.  0.
        -12    1    1    2    0    0  0.19163446442E+02 -0.22811981913E+02  0.31559454728E+02  0.43400730191E+02  0.00000000000E+00 0.  1.
         11    1    3    3    0    0 -0.18941537619E+02  0.22644924789E+02 -0.23911378447E+02  0.37991163256E+02  0.51100000000E-03 0. -1.
        -11    1    3    3    0    0  0.27075030006E+01  0.76912250191E+00 -0.52726454379E+01  0.59768647380E+01  0.51100000000E-03 0.  1.
         12    1    3    3    0    0 -0.29294118240E+01 -0.60206537737E+00 -0.23754308429E+01  0.38192418151E+01  0.00000000000E+00 0. -1.
</event>
<event>
 7    1  0.2983653E-010  0.4778728E+02  0.7816164E-02  0.1312668E+00
        -11   -1    0    0    0    0  0.00000000000E+00  0.00000000000E+00  0.45593999997E+02  0.45594000000E+02  0.51100000000E-03 0. -1.
         11   -1    0    0    0    0 -0.00000000000E+00 -0.00000000000E+00 -0.45593999997E+02  0.45594000000E+02  0.51100000000E-03 0.  1.
    9900012    2    1    2    0    0  0.26840098136E+01  0.20449147831E+01  0.43269354128E+02  0.47787278902E+02  0.20000035827E+02 0.  0.
        -12    1    1    2    0    0 -0.26840098136E+01 -0.20449147831E+01 -0.43269354128E+02  0.43400721098E+02  0.00000000000E+00 0.  1.
         11    1    3    3    0    0  0.67509795960E+01 -0.11905807689E+00  0.11196336143E+02  0.13074702429E+02  0.51100000000E-03 0. -1.
        -11    1    3    3    0    0 -0.73949223552E+01 -0.81633022017E+00  0.26739845648E+02  0.27755551106E+02  0.51100000000E-03 0.  1.
        -12    1    3    3    0    0  0.33279525728E+01  0.29803030801E+01  0.53331723369E+01  0.69570253666E+01  0.00000000000E+00 0.  1.
</event>
<event>
 7    1  0.2983653E-010  0.4778724E+02  0.7816164E-02  0.1312668E+00
        -11   -1    0    0    0    0  0.00000000000E+00  0.00000000000E+00  0.45593999997E+02  0.45594000000E+02  0.51100000000E-03 0. -1.
         11   -1    0    0    0    0 -0.00000000000E+00 -0.00000000000E+00 -0.45593999997E+02  0.45594000000E+02  0.51100000000E-03 0.  1.
    9900012    2    1    2    0    0 -0.22383429532E+02  0.33108196854E+02 -0.16924982415E+02  0.47787243713E+02  0.19999875386E+02 0.  0.
        -12    1    1    2    0    0  0.22383429532E+02 -0.33108196854E+02  0.16924982415E+02  0.43400756287E+02  0.00000000000E+00 0.  1.
         11    1    3    3    0    0 -0.77789984449E+01  0.95792755559E+01 -0.44147717976E+01  0.13105935574E+02  0.51100000000E-03 0. -1.
        -11    1    3    3    0    0 -0.49008103724E+01  0.12819458026E+02 -0.14647347071E+02  0.20072399530E+02  0.51100000000E-03 0.  1.
        -12    1    3    3    0    0 -0.97036207150E+01  0.10709463272E+02  0.21371364543E+01  0.14608908610E+02  0.00000000000E+00 0.  1.
</event>
<event>
 7    1  0.2983653E-010  0.4778727E+02  0.7816164E-02  0.1312668E+00
        -11   -1    0    0    0    0  0.00000000000E+00  0.00000000000E+00  0.45593999997E+02  0.45594000000E+02  0.51100000000E-03 0.  1.
         11   -1    0    0    0    0 -0.00000000000E+00 -0.00000000000E+00 -0.45593999997E+02  0.45594000000E+02  0.51100000000E-03 0. -1.
    9900012    2    1    2    0    0  0.15621861481E+02  0.40284800369E+02  0.40884591284E+01  0.47787271954E+02  0.20000004146E+02 0.  0.
        -12    1    1    2    0    0 -0.15621861481E+02 -0.40284800369E+02 -0.40884591284E+01  0.43400728046E+02  0.00000000000E+00 0.  1.
         11    1    3    3    0    0 -0.13300831685E+01  0.67174132996E+01 -0.52649353311E+01  0.86378415692E+01  0.51100000000E-03 0. -1.
        -11    1    3    3    0    0  0.47831205615E+01  0.86953218778E+01  0.50252803563E+01  0.11123862089E+02  0.51100000000E-03 0.  1.
         12    1    3    3    0    0  0.12168824088E+02  0.24872065192E+02  0.43281141031E+01  0.28025568295E+02  0.00000000000E+00 0. -1.
</event>
<event>
 7    1  0.2983653E-010  0.4778727E+02  0.7816164E-02  0.1312668E+00
        -11   -1    0    0    0    0  0.00000000000E+00  0.00000000000E+00  0.45593999997E+02  0.45594000000E+02  0.51100000000E-03 0. -1.
         11   -1    0    0    0    0 -0.00000000000E+00 -0.00000000000E+00 -0.45593999997E+02  0.45594000000E+02  0.51100000000E-03 0.  1.
    9900012    2    1    2    0    0 -0.16760799759E+02 -0.22677432022E+02  0.32991409886E+02  0.47787268924E+02  0.19999990333E+02 0.  0.
        -12    1    1    2    0    0  0.16760799759E+02  0.22677432022E+02 -0.32991409886E+02  0.43400731076E+02  0.00000000000E+00 0.  1.
         11    1    3    3    0    0 -0.76423356484E+01 -0.51161501985E+01  0.78532900867E+00  0.92302236663E+01  0.51100000000E-03 0.  1.
        -11    1    3    3    0    0 -0.47726973487E+01 -0.89366323554E+01  0.23351700284E+02  0.25454743060E+02  0.51100000000E-03 0. -1.
        -12    1    3    3    0    0 -0.43457667618E+01 -0.86246494678E+01  0.88543805929E+01  0.13102302197E+02  0.00000000000E+00 0.  1.
</event>
<event>
 7    1  0.2983653E-010  0.4778727E+02  0.7816164E-02  0.1312668E+00
        -11   -1    0    0    0    0  0.00000000000E+00  0.00000000000E+00  0.45593999997E+02  0.45594000000E+02  0.51100000000E-03 0.  1.
         11   -1    0    0    0    0 -0.00000000000E+00 -0.00000000000E+00 -0.45593999997E+02  0.45594000000E+02  0.51100000000E-03 0. -1.
    9900012    2    1    2    0    0  0.31124003829E+02 -0.57654484423E+01 -0.29693088682E+02  0.47787268145E+02  0.19999986779E+02 0.  0.
        -12    1    1    2    0    0 -0.31124003829E+02  0.57654484423E+01  0.29693088682E+02  0.43400731855E+02  0.00000000000E+00 0.  1.
         11    1    3    3    0    0  0.14762878383E+02 -0.32008570355E+01 -0.61988874097E+01  0.16328327204E+02  0.51100000000E-03 0. -1.
        -11    1    3    3    0    0  0.44326593317E+01  0.10013393495E+01 -0.16634723397E+02  0.17244279399E+02  0.51100000000E-03 0.  1.
        -12    1    3    3    0    0  0.11928466115E+02 -0.35659307564E+01 -0.68594778750E+01  0.14214661541E+02  0.00000000000E+00 0.  1.
</event>
<event>
 7    1  0.2983653E-010  0.4778727E+02  0.7816164E-02  0.1312668E+00
        -11   -1    0    0    0    0  0.00000000000E+00  0.00000000000E+00  0.45593999997E+02  0.45594000000E+02  0.51100000000E-03 0.  1.
         11   -1    0    0    0    0 -0.00000000000E+00 -0.00000000000E+00 -0.45593999997E+02  0.45594000000E+02  0.51100000000E-03 0. -1.
    9900012    2    1    2    0    0  0.17132246233E+02 -0.16583821842E+02 -0.36264122253E+02  0.47787267625E+02  0.19999984409E+02 0.  0.
        -12    1    1    2    0    0 -0.17132246233E+02  0.16583821842E+02  0.36264122253E+02  0.43400732375E+02  0.00000000000E+00 0.  1.
         11    1    3    3    0    0  0.48493081383E+01 -0.49415510519E+01 -0.35942848067E+01  0.78008717302E+01  0.51100000000E-03 0. -1.
        -11    1    3    3    0    0  0.94625517801E+01 -0.15521645630E+02 -0.24415207611E+02  0.30439509395E+02  0.51100000000E-03 0.  1.
        -12    1    3    3    0    0  0.28203863149E+01  0.38793748398E+01 -0.82546298353E+01  0.95468864993E+01  0.00000000000E+00 0.  1.
</event>
<event>
 7    1  0.2983653E-010  0.4778727E+02  0.7816164E-02  0.1312668E+00
        -11   -1    0    0    0    0  0.00000000000E+00  0.00000000000E+00  0.45593999997E+02  0.45594000000E+02  0.51100000000E-03 0.  1.
         11   -1    0    0    0    0 -0.00000000000E+00 -0.00000000000E+00 -0.45593999997E+02  0.45594000000E+02  0.51100000000E-03 0. -1.
    9900012    2    1    2    0    0  0.34711438690E+02 -0.48172841562E+01 -0.25603381819E+02  0.47787270017E+02  0.19999995314E+02 0.  0.
        -12    1    1    2    0    0 -0.34711438690E+02  0.48172841562E+01  0.25603381819E+02  0.43400729983E+02  0.00000000000E+00 0.  1.
         11    1    3    3    0    0  0.70589508663E+01  0.16308234434E+01 -0.11149315948E+02  0.13296451362E+02  0.51100000000E-03 0. -1.
        -11    1    3    3    0    0  0.23372389953E+02 -0.79370794782E+00 -0.75014212575E+01  0.24559517617E+02  0.51100000000E-03 0.  1.
        -12    1    3    3    0    0  0.42800978702E+01 -0.56543996518E+01 -0.69526446127E+01  0.99313010381E+01  0.00000000000E+00 0.  1.
</event>
<event>
 7    1  0.2983653E-010  0.4778727E+02  0.7816164E-02  0.1312668E+00
        -11   -1    0    0    0    0  0.00000000000E+00  0.00000000000E+00  0.45593999997E+02  0.45594000000E+02  0.51100000000E-03 0.  1.
         11   -1    0    0    0    0 -0.00000000000E+00 -0.00000000000E+00 -0.45593999997E+02  0.45594000000E+02  0.51100000000E-03 0. -1.
    9900012    2    1    2    0    0  0.27139409192E+02 -0.15521167128E+02 -0.30102643669E+02  0.47787270557E+02  0.19999997777E+02 0.  0.
        -12    1    1    2    0    0 -0.27139409192E+02  0.15521167128E+02  0.30102643669E+02  0.43400729443E+02  0.00000000000E+00 0.  1.
         11    1    3    3    0    0  0.48017697136E+01 -0.55746838084E+01 -0.16764838741E+02  0.18308301675E+02  0.51100000000E-03 0. -1.
        -11    1    3    3    0    0  0.19537027856E+02 -0.92424147580E+01 -0.73453425320E+01  0.22826995974E+02  0.51100000000E-03 0.  1.
        -12    1    3    3    0    0  0.28006116224E+01 -0.70406856180E+00 -0.59924623965E+01  0.66519729083E+01  0.00000000000E+00 0.  1.
</event>
<event>
 7    1  0.2983653E-010  0.4778727E+02  0.7816164E-02  0.1312668E+00
        -11   -1    0    0    0    0  0.00000000000E+00  0.00000000000E+00  0.45593999997E+02  0.45594000000E+02  0.51100000000E-03 0.  1.
         11   -1    0    0    0    0 -0.00000000000E+00 -0.00000000000E+00 -0.45593999997E+02  0.45594000000E+02  0.51100000000E-03 0. -1.
    9900012    2    1    2    0    0  0.12949016758E+02 -0.31279786169E+02 -0.27157346143E+02  0.47787268356E+02  0.19999987740E+02 0.  0.
        -12    1    1    2    0    0 -0.12949016758E+02  0.31279786169E+02  0.27157346143E+02  0.43400731644E+02  0.00000000000E+00 0.  1.
         11    1    3    3    0    0  0.28566028496E+01 -0.91259619696E+01 -0.12736478228E+02  0.15926746046E+02  0.51100000000E-03 0. -1.
        -11    1    3    3    0    0  0.18866606385E+01 -0.15311995628E+02 -0.21282087593E+01  0.15573887481E+02  0.51100000000E-03 0.  1.
        -12    1    3    3    0    0  0.82057532695E+01 -0.68418285710E+01 -0.12292659156E+02  0.16286634828E+02  0.00000000000E+00 0.  1.
</event>
<event>
 7    1  0.2983653E-010  0.4778727E+02  0.7816164E-02  0.1312668E+00
        -11   -1    0    0    0    0  0.00000000000E+00  0.00000000000E+00  0.45593999997E+02  0.45594000000E+02  0.51100000000E-03 0.  1.
         11   -1    0    0    0    0 -0.00000000000E+00 -0.00000000000E+00 -0.45593999997E+02  0.45594000000E+02  0.51100000000E-03 0. -1.
    9900012    2    1    2    0    0  0.28121483667E+02  0.31017329587E+02 -0.11433752794E+02  0.47787270959E+02  0.19999999611E+02 0.  0.
        -12    1    1    2    0    0 -0.28121483667E+02 -0.31017329587E+02  0.11433752794E+02  0.43400729041E+02  0.00000000000E+00 0.  1.
         11    1    3    3    0    0  0.56842787880E+01 -0.17371993213E+01 -0.18677535575E+01  0.62303603775E+01  0.51100000000E-03 0.  1.
        -11    1    3    3    0    0  0.18721987530E+02  0.25035210919E+02 -0.44440910207E+01  0.31575695528E+02  0.51100000000E-03 0. -1.
        -12    1    3    3    0    0  0.37152173491E+01  0.77193179888E+01 -0.51219082158E+01  0.99812150530E+01  0.00000000000E+00 0.  1.
</event>
<event>
 7    1  0.2983653E-010  0.4778727E+02  0.7816164E-02  0.1312668E+00
        -11   -1    0    0    0    0  0.00000000000E+00  0.00000000000E+00  0.45593999997E+02  0.45594000000E+02  0.51100000000E-03 0.  1.
         11   -1    0    0    0    0 -0.00000000000E+00 -0.00000000000E+00 -0.45593999997E+02  0.45594000000E+02  0.51100000000E-03 0. -1.
    9900012    2    1    2    0    0 -0.39320548336E+02  0.18321442396E+02 -0.13573916225E+01  0.47787270917E+02  0.19999999420E+02 0.  0.
        -12    1    1    2    0    0  0.39320548336E+02 -0.18321442396E+02  0.13573916225E+01  0.43400729083E+02  0.00000000000E+00 0.  1.
         11    1    3    3    0    0 -0.29040549818E+02  0.94571627721E+01 -0.16919163641E+01  0.30588462575E+02  0.51100000000E-03 0. -1.
        -11    1    3    3    0    0 -0.48996863728E+01  0.10483381543E+02  0.42029331578E+00  0.11579501797E+02  0.51100000000E-03 0.  1.
        -12    1    3    3    0    0 -0.53803121451E+01 -0.16191019199E+01 -0.85768574173E-01  0.56193065457E+01  0.00000000000E+00 0.  1.
</event>
<event>
 7    1  0.2983653E-010  0.4778727E+02  0.7816164E-02  0.1312668E+00
        -11   -1    0    0    0    0  0.00000000000E+00  0.00000000000E+00  0.45593999997E+02  0.45594000000E+02  0.51100000000E-03 0.  1.
         11   -1    0    0    0    0 -0.00000000000E+00 -0.00000000000E+00 -0.45593999997E+02  0.45594000000E+02  0.51100000000E-03 0. -1.
    9900012    2    1    2    0    0 -0.23866364823E+02  0.30332251890E+02 -0.19848786890E+02  0.47787271716E+02  0.20000003063E+02 0.  0.
        -12    1    1    2    0    0  0.23866364823E+02 -0.30332251890E+02  0.19848786890E+02  0.43400728284E+02  0.00000000000E+00 0.  1.
         11    1    3    3    0    0  0.30930478765E+01  0.31068497599E+01 -0.45361961954E+01  0.63084496337E+01  0.51100000000E-03 0. -1.
        -11    1    3    3    0    0 -0.12770645292E+02  0.10057200644E+02 -0.71370631654E+01  0.17753150054E+02  0.51100000000E-03 0.  1.
         12    1    3    3    0    0 -0.14188767407E+02  0.17168201486E+02 -0.81755275291E+01  0.23725672028E+02  0.00000000000E+00 0. -1.
</event>
<event>
 7    1  0.2983653E-010  0.4778728E+02  0.7816164E-02  0.1312668E+00
        -11   -1    0    0    0    0  0.00000000000E+00  0.00000000000E+00  0.45593999997E+02  0.45594000000E+02  0.51100000000E-03 0.  1.
         11   -1    0    0    0    0 -0.00000000000E+00 -0.00000000000E+00 -0.45593999997E+02  0.45594000000E+02  0.51100000000E-03 0. -1.
    9900012    2    1    2    0    0  0.11881924072E+01 -0.42341188455E+02  0.94569656506E+01  0.47787282952E+02  0.20000054290E+02 0.  0.
        -12    1    1    2    0    0 -0.11881924072E+01  0.42341188455E+02 -0.94569656506E+01  0.43400717048E+02  0.00000000000E+00 0.  1.
         11    1    3    3    0    0  0.40303936404E+01 -0.18047048912E+02 -0.37370090493E+01  0.18865452134E+02  0.51100000000E-03 0. -1.
        -11    1    3    3    0    0 -0.55561537660E+01 -0.15915457766E+02  0.96833302629E+01  0.19440666805E+02  0.51100000000E-03 0.  1.
        -12    1    3    3    0    0  0.27139525328E+01 -0.83786817768E+01  0.35106444370E+01  0.94811640124E+01  0.00000000000E+00 0.  1.
</event>
<event>
 7    1  0.2983653E-010  0.4778727E+02  0.7816164E-02  0.1312668E+00
        -11   -1    0    0    0    0  0.00000000000E+00  0.00000000000E+00  0.45593999997E+02  0.45594000000E+02  0.51100000000E-03 0. -1.
         11   -1    0    0    0    0 -0.00000000000E+00 -0.00000000000E+00 -0.45593999997E+02  0.45594000000E+02  0.51100000000E-03 0.  1.
    9900012    2    1    2    0    0  0.19800497744E+02  0.38334209715E+02 -0.46959716922E+01  0.47787268491E+02  0.19999988360E+02 0.  0.
        -12    1    1    2    0    0 -0.19800497744E+02 -0.38334209715E+02  0.46959716922E+01  0.43400731509E+02  0.00000000000E+00 0.  1.
         11    1    3    3    0    0 -0.67081809708E+00 -0.24167976337E+00 -0.38303211979E+01  0.38961220165E+01  0.51100000000E-03 0.  1.
        -11    1    3    3    0    0  0.20358652756E+02  0.36743840719E+02 -0.45097981278E+00  0.42009379380E+02  0.51100000000E-03 0. -1.
         12    1    3    3    0    0  0.11266308489E+00  0.18320487589E+01 -0.41467068154E+00  0.18817670950E+01  0.00000000000E+00 0. -1.
</event>
<event>
 7    1  0.2983653E-010  0.4778727E+02  0.7816164E-02  0.1312668E+00
        -11   -1    0    0    0    0  0.00000000000E+00  0.00000000000E+00  0.45593999997E+02  0.45594000000E+02  0.51100000000E-03 0. -1.
         11   -1    0    0    0    0 -0.00000000000E+00 -0.00000000000E+00 -0.45593999997E+02  0.45594000000E+02  0.51100000000E-03 0.  1.
    9900012    2    1    2    0    0  0.31953340181E+02 -0.25538461371E+02  0.14504969112E+02  0.47787273199E+02  0.20000009822E+02 0.  0.
        -12    1    1    2    0    0 -0.31953340181E+02  0.25538461371E+02 -0.14504969112E+02  0.43400726801E+02  0.00000000000E+00 0.  1.
         11    1    3    3    0    0  0.34122574578E+02 -0.21134456090E+02  0.10708913328E+02  0.41541499190E+02  0.51100000000E-03 0. -1.
        -11    1    3    3    0    0 -0.15300872333E+01 -0.27343134839E+01  0.20343855801E+01  0.37358214786E+01  0.51100000000E-03 0.  1.
         12    1    3    3    0    0 -0.63914716364E+00 -0.16696917974E+01  0.17616702037E+01  0.25099525298E+01  0.00000000000E+00 0. -1.
</event>
<event>
 7    1  0.2983653E-010  0.4778727E+02  0.7816164E-02  0.1312668E+00
        -11   -1    0    0    0    0  0.00000000000E+00  0.00000000000E+00  0.45593999997E+02  0.45594000000E+02  0.51100000000E-03 0.  1.
         11   -1    0    0    0    0 -0.00000000000E+00 -0.00000000000E+00 -0.45593999997E+02  0.45594000000E+02  0.51100000000E-03 0. -1.
    9900012    2    1    2    0    0  0.55236888935E+01 -0.18093342278E+02 -0.39060764887E+02  0.47787268125E+02  0.19999986687E+02 0.  0.
        -12    1    1    2    0    0 -0.55236888935E+01  0.18093342278E+02  0.39060764887E+02  0.43400731875E+02  0.00000000000E+00 0.  1.
         11    1    3    3    0    0 -0.12498276955E+01 -0.17068142409E+01 -0.20607515319E+02  0.20715814539E+02  0.51100000000E-03 0. -1.
        -11    1    3    3    0    0  0.32715476424E+01 -0.10788551810E+02 -0.55254427955E+01  0.12554934985E+02  0.51100000000E-03 0.  1.
         12    1    3    3    0    0  0.35019689466E+01 -0.55979762272E+01 -0.12927806772E+02  0.14516518601E+02  0.00000000000E+00 0. -1.
</event>
<event>
 7    1  0.2983653E-010  0.4778727E+02  0.7816164E-02  0.1312668E+00
        -11   -1    0    0    0    0  0.00000000000E+00  0.00000000000E+00  0.45593999997E+02  0.45594000000E+02  0.51100000000E-03 0. -1.
         11   -1    0    0    0    0 -0.00000000000E+00 -0.00000000000E+00 -0.45593999997E+02  0.45594000000E+02  0.51100000000E-03 0.  1.
    9900012    2    1    2    0    0  0.32212998502E+02 -0.24377100576E+02  0.15865151331E+02  0.47787270378E+02  0.19999996961E+02 0.  0.
        -12    1    1    2    0    0 -0.32212998502E+02  0.24377100576E+02 -0.15865151331E+02  0.43400729622E+02  0.00000000000E+00 0.  1.
         11    1    3    3    0    0  0.17291393512E+01 -0.36094706780E+01 -0.38887728600E+01  0.55803903170E+01  0.51100000000E-03 0. -1.
        -11    1    3    3    0    0  0.22594710790E+02 -0.12341471048E+02  0.13176436324E+02  0.28921468458E+02  0.51100000000E-03 0.  1.
         12    1    3    3    0    0  0.78891483605E+01 -0.84261588501E+01  0.65774878671E+01  0.13285411603E+02  0.00000000000E+00 0. -1.
</event>
<event>
 7    1  0.2983653E-010  0.4778727E+02  0.7816164E-02  0.1312668E+00
        -11   -1    0    0    0    0  0.00000000000E+00  0.00000000000E+00  0.45593999997E+02  0.45594000000E+02  0.51100000000E-03 0. -1.
         11   -1    0    0    0    0 -0.00000000000E+00 -0.00000000000E+00 -0.45593999997E+02  0.45594000000E+02  0.51100000000E-03 0.  1.
    9900012    2    1    2    0    0  0.36033054646E+02  0.11709394766E+02  0.21169138000E+02  0.47787270092E+02  0.19999995656E+02 0.  0.
        -12    1    1    2    0    0 -0.36033054646E+02 -0.11709394766E+02 -0.21169138000E+02  0.43400729908E+02  0.00000000000E+00 0.  1.
         11    1    3    3    0    0  0.83212359117E+01  0.22103835374E+01  0.57762495650E+01  0.10367922732E+02  0.51100000000E-03 0. -1.
        -11    1    3    3    0    0  0.11499708122E+02  0.63152429349E+01 -0.21797536910E+01  0.13299507759E+02  0.51100000000E-03 0.  1.
        -12    1    3    3    0    0  0.16212110613E+02  0.31837682933E+01  0.17572642126E+02  0.24119839601E+02  0.00000000000E+00 0.  1.
</event>
<event>
 7    1  0.2983653E-010  0.4778728E+02  0.7816164E-02  0.1312668E+00
        -11   -1    0    0    0    0  0.00000000000E+00  0.00000000000E+00  0.45593999997E+02  0.45594000000E+02  0.51100000000E-03 0.  1.
         11   -1    0    0    0    0 -0.00000000000E+00 -0.00000000000E+00 -0.45593999997E+02  0.45594000000E+02  0.51100000000E-03 0. -1.
    9900012    2    1    2    0    0  0.76563746896E+01  0.35538980060E+02 -0.23706196304E+02  0.47787275118E+02  0.20000018571E+02 0.  0.
        -12    1    1    2    0    0 -0.76563746896E+01 -0.35538980060E+02  0.23706196304E+02  0.43400724882E+02  0.00000000000E+00 0.  1.
         11    1    3    3    0    0  0.12985744826E+02  0.21556880794E+02 -0.12769851047E+02  0.28220520447E+02  0.51100000000E-03 0. -1.
        -11    1    3    3    0    0 -0.38637736498E+01  0.10267810220E+02 -0.42225273141E+01  0.11755271614E+02  0.51100000000E-03 0.  1.
        -12    1    3    3    0    0 -0.14655964867E+01  0.37142890455E+01 -0.67138179430E+01  0.78114830569E+01  0.00000000000E+00 0.  1.
</event>
<event>
 7    1  0.2983653E-010  0.4778725E+02  0.7816164E-02  0.1312668E+00
        -11   -1    0    0    0    0  0.00000000000E+00  0.00000000000E+00  0.45593999997E+02  0.45594000000E+02  0.51100000000E-03 0. -1.
         11   -1    0    0    0    0 -0.00000000000E+00 -0.00000000000E+00 -0.45593999997E+02  0.45594000000E+02  0.51100000000E-03 0.  1.
    9900012    2    1    2    0    0  0.11573275224E+02 -0.37781670806E+02  0.17950755999E+02  0.47787251283E+02  0.19999909898E+02 0.  0.
        -12    1    1    2    0    0 -0.11573275224E+02  0.37781670806E+02 -0.17950755999E+02  0.43400748717E+02  0.00000000000E+00 0.  1.
         11    1    3    3    0    0  0.10471055859E+02 -0.15135301096E+02  0.15566009036E+02  0.24104376940E+02  0.51100000000E-03 0. -1.
        -11    1    3    3    0    0  0.21920885210E+01 -0.21452091466E+02  0.33156403677E+01  0.21817216864E+02  0.51100000000E-03 0.  1.
        -12    1    3    3    0    0 -0.10898691562E+01 -0.11942782434E+01 -0.93089340482E+00  0.18656574796E+01  0.00000000000E+00 0.  1.
</event>
<event>
 7    1  0.2983653E-010  0.4778727E+02  0.7816164E-02  0.1312668E+00
        -11   -1    0    0    0    0  0.00000000000E+00  0.00000000000E+00  0.45593999997E+02  0.45594000000E+02  0.51100000000E-03 0.  1.
         11   -1    0    0    0    0 -0.00000000000E+00 -0.00000000000E+00 -0.45593999997E+02  0.45594000000E+02  0.51100000000E-03 0. -1.
    9900012    2    1    2    0    0 -0.41095998599E+02  0.13627267455E+02  0.30065876087E+01  0.47787273184E+02  0.20000009754E+02 0.  0.
        -12    1    1    2    0    0  0.41095998599E+02 -0.13627267455E+02 -0.30065876087E+01  0.43400726816E+02  0.00000000000E+00 0.  1.
         11    1    3    3    0    0 -0.19940854595E+02  0.13589040210E+02 -0.32077572993E+01  0.24343159264E+02  0.51100000000E-03 0. -1.
        -11    1    3    3    0    0 -0.11023433631E+02 -0.10522235218E+01  0.71966917332E+01  0.13206651185E+02  0.51100000000E-03 0.  1.
         12    1    3    3    0    0 -0.10131710373E+02  0.10904507663E+01 -0.98234682523E+00  0.10237462735E+02  0.00000000000E+00 0. -1.
</event>
<event>
 7    1  0.2983653E-010  0.4778727E+02  0.7816164E-02  0.1312668E+00
        -11   -1    0    0    0    0  0.00000000000E+00  0.00000000000E+00  0.45593999997E+02  0.45594000000E+02  0.51100000000E-03 0.  1.
         11   -1    0    0    0    0 -0.00000000000E+00 -0.00000000000E+00 -0.45593999997E+02  0.45594000000E+02  0.51100000000E-03 0. -1.
    9900012    2    1    2    0    0  0.10046307118E+02  0.41095065383E+02 -0.96897100236E+01  0.47787272288E+02  0.20000005671E+02 0.  0.
        -12    1    1    2    0    0 -0.10046307118E+02 -0.41095065383E+02  0.96897100236E+01  0.43400727712E+02  0.00000000000E+00 0.  1.
         11    1    3    3    0    0  0.14436008830E+02  0.27538482877E+02 -0.53378418121E+01  0.31547724887E+02  0.51100000000E-03 0. -1.
        -11    1    3    3    0    0 -0.51606912697E+01  0.86577548848E+01 -0.74342658949E+00  0.10106539338E+02  0.51100000000E-03 0.  1.
        -12    1    3    3    0    0  0.77098955780E+00  0.48988276221E+01 -0.36084416220E+01  0.61330080636E+01  0.00000000000E+00 0.  1.
</event>
<event>
 7    1  0.2983653E-010  0.4778727E+02  0.7816164E-02  0.1312668E+00
        -11   -1    0    0    0    0  0.00000000000E+00  0.00000000000E+00  0.45593999997E+02  0.45594000000E+02  0.51100000000E-03 0.  1.
         11   -1    0    0    0    0 -0.00000000000E+00 -0.00000000000E+00 -0.45593999997E+02  0.45594000000E+02  0.51100000000E-03 0. -1.
    9900012    2    1    2    0    0  0.12779986411E+02 -0.30164646159E+02 -0.28467333992E+02  0.47787273794E+02  0.20000012536E+02 0.  0.
        -12    1    1    2    0    0 -0.12779986411E+02  0.30164646159E+02  0.28467333992E+02  0.43400726206E+02  0.00000000000E+00 0.  1.
         11    1    3    3    0    0 -0.21415498641E+01 -0.12982940418E+02 -0.13476842192E+02  0.18835292762E+02  0.51100000000E-03 0. -1.
        -11    1    3    3    0    0  0.12731858357E+02 -0.18310988894E+02 -0.13631572759E+02  0.26138330238E+02  0.51100000000E-03 0.  1.
        -12    1    3    3    0    0  0.21896779185E+01  0.11292831529E+01 -0.13589190413E+01  0.28136507933E+01  0.00000000000E+00 0.  1.
</event>
<event>
 7    1  0.2983653E-010  0.4778727E+02  0.7816164E-02  0.1312668E+00
        -11   -1    0    0    0    0  0.00000000000E+00  0.00000000000E+00  0.45593999997E+02  0.45594000000E+02  0.51100000000E-03 0. -1.
         11   -1    0    0    0    0 -0.00000000000E+00 -0.00000000000E+00 -0.45593999997E+02  0.45594000000E+02  0.51100000000E-03 0.  1.
    9900012    2    1    2    0    0 -0.31512301799E+01 -0.23526969520E+02  0.36334208202E+02  0.47787271526E+02  0.20000002195E+02 0.  0.
        -12    1    1    2    0    0  0.31512301799E+01  0.23526969520E+02 -0.36334208202E+02  0.43400728474E+02  0.00000000000E+00 0.  1.
         11    1    3    3    0    0 -0.45117209791E+01 -0.19108710689E+02  0.23175341873E+02  0.30374247671E+02  0.51100000000E-03 0. -1.
        -11    1    3    3    0    0 -0.19524016473E+01 -0.58760857906E+01  0.35325855876E+01  0.71287739202E+01  0.51100000000E-03 0.  1.
         12    1    3    3    0    0  0.33128924465E+01  0.14578269602E+01  0.96262807412E+01  0.10284249935E+02  0.00000000000E+00 0. -1.
</event>
<event>
 7    1  0.2983653E-010  0.4778727E+02  0.7816164E-02  0.1312668E+00
        -11   -1    0    0    0    0  0.00000000000E+00  0.00000000000E+00  0.45593999997E+02  0.45594000000E+02  0.51100000000E-03 0. -1.
         11   -1    0    0    0    0 -0.00000000000E+00 -0.00000000000E+00 -0.45593999997E+02  0.45594000000E+02  0.51100000000E-03 0.  1.
    9900012    2    1    2    0    0 -0.32949280311E+02 -0.27825532888E+02 -0.48690597528E+01  0.47787273089E+02  0.20000009322E+02 0.  0.
        -12    1    1    2    0    0  0.32949280311E+02  0.27825532888E+02  0.48690597528E+01  0.43400726911E+02  0.00000000000E+00 0.  1.
         11    1    3    3    0    0 -0.22741341237E+02 -0.16912926309E+02  0.10793632318E+01  0.28361606140E+02  0.51100000000E-03 0. -1.
        -11    1    3    3    0    0 -0.14192236533E+01 -0.69291136095E+01 -0.67059764310E+01  0.97466369249E+01  0.51100000000E-03 0.  1.
        -12    1    3    3    0    0 -0.87887154203E+01 -0.39834929702E+01  0.75755344643E+00  0.96790300240E+01  0.00000000000E+00 0.  1.
</event>
<event>
 7    1  0.2983653E-010  0.4778726E+02  0.7816164E-02  0.1312668E+00
        -11   -1    0    0    0    0  0.00000000000E+00  0.00000000000E+00  0.45593999997E+02  0.45594000000E+02  0.51100000000E-03 0. -1.
         11   -1    0    0    0    0 -0.00000000000E+00 -0.00000000000E+00 -0.45593999997E+02  0.45594000000E+02  0.51100000000E-03 0.  1.
    9900012    2    1    2    0    0 -0.32093169275E+02 -0.93750963330E+01  0.27672366471E+02  0.47787264851E+02  0.19999971762E+02 0.  0.
        -12    1    1    2    0    0  0.32093169275E+02  0.93750963330E+01 -0.27672366471E+02  0.43400735149E+02  0.00000000000E+00 0.  1.
         11    1    3    3    0    0 -0.25623105616E+02 -0.81022500972E+01  0.16523743375E+02  0.31547172511E+02  0.51100000000E-03 0. -1.
        -11    1    3    3    0    0  0.39705594588E+00  0.28510206763E+01  0.61708047478E+01  0.68091705675E+01  0.51100000000E-03 0.  1.
         12    1    3    3    0    0 -0.68671196052E+01 -0.41238669121E+01  0.49778183480E+01  0.94309217729E+01  0.00000000000E+00 0. -1.
</event>
<event>
 7    1  0.2983653E-010  0.4778727E+02  0.7816164E-02  0.1312668E+00
        -11   -1    0    0    0    0  0.00000000000E+00  0.00000000000E+00  0.45593999997E+02  0.45594000000E+02  0.51100000000E-03 0.  1.
         11   -1    0    0    0    0 -0.00000000000E+00 -0.00000000000E+00 -0.45593999997E+02  0.45594000000E+02  0.51100000000E-03 0. -1.
    9900012    2    1    2    0    0 -0.20712464061E+01 -0.16901554915E+01 -0.43318315149E+02  0.47787272880E+02  0.20000008367E+02 0.  0.
        -12    1    1    2    0    0  0.20712464061E+01  0.16901554915E+01  0.43318315149E+02  0.43400727120E+02  0.00000000000E+00 0.  1.
         11    1    3    3    0    0 -0.29803343149E+00 -0.59665313221E+01 -0.38125201808E+02  0.38590404677E+02  0.51100000000E-03 0. -1.
        -11    1    3    3    0    0 -0.10635504219E+01  0.16830339514E+01  0.11558116133E+01  0.23020954646E+01  0.51100000000E-03 0.  1.
         12    1    3    3    0    0 -0.70966255275E+00  0.25933418793E+01 -0.63489249541E+01  0.68947727384E+01  0.00000000000E+00 0. -1.
</event>
<event>
 7    1  0.2983653E-010  0.4778727E+02  0.7816164E-02  0.1312668E+00
        -11   -1    0    0    0    0  0.00000000000E+00  0.00000000000E+00  0.45593999997E+02  0.45594000000E+02  0.51100000000E-03 0. -1.
         11   -1    0    0    0    0 -0.00000000000E+00 -0.00000000000E+00 -0.45593999997E+02  0.45594000000E+02  0.51100000000E-03 0.  1.
    9900012    2    1    2    0    0 -0.40631656345E+02  0.69403182319E+01 -0.13583964760E+02  0.47787267136E+02  0.19999982181E+02 0.  0.
        -12    1    1    2    0    0  0.40631656345E+02 -0.69403182319E+01  0.13583964760E+02  0.43400732864E+02  0.00000000000E+00 0.  1.
         11    1    3    3    0    0 -0.64263245579E+01 -0.14646617749E+01 -0.16786435695E+01  0.68015237949E+01  0.51100000000E-03 0. -1.
        -11    1    3    3    0    0 -0.10688529862E+02 -0.61979495066E+00  0.37312047312E+01  0.11338020348E+02  0.51100000000E-03 0.  1.
        -12    1    3    3    0    0 -0.23516801925E+02  0.90247749575E+01 -0.15636525921E+02  0.29647722994E+02  0.00000000000E+00 0.  1.
</event>
<event>
 7    1  0.2983653E-010  0.4778730E+02  0.7816164E-02  0.1312668E+00
        -11   -1    0    0    0    0  0.00000000000E+00  0.00000000000E+00  0.45593999997E+02  0.45594000000E+02  0.51100000000E-03 0.  1.
         11   -1    0    0    0    0 -0.00000000000E+00 -0.00000000000E+00 -0.45593999997E+02  0.45594000000E+02  0.51100000000E-03 0. -1.
    9900012    2    1    2    0    0  0.25229506017E+02  0.17831475186E+02 -0.30481661119E+02  0.47787295561E+02  0.20000111783E+02 0.  0.
        -12    1    1    2    0    0 -0.25229506017E+02 -0.17831475186E+02  0.30481661119E+02  0.43400704439E+02  0.00000000000E+00 0.  1.
         11    1    3    3    0    0  0.21016728090E+02  0.15452519244E+02 -0.15745386650E+02  0.30469663793E+02  0.51100000000E-03 0. -1.
        -11    1    3    3    0    0  0.50180189525E+01 -0.37045794542E+00 -0.13066050983E+02  0.14001408567E+02  0.51100000000E-03 0.  1.
         12    1    3    3    0    0 -0.80524102588E+00  0.27494138869E+01 -0.16702234858E+01  0.33162232018E+01  0.00000000000E+00 0. -1.
</event>
<event>
 7    1  0.2983653E-010  0.4778727E+02  0.7816164E-02  0.1312668E+00
        -11   -1    0    0    0    0  0.00000000000E+00  0.00000000000E+00  0.45593999997E+02  0.45594000000E+02  0.51100000000E-03 0.  1.
         11   -1    0    0    0    0 -0.00000000000E+00 -0.00000000000E+00 -0.45593999997E+02  0.45594000000E+02  0.51100000000E-03 0. -1.
    9900012    2    1    2    0    0  0.13320514165E+02  0.16092997707E+02 -0.38042119866E+02  0.47787267786E+02  0.19999985142E+02 0.  0.
        -12    1    1    2    0    0 -0.13320514165E+02 -0.16092997707E+02  0.38042119866E+02  0.43400732214E+02  0.00000000000E+00 0.  1.
         11    1    3    3    0    0 -0.20799895293E+01  0.10762001453E+01  0.41193744246E+00  0.23778679342E+01  0.51100000000E-03 0. -1.
        -11    1    3    3    0    0  0.70818631663E+00  0.21088125048E+00  0.71782074608E+00  0.10301774825E+01  0.51100000000E-03 0.  1.
         12    1    3    3    0    0  0.14692317377E+02  0.14805916311E+02 -0.39171878055E+02  0.44379222369E+02  0.00000000000E+00 0. -1.
</event>
<event>
 7    1  0.2983653E-010  0.4778727E+02  0.7816164E-02  0.1312668E+00
        -11   -1    0    0    0    0  0.00000000000E+00  0.00000000000E+00  0.45593999997E+02  0.45594000000E+02  0.51100000000E-03 0. -1.
         11   -1    0    0    0    0 -0.00000000000E+00 -0.00000000000E+00 -0.45593999997E+02  0.45594000000E+02  0.51100000000E-03 0.  1.
    9900012    2    1    2    0    0  0.13003883012E+02  0.17188438683E+02  0.37670678561E+02  0.47787269349E+02  0.19999992271E+02 0.  0.
        -12    1    1    2    0    0 -0.13003883012E+02 -0.17188438683E+02 -0.37670678561E+02  0.43400730651E+02  0.00000000000E+00 0.  1.
         11    1    3    3    0    0  0.16003237701E+02  0.86187700509E+01  0.19335352034E+02  0.26537570586E+02  0.51100000000E-03 0. -1.
        -11    1    3    3    0    0 -0.24314723072E+01  0.46518370006E+01  0.46808384791E+01  0.70329150563E+01  0.51100000000E-03 0.  1.
         12    1    3    3    0    0 -0.56788238165E+00  0.39178316316E+01  0.13654488049E+02  0.14216783707E+02  0.00000000000E+00 0. -1.
</event>
<event>
 7    1  0.2983653E-010  0.4778728E+02  0.7816164E-02  0.1312668E+00
        -11   -1    0    0    0    0  0.00000000000E+00  0.00000000000E+00  0.45593999997E+02  0.45594000000E+02  0.51100000000E-03 0.  1.
         11   -1    0    0    0    0 -0.00000000000E+00 -0.00000000000E+00 -0.45593999997E+02  0.45594000000E+02  0.51100000000E-03 0. -1.
    9900012    2    1    2    0    0  0.14231753687E+02 -0.40509258590E+01 -0.40800368791E+02  0.47787275273E+02  0.20000019280E+02 0.  0.
        -12    1    1    2    0    0 -0.14231753687E+02  0.40509258590E+01  0.40800368791E+02  0.43400724727E+02  0.00000000000E+00 0.  1.
         11    1    3    3    0    0  0.47996455043E+01 -0.72605804059E+01 -0.27654659218E+02  0.28991943735E+02  0.51100000000E-03 0. -1.
        -11    1    3    3    0    0  0.74218105118E+00  0.15236046518E+01  0.11021151744E+01  0.20215988639E+01  0.51100000000E-03 0.  1.
        -12    1    3    3    0    0  0.86899271312E+01  0.16860498952E+01 -0.14247824748E+02  0.16773732674E+02  0.00000000000E+00 0.  1.
</event>
<event>
 7    1  0.2983653E-010  0.4778724E+02  0.7816164E-02  0.1312668E+00
        -11   -1    0    0    0    0  0.00000000000E+00  0.00000000000E+00  0.45593999997E+02  0.45594000000E+02  0.51100000000E-03 0. -1.
         11   -1    0    0    0    0 -0.00000000000E+00 -0.00000000000E+00 -0.45593999997E+02  0.45594000000E+02  0.51100000000E-03 0.  1.
    9900012    2    1    2    0    0  0.22280916863E+02  0.26171318730E+02  0.26499973009E+02  0.47787242520E+02  0.19999869945E+02 0.  0.
        -12    1    1    2    0    0 -0.22280916863E+02 -0.26171318730E+02 -0.26499973009E+02  0.43400757480E+02  0.00000000000E+00 0.  1.
         11    1    3    3    0    0  0.30912544804E+01  0.60324590682E+01  0.22243040251E+01  0.71339992522E+01  0.51100000000E-03 0. -1.
        -11    1    3    3    0    0 -0.20393115688E+01 -0.36518533398E+00 -0.48554656114E+00  0.21278880908E+01  0.51100000000E-03 0.  1.
        -12    1    3    3    0    0  0.21228973952E+02  0.20504044996E+02  0.24761215545E+02  0.38525355177E+02  0.00000000000E+00 0.  1.
</event>
<event>
 7    1  0.2983653E-010  0.4778727E+02  0.7816164E-02  0.1312668E+00
        -11   -1    0    0    0    0  0.00000000000E+00  0.00000000000E+00  0.45593999997E+02  0.45594000000E+02  0.51100000000E-03 0.  1.
         11   -1    0    0    0    0 -0.00000000000E+00 -0.00000000000E+00 -0.45593999997E+02  0.45594000000E+02  0.51100000000E-03 0. -1.
    9900012    2    1    2    0    0 -0.42408412191E+02  0.19516209166E+01  0.90189303749E+01  0.47787270122E+02  0.19999995796E+02 0.  0.
        -12    1    1    2    0    0  0.42408412191E+02 -0.19516209166E+01 -0.90189303749E+01  0.43400729878E+02  0.00000000000E+00 0.  1.
         11    1    3    3    0    0 -0.20172344340E+02 -0.55030094388E+00  0.13509314479E+02  0.24284313564E+02  0.51100000000E-03 0. -1.
        -11    1    3    3    0    0 -0.11037234505E+02 -0.15812504116E+01 -0.22035844278E+01  0.11365592064E+02  0.51100000000E-03 0.  1.
         12    1    3    3    0    0 -0.11198833346E+02  0.40831722721E+01 -0.22867996759E+01  0.12137364495E+02  0.00000000000E+00 0. -1.
</event>
<event>
 7    1  0.2983653E-010  0.4778727E+02  0.7816164E-02  0.1312668E+00
        -11   -1    0    0    0    0  0.00000000000E+00  0.00000000000E+00  0.45593999997E+02  0.45594000000E+02  0.51100000000E-03 0.  1.
         11   -1    0    0    0    0 -0.00000000000E+00 -0.00000000000E+00 -0.45593999997E+02  0.45594000000E+02  0.51100000000E-03 0. -1.
    9900012    2    1    2    0    0 -0.39060230443E+02 -0.18266222156E+02 -0.49261105709E+01  0.47787273745E+02  0.20000012314E+02 0.  0.
        -12    1    1    2    0    0  0.39060230443E+02  0.18266222156E+02  0.49261105709E+01  0.43400726255E+02  0.00000000000E+00 0.  1.
         11    1    3    3    0    0 -0.32723709832E+02 -0.13617263566E+02 -0.98572013784E+01  0.36789067282E+02  0.51100000000E-03 0. -1.
        -11    1    3    3    0    0 -0.38851059051E+01 -0.34015437422E+01  0.61150704456E+01  0.80036638197E+01  0.51100000000E-03 0.  1.
        -12    1    3    3    0    0 -0.24514147058E+01 -0.12474148477E+01 -0.11839796380E+01  0.29945426438E+01  0.00000000000E+00 0.  1.
</event>
<event>
 7    1  0.2983653E-010  0.4778726E+02  0.7816164E-02  0.1312668E+00
        -11   -1    0    0    0    0  0.00000000000E+00  0.00000000000E+00  0.45593999997E+02  0.45594000000E+02  0.51100000000E-03 0.  1.
         11   -1    0    0    0    0 -0.00000000000E+00 -0.00000000000E+00 -0.45593999997E+02  0.45594000000E+02  0.51100000000E-03 0. -1.
    9900012    2    1    2    0    0 -0.13902433076E+02 -0.32752132291E+02 -0.24852446815E+02  0.47787263511E+02  0.19999965653E+02 0.  0.
        -12    1    1    2    0    0  0.13902433076E+02  0.32752132291E+02  0.24852446815E+02  0.43400736489E+02  0.00000000000E+00 0.  1.
         11    1    3    3    0    0 -0.13370370990E+02 -0.11304001806E+02 -0.65937184117E+01  0.18708939040E+02  0.51100000000E-03 0. -1.
        -11    1    3    3    0    0  0.17471262649E+01 -0.12410558218E+02 -0.66403675380E+01  0.14183401806E+02  0.51100000000E-03 0.  1.
         12    1    3    3    0    0 -0.22791883511E+01 -0.90375722667E+01 -0.11618360866E+02  0.14894922666E+02  0.00000000000E+00 0. -1.
</event>
<event>
 7    1  0.3875107E-010  0.4778730E+02  0.7816164E-02  0.1312668E+00
        -11   -1    0    0    0    0  0.00000000000E+00  0.00000000000E+00  0.45593999997E+02  0.45594000000E+02  0.51100000000E-03 0.  1.
         11   -1    0    0    0    0 -0.00000000000E+00 -0.00000000000E+00 -0.45593999997E+02  0.45594000000E+02  0.51100000000E-03 0. -1.
    9900012    2    1    2    0    0  0.17207257711E+02  0.30426198912E+02 -0.25725043568E+02  0.47787295343E+02  0.20000110786E+02 0.  0.
        -12    1    1    2    0    0 -0.17207257711E+02 -0.30426198912E+02  0.25725043568E+02  0.43400704657E+02  0.00000000000E+00 0.  1.
         11    1    3    3    0    0  0.12872123227E+02  0.26431763028E+02 -0.16792682686E+02  0.33857404585E+02  0.51100000000E-03 0. -1.
        -11    1    3    3    0    0  0.41560367385E+00  0.19416311967E+01 -0.92815567237E+01  0.94915727671E+01  0.51100000000E-03 0.  1.
        -12    1    3    3    0    0  0.39195308102E+01  0.20528046871E+01  0.34919584192E+00  0.44383179912E+01  0.00000000000E+00 0.  1.
</event>
<event>
 7    1  0.2983653E-010  0.4778724E+02  0.7816164E-02  0.1312668E+00
        -11   -1    0    0    0    0  0.00000000000E+00  0.00000000000E+00  0.45593999997E+02  0.45594000000E+02  0.51100000000E-03 0.  1.
         11   -1    0    0    0    0 -0.00000000000E+00 -0.00000000000E+00 -0.45593999997E+02  0.45594000000E+02  0.51100000000E-03 0. -1.
    9900012    2    1    2    0    0 -0.16017710633E+02 -0.12066228631E+02 -0.38489800786E+02  0.47787243188E+02  0.19999872990E+02 0.  0.
        -12    1    1    2    0    0  0.16017710633E+02  0.12066228631E+02  0.38489800786E+02  0.43400756812E+02  0.00000000000E+00 0.  1.
         11    1    3    3    0    0  0.15134282632E+01 -0.53095044025E+01 -0.28131420300E+01  0.61963755899E+01  0.51100000000E-03 0. -1.
        -11    1    3    3    0    0  0.12758668386E+01  0.17557501111E+00 -0.15720003818E+01  0.20322028039E+01  0.51100000000E-03 0.  1.
         12    1    3    3    0    0 -0.18807005735E+02 -0.69322992392E+01 -0.34104658374E+02  0.39558664794E+02  0.00000000000E+00 0. -1.
</event>
<event>
 7    1  0.2983653E-010  0.4778727E+02  0.7816164E-02  0.1312668E+00
        -11   -1    0    0    0    0  0.00000000000E+00  0.00000000000E+00  0.45593999997E+02  0.45594000000E+02  0.51100000000E-03 0. -1.
         11   -1    0    0    0    0 -0.00000000000E+00 -0.00000000000E+00 -0.45593999997E+02  0.45594000000E+02  0.51100000000E-03 0.  1.
    9900012    2    1    2    0    0 -0.29269161897E+02 -0.20478074531E+02  0.24649294989E+02  0.47787272839E+02  0.20000008184E+02 0.  0.
        -12    1    1    2    0    0  0.29269161897E+02  0.20478074531E+02 -0.24649294989E+02  0.43400727161E+02  0.00000000000E+00 0.  1.
         11    1    3    3    0    0 -0.11240422223E+02 -0.12302736195E+02  0.76279449591E+00  0.16681914318E+02  0.51100000000E-03 0. -1.
        -11    1    3    3    0    0 -0.69582797839E+01 -0.43654441739E+01  0.96163185750E+01  0.12647068577E+02  0.51100000000E-03 0.  1.
         12    1    3    3    0    0 -0.11070459890E+02 -0.38098941623E+01  0.14270181918E+02  0.18458289944E+02  0.00000000000E+00 0. -1.
</event>
<event>
 7    1  0.2983653E-010  0.4778727E+02  0.7816164E-02  0.1312668E+00
        -11   -1    0    0    0    0  0.00000000000E+00  0.00000000000E+00  0.45593999997E+02  0.45594000000E+02  0.51100000000E-03 0.  1.
         11   -1    0    0    0    0 -0.00000000000E+00 -0.00000000000E+00 -0.45593999997E+02  0.45594000000E+02  0.51100000000E-03 0. -1.
    9900012    2    1    2    0    0 -0.81277918479E+01  0.73345286777E+01 -0.41997223216E+02  0.47787273403E+02  0.20000010754E+02 0.  0.
        -12    1    1    2    0    0  0.81277918479E+01 -0.73345286777E+01  0.41997223216E+02  0.43400726597E+02  0.00000000000E+00 0.  1.
         11    1    3    3    0    0 -0.70772038045E+01  0.81356843137E+01 -0.40261304106E+02  0.41680316476E+02  0.51100000000E-03 0. -1.
        -11    1    3    3    0    0  0.23297825185E+01  0.16567164256E+00 -0.59029190812E+00  0.24091032511E+01  0.51100000000E-03 0.  1.
         12    1    3    3    0    0 -0.33803705619E+01 -0.96682727852E+00 -0.11456272019E+01  0.36978536759E+01  0.00000000000E+00 0. -1.
</event>
<event>
 7    1  0.2983653E-010  0.4778727E+02  0.7816164E-02  0.1312668E+00
        -11   -1    0    0    0    0  0.00000000000E+00  0.00000000000E+00  0.45593999997E+02  0.45594000000E+02  0.51100000000E-03 0. -1.
         11   -1    0    0    0    0 -0.00000000000E+00 -0.00000000000E+00 -0.45593999997E+02  0.45594000000E+02  0.51100000000E-03 0.  1.
    9900012    2    1    2    0    0 -0.23053446272E+02  0.36742228418E+02  0.14732876178E+01  0.47787270622E+02  0.19999998073E+02 0.  0.
        -12    1    1    2    0    0  0.23053446272E+02 -0.36742228418E+02 -0.14732876178E+01  0.43400729378E+02  0.00000000000E+00 0.  1.
         11    1    3    3    0    0 -0.22723669394E+02  0.25709053954E+02  0.35045344951E+01  0.34490612755E+02  0.51100000000E-03 0. -1.
        -11    1    3    3    0    0 -0.88258955113E+00  0.50603368661E+01 -0.44817552127E+01  0.68170450756E+01  0.51100000000E-03 0.  1.
         12    1    3    3    0    0  0.55281267236E+00  0.59728375980E+01  0.24505083355E+01  0.64796127912E+01  0.00000000000E+00 0. -1.
</event>
<event>
 7    1  0.2983653E-010  0.4778727E+02  0.7816164E-02  0.1312668E+00
        -11   -1    0    0    0    0  0.00000000000E+00  0.00000000000E+00  0.45593999997E+02  0.45594000000E+02  0.51100000000E-03 0.  1.
         11   -1    0    0    0    0 -0.00000000000E+00 -0.00000000000E+00 -0.45593999997E+02  0.45594000000E+02  0.51100000000E-03 0. -1.
    9900012    2    1    2    0    0  0.26967499840E+02  0.16270888835E+02 -0.29860269894E+02  0.47787267411E+02  0.19999983433E+02 0.  0.
        -12    1    1    2    0    0 -0.26967499840E+02 -0.16270888835E+02  0.29860269894E+02  0.43400732589E+02  0.00000000000E+00 0.  1.
         11    1    3    3    0    0  0.21793788570E+02  0.17996386473E+02 -0.24205013709E+02  0.37211850736E+02  0.51100000000E-03 0. -1.
        -11    1    3    3    0    0 -0.28411709288E+00 -0.16399726002E+01 -0.47617736758E+01  0.50442761079E+01  0.51100000000E-03 0.  1.
         12    1    3    3    0    0  0.54578283634E+01 -0.85525037113E-01 -0.89348250954E+00  0.55311405669E+01  0.00000000000E+00 0. -1.
</event>
<event>
 7    1  0.2983653E-010  0.4778727E+02  0.7816164E-02  0.1312668E+00
        -11   -1    0    0    0    0  0.00000000000E+00  0.00000000000E+00  0.45593999997E+02  0.45594000000E+02  0.51100000000E-03 0.  1.
         11   -1    0    0    0    0 -0.00000000000E+00 -0.00000000000E+00 -0.45593999997E+02  0.45594000000E+02  0.51100000000E-03 0. -1.
    9900012    2    1    2    0    0  0.35875929625E+01  0.12799708570E+02 -0.41314888221E+02  0.47787270151E+02  0.19999995925E+02 0.  0.
        -12    1    1    2    0    0 -0.35875929625E+01 -0.12799708570E+02  0.41314888221E+02  0.43400729849E+02  0.00000000000E+00 0.  1.
         11    1    3    3    0    0 -0.44152500126E+01  0.37302445765E+01 -0.19466645623E+02  0.20306635599E+02  0.51100000000E-03 0. -1.
        -11    1    3    3    0    0  0.81266901246E+01  0.11304786688E+02 -0.15949774983E+02  0.21171599295E+02  0.51100000000E-03 0.  1.
        -12    1    3    3    0    0 -0.12384714953E+00 -0.22353226946E+01 -0.58984676156E+01  0.63090352573E+01  0.00000000000E+00 0.  1.
</event>
<event>
 7    1  0.2983653E-010  0.4778728E+02  0.7816164E-02  0.1312668E+00
        -11   -1    0    0    0    0  0.00000000000E+00  0.00000000000E+00  0.45593999997E+02  0.45594000000E+02  0.51100000000E-03 0. -1.
         11   -1    0    0    0    0 -0.00000000000E+00 -0.00000000000E+00 -0.45593999997E+02  0.45594000000E+02  0.51100000000E-03 0.  1.
    9900012    2    1    2    0    0  0.92380690502E+01  0.27267471024E+02  0.32477156443E+02  0.47787278964E+02  0.20000036108E+02 0.  0.
        -12    1    1    2    0    0 -0.92380690502E+01 -0.27267471024E+02 -0.32477156443E+02  0.43400721036E+02  0.00000000000E+00 0.  1.
         11    1    3    3    0    0  0.90747867225E+01  0.15407007916E+02  0.11884318419E+02  0.21470087832E+02  0.51100000000E-03 0. -1.
        -11    1    3    3    0    0 -0.28400457004E+01  0.27700281144E+00  0.97846775072E+01  0.10192276699E+02  0.51100000000E-03 0.  1.
        -12    1    3    3    0    0  0.30033280282E+01  0.11583460297E+02  0.10808160517E+02  0.16124914432E+02  0.00000000000E+00 0.  1.
</event>
<event>
 7    1  0.2983653E-010  0.4778727E+02  0.7816164E-02  0.1312668E+00
        -11   -1    0    0    0    0  0.00000000000E+00  0.00000000000E+00  0.45593999997E+02  0.45594000000E+02  0.51100000000E-03 0.  1.
         11   -1    0    0    0    0 -0.00000000000E+00 -0.00000000000E+00 -0.45593999997E+02  0.45594000000E+02  0.51100000000E-03 0. -1.
    9900012    2    1    2    0    0  0.20772583021E+02 -0.21514835133E+02 -0.31452113448E+02  0.47787265254E+02  0.19999973599E+02 0.  0.
        -12    1    1    2    0    0 -0.20772583021E+02  0.21514835133E+02  0.31452113448E+02  0.43400734746E+02  0.00000000000E+00 0.  1.
         11    1    3    3    0    0  0.12813755562E+02 -0.76611087012E+01 -0.64664497596E+01  0.16269600207E+02  0.51100000000E-03 0. -1.
        -11    1    3    3    0    0 -0.23351695235E+01 -0.18099935031E+01 -0.67028999141E+01  0.73251594320E+01  0.51100000000E-03 0.  1.
         12    1    3    3    0    0  0.10293996982E+02 -0.12043732929E+02 -0.18282763774E+02  0.24192505615E+02  0.00000000000E+00 0. -1.
</event>
<event>
 7    1  0.2983653E-010  0.4778727E+02  0.7816164E-02  0.1312668E+00
        -11   -1    0    0    0    0  0.00000000000E+00  0.00000000000E+00  0.45593999997E+02  0.45594000000E+02  0.51100000000E-03 0.  1.
         11   -1    0    0    0    0 -0.00000000000E+00 -0.00000000000E+00 -0.45593999997E+02  0.45594000000E+02  0.51100000000E-03 0. -1.
    9900012    2    1    2    0    0 -0.30233795465E+02 -0.30066257527E+02 -0.80969682921E+01  0.47787272755E+02  0.20000007798E+02 0.  0.
        -12    1    1    2    0    0  0.30233795465E+02  0.30066257527E+02  0.80969682921E+01  0.43400727245E+02  0.00000000000E+00 0.  1.
         11    1    3    3    0    0 -0.11768193246E+02 -0.53113835698E+01 -0.31547210548E+01  0.13291103524E+02  0.51100000000E-03 0. -1.
        -11    1    3    3    0    0 -0.89984233364E+00 -0.12355905131E+02 -0.38272515878E+01  0.12966339607E+02  0.51100000000E-03 0.  1.
        -12    1    3    3    0    0 -0.17565759885E+02 -0.12398968826E+02 -0.11149956495E+01  0.21529829623E+02  0.00000000000E+00 0.  1.
</event>
<event>
 7    1  0.2983653E-010  0.4778727E+02  0.7816164E-02  0.1312668E+00
        -11   -1    0    0    0    0  0.00000000000E+00  0.00000000000E+00  0.45593999997E+02  0.45594000000E+02  0.51100000000E-03 0.  1.
         11   -1    0    0    0    0 -0.00000000000E+00 -0.00000000000E+00 -0.45593999997E+02  0.45594000000E+02  0.51100000000E-03 0. -1.
    9900012    2    1    2    0    0 -0.16068520686E+02  0.40313463874E+02  0.50044139640E+00  0.47787272262E+02  0.20000005553E+02 0.  0.
        -12    1    1    2    0    0  0.16068520686E+02 -0.40313463874E+02 -0.50044139640E+00  0.43400727738E+02  0.00000000000E+00 0.  1.
         11    1    3    3    0    0 -0.15253322103E+02  0.34587451643E+02 -0.19753626126E+01  0.37853106927E+02  0.51100000000E-03 0. -1.
        -11    1    3    3    0    0 -0.24635114962E+01  0.39941074107E+01  0.47194071642E+01  0.66554178789E+01  0.51100000000E-03 0.  1.
         12    1    3    3    0    0  0.16483129130E+01  0.17319048206E+01 -0.22436031551E+01  0.32787474567E+01  0.00000000000E+00 0. -1.
</event>
<event>
 7    1  0.2983653E-010  0.4778727E+02  0.7816164E-02  0.1312668E+00
        -11   -1    0    0    0    0  0.00000000000E+00  0.00000000000E+00  0.45593999997E+02  0.45594000000E+02  0.51100000000E-03 0.  1.
         11   -1    0    0    0    0 -0.00000000000E+00 -0.00000000000E+00 -0.45593999997E+02  0.45594000000E+02  0.51100000000E-03 0. -1.
    9900012    2    1    2    0    0 -0.31674604517E+02 -0.26601903107E+02 -0.13140833757E+02  0.47787270374E+02  0.19999996945E+02 0.  0.
        -12    1    1    2    0    0  0.31674604517E+02  0.26601903107E+02  0.13140833757E+02  0.43400729626E+02  0.00000000000E+00 0.  1.
         11    1    3    3    0    0 -0.24874700771E+02 -0.23374057066E+02 -0.10279025440E+02  0.35647659761E+02  0.51100000000E-03 0. -1.
        -11    1    3    3    0    0 -0.22395162489E+01 -0.52751398775E+00 -0.56862379768E+01  0.61340856389E+01  0.51100000000E-03 0.  1.
         12    1    3    3    0    0 -0.45603874972E+01 -0.27003320529E+01  0.28244296594E+01  0.60055249747E+01  0.00000000000E+00 0. -1.
</event>
<event>
 7    1  0.2983653E-010  0.4778727E+02  0.7816164E-02  0.1312668E+00
        -11   -1    0    0    0    0  0.00000000000E+00  0.00000000000E+00  0.45593999997E+02  0.45594000000E+02  0.51100000000E-03 0.  1.
         11   -1    0    0    0    0 -0.00000000000E+00 -0.00000000000E+00 -0.45593999997E+02  0.45594000000E+02  0.51100000000E-03 0. -1.
    9900012    2    1    2    0    0  0.43090169556E+02 -0.22133071322E+01 -0.46863396580E+01  0.47787271663E+02  0.20000002819E+02 0.  0.
        -12    1    1    2    0    0 -0.43090169556E+02  0.22133071322E+01  0.46863396580E+01  0.43400728337E+02  0.00000000000E+00 0.  1.
         11    1    3    3    0    0  0.19573248417E+02  0.70365904766E+01 -0.43208764999E+01  0.21243719851E+02  0.51100000000E-03 0. -1.
        -11    1    3    3    0    0  0.79684468930E+01 -0.69417045082E+01 -0.19449688916E+01  0.10745525190E+02  0.51100000000E-03 0.  1.
         12    1    3    3    0    0  0.15548474246E+02 -0.23081931006E+01  0.15795057335E+01  0.15798026621E+02  0.00000000000E+00 0. -1.
</event>
<event>
 7    1  0.2983653E-010  0.4778723E+02  0.7816164E-02  0.1312668E+00
        -11   -1    0    0    0    0  0.00000000000E+00  0.00000000000E+00  0.45593999997E+02  0.45594000000E+02  0.51100000000E-03 0.  1.
         11   -1    0    0    0    0 -0.00000000000E+00 -0.00000000000E+00 -0.45593999997E+02  0.45594000000E+02  0.51100000000E-03 0. -1.
    9900012    2    1    2    0    0 -0.36020342761E+02  0.21617987850E+02 -0.10900674834E+02  0.47787225777E+02  0.19999793608E+02 0.  0.
        -12    1    1    2    0    0  0.36020342761E+02 -0.21617987850E+02  0.10900674834E+02  0.43400774223E+02  0.00000000000E+00 0.  1.
         11    1    3    3    0    0 -0.21669421177E+02  0.50941753614E+01 -0.73572226777E+01  0.23444469765E+02  0.51100000000E-03 0. -1.
        -11    1    3    3    0    0 -0.14085627315E+02  0.16737496262E+02 -0.11295094219E+01  0.21904896023E+02  0.51100000000E-03 0.  1.
        -12    1    3    3    0    0 -0.26529426822E+00 -0.21368377302E+00 -0.24139427340E+01  0.24378599891E+01  0.00000000000E+00 0.  1.
</event>
<event>
 7    1  0.2983653E-010  0.4778727E+02  0.7816164E-02  0.1312668E+00
        -11   -1    0    0    0    0  0.00000000000E+00  0.00000000000E+00  0.45593999997E+02  0.45594000000E+02  0.51100000000E-03 0.  1.
         11   -1    0    0    0    0 -0.00000000000E+00 -0.00000000000E+00 -0.45593999997E+02  0.45594000000E+02  0.51100000000E-03 0. -1.
    9900012    2    1    2    0    0  0.36348204913E+02  0.16577954947E+02  0.16958857072E+02  0.47787269317E+02  0.19999992126E+02 0.  0.
        -12    1    1    2    0    0 -0.36348204913E+02 -0.16577954947E+02 -0.16958857072E+02  0.43400730683E+02  0.00000000000E+00 0.  1.
         11    1    3    3    0    0  0.15321986185E+02  0.18147466550E+01  0.81008410323E+01  0.17426422230E+02  0.51100000000E-03 0. -1.
        -11    1    3    3    0    0  0.19931161273E+02  0.17224205799E+02  0.78921484954E+01  0.27499281140E+02  0.51100000000E-03 0.  1.
        -12    1    3    3    0    0  0.10950574546E+01 -0.24609975063E+01  0.96586754393E+00  0.28615659467E+01  0.00000000000E+00 0.  1.
</event>
<event>
 7    1  0.2983653E-010  0.4778726E+02  0.7816164E-02  0.1312668E+00
        -11   -1    0    0    0    0  0.00000000000E+00  0.00000000000E+00  0.45593999997E+02  0.45594000000E+02  0.51100000000E-03 0.  1.
         11   -1    0    0    0    0 -0.00000000000E+00 -0.00000000000E+00 -0.45593999997E+02  0.45594000000E+02  0.51100000000E-03 0. -1.
    9900012    2    1    2    0    0 -0.34361833254E+02  0.15172667907E+02 -0.21741169175E+02  0.47787264141E+02  0.19999968526E+02 0.  0.
        -12    1    1    2    0    0  0.34361833254E+02 -0.15172667907E+02  0.21741169175E+02  0.43400735859E+02  0.00000000000E+00 0.  1.
         11    1    3    3    0    0 -0.23733239883E+02  0.85125595868E+01 -0.11013322102E+02  0.27514062042E+02  0.51100000000E-03 0. -1.
        -11    1    3    3    0    0  0.16374692160E+00 -0.24776285028E+01  0.65063769155E-01  0.24838859892E+01  0.51100000000E-03 0.  1.
        -12    1    3    3    0    0 -0.10792340293E+02  0.91377368233E+01 -0.10792910842E+02  0.17789316111E+02  0.00000000000E+00 0.  1.
</event>
<event>
 7    1  0.2983653E-010  0.4778727E+02  0.7816164E-02  0.1312668E+00
        -11   -1    0    0    0    0  0.00000000000E+00  0.00000000000E+00  0.45593999997E+02  0.45594000000E+02  0.51100000000E-03 0.  1.
         11   -1    0    0    0    0 -0.00000000000E+00 -0.00000000000E+00 -0.45593999997E+02  0.45594000000E+02  0.51100000000E-03 0. -1.
    9900012    2    1    2    0    0 -0.24226484140E+02 -0.33538760543E+02 -0.13109263866E+02  0.47787265079E+02  0.19999972802E+02 0.  0.
        -12    1    1    2    0    0  0.24226484140E+02  0.33538760543E+02  0.13109263866E+02  0.43400734921E+02  0.00000000000E+00 0.  1.
         11    1    3    3    0    0 -0.11027744047E+02 -0.16141410578E+02 -0.14118736833E+02  0.24114207518E+02  0.51100000000E-03 0. -1.
        -11    1    3    3    0    0 -0.11535820318E+02 -0.89020302017E+01  0.27883210940E+01  0.14835633687E+02  0.51100000000E-03 0.  1.
        -12    1    3    3    0    0 -0.16629197754E+01 -0.84953197635E+01 -0.17788481267E+01  0.88374238736E+01  0.00000000000E+00 0.  1.
</event>
<event>
 7    1  0.2983653E-010  0.4778727E+02  0.7816164E-02  0.1312668E+00
        -11   -1    0    0    0    0  0.00000000000E+00  0.00000000000E+00  0.45593999997E+02  0.45594000000E+02  0.51100000000E-03 0.  1.
         11   -1    0    0    0    0 -0.00000000000E+00 -0.00000000000E+00 -0.45593999997E+02  0.45594000000E+02  0.51100000000E-03 0. -1.
    9900012    2    1    2    0    0  0.29170639945E+02 -0.13092138170E+02 -0.29347798860E+02  0.47787267119E+02  0.19999982103E+02 0.  0.
        -12    1    1    2    0    0 -0.29170639945E+02  0.13092138170E+02  0.29347798860E+02  0.43400732881E+02  0.00000000000E+00 0.  1.
         11    1    3    3    0    0  0.18010624355E+02 -0.47194287202E+01 -0.14583463544E+02  0.23650222120E+02  0.51100000000E-03 0. -1.
        -11    1    3    3    0    0  0.87275194668E+01  0.37771610525E+00 -0.29187487284E+01  0.92103941230E+01  0.51100000000E-03 0.  1.
         12    1    3    3    0    0  0.24324961234E+01 -0.87504255553E+01 -0.11845586587E+02  0.14926650877E+02  0.00000000000E+00 0. -1.
</event>
<event>
 7    1  0.2983653E-010  0.4778726E+02  0.7816164E-02  0.1312668E+00
        -11   -1    0    0    0    0  0.00000000000E+00  0.00000000000E+00  0.45593999997E+02  0.45594000000E+02  0.51100000000E-03 0. -1.
         11   -1    0    0    0    0 -0.00000000000E+00 -0.00000000000E+00 -0.45593999997E+02  0.45594000000E+02  0.51100000000E-03 0.  1.
    9900012    2    1    2    0    0 -0.25772655024E+02  0.34905750852E+02  0.99128511618E+00  0.47787264572E+02  0.19999970487E+02 0.  0.
        -12    1    1    2    0    0  0.25772655024E+02 -0.34905750852E+02 -0.99128511618E+00  0.43400735428E+02  0.00000000000E+00 0.  1.
         11    1    3    3    0    0 -0.20543319195E+02  0.29047686640E+02  0.23942348811E+01  0.35658497215E+02  0.51100000000E-03 0. -1.
        -11    1    3    3    0    0  0.85347472385E+00  0.35133215311E+01 -0.37414830278E+01  0.52029359782E+01  0.51100000000E-03 0.  1.
         12    1    3    3    0    0 -0.60828105523E+01  0.23447426808E+01  0.23385332629E+01  0.69258313780E+01  0.00000000000E+00 0. -1.
</event>
<event>
 7    1  0.2983653E-010  0.4778727E+02  0.7816164E-02  0.1312668E+00
        -11   -1    0    0    0    0  0.00000000000E+00  0.00000000000E+00  0.45593999997E+02  0.45594000000E+02  0.51100000000E-03 0.  1.
         11   -1    0    0    0    0 -0.00000000000E+00 -0.00000000000E+00 -0.45593999997E+02  0.45594000000E+02  0.51100000000E-03 0. -1.
    9900012    2    1    2    0    0 -0.12600897725E+02  0.33897645659E+02 -0.23995631026E+02  0.47787270593E+02  0.19999997944E+02 0.  0.
        -12    1    1    2    0    0  0.12600897725E+02 -0.33897645659E+02  0.23995631026E+02  0.43400729407E+02  0.00000000000E+00 0.  1.
         11    1    3    3    0    0 -0.42105678182E+00  0.23310021099E+02 -0.81261394628E+01  0.24689441372E+02  0.51100000000E-03 0. -1.
        -11    1    3    3    0    0 -0.92536583898E+01  0.94714945527E+01 -0.14622022327E+02  0.19726706259E+02  0.51100000000E-03 0.  1.
        -12    1    3    3    0    0 -0.29261825534E+01  0.11161300074E+01 -0.12474692364E+01  0.33711229620E+01  0.00000000000E+00 0.  1.
</event>
<event>
 7    1  0.2983653E-010  0.4778727E+02  0.7816164E-02  0.1312668E+00
        -11   -1    0    0    0    0  0.00000000000E+00  0.00000000000E+00  0.45593999997E+02  0.45594000000E+02  0.51100000000E-03 0.  1.
         11   -1    0    0    0    0 -0.00000000000E+00 -0.00000000000E+00 -0.45593999997E+02  0.45594000000E+02  0.51100000000E-03 0. -1.
    9900012    2    1    2    0    0  0.32962862560E+02  0.14145615519E+02 -0.24433070575E+02  0.47787266317E+02  0.19999978444E+02 0.  0.
        -12    1    1    2    0    0 -0.32962862560E+02 -0.14145615519E+02  0.24433070575E+02  0.43400733683E+02  0.00000000000E+00 0.  1.
         11    1    3    3    0    0 -0.15673273854E+01  0.87206238298E+00 -0.62530688528E+00  0.18994780585E+01  0.51100000000E-03 0.  1.
        -11    1    3    3    0    0  0.29101298433E+02  0.10320629228E+02 -0.24831843437E+02  0.39623495642E+02  0.51100000000E-03 0. -1.
        -12    1    3    3    0    0  0.54288915116E+01  0.29529239078E+01  0.10240797469E+01  0.62642926159E+01  0.00000000000E+00 0.  1.
</event>
<event>
 7    1  0.2983653E-010  0.4778728E+02  0.7816164E-02  0.1312668E+00
        -11   -1    0    0    0    0  0.00000000000E+00  0.00000000000E+00  0.45593999997E+02  0.45594000000E+02  0.51100000000E-03 0.  1.
         11   -1    0    0    0    0 -0.00000000000E+00 -0.00000000000E+00 -0.45593999997E+02  0.45594000000E+02  0.51100000000E-03 0. -1.
    9900012    2    1    2    0    0  0.27879881679E+02  0.33239582252E+02 -0.12103308375E+01  0.47787279598E+02  0.20000038998E+02 0.  0.
        -12    1    1    2    0    0 -0.27879881679E+02 -0.33239582252E+02  0.12103308375E+01  0.43400720402E+02  0.00000000000E+00 0.  1.
         11    1    3    3    0    0  0.82473570053E+01  0.15947259123E+02  0.16835600840E+01  0.18032424849E+02  0.51100000000E-03 0. -1.
        -11    1    3    3    0    0 -0.17834267057E+01  0.11231982622E+01 -0.20000818504E+01  0.29056002513E+01  0.51100000000E-03 0.  1.
        -12    1    3    3    0    0  0.21415951379E+02  0.16169124867E+02 -0.89380907117E+00  0.26849254498E+02  0.00000000000E+00 0.  1.
</event>
<event>
 7    1  0.2983653E-010  0.4778727E+02  0.7816164E-02  0.1312668E+00
        -11   -1    0    0    0    0  0.00000000000E+00  0.00000000000E+00  0.45593999997E+02  0.45594000000E+02  0.51100000000E-03 0.  1.
         11   -1    0    0    0    0 -0.00000000000E+00 -0.00000000000E+00 -0.45593999997E+02  0.45594000000E+02  0.51100000000E-03 0. -1.
    9900012    2    1    2    0    0  0.22569041026E+02  0.79704477608E+00 -0.37062465962E+02  0.47787271016E+02  0.19999999869E+02 0.  0.
        -12    1    1    2    0    0 -0.22569041026E+02 -0.79704477608E+00  0.37062465962E+02  0.43400728984E+02  0.00000000000E+00 0.  1.
         11    1    3    3    0    0  0.21906327095E+02 -0.46788594598E-01 -0.32906440395E+02  0.39531293625E+02  0.51100000000E-03 0. -1.
        -11    1    3    3    0    0  0.18961117853E+01  0.34932649524E+01 -0.13318308975E+01  0.41918866552E+01  0.51100000000E-03 0.  1.
         12    1    3    3    0    0 -0.12333978546E+01 -0.26494315817E+01 -0.28241946696E+01  0.40640907354E+01  0.00000000000E+00 0. -1.
</event>
<event>
 7    1  0.2983653E-010  0.4778731E+02  0.7816164E-02  0.1312668E+00
        -11   -1    0    0    0    0  0.00000000000E+00  0.00000000000E+00  0.45593999997E+02  0.45594000000E+02  0.51100000000E-03 0. -1.
         11   -1    0    0    0    0 -0.00000000000E+00 -0.00000000000E+00 -0.45593999997E+02  0.45594000000E+02  0.51100000000E-03 0.  1.
    9900012    2    1    2    0    0 -0.34651882546E+02  0.13580091700E+02  0.22325953716E+02  0.47787308025E+02  0.20000168609E+02 0.  0.
        -12    1    1    2    0    0  0.34651882546E+02 -0.13580091700E+02 -0.22325953716E+02  0.43400691975E+02  0.00000000000E+00 0.  1.
         11    1    3    3    0    0 -0.64439812181E+01  0.45031851740E+01  0.14830878755E+02  0.16785664585E+02  0.51100000000E-03 0.  1.
        -11    1    3    3    0    0 -0.17522021004E+02  0.33824951687E+01  0.30568594606E+01  0.18105437958E+02  0.51100000000E-03 0. -1.
        -12    1    3    3    0    0 -0.10685880324E+02  0.56944113575E+01  0.44382155001E+01  0.12896205482E+02  0.00000000000E+00 0.  1.
</event>
<event>
 7    1  0.2983653E-010  0.4778727E+02  0.7816164E-02  0.1312668E+00
        -11   -1    0    0    0    0  0.00000000000E+00  0.00000000000E+00  0.45593999997E+02  0.45594000000E+02  0.51100000000E-03 0.  1.
         11   -1    0    0    0    0 -0.00000000000E+00 -0.00000000000E+00 -0.45593999997E+02  0.45594000000E+02  0.51100000000E-03 0. -1.
    9900012    2    1    2    0    0  0.32883174036E+02  0.84281683055E+01 -0.27042302698E+02  0.47787270849E+02  0.19999999108E+02 0.  0.
        -12    1    1    2    0    0 -0.32883174036E+02 -0.84281683055E+01  0.27042302698E+02  0.43400729151E+02  0.00000000000E+00 0.  1.
         11    1    3    3    0    0  0.14357258589E+02 -0.96402973285E+00 -0.46954495394E+01  0.15136296580E+02  0.51100000000E-03 0. -1.
        -11    1    3    3    0    0  0.15672567107E+02  0.11196512832E+02 -0.22025991703E+02  0.29259794430E+02  0.51100000000E-03 0.  1.
        -12    1    3    3    0    0  0.28533483397E+01 -0.18043147936E+01 -0.32086145485E+00  0.33911798382E+01  0.00000000000E+00 0.  1.
</event>
<event>
 7    1  0.2983653E-010  0.4778727E+02  0.7816164E-02  0.1312668E+00
        -11   -1    0    0    0    0  0.00000000000E+00  0.00000000000E+00  0.45593999997E+02  0.45594000000E+02  0.51100000000E-03 0. -1.
         11   -1    0    0    0    0 -0.00000000000E+00 -0.00000000000E+00 -0.45593999997E+02  0.45594000000E+02  0.51100000000E-03 0.  1.
    9900012    2    1    2    0    0 -0.34768497263E+02 -0.84428070111E+01  0.24566112031E+02  0.47787271291E+02  0.20000001125E+02 0.  0.
        -12    1    1    2    0    0  0.34768497263E+02  0.84428070111E+01 -0.24566112031E+02  0.43400728709E+02  0.00000000000E+00 0.  1.
         11    1    3    3    0    0 -0.25960716323E+02 -0.72647075835E+01  0.97516609903E+01  0.28667571586E+02  0.51100000000E-03 0. -1.
        -11    1    3    3    0    0 -0.35008632909E+01  0.35243476396E+01  0.54601408745E+01  0.73817483496E+01  0.51100000000E-03 0.  1.
         12    1    3    3    0    0 -0.53069176485E+01 -0.47024470672E+01  0.93543101663E+01  0.11737951356E+02  0.00000000000E+00 0. -1.
</event>
<event>
 7    1  0.2983653E-010  0.4778726E+02  0.7816164E-02  0.1312668E+00
        -11   -1    0    0    0    0  0.00000000000E+00  0.00000000000E+00  0.45593999997E+02  0.45594000000E+02  0.51100000000E-03 0.  1.
         11   -1    0    0    0    0 -0.00000000000E+00 -0.00000000000E+00 -0.45593999997E+02  0.45594000000E+02  0.51100000000E-03 0. -1.
    9900012    2    1    2    0    0 -0.53195581735E+01  0.28257457083E+02 -0.32509116901E+02  0.47787259664E+02  0.19999948114E+02 0.  0.
        -12    1    1    2    0    0  0.53195581735E+01 -0.28257457083E+02  0.32509116901E+02  0.43400740336E+02  0.00000000000E+00 0.  1.
         11    1    3    3    0    0  0.65229583096E+01  0.60010134067E+01 -0.83465539451E+01  0.12174814579E+02  0.51100000000E-03 0. -1.
        -11    1    3    3    0    0 -0.54885728170E+01  0.60781827024E+01 -0.11454492036E+02  0.14080984504E+02  0.51100000000E-03 0.  1.
         12    1    3    3    0    0 -0.63539436661E+01  0.16178260974E+02 -0.12708070920E+02  0.21531460581E+02  0.00000000000E+00 0. -1.
</event>
<event>
 7    1  0.2983653E-010  0.4778723E+02  0.7816164E-02  0.1312668E+00
        -11   -1    0    0    0    0  0.00000000000E+00  0.00000000000E+00  0.45593999997E+02  0.45594000000E+02  0.51100000000E-03 0.  1.
         11   -1    0    0    0    0 -0.00000000000E+00 -0.00000000000E+00 -0.45593999997E+02  0.45594000000E+02  0.51100000000E-03 0. -1.
    9900012    2    1    2    0    0  0.18387673640E+02  0.35482312465E+01 -0.39152649942E+02  0.47787234058E+02  0.19999831362E+02 0.  0.
        -12    1    1    2    0    0 -0.18387673640E+02 -0.35482312465E+01  0.39152649942E+02  0.43400765942E+02  0.00000000000E+00 0.  1.
         11    1    3    3    0    0  0.12625484040E+02  0.14584894748E+01 -0.31329461788E+02  0.33809247477E+02  0.51100000000E-03 0. -1.
        -11    1    3    3    0    0 -0.26868863771E+01  0.63419884894E+00 -0.74319815506E+00  0.28590051315E+01  0.51100000000E-03 0.  1.
         12    1    3    3    0    0  0.84490759776E+01  0.14555429228E+01 -0.70799899994E+01  0.11118981449E+02  0.00000000000E+00 0. -1.
</event>
<event>
 7    1  0.2983653E-010  0.4778726E+02  0.7816164E-02  0.1312668E+00
        -11   -1    0    0    0    0  0.00000000000E+00  0.00000000000E+00  0.45593999997E+02  0.45594000000E+02  0.51100000000E-03 0.  1.
         11   -1    0    0    0    0 -0.00000000000E+00 -0.00000000000E+00 -0.45593999997E+02  0.45594000000E+02  0.51100000000E-03 0. -1.
    9900012    2    1    2    0    0  0.19031134752E+02  0.27643452149E+02 -0.27518711047E+02  0.47787262744E+02  0.19999962153E+02 0.  0.
        -12    1    1    2    0    0 -0.19031134752E+02 -0.27643452149E+02  0.27518711047E+02  0.43400737256E+02  0.00000000000E+00 0.  1.
         11    1    3    3    0    0  0.13606505473E+02  0.26045342512E+02 -0.25364047366E+02  0.38817930867E+02  0.51100000000E-03 0. -1.
        -11    1    3    3    0    0  0.66590837976E+00 -0.19540222258E+01  0.94541329732E+00  0.22705601496E+01  0.51100000000E-03 0.  1.
         12    1    3    3    0    0  0.47587209001E+01  0.35521318632E+01 -0.31000769785E+01  0.66987717271E+01  0.00000000000E+00 0. -1.
</event>
<event>
 7    1  0.2983653E-010  0.4778727E+02  0.7816164E-02  0.1312668E+00
        -11   -1    0    0    0    0  0.00000000000E+00  0.00000000000E+00  0.45593999997E+02  0.45594000000E+02  0.51100000000E-03 0. -1.
         11   -1    0    0    0    0 -0.00000000000E+00 -0.00000000000E+00 -0.45593999997E+02  0.45594000000E+02  0.51100000000E-03 0.  1.
    9900012    2    1    2    0    0 -0.31147008364E+02 -0.30022062310E+02  0.34875393115E+01  0.47787270907E+02  0.19999999372E+02 0.  0.
        -12    1    1    2    0    0  0.31147008364E+02  0.30022062310E+02 -0.34875393115E+01  0.43400729093E+02  0.00000000000E+00 0.  1.
         11    1    3    3    0    0 -0.31973921048E+02 -0.28130870525E+02  0.20731957282E+01  0.42637725602E+02  0.51100000000E-03 0. -1.
        -11    1    3    3    0    0 -0.64046267617E-01  0.10847793055E+01  0.17131521969E+01  0.20287283645E+01  0.51100000000E-03 0.  1.
         12    1    3    3    0    0  0.89095895195E+00 -0.29759710909E+01 -0.29880861367E+00  0.31208169404E+01  0.00000000000E+00 0. -1.
</event>
<event>
 7    1  0.3425204E-010  0.4778728E+02  0.7816164E-02  0.1312668E+00
        -11   -1    0    0    0    0  0.00000000000E+00  0.00000000000E+00  0.45593999997E+02  0.45594000000E+02  0.51100000000E-03 0. -1.
         11   -1    0    0    0    0 -0.00000000000E+00 -0.00000000000E+00 -0.45593999997E+02  0.45594000000E+02  0.51100000000E-03 0.  1.
    9900012    2    1    2    0    0 -0.41993212199E+02  0.48336615580E+01 -0.98401288989E+01  0.47787282360E+02  0.20000051594E+02 0.  0.
        -12    1    1    2    0    0  0.41993212199E+02 -0.48336615580E+01  0.98401288989E+01  0.43400717640E+02  0.00000000000E+00 0.  1.
         11    1    3    3    0    0 -0.17629357698E+02  0.26015500400E+01 -0.43390524226E+01  0.18340929410E+02  0.51100000000E-03 0. -1.
        -11    1    3    3    0    0 -0.85670324628E+01  0.25926562393E+01 -0.95969758335E+01  0.13123180141E+02  0.51100000000E-03 0.  1.
        -12    1    3    3    0    0 -0.15796822039E+02 -0.36054472135E+00  0.40958993572E+01  0.16323172809E+02  0.00000000000E+00 0.  1.
</event>
<event>
 7    1  0.2983653E-010  0.4778727E+02  0.7816164E-02  0.1312668E+00
        -11   -1    0    0    0    0  0.00000000000E+00  0.00000000000E+00  0.45593999997E+02  0.45594000000E+02  0.51100000000E-03 0. -1.
         11   -1    0    0    0    0 -0.00000000000E+00 -0.00000000000E+00 -0.45593999997E+02  0.45594000000E+02  0.51100000000E-03 0.  1.
    9900012    2    1    2    0    0 -0.37977719670E+02 -0.12499216922E+02  0.16884488403E+02  0.47787267706E+02  0.19999984780E+02 0.  0.
        -12    1    1    2    0    0  0.37977719670E+02  0.12499216922E+02 -0.16884488403E+02  0.43400732294E+02  0.00000000000E+00 0.  1.
         11    1    3    3    0    0 -0.27880300832E+02 -0.13334053400E+02  0.16149010575E+02  0.34869738992E+02  0.51100000000E-03 0. -1.
        -11    1    3    3    0    0  0.60634548296E+00  0.19612945175E+01  0.65333815861E+00  0.21543402795E+01  0.51100000000E-03 0.  1.
         12    1    3    3    0    0 -0.10703764321E+02 -0.11264580399E+01  0.82139668974E-01  0.10763188435E+02  0.00000000000E+00 0. -1.
</event>
<event>
 7    1  0.2983653E-010  0.4778728E+02  0.7816164E-02  0.1312668E+00
        -11   -1    0    0    0    0  0.00000000000E+00  0.00000000000E+00  0.45593999997E+02  0.45594000000E+02  0.51100000000E-03 0.  1.
         11   -1    0    0    0    0 -0.00000000000E+00 -0.00000000000E+00 -0.45593999997E+02  0.45594000000E+02  0.51100000000E-03 0. -1.
    9900012    2    1    2    0    0  0.14190509269E+02 -0.56749897983E+01 -0.40620768796E+02  0.47787275120E+02  0.20000018581E+02 0.  0.
        -12    1    1    2    0    0 -0.14190509269E+02  0.56749897983E+01  0.40620768796E+02  0.43400724880E+02  0.00000000000E+00 0.  1.
         11    1    3    3    0    0  0.14348621215E+02 -0.66951020901E+01 -0.17715251692E+02  0.23759997170E+02  0.51100000000E-03 0. -1.
        -11    1    3    3    0    0  0.18011081704E+01  0.16240650788E+01 -0.23742874985E+01  0.33939386276E+01  0.51100000000E-03 0.  1.
         12    1    3    3    0    0 -0.19592201162E+01 -0.60395278693E+00 -0.20531229606E+02  0.20633339322E+02  0.00000000000E+00 0. -1.
</event>
<event>
 7    1  0.2983653E-010  0.4778727E+02  0.7816164E-02  0.1312668E+00
        -11   -1    0    0    0    0  0.00000000000E+00  0.00000000000E+00  0.45593999997E+02  0.45594000000E+02  0.51100000000E-03 0.  1.
         11   -1    0    0    0    0 -0.00000000000E+00 -0.00000000000E+00 -0.45593999997E+02  0.45594000000E+02  0.51100000000E-03 0. -1.
    9900012    2    1    2    0    0 -0.12710929095E+02 -0.38081206357E+02 -0.16488702009E+02  0.47787270859E+02  0.19999999153E+02 0.  0.
        -12    1    1    2    0    0  0.12710929095E+02  0.38081206357E+02  0.16488702009E+02  0.43400729141E+02  0.00000000000E+00 0.  1.
         11    1    3    3    0    0 -0.18286589758E+01 -0.12219920276E+02 -0.41205973471E+01  0.13024967100E+02  0.51100000000E-03 0. -1.
        -11    1    3    3    0    0 -0.98834227423E+00 -0.19425449982E+02 -0.12196280145E+02  0.22958096112E+02  0.51100000000E-03 0.  1.
        -12    1    3    3    0    0 -0.98939278453E+01 -0.64358360990E+01 -0.17182451715E+00  0.11804207647E+02  0.00000000000E+00 0.  1.
</event>
<event>
 7    1  0.2983653E-010  0.4778728E+02  0.7816164E-02  0.1312668E+00
        -11   -1    0    0    0    0  0.00000000000E+00  0.00000000000E+00  0.45593999997E+02  0.45594000000E+02  0.51100000000E-03 0.  1.
         11   -1    0    0    0    0 -0.00000000000E+00 -0.00000000000E+00 -0.45593999997E+02  0.45594000000E+02  0.51100000000E-03 0. -1.
    9900012    2    1    2    0    0  0.16351293727E+02  0.37209959423E+02  0.15220924457E+02  0.47787280788E+02  0.20000044426E+02 0.  0.
        -12    1    1    2    0    0 -0.16351293727E+02 -0.37209959423E+02 -0.15220924457E+02  0.43400719212E+02  0.00000000000E+00 0.  1.
         11    1    3    3    0    0  0.31457188391E+01  0.82839488276E-01  0.39999914286E+00  0.31721300369E+01  0.51100000000E-03 0. -1.
        -11    1    3    3    0    0  0.67656355134E+01  0.34052577419E+02  0.10493439620E+02  0.36269327649E+02  0.51100000000E-03 0.  1.
        -12    1    3    3    0    0  0.64399393749E+01  0.30745425155E+01  0.43274856936E+01  0.83458231027E+01  0.00000000000E+00 0.  1.
</event>
<event>
 7    1  0.2983653E-010  0.4778725E+02  0.7816164E-02  0.1312668E+00
        -11   -1    0    0    0    0  0.00000000000E+00  0.00000000000E+00  0.45593999997E+02  0.45594000000E+02  0.51100000000E-03 0.  1.
         11   -1    0    0    0    0 -0.00000000000E+00 -0.00000000000E+00 -0.45593999997E+02  0.45594000000E+02  0.51100000000E-03 0. -1.
    9900012    2    1    2    0    0 -0.28722517264E+02 -0.11603520540E+02 -0.30397374946E+02  0.47787250116E+02  0.19999904580E+02 0.  0.
        -12    1    1    2    0    0  0.28722517264E+02  0.11603520540E+02  0.30397374946E+02  0.43400749884E+02  0.00000000000E+00 0.  1.
         11    1    3    3    0    0 -0.18673358716E+02  0.12010046781E+01 -0.19936204392E+02  0.27342073509E+02  0.51100000000E-03 0.  1.
        -11    1    3    3    0    0 -0.10946837202E+02 -0.11944844398E+02 -0.90264859079E+01  0.18546967421E+02  0.51100000000E-03 0. -1.
         12    1    3    3    0    0  0.89767865458E+00 -0.85968082100E+00 -0.14346846455E+01  0.18982091857E+01  0.00000000000E+00 0. -1.
</event>
<event>
 7    1  0.2983653E-010  0.4778727E+02  0.7816164E-02  0.1312668E+00
        -11   -1    0    0    0    0  0.00000000000E+00  0.00000000000E+00  0.45593999997E+02  0.45594000000E+02  0.51100000000E-03 0.  1.
         11   -1    0    0    0    0 -0.00000000000E+00 -0.00000000000E+00 -0.45593999997E+02  0.45594000000E+02  0.51100000000E-03 0. -1.
    9900012    2    1    2    0    0 -0.37914436108E+02 -0.69632938240E+01 -0.19940707723E+02  0.47787265550E+02  0.19999974950E+02 0.  0.
        -12    1    1    2    0    0  0.37914436108E+02  0.69632938240E+01  0.19940707723E+02  0.43400734450E+02  0.00000000000E+00 0.  1.
         11    1    3    3    0    0 -0.73773567958E+01 -0.59922511528E+01 -0.13543277855E+02  0.16545478007E+02  0.51100000000E-03 0. -1.
        -11    1    3    3    0    0 -0.14969053314E+02 -0.84115087174E+00 -0.36821596811E+01  0.15438212076E+02  0.51100000000E-03 0.  1.
         12    1    3    3    0    0 -0.15568025998E+02 -0.12989179947E+00 -0.27152701869E+01  0.15803575467E+02  0.00000000000E+00 0. -1.
</event>
<event>
 7    1  0.2983653E-010  0.4778727E+02  0.7816164E-02  0.1312668E+00
        -11   -1    0    0    0    0  0.00000000000E+00  0.00000000000E+00  0.45593999997E+02  0.45594000000E+02  0.51100000000E-03 0.  1.
         11   -1    0    0    0    0 -0.00000000000E+00 -0.00000000000E+00 -0.45593999997E+02  0.45594000000E+02  0.51100000000E-03 0. -1.
    9900012    2    1    2    0    0  0.24694610319E+02 -0.52302738837E+00 -0.35686491314E+02  0.47787274214E+02  0.20000014451E+02 0.  0.
        -12    1    1    2    0    0 -0.24694610319E+02  0.52302738837E+00  0.35686491314E+02  0.43400725786E+02  0.00000000000E+00 0.  1.
         11    1    3    3    0    0  0.25185311125E+02 -0.47161469868E+01 -0.28579143594E+02  0.38383712532E+02  0.51100000000E-03 0. -1.
        -11    1    3    3    0    0 -0.52715974249E+00  0.22777951117E+01 -0.33060701833E+00  0.23612600929E+01  0.51100000000E-03 0.  1.
         12    1    3    3    0    0  0.36458936155E-01  0.19153244867E+01 -0.67767407012E+01  0.70423015894E+01  0.00000000000E+00 0. -1.
</event>
<event>
 7    1  0.2983653E-010  0.4778728E+02  0.7816164E-02  0.1312668E+00
        -11   -1    0    0    0    0  0.00000000000E+00  0.00000000000E+00  0.45593999997E+02  0.45594000000E+02  0.51100000000E-03 0.  1.
         11   -1    0    0    0    0 -0.00000000000E+00 -0.00000000000E+00 -0.45593999997E+02  0.45594000000E+02  0.51100000000E-03 0. -1.
    9900012    2    1    2    0    0  0.29309268707E+02  0.32008984987E+02 -0.11828315010E+00  0.47787281769E+02  0.20000048898E+02 0.  0.
        -12    1    1    2    0    0 -0.29309268707E+02 -0.32008984987E+02  0.11828315010E+00  0.43400718231E+02  0.00000000000E+00 0.  1.
         11    1    3    3    0    0  0.30245894250E+02  0.26863261939E+02 -0.37306581360E+01  0.40624706416E+02  0.51100000000E-03 0. -1.
        -11    1    3    3    0    0  0.43832703008E+00  0.30196368277E+01  0.34784551878E+01  0.46270928142E+01  0.51100000000E-03 0.  1.
         12    1    3    3    0    0 -0.13749525729E+01  0.21260862203E+01  0.13391979812E+00  0.25354825392E+01  0.00000000000E+00 0. -1.
</event>
<event>
 7    1  0.2983653E-010  0.4778727E+02  0.7816164E-02  0.1312668E+00
        -11   -1    0    0    0    0  0.00000000000E+00  0.00000000000E+00  0.45593999997E+02  0.45594000000E+02  0.51100000000E-03 0. -1.
         11   -1    0    0    0    0 -0.00000000000E+00 -0.00000000000E+00 -0.45593999997E+02  0.45594000000E+02  0.51100000000E-03 0.  1.
    9900012    2    1    2    0    0  0.26080573092E+02 -0.25079780875E+02  0.23967298977E+02  0.47787272796E+02  0.20000007987E+02 0.  0.
        -12    1    1    2    0    0 -0.26080573092E+02  0.25079780875E+02 -0.23967298977E+02  0.43400727204E+02  0.00000000000E+00 0.  1.
         11    1    3    3    0    0  0.48915698315E+01 -0.10357720992E+02  0.94738815387E+01  0.14864867010E+02  0.51100000000E-03 0. -1.
        -11    1    3    3    0    0  0.14340492836E+02 -0.14077578433E+01  0.53024861121E+01  0.15354083371E+02  0.51100000000E-03 0.  1.
        -12    1    3    3    0    0  0.68485104249E+01 -0.13314302039E+02  0.91909313267E+01  0.17568322415E+02  0.00000000000E+00 0.  1.
</event>
<event>
 7    1  0.2983653E-010  0.4778727E+02  0.7816164E-02  0.1312668E+00
        -11   -1    0    0    0    0  0.00000000000E+00  0.00000000000E+00  0.45593999997E+02  0.45594000000E+02  0.51100000000E-03 0.  1.
         11   -1    0    0    0    0 -0.00000000000E+00 -0.00000000000E+00 -0.45593999997E+02  0.45594000000E+02  0.51100000000E-03 0. -1.
    9900012    2    1    2    0    0 -0.15392162033E+01  0.12139647571E+02 -0.41639922016E+02  0.47787270338E+02  0.19999996780E+02 0.  0.
        -12    1    1    2    0    0  0.15392162033E+01 -0.12139647571E+02  0.41639922016E+02  0.43400729662E+02  0.00000000000E+00 0.  1.
         11    1    3    3    0    0  0.31893985843E+01  0.11985583562E+01 -0.27357277415E+02  0.27568631328E+02  0.51100000000E-03 0. -1.
        -11    1    3    3    0    0 -0.16986891924E+01  0.45279437218E+01 -0.68783777952E+00  0.48847661553E+01  0.51100000000E-03 0.  1.
         12    1    3    3    0    0 -0.30299255952E+01  0.64131454929E+01 -0.13594806821E+02  0.15333872855E+02  0.00000000000E+00 0. -1.
</event>
<event>
 7    1  0.2983653E-010  0.4778727E+02  0.7816164E-02  0.1312668E+00
        -11   -1    0    0    0    0  0.00000000000E+00  0.00000000000E+00  0.45593999997E+02  0.45594000000E+02  0.51100000000E-03 0.  1.
         11   -1    0    0    0    0 -0.00000000000E+00 -0.00000000000E+00 -0.45593999997E+02  0.45594000000E+02  0.51100000000E-03 0. -1.
    9900012    2    1    2    0    0 -0.30089849589E+01  0.43227232758E+02  0.24444778658E+01  0.47787272881E+02  0.20000008376E+02 0.  0.
        -12    1    1    2    0    0  0.30089849589E+01 -0.43227232758E+02 -0.24444778658E+01  0.43400727119E+02  0.00000000000E+00 0.  1.
         11    1    3    3    0    0  0.57152209547E+01  0.18776965074E+02  0.47946821505E+01  0.20204631774E+02  0.51100000000E-03 0. -1.
        -11    1    3    3    0    0 -0.93906279400E+01  0.22962301632E+02 -0.41512953169E+01  0.25153219325E+02  0.51100000000E-03 0.  1.
        -12    1    3    3    0    0  0.66642202637E+00  0.14879660517E+01  0.18010910323E+01  0.24294217820E+01  0.00000000000E+00 0.  1.
</event>
<event>
 7    1  0.2983653E-010  0.4778727E+02  0.7816164E-02  0.1312668E+00
        -11   -1    0    0    0    0  0.00000000000E+00  0.00000000000E+00  0.45593999997E+02  0.45594000000E+02  0.51100000000E-03 0.  1.
         11   -1    0    0    0    0 -0.00000000000E+00 -0.00000000000E+00 -0.45593999997E+02  0.45594000000E+02  0.51100000000E-03 0. -1.
    9900012    2    1    2    0    0  0.55654056000E+01  0.37950412846E+02 -0.20308019023E+02  0.47787271765E+02  0.20000003286E+02 0.  0.
        -12    1    1    2    0    0 -0.55654056000E+01 -0.37950412846E+02  0.20308019023E+02  0.43400728235E+02  0.00000000000E+00 0.  1.
         11    1    3    3    0    0  0.85289106288E+01  0.24240616836E+02 -0.57835015117E+01  0.26340059057E+02  0.51100000000E-03 0. -1.
        -11    1    3    3    0    0 -0.15484967469E+01  0.13633012075E+02 -0.10797081434E+02  0.17459491063E+02  0.51100000000E-03 0.  1.
        -12    1    3    3    0    0 -0.14150082819E+01  0.76783934287E-01 -0.37274360774E+01  0.39877216454E+01  0.00000000000E+00 0.  1.
</event>
<event>
 7    1  0.2983653E-010  0.4778727E+02  0.7816164E-02  0.1312668E+00
        -11   -1    0    0    0    0  0.00000000000E+00  0.00000000000E+00  0.45593999997E+02  0.45594000000E+02  0.51100000000E-03 0.  1.
         11   -1    0    0    0    0 -0.00000000000E+00 -0.00000000000E+00 -0.45593999997E+02  0.45594000000E+02  0.51100000000E-03 0. -1.
    9900012    2    1    2    0    0 -0.18202671706E+02  0.31933157156E+02 -0.23077257369E+02  0.47787267393E+02  0.19999983350E+02 0.  0.
        -12    1    1    2    0    0  0.18202671706E+02 -0.31933157156E+02  0.23077257369E+02  0.43400732607E+02  0.00000000000E+00 0.  1.
         11    1    3    3    0    0 -0.31990406065E+01  0.12883873808E+02 -0.16117564139E+02  0.20880707343E+02  0.51100000000E-03 0. -1.
        -11    1    3    3    0    0 -0.10232396427E+02  0.16423776505E+02 -0.18498516186E+01  0.19438732536E+02  0.51100000000E-03 0.  1.
        -12    1    3    3    0    0 -0.47712346727E+01  0.26255068422E+01 -0.51098416118E+01  0.74678275140E+01  0.00000000000E+00 0.  1.
</event>
<event>
 7    1  0.2983653E-010  0.4778727E+02  0.7816164E-02  0.1312668E+00
        -11   -1    0    0    0    0  0.00000000000E+00  0.00000000000E+00  0.45593999997E+02  0.45594000000E+02  0.51100000000E-03 0.  1.
         11   -1    0    0    0    0 -0.00000000000E+00 -0.00000000000E+00 -0.45593999997E+02  0.45594000000E+02  0.51100000000E-03 0. -1.
    9900012    2    1    2    0    0 -0.49225726653E+01 -0.12206069489E+01 -0.43103385983E+02  0.47787268599E+02  0.19999988849E+02 0.  0.
        -12    1    1    2    0    0  0.49225726653E+01  0.12206069489E+01  0.43103385983E+02  0.43400731401E+02  0.00000000000E+00 0.  1.
         11    1    3    3    0    0 -0.37831592019E+01  0.66950019250E+01 -0.16090327629E+02  0.17833507445E+02  0.51100000000E-03 0. -1.
        -11    1    3    3    0    0 -0.29934964285E+01 -0.89081115028E+01 -0.25946087963E+02  0.27595560373E+02  0.51100000000E-03 0.  1.
         12    1    3    3    0    0  0.18540829651E+01  0.99250262884E+00 -0.10669703906E+01  0.23582007811E+01  0.00000000000E+00 0. -1.
</event>
<event>
 7    1  0.2983653E-010  0.4778727E+02  0.7816164E-02  0.1312668E+00
        -11   -1    0    0    0    0  0.00000000000E+00  0.00000000000E+00  0.45593999997E+02  0.45594000000E+02  0.51100000000E-03 0.  1.
         11   -1    0    0    0    0 -0.00000000000E+00 -0.00000000000E+00 -0.45593999997E+02  0.45594000000E+02  0.51100000000E-03 0. -1.
    9900012    2    1    2    0    0 -0.22518762501E+02  0.21709053618E+02 -0.30087299385E+02  0.47787271229E+02  0.20000000842E+02 0.  0.
        -12    1    1    2    0    0  0.22518762501E+02 -0.21709053618E+02  0.30087299385E+02  0.43400728771E+02  0.00000000000E+00 0.  1.
         11    1    3    3    0    0 -0.19555091533E+02  0.18286969354E+02 -0.22465878591E+02  0.34950401344E+02  0.51100000000E-03 0. -1.
        -11    1    3    3    0    0 -0.38891991027E+00 -0.17662298278E+01 -0.67396355593E+01  0.69780738198E+01  0.51100000000E-03 0.  1.
        -12    1    3    3    0    0 -0.25747510578E+01  0.51883140926E+01 -0.88178523484E+00  0.58587960652E+01  0.00000000000E+00 0.  1.
</event>
<event>
 7    1  0.2983653E-010  0.4778727E+02  0.7816164E-02  0.1312668E+00
        -11   -1    0    0    0    0  0.00000000000E+00  0.00000000000E+00  0.45593999997E+02  0.45594000000E+02  0.51100000000E-03 0.  1.
         11   -1    0    0    0    0 -0.00000000000E+00 -0.00000000000E+00 -0.45593999997E+02  0.45594000000E+02  0.51100000000E-03 0. -1.
    9900012    2    1    2    0    0 -0.42379056268E+02 -0.92935671619E+01 -0.11263034956E+01  0.47787270049E+02  0.19999995460E+02 0.  0.
        -12    1    1    2    0    0  0.42379056268E+02  0.92935671619E+01  0.11263034956E+01  0.43400729951E+02  0.00000000000E+00 0.  1.
         11    1    3    3    0    0 -0.16009403631E+02 -0.19502732997E+01  0.63291797601E+01  0.17325215360E+02  0.51100000000E-03 0. -1.
        -11    1    3    3    0    0 -0.21640025617E+02 -0.10532867993E+01 -0.55163647150E+01  0.22356887121E+02  0.51100000000E-03 0.  1.
         12    1    3    3    0    0 -0.47296270195E+01 -0.62900070628E+01 -0.19391185407E+01  0.81051675682E+01  0.00000000000E+00 0. -1.
</event>
<event>
 7    1  0.2983653E-010  0.4778727E+02  0.7816164E-02  0.1312668E+00
        -11   -1    0    0    0    0  0.00000000000E+00  0.00000000000E+00  0.45593999997E+02  0.45594000000E+02  0.51100000000E-03 0.  1.
         11   -1    0    0    0    0 -0.00000000000E+00 -0.00000000000E+00 -0.45593999997E+02  0.45594000000E+02  0.51100000000E-03 0. -1.
    9900012    2    1    2    0    0  0.80261349309E+01  0.83352614010E+01 -0.41829746284E+02  0.47787273062E+02  0.20000009198E+02 0.  0.
        -12    1    1    2    0    0 -0.80261349309E+01 -0.83352614010E+01  0.41829746284E+02  0.43400726938E+02  0.00000000000E+00 0.  1.
         11    1    3    3    0    0  0.11915140958E+01  0.64041578863E+01 -0.32387609600E+02  0.33036195301E+02  0.51100000000E-03 0. -1.
        -11    1    3    3    0    0  0.19387189960E+01  0.35681612822E+01 -0.81915112787E-01  0.40616642683E+01  0.51100000000E-03 0.  1.
         12    1    3    3    0    0  0.48959018390E+01 -0.16370577675E+01 -0.93602215714E+01  0.10689413493E+02  0.00000000000E+00 0. -1.
</event>
<event>
 7    1  0.2983653E-010  0.4778728E+02  0.7816164E-02  0.1312668E+00
        -11   -1    0    0    0    0  0.00000000000E+00  0.00000000000E+00  0.45593999997E+02  0.45594000000E+02  0.51100000000E-03 0. -1.
         11   -1    0    0    0    0 -0.00000000000E+00 -0.00000000000E+00 -0.45593999997E+02  0.45594000000E+02  0.51100000000E-03 0.  1.
    9900012    2    1    2    0    0  0.41217907577E+02  0.46869640821E+01 -0.12756931209E+02  0.47787276144E+02  0.20000023252E+02 0.  0.
        -12    1    1    2    0    0 -0.41217907577E+02 -0.46869640821E+01  0.12756931209E+02  0.43400723856E+02  0.00000000000E+00 0.  1.
         11    1    3    3    0    0  0.12503849169E+02 -0.19318363494E+01 -0.12656651588E+02  0.17896062846E+02  0.51100000000E-03 0. -1.
        -11    1    3    3    0    0  0.18528478925E+02  0.58278962126E+01  0.17747819771E+01  0.19504326619E+02  0.51100000000E-03 0.  1.
        -12    1    3    3    0    0  0.10185579483E+02  0.79090421888E+00 -0.18750615989E+01  0.10386886679E+02  0.00000000000E+00 0.  1.
</event>
<event>
 7    1  0.2983653E-010  0.4778727E+02  0.7816164E-02  0.1312668E+00
        -11   -1    0    0    0    0  0.00000000000E+00  0.00000000000E+00  0.45593999997E+02  0.45594000000E+02  0.51100000000E-03 0.  1.
         11   -1    0    0    0    0 -0.00000000000E+00 -0.00000000000E+00 -0.45593999997E+02  0.45594000000E+02  0.51100000000E-03 0. -1.
    9900012    2    1    2    0    0  0.40282369545E+01 -0.14083136007E+02 -0.40854153431E+02  0.47787271143E+02  0.20000000448E+02 0.  0.
        -12    1    1    2    0    0 -0.40282369545E+01  0.14083136007E+02  0.40854153431E+02  0.43400728857E+02  0.00000000000E+00 0.  1.
         11    1    3    3    0    0  0.41455283578E+01 -0.20544037849E+01 -0.96375696942E+01  0.10690590730E+02  0.51100000000E-03 0.  1.
        -11    1    3    3    0    0  0.34243824334E+01 -0.14150715972E+02 -0.17458978707E+02  0.22732907762E+02  0.51100000000E-03 0. -1.
        -12    1    3    3    0    0 -0.35416738367E+01  0.21219837497E+01 -0.13757605030E+02  0.14363772651E+02  0.00000000000E+00 0.  1.
</event>
<event>
 7    1  0.2983653E-010  0.4778727E+02  0.7816164E-02  0.1312668E+00
        -11   -1    0    0    0    0  0.00000000000E+00  0.00000000000E+00  0.45593999997E+02  0.45594000000E+02  0.51100000000E-03 0.  1.
         11   -1    0    0    0    0 -0.00000000000E+00 -0.00000000000E+00 -0.45593999997E+02  0.45594000000E+02  0.51100000000E-03 0. -1.
    9900012    2    1    2    0    0 -0.11388106422E+02 -0.18416814449E+02 -0.37613236617E+02  0.47787267390E+02  0.19999983338E+02 0.  0.
        -12    1    1    2    0    0  0.11388106422E+02  0.18416814449E+02  0.37613236617E+02  0.43400732610E+02  0.00000000000E+00 0.  1.
         11    1    3    3    0    0 -0.57161401324E+01 -0.12193594444E+02 -0.10282933726E+02  0.16943928994E+02  0.51100000000E-03 0. -1.
        -11    1    3    3    0    0 -0.42240450657E+01 -0.19532586562E-01 -0.22381342204E+02  0.22776466305E+02  0.51100000000E-03 0.  1.
        -12    1    3    3    0    0 -0.14479212239E+01 -0.62036874176E+01 -0.49489606870E+01  0.80668720907E+01  0.00000000000E+00 0.  1.
</event>
<event>
 7    1  0.2983653E-010  0.4778727E+02  0.7816164E-02  0.1312668E+00
        -11   -1    0    0    0    0  0.00000000000E+00  0.00000000000E+00  0.45593999997E+02  0.45594000000E+02  0.51100000000E-03 0. -1.
         11   -1    0    0    0    0 -0.00000000000E+00 -0.00000000000E+00 -0.45593999997E+02  0.45594000000E+02  0.51100000000E-03 0.  1.
    9900012    2    1    2    0    0  0.14850254247E+02  0.39975584627E+02 -0.80651087932E+01  0.47787269622E+02  0.19999993516E+02 0.  0.
        -12    1    1    2    0    0 -0.14850254247E+02 -0.39975584627E+02  0.80651087932E+01  0.43400730378E+02  0.00000000000E+00 0.  1.
         11    1    3    3    0    0  0.61194476069E+01  0.12192837701E+02  0.27089980684E+01  0.13908687969E+02  0.51100000000E-03 0. -1.
        -11    1    3    3    0    0 -0.30439927909E+01  0.11331649625E+02 -0.55746287623E+01  0.12990329535E+02  0.51100000000E-03 0.  1.
        -12    1    3    3    0    0  0.11774799431E+02  0.16451097301E+02 -0.51994780993E+01  0.20888252118E+02  0.00000000000E+00 0.  1.
</event>
<event>
 7    1  0.2983653E-010  0.4778727E+02  0.7816164E-02  0.1312668E+00
        -11   -1    0    0    0    0  0.00000000000E+00  0.00000000000E+00  0.45593999997E+02  0.45594000000E+02  0.51100000000E-03 0. -1.
         11   -1    0    0    0    0 -0.00000000000E+00 -0.00000000000E+00 -0.45593999997E+02  0.45594000000E+02  0.51100000000E-03 0.  1.
    9900012    2    1    2    0    0  0.24290885126E+02 -0.28373482927E+01  0.35854225944E+02  0.47787272315E+02  0.20000005795E+02 0.  0.
        -12    1    1    2    0    0 -0.24290885126E+02  0.28373482927E+01 -0.35854225944E+02  0.43400727685E+02  0.00000000000E+00 0.  1.
         11    1    3    3    0    0  0.31505633663E+01  0.33141417556E+01  0.97400776737E+01  0.10760051043E+02  0.51100000000E-03 0. -1.
        -11    1    3    3    0    0  0.15847707233E+02 -0.10327638260E+02  0.22440865604E+02  0.29349657339E+02  0.51100000000E-03 0.  1.
        -12    1    3    3    0    0  0.52926145266E+01  0.41761482113E+01  0.36732826657E+01  0.76775639334E+01  0.00000000000E+00 0.  1.
</event>
<event>
 7    1  0.2983653E-010  0.4778727E+02  0.7816164E-02  0.1312668E+00
        -11   -1    0    0    0    0  0.00000000000E+00  0.00000000000E+00  0.45593999997E+02  0.45594000000E+02  0.51100000000E-03 0.  1.
         11   -1    0    0    0    0 -0.00000000000E+00 -0.00000000000E+00 -0.45593999997E+02  0.45594000000E+02  0.51100000000E-03 0. -1.
    9900012    2    1    2    0    0 -0.10097811769E+02 -0.10033298633E+02 -0.40999881139E+02  0.47787272617E+02  0.20000007170E+02 0.  0.
        -12    1    1    2    0    0  0.10097811769E+02  0.10033298633E+02  0.40999881139E+02  0.43400727383E+02  0.00000000000E+00 0.  1.
         11    1    3    3    0    0 -0.85886821747E+01 -0.88270323669E+01 -0.12431639667E+02  0.17499360759E+02  0.51100000000E-03 0. -1.
        -11    1    3    3    0    0 -0.24327017271E+01  0.37386656157E+01 -0.18535863902E+02  0.19064991716E+02  0.51100000000E-03 0.  1.
        -12    1    3    3    0    0  0.92357213319E+00 -0.49449318823E+01 -0.10032377570E+02  0.11222920142E+02  0.00000000000E+00 0.  1.
</event>
<event>
 7    1  0.2983653E-010  0.4778728E+02  0.7816164E-02  0.1312668E+00
        -11   -1    0    0    0    0  0.00000000000E+00  0.00000000000E+00  0.45593999997E+02  0.45594000000E+02  0.51100000000E-03 0.  1.
         11   -1    0    0    0    0 -0.00000000000E+00 -0.00000000000E+00 -0.45593999997E+02  0.45594000000E+02  0.51100000000E-03 0. -1.
    9900012    2    1    2    0    0  0.20459827641E+02 -0.67053349693E+01 -0.37683639783E+02  0.47787276832E+02  0.20000026389E+02 0.  0.
        -12    1    1    2    0    0 -0.20459827641E+02  0.67053349693E+01  0.37683639783E+02  0.43400723168E+02  0.00000000000E+00 0.  1.
         11    1    3    3    0    0  0.96375595999E+01 -0.83995078203E+01 -0.26873397846E+02  0.29759264083E+02  0.51100000000E-03 0. -1.
        -11    1    3    3    0    0  0.99784967472E+01  0.48886208214E+01 -0.86326191880E+01  0.14070931923E+02  0.51100000000E-03 0.  1.
         12    1    3    3    0    0  0.84377129433E+00 -0.31944479705E+01 -0.21776227490E+01  0.39570808268E+01  0.00000000000E+00 0. -1.
</event>
<event>
 7    1  0.2983653E-010  0.4778727E+02  0.7816164E-02  0.1312668E+00
        -11   -1    0    0    0    0  0.00000000000E+00  0.00000000000E+00  0.45593999997E+02  0.45594000000E+02  0.51100000000E-03 0. -1.
         11   -1    0    0    0    0 -0.00000000000E+00 -0.00000000000E+00 -0.45593999997E+02  0.45594000000E+02  0.51100000000E-03 0.  1.
    9900012    2    1    2    0    0 -0.34218732489E+02  0.15545997855E+02  0.21703083722E+02  0.47787267915E+02  0.19999985733E+02 0.  0.
        -12    1    1    2    0    0  0.34218732489E+02 -0.15545997855E+02 -0.21703083722E+02  0.43400732085E+02  0.00000000000E+00 0.  1.
         11    1    3    3    0    0 -0.30520174121E+02  0.12658627371E+02  0.24664265126E+02  0.41231636516E+02  0.51100000000E-03 0. -1.
        -11    1    3    3    0    0 -0.37023669488E+01  0.33140394596E+01 -0.17444596458E+01  0.52662622684E+01  0.51100000000E-03 0.  1.
         12    1    3    3    0    0  0.38085808182E-02 -0.42666897593E+00 -0.12167217581E+01  0.12893691313E+01  0.00000000000E+00 0. -1.
</event>
<event>
 7    1  0.2983653E-010  0.4778728E+02  0.7816164E-02  0.1312668E+00
        -11   -1    0    0    0    0  0.00000000000E+00  0.00000000000E+00  0.45593999997E+02  0.45594000000E+02  0.51100000000E-03 0.  1.
         11   -1    0    0    0    0 -0.00000000000E+00 -0.00000000000E+00 -0.45593999997E+02  0.45594000000E+02  0.51100000000E-03 0. -1.
    9900012    2    1    2    0    0  0.39479547825E+01  0.28019412876E+02 -0.32908178736E+02  0.47787284884E+02  0.20000063100E+02 0.  0.
        -12    1    1    2    0    0 -0.39479547825E+01 -0.28019412876E+02  0.32908178736E+02  0.43400715116E+02  0.00000000000E+00 0.  1.
         11    1    3    3    0    0  0.12057949192E+01  0.21996750016E+02 -0.13509154218E+02  0.25841985229E+02  0.51100000000E-03 0. -1.
        -11    1    3    3    0    0 -0.25904660391E+01  0.95617649054E+00 -0.70510349159E+01  0.75724422366E+01  0.51100000000E-03 0.  1.
         12    1    3    3    0    0  0.53326259023E+01  0.50664863693E+01 -0.12347989602E+02  0.14372857418E+02  0.00000000000E+00 0. -1.
</event>
<event>
 7    1  0.2983653E-010  0.4778727E+02  0.7816164E-02  0.1312668E+00
        -11   -1    0    0    0    0  0.00000000000E+00  0.00000000000E+00  0.45593999997E+02  0.45594000000E+02  0.51100000000E-03 0. -1.
         11   -1    0    0    0    0 -0.00000000000E+00 -0.00000000000E+00 -0.45593999997E+02  0.45594000000E+02  0.51100000000E-03 0.  1.
    9900012    2    1    2    0    0 -0.34752442249E+02 -0.25579118537E+02  0.46475798475E+01  0.47787267911E+02  0.19999985715E+02 0.  0.
        -12    1    1    2    0    0  0.34752442249E+02  0.25579118537E+02 -0.46475798475E+01  0.43400732089E+02  0.00000000000E+00 0.  1.
         11    1    3    3    0    0 -0.92825549406E+01 -0.34887705317E+01  0.39614152004E+00  0.99244281656E+01  0.51100000000E-03 0. -1.
        -11    1    3    3    0    0 -0.21615531568E+01  0.62742164385E+00  0.48093889833E+01  0.53100087215E+01  0.51100000000E-03 0.  1.
        -12    1    3    3    0    0 -0.23308334152E+02 -0.22717769649E+02 -0.55795065586E+00  0.32552831024E+02  0.00000000000E+00 0.  1.
</event>
<event>
 7    1  0.2983653E-010  0.4778727E+02  0.7816164E-02  0.1312668E+00
        -11   -1    0    0    0    0  0.00000000000E+00  0.00000000000E+00  0.45593999997E+02  0.45594000000E+02  0.51100000000E-03 0. -1.
         11   -1    0    0    0    0 -0.00000000000E+00 -0.00000000000E+00 -0.45593999997E+02  0.45594000000E+02  0.51100000000E-03 0.  1.
    9900012    2    1    2    0    0  0.29793196882E+02  0.23811716224E+02  0.20712095378E+02  0.47787270686E+02  0.19999998366E+02 0.  0.
        -12    1    1    2    0    0 -0.29793196882E+02 -0.23811716224E+02 -0.20712095378E+02  0.43400729314E+02  0.00000000000E+00 0.  1.
         11    1    3    3    0    0  0.97475497120E+01  0.12899644418E+02  0.50665316573E+01  0.16943591555E+02  0.51100000000E-03 0. -1.
        -11    1    3    3    0    0  0.34758163292E+01  0.22219875870E+01  0.10733961801E+02  0.11499411472E+02  0.51100000000E-03 0.  1.
        -12    1    3    3    0    0  0.16569830841E+02  0.86900842195E+01  0.49116019197E+01  0.19344267659E+02  0.00000000000E+00 0.  1.
</event>
<event>
 7    1  0.2983653E-010  0.4778728E+02  0.7816164E-02  0.1312668E+00
        -11   -1    0    0    0    0  0.00000000000E+00  0.00000000000E+00  0.45593999997E+02  0.45594000000E+02  0.51100000000E-03 0. -1.
         11   -1    0    0    0    0 -0.00000000000E+00 -0.00000000000E+00 -0.45593999997E+02  0.45594000000E+02  0.51100000000E-03 0.  1.
    9900012    2    1    2    0    0  0.17691125975E+02  0.36840377888E+02 -0.14609343543E+02  0.47787282265E+02  0.20000051158E+02 0.  0.
        -12    1    1    2    0    0 -0.17691125975E+02 -0.36840377888E+02  0.14609343543E+02  0.43400717735E+02  0.00000000000E+00 0.  1.
         11    1    3    3    0    0  0.60209470811E+01  0.17578660899E+02 -0.72437473254E+01  0.19943244429E+02  0.51100000000E-03 0. -1.
        -11    1    3    3    0    0  0.84862885270E+01  0.18153977494E+02 -0.11022053868E+02  0.22870716289E+02  0.51100000000E-03 0.  1.
        -12    1    3    3    0    0  0.31838903674E+01  0.11077394943E+01  0.36564576513E+01  0.49733215475E+01  0.00000000000E+00 0.  1.
</event>
<event>
 7    1  0.2983653E-010  0.4778727E+02  0.7816164E-02  0.1312668E+00
        -11   -1    0    0    0    0  0.00000000000E+00  0.00000000000E+00  0.45593999997E+02  0.45594000000E+02  0.51100000000E-03 0. -1.
         11   -1    0    0    0    0 -0.00000000000E+00 -0.00000000000E+00 -0.45593999997E+02  0.45594000000E+02  0.51100000000E-03 0.  1.
    9900012    2    1    2    0    0 -0.17699424116E+01  0.32109648808E+02  0.29145514100E+02  0.47787271494E+02  0.20000002050E+02 0.  0.
        -12    1    1    2    0    0  0.17699424116E+01 -0.32109648808E+02 -0.29145514100E+02  0.43400728506E+02  0.00000000000E+00 0.  1.
         11    1    3    3    0    0 -0.53497288289E+01  0.96555751507E+00  0.77685205049E+01  0.94816565511E+01  0.51100000000E-03 0. -1.
        -11    1    3    3    0    0  0.28628378998E+01  0.23163609003E+02  0.18533717296E+02  0.29803477984E+02  0.51100000000E-03 0.  1.
         12    1    3    3    0    0  0.71694851750E+00  0.79804822900E+01  0.28432762986E+01  0.85021369589E+01  0.00000000000E+00 0. -1.
</event>
<event>
 7    1  0.2983653E-010  0.4778728E+02  0.7816164E-02  0.1312668E+00
        -11   -1    0    0    0    0  0.00000000000E+00  0.00000000000E+00  0.45593999997E+02  0.45594000000E+02  0.51100000000E-03 0.  1.
         11   -1    0    0    0    0 -0.00000000000E+00 -0.00000000000E+00 -0.45593999997E+02  0.45594000000E+02  0.51100000000E-03 0. -1.
    9900012    2    1    2    0    0 -0.39802767768E+02 -0.17021094310E+02 -0.31056225724E+01  0.47787275754E+02  0.20000021474E+02 0.  0.
        -12    1    1    2    0    0  0.39802767768E+02  0.17021094310E+02  0.31056225724E+01  0.43400724246E+02  0.00000000000E+00 0.  1.
         11    1    3    3    0    0 -0.23385795399E+02 -0.10672732454E+02  0.55002476472E+01  0.26287932002E+02  0.51100000000E-03 0. -1.
        -11    1    3    3    0    0 -0.69232196722E+01 -0.22026774697E+01 -0.84431137246E+01  0.11138623267E+02  0.51100000000E-03 0.  1.
         12    1    3    3    0    0 -0.94937526964E+01 -0.41456843857E+01 -0.16275649496E+00  0.10360720485E+02  0.00000000000E+00 0. -1.
</event>
<event>
 7    1  0.2983653E-010  0.4778725E+02  0.7816164E-02  0.1312668E+00
        -11   -1    0    0    0    0  0.00000000000E+00  0.00000000000E+00  0.45593999997E+02  0.45594000000E+02  0.51100000000E-03 0.  1.
         11   -1    0    0    0    0 -0.00000000000E+00 -0.00000000000E+00 -0.45593999997E+02  0.45594000000E+02  0.51100000000E-03 0. -1.
    9900012    2    1    2    0    0  0.46534688080E+01 -0.87463838489E+01 -0.42254834848E+02  0.47787250348E+02  0.19999905635E+02 0.  0.
        -12    1    1    2    0    0 -0.46534688080E+01  0.87463838489E+01  0.42254834848E+02  0.43400749652E+02  0.00000000000E+00 0.  1.
         11    1    3    3    0    0  0.47693689064E+01 -0.11584308750E+02 -0.36465773327E+02  0.38557693312E+02  0.51100000000E-03 0. -1.
        -11    1    3    3    0    0  0.18736579791E+01  0.12765059371E+01  0.61086886449E+00  0.23480252684E+01  0.51100000000E-03 0.  1.
         12    1    3    3    0    0 -0.19895580775E+01  0.15614189637E+01 -0.63999303856E+01  0.68815317674E+01  0.00000000000E+00 0. -1.
</event>
<event>
 7    1  0.2983653E-010  0.4778726E+02  0.7816164E-02  0.1312668E+00
        -11   -1    0    0    0    0  0.00000000000E+00  0.00000000000E+00  0.45593999997E+02  0.45594000000E+02  0.51100000000E-03 0.  1.
         11   -1    0    0    0    0 -0.00000000000E+00 -0.00000000000E+00 -0.45593999997E+02  0.45594000000E+02  0.51100000000E-03 0. -1.
    9900012    2    1    2    0    0 -0.27839311150E+02  0.71551866055E+01 -0.32517688703E+02  0.47787262458E+02  0.19999960849E+02 0.  0.
        -12    1    1    2    0    0  0.27839311150E+02 -0.71551866055E+01  0.32517688703E+02  0.43400737542E+02  0.00000000000E+00 0.  1.
         11    1    3    3    0    0 -0.57949082546E+01  0.68531985407E+01 -0.10594884522E+02  0.13885203283E+02  0.51100000000E-03 0. -1.
        -11    1    3    3    0    0 -0.39647048110E+01 -0.55427498534E+01 -0.66795163535E+01  0.95423738742E+01  0.51100000000E-03 0.  1.
        -12    1    3    3    0    0 -0.18079698084E+02  0.58447379182E+01 -0.15243287827E+02  0.24359685300E+02  0.00000000000E+00 0.  1.
</event>
<event>
 7    1  0.2983653E-010  0.4778727E+02  0.7816164E-02  0.1312668E+00
        -11   -1    0    0    0    0  0.00000000000E+00  0.00000000000E+00  0.45593999997E+02  0.45594000000E+02  0.51100000000E-03 0.  1.
         11   -1    0    0    0    0 -0.00000000000E+00 -0.00000000000E+00 -0.45593999997E+02  0.45594000000E+02  0.51100000000E-03 0. -1.
    9900012    2    1    2    0    0  0.34827084843E+02  0.23789397257E+02 -0.10235328425E+02  0.47787271798E+02  0.20000003434E+02 0.  0.
        -12    1    1    2    0    0 -0.34827084843E+02 -0.23789397257E+02  0.10235328425E+02  0.43400728202E+02  0.00000000000E+00 0.  1.
         11    1    3    3    0    0  0.19352198203E+02  0.79488145361E+01 -0.40091609539E+01  0.21301751094E+02  0.51100000000E-03 0. -1.
        -11    1    3    3    0    0  0.56375934498E+00 -0.17420268769E+01 -0.25514253669E+01  0.31404225676E+01  0.51100000000E-03 0.  1.
        -12    1    3    3    0    0  0.14911127294E+02  0.17582609598E+02 -0.36747421043E+01  0.23345098137E+02  0.00000000000E+00 0.  1.
</event>
<event>
 7    1  0.2983653E-010  0.4778727E+02  0.7816164E-02  0.1312668E+00
        -11   -1    0    0    0    0  0.00000000000E+00  0.00000000000E+00  0.45593999997E+02  0.45594000000E+02  0.51100000000E-03 0. -1.
         11   -1    0    0    0    0 -0.00000000000E+00 -0.00000000000E+00 -0.45593999997E+02  0.45594000000E+02  0.51100000000E-03 0.  1.
    9900012    2    1    2    0    0  0.36355282732E+02  0.18804566097E+02  0.14432787730E+02  0.47787266708E+02  0.19999980229E+02 0.  0.
        -12    1    1    2    0    0 -0.36355282732E+02 -0.18804566097E+02 -0.14432787730E+02  0.43400733292E+02  0.00000000000E+00 0.  1.
         11    1    3    3    0    0  0.20830177106E+02  0.70746819467E+01  0.14493794475E+02  0.26344211536E+02  0.51100000000E-03 0. -1.
        -11    1    3    3    0    0  0.16673748293E+02  0.10625439384E+02  0.42818043637E+00  0.19776177158E+02  0.51100000000E-03 0.  1.
         12    1    3    3    0    0 -0.11486426664E+01  0.11044447662E+01 -0.48918718119E+00  0.16668780144E+01  0.00000000000E+00 0. -1.
</event>
<event>
 7    1  0.2983653E-010  0.4778726E+02  0.7816164E-02  0.1312668E+00
        -11   -1    0    0    0    0  0.00000000000E+00  0.00000000000E+00  0.45593999997E+02  0.45594000000E+02  0.51100000000E-03 0.  1.
         11   -1    0    0    0    0 -0.00000000000E+00 -0.00000000000E+00 -0.45593999997E+02  0.45594000000E+02  0.51100000000E-03 0. -1.
    9900012    2    1    2    0    0  0.32242819377E+02  0.16707714317E+02 -0.23767137973E+02  0.47787263065E+02  0.19999963618E+02 0.  0.
        -12    1    1    2    0    0 -0.32242819377E+02 -0.16707714317E+02  0.23767137973E+02  0.43400736935E+02  0.00000000000E+00 0.  1.
         11    1    3    3    0    0  0.17033141796E+02  0.81182553762E+01 -0.20249328957E+02  0.27677957172E+02  0.51100000000E-03 0. -1.
        -11    1    3    3    0    0  0.15234190243E+02  0.67005844690E+01 -0.62507433596E+00  0.16654401904E+02  0.51100000000E-03 0.  1.
        -12    1    3    3    0    0 -0.24512661329E-01  0.18888744722E+01 -0.28927346802E+01  0.34549039889E+01  0.00000000000E+00 0.  1.
</event>
<event>
 7    1  0.2983653E-010  0.4778727E+02  0.7816164E-02  0.1312668E+00
        -11   -1    0    0    0    0  0.00000000000E+00  0.00000000000E+00  0.45593999997E+02  0.45594000000E+02  0.51100000000E-03 0.  1.
         11   -1    0    0    0    0 -0.00000000000E+00 -0.00000000000E+00 -0.45593999997E+02  0.45594000000E+02  0.51100000000E-03 0. -1.
    9900012    2    1    2    0    0 -0.30519457306E+02  0.69206702472E+01 -0.30071421626E+02  0.47787270173E+02  0.19999996026E+02 0.  0.
        -12    1    1    2    0    0  0.30519457306E+02 -0.69206702472E+01  0.30071421626E+02  0.43400729827E+02  0.00000000000E+00 0.  1.
         11    1    3    3    0    0 -0.39799017145E+01  0.77772166570E+01 -0.59756468903E+01  0.10584567663E+02  0.51100000000E-03 0. -1.
        -11    1    3    3    0    0 -0.62035368320E+00 -0.20873135623E+01 -0.32792331075E+01  0.39363798894E+01  0.51100000000E-03 0.  1.
         12    1    3    3    0    0 -0.25919201908E+02  0.12307671525E+01 -0.20816541628E+02  0.33266322621E+02  0.00000000000E+00 0. -1.
</event>
<event>
 7    1  0.2983653E-010  0.4778727E+02  0.7816164E-02  0.1312668E+00
        -11   -1    0    0    0    0  0.00000000000E+00  0.00000000000E+00  0.45593999997E+02  0.45594000000E+02  0.51100000000E-03 0.  1.
         11   -1    0    0    0    0 -0.00000000000E+00 -0.00000000000E+00 -0.45593999997E+02  0.45594000000E+02  0.51100000000E-03 0. -1.
    9900012    2    1    2    0    0 -0.82508458214E+01  0.34685718291E+02 -0.24747683307E+02  0.47787270292E+02  0.19999996570E+02 0.  0.
        -12    1    1    2    0    0  0.82508458214E+01 -0.34685718291E+02  0.24747683307E+02  0.43400729708E+02  0.00000000000E+00 0.  1.
         11    1    3    3    0    0 -0.90353141123E+01  0.24566160252E+02 -0.15109890666E+02  0.30223201796E+02  0.51100000000E-03 0. -1.
        -11    1    3    3    0    0  0.29668358188E+00 -0.10701792911E+01  0.14348507091E+01  0.18144149695E+01  0.51100000000E-03 0.  1.
        -12    1    3    3    0    0  0.48778470902E+00  0.11189737330E+02 -0.11072643350E+02  0.15749653526E+02  0.00000000000E+00 0.  1.
</event>
<event>
 7    1  0.2983653E-010  0.4778727E+02  0.7816164E-02  0.1312668E+00
        -11   -1    0    0    0    0  0.00000000000E+00  0.00000000000E+00  0.45593999997E+02  0.45594000000E+02  0.51100000000E-03 0.  1.
         11   -1    0    0    0    0 -0.00000000000E+00 -0.00000000000E+00 -0.45593999997E+02  0.45594000000E+02  0.51100000000E-03 0. -1.
    9900012    2    1    2    0    0 -0.36460246537E+02  0.34590905302E+01 -0.23287513588E+02  0.47787272195E+02  0.20000005246E+02 0.  0.
        -12    1    1    2    0    0  0.36460246537E+02 -0.34590905302E+01  0.23287513588E+02  0.43400727805E+02  0.00000000000E+00 0.  1.
         11    1    3    3    0    0 -0.33672583613E+02  0.13447874320E+01 -0.17625623738E+02  0.38030434560E+02  0.51100000000E-03 0. -1.
        -11    1    3    3    0    0 -0.32381506303E+00 -0.79119818749E+00  0.14532432026E+01  0.16860506617E+01  0.51100000000E-03 0.  1.
         12    1    3    3    0    0 -0.24638478613E+01  0.29055012856E+01 -0.71151330527E+01  0.80707869729E+01  0.00000000000E+00 0. -1.
</event>
<event>
 7    1  0.2983653E-010  0.4778727E+02  0.7816164E-02  0.1312668E+00
        -11   -1    0    0    0    0  0.00000000000E+00  0.00000000000E+00  0.45593999997E+02  0.45594000000E+02  0.51100000000E-03 0.  1.
         11   -1    0    0    0    0 -0.00000000000E+00 -0.00000000000E+00 -0.45593999997E+02  0.45594000000E+02  0.51100000000E-03 0. -1.
    9900012    2    1    2    0    0 -0.76481165012E+01 -0.42681581027E+02 -0.18472513377E+01  0.47787269793E+02  0.19999994295E+02 0.  0.
        -12    1    1    2    0    0  0.76481165012E+01  0.42681581027E+02  0.18472513377E+01  0.43400730207E+02  0.00000000000E+00 0.  1.
         11    1    3    3    0    0  0.23770126537E+01 -0.28939485441E+02  0.36423768549E+01  0.29264499246E+02  0.51100000000E-03 0. -1.
        -11    1    3    3    0    0 -0.66742402675E+01 -0.90845642281E+01 -0.11549227036E+01  0.11331753486E+02  0.51100000000E-03 0.  1.
         12    1    3    3    0    0 -0.33508888874E+01 -0.46575313583E+01 -0.43347054890E+01  0.71910170606E+01  0.00000000000E+00 0. -1.
</event>
<event>
 7    1  0.2983653E-010  0.4778727E+02  0.7816164E-02  0.1312668E+00
        -11   -1    0    0    0    0  0.00000000000E+00  0.00000000000E+00  0.45593999997E+02  0.45594000000E+02  0.51100000000E-03 0. -1.
         11   -1    0    0    0    0 -0.00000000000E+00 -0.00000000000E+00 -0.45593999997E+02  0.45594000000E+02  0.51100000000E-03 0.  1.
    9900012    2    1    2    0    0 -0.93472190375E+01 -0.38578752549E+02  0.17548002845E+02  0.47787273557E+02  0.20000011454E+02 0.  0.
        -12    1    1    2    0    0  0.93472190375E+01  0.38578752549E+02 -0.17548002845E+02  0.43400726443E+02  0.00000000000E+00 0.  1.
         11    1    3    3    0    0 -0.35781756254E+00 -0.16789766138E+02 -0.78174450698E+00  0.16811763891E+02  0.51100000000E-03 0.  1.
        -11    1    3    3    0    0 -0.24260928494E+01 -0.14822972685E+02  0.13757716437E+02  0.20368632933E+02  0.51100000000E-03 0. -1.
         12    1    3    3    0    0 -0.65633086256E+01 -0.69660137261E+01  0.45720309146E+01  0.10606876733E+02  0.00000000000E+00 0. -1.
</event>
<event>
 7    1  0.2983653E-010  0.4778727E+02  0.7816164E-02  0.1312668E+00
        -11   -1    0    0    0    0  0.00000000000E+00  0.00000000000E+00  0.45593999997E+02  0.45594000000E+02  0.51100000000E-03 0.  1.
         11   -1    0    0    0    0 -0.00000000000E+00 -0.00000000000E+00 -0.45593999997E+02  0.45594000000E+02  0.51100000000E-03 0. -1.
    9900012    2    1    2    0    0 -0.52390449572E+01 -0.10393070870E+02 -0.41811002827E+02  0.47787268767E+02  0.19999989615E+02 0.  0.
        -12    1    1    2    0    0  0.52390449572E+01  0.10393070870E+02  0.41811002827E+02  0.43400731233E+02  0.00000000000E+00 0.  1.
         11    1    3    3    0    0 -0.53881461619E+01  0.39629622126E+01 -0.58453434040E+01  0.88828614946E+01  0.51100000000E-03 0.  1.
        -11    1    3    3    0    0 -0.11686517408E+01 -0.89109771513E+01 -0.25438065148E+02  0.26978999600E+02  0.51100000000E-03 0. -1.
        -12    1    3    3    0    0  0.13177529455E+01 -0.54450559315E+01 -0.10527594275E+02  0.11925407672E+02  0.00000000000E+00 0.  1.
</event>
<event>
 7    1  0.2983653E-010  0.4778728E+02  0.7816164E-02  0.1312668E+00
        -11   -1    0    0    0    0  0.00000000000E+00  0.00000000000E+00  0.45593999997E+02  0.45594000000E+02  0.51100000000E-03 0.  1.
         11   -1    0    0    0    0 -0.00000000000E+00 -0.00000000000E+00 -0.45593999997E+02  0.45594000000E+02  0.51100000000E-03 0. -1.
    9900012    2    1    2    0    0 -0.30905328445E+02  0.10788193460E+02 -0.28497327516E+02  0.47787284338E+02  0.20000060610E+02 0.  0.
        -12    1    1    2    0    0  0.30905328445E+02 -0.10788193460E+02  0.28497327516E+02  0.43400715662E+02  0.00000000000E+00 0.  1.
         11    1    3    3    0    0 -0.79326487413E+01  0.10024728802E+02 -0.40454013559E+01  0.13408481495E+02  0.51100000000E-03 0. -1.
        -11    1    3    3    0    0  0.82128492169E-01  0.90692112702E+00 -0.19999206694E+01  0.21974835528E+01  0.51100000000E-03 0.  1.
         12    1    3    3    0    0 -0.23054808196E+02 -0.14345646897E+00 -0.22452005491E+02  0.32181319290E+02  0.00000000000E+00 0. -1.
</event>
<event>
 7    1  0.2983653E-010  0.4778729E+02  0.7816164E-02  0.1312668E+00
        -11   -1    0    0    0    0  0.00000000000E+00  0.00000000000E+00  0.45593999997E+02  0.45594000000E+02  0.51100000000E-03 0.  1.
         11   -1    0    0    0    0 -0.00000000000E+00 -0.00000000000E+00 -0.45593999997E+02  0.45594000000E+02  0.51100000000E-03 0. -1.
    9900012    2    1    2    0    0 -0.21238026730E+02  0.17706122196E+02 -0.33452369452E+02  0.47787290737E+02  0.20000089784E+02 0.  0.
        -12    1    1    2    0    0  0.21238026730E+02 -0.17706122196E+02  0.33452369452E+02  0.43400709263E+02  0.00000000000E+00 0.  1.
         11    1    3    3    0    0 -0.16376299478E+02  0.10753793045E+02 -0.28723254363E+02  0.34768557504E+02  0.51100000000E-03 0. -1.
        -11    1    3    3    0    0 -0.62097584204E+01  0.56782201075E+01 -0.53347120662E+00  0.84313625837E+01  0.51100000000E-03 0.  1.
        -12    1    3    3    0    0  0.13480311679E+01  0.12741090438E+01 -0.41956438826E+01  0.45873706494E+01  0.00000000000E+00 0.  1.
</event>
<event>
 7    1  0.2983653E-010  0.4778727E+02  0.7816164E-02  0.1312668E+00
        -11   -1    0    0    0    0  0.00000000000E+00  0.00000000000E+00  0.45593999997E+02  0.45594000000E+02  0.51100000000E-03 0.  1.
         11   -1    0    0    0    0 -0.00000000000E+00 -0.00000000000E+00 -0.45593999997E+02  0.45594000000E+02  0.51100000000E-03 0. -1.
    9900012    2    1    2    0    0 -0.36420612717E+02 -0.12931940252E+02 -0.19746566478E+02  0.47787274234E+02  0.20000014542E+02 0.  0.
        -12    1    1    2    0    0  0.36420612717E+02  0.12931940252E+02  0.19746566478E+02  0.43400725766E+02  0.00000000000E+00 0.  1.
         11    1    3    3    0    0 -0.81388278945E+01 -0.17718590431E+01 -0.12708685285E+02  0.15195087558E+02  0.51100000000E-03 0. -1.
        -11    1    3    3    0    0 -0.61980186264E+01 -0.36980388325E+01  0.21585437296E+01  0.75332753430E+01  0.51100000000E-03 0.  1.
         12    1    3    3    0    0 -0.22083766196E+02 -0.74620423769E+01 -0.91964249228E+01  0.25058911333E+02  0.00000000000E+00 0. -1.
</event>
<event>
 7    1  0.2983653E-010  0.4778727E+02  0.7816164E-02  0.1312668E+00
        -11   -1    0    0    0    0  0.00000000000E+00  0.00000000000E+00  0.45593999997E+02  0.45594000000E+02  0.51100000000E-03 0. -1.
         11   -1    0    0    0    0 -0.00000000000E+00 -0.00000000000E+00 -0.45593999997E+02  0.45594000000E+02  0.51100000000E-03 0.  1.
    9900012    2    1    2    0    0 -0.36322295821E+01  0.31183334254E+02  0.29967144072E+02  0.47787272462E+02  0.20000006465E+02 0.  0.
        -12    1    1    2    0    0  0.36322295821E+01 -0.31183334254E+02 -0.29967144072E+02  0.43400727538E+02  0.00000000000E+00 0.  1.
         11    1    3    3    0    0 -0.43683551935E+01  0.23805890988E+02  0.19685156769E+02  0.31197890476E+02  0.51100000000E-03 0. -1.
        -11    1    3    3    0    0  0.23689238668E+00 -0.28046101164E+01  0.19627765864E+01  0.34313915686E+01  0.51100000000E-03 0.  1.
        -12    1    3    3    0    0  0.49923322468E+00  0.10182053383E+02  0.83192107164E+01  0.13157990418E+02  0.00000000000E+00 0.  1.
</event>
<event>
 7    1  0.2983653E-010  0.4778728E+02  0.7816164E-02  0.1312668E+00
        -11   -1    0    0    0    0  0.00000000000E+00  0.00000000000E+00  0.45593999997E+02  0.45594000000E+02  0.51100000000E-03 0. -1.
         11   -1    0    0    0    0 -0.00000000000E+00 -0.00000000000E+00 -0.45593999997E+02  0.45594000000E+02  0.51100000000E-03 0.  1.
    9900012    2    1    2    0    0 -0.26980122735E+02  0.33958296608E+02  0.15904652384E+01  0.47787279833E+02  0.20000040073E+02 0.  0.
        -12    1    1    2    0    0  0.26980122735E+02 -0.33958296608E+02 -0.15904652384E+01  0.43400720167E+02  0.00000000000E+00 0.  1.
         11    1    3    3    0    0 -0.23728729175E+01  0.13150647215E+02 -0.46401181889E+01  0.14145697053E+02  0.51100000000E-03 0. -1.
        -11    1    3    3    0    0 -0.23457954446E+02  0.19068668444E+02  0.75698622425E+01  0.31163962483E+02  0.51100000000E-03 0.  1.
        -12    1    3    3    0    0 -0.11492953708E+01  0.17389809495E+01 -0.13392788152E+01  0.24776202972E+01  0.00000000000E+00 0.  1.
</event>
<event>
 7    1  0.2983653E-010  0.4778727E+02  0.7816164E-02  0.1312668E+00
        -11   -1    0    0    0    0  0.00000000000E+00  0.00000000000E+00  0.45593999997E+02  0.45594000000E+02  0.51100000000E-03 0.  1.
         11   -1    0    0    0    0 -0.00000000000E+00 -0.00000000000E+00 -0.45593999997E+02  0.45594000000E+02  0.51100000000E-03 0. -1.
    9900012    2    1    2    0    0 -0.25735604548E+02 -0.30847325854E+02 -0.16423893128E+02  0.47787272825E+02  0.20000008120E+02 0.  0.
        -12    1    1    2    0    0  0.25735604548E+02  0.30847325854E+02  0.16423893128E+02  0.43400727175E+02  0.00000000000E+00 0.  1.
         11    1    3    3    0    0 -0.21310150078E+02 -0.16305403301E+02 -0.83983370156E+01  0.28116200633E+02  0.51100000000E-03 0. -1.
        -11    1    3    3    0    0 -0.64512945328E+01 -0.12245767092E+02 -0.36214888813E+01  0.14307102949E+02  0.51100000000E-03 0.  1.
         12    1    3    3    0    0  0.20258400627E+01 -0.22961554609E+01 -0.44040672313E+01  0.53639692429E+01  0.00000000000E+00 0. -1.
</event>
<event>
 7    1  0.2983653E-010  0.4778727E+02  0.7816164E-02  0.1312668E+00
        -11   -1    0    0    0    0  0.00000000000E+00  0.00000000000E+00  0.45593999997E+02  0.45594000000E+02  0.51100000000E-03 0. -1.
         11   -1    0    0    0    0 -0.00000000000E+00 -0.00000000000E+00 -0.45593999997E+02  0.45594000000E+02  0.51100000000E-03 0.  1.
    9900012    2    1    2    0    0 -0.16082384600E+02 -0.40290102344E+02  0.12990798675E+01  0.47787273626E+02  0.20000011770E+02 0.  0.
        -12    1    1    2    0    0  0.16082384600E+02  0.40290102344E+02 -0.12990798675E+01  0.43400726374E+02  0.00000000000E+00 0.  1.
         11    1    3    3    0    0 -0.55353757635E+01 -0.16148421066E+02  0.70125536950E+01  0.18455020925E+02  0.51100000000E-03 0. -1.
        -11    1    3    3    0    0 -0.27756040065E+01 -0.98222290756E+01 -0.78823022303E+01  0.12896156417E+02  0.51100000000E-03 0.  1.
        -12    1    3    3    0    0 -0.77714048304E+01 -0.14319452202E+02  0.21688284028E+01  0.16436096284E+02  0.00000000000E+00 0.  1.
</event>
<event>
 7    1  0.2983653E-010  0.4778727E+02  0.7816164E-02  0.1312668E+00
        -11   -1    0    0    0    0  0.00000000000E+00  0.00000000000E+00  0.45593999997E+02  0.45594000000E+02  0.51100000000E-03 0.  1.
         11   -1    0    0    0    0 -0.00000000000E+00 -0.00000000000E+00 -0.45593999997E+02  0.45594000000E+02  0.51100000000E-03 0. -1.
    9900012    2    1    2    0    0  0.27877454738E+02  0.24117983473E+02 -0.22908372001E+02  0.47787272849E+02  0.20000008229E+02 0.  0.
        -12    1    1    2    0    0 -0.27877454738E+02 -0.24117983473E+02  0.22908372001E+02  0.43400727151E+02  0.00000000000E+00 0.  1.
         11    1    3    3    0    0  0.74151161361E+01  0.20545294867E+01 -0.12594322906E+02  0.14758794275E+02  0.51100000000E-03 0. -1.
        -11    1    3    3    0    0  0.10175241032E+02  0.15555608240E+02 -0.93782162759E+01  0.20819784306E+02  0.51100000000E-03 0.  1.
         12    1    3    3    0    0  0.10287097570E+02  0.65078457469E+01 -0.93583281896E+00  0.12208694269E+02  0.00000000000E+00 0. -1.
</event>
<event>
 7    1  0.2983653E-010  0.4778727E+02  0.7816164E-02  0.1312668E+00
        -11   -1    0    0    0    0  0.00000000000E+00  0.00000000000E+00  0.45593999997E+02  0.45594000000E+02  0.51100000000E-03 0.  1.
         11   -1    0    0    0    0 -0.00000000000E+00 -0.00000000000E+00 -0.45593999997E+02  0.45594000000E+02  0.51100000000E-03 0. -1.
    9900012    2    1    2    0    0 -0.43095636274E+02  0.48994222113E+01  0.15443126367E+01  0.47787272985E+02  0.20000008849E+02 0.  0.
        -12    1    1    2    0    0  0.43095636274E+02 -0.48994222113E+01 -0.15443126367E+01  0.43400727015E+02  0.00000000000E+00 0.  1.
         11    1    3    3    0    0 -0.35812793248E+02  0.59285901436E+00 -0.84166497667E+00  0.35827587725E+02  0.51100000000E-03 0. -1.
        -11    1    3    3    0    0 -0.92809309160E+00 -0.13740234110E+01  0.29854752762E+01  0.34150197667E+01  0.51100000000E-03 0.  1.
        -12    1    3    3    0    0 -0.63547499350E+01  0.56805866079E+01 -0.59949766284E+00  0.85446654934E+01  0.00000000000E+00 0.  1.
</event>
<event>
 7    1  0.2983653E-010  0.4778727E+02  0.7816164E-02  0.1312668E+00
        -11   -1    0    0    0    0  0.00000000000E+00  0.00000000000E+00  0.45593999997E+02  0.45594000000E+02  0.51100000000E-03 0.  1.
         11   -1    0    0    0    0 -0.00000000000E+00 -0.00000000000E+00 -0.45593999997E+02  0.45594000000E+02  0.51100000000E-03 0. -1.
    9900012    2    1    2    0    0  0.11054670015E+02  0.41768802346E+02  0.40968987664E+01  0.47787272379E+02  0.20000006083E+02 0.  0.
        -12    1    1    2    0    0 -0.11054670015E+02 -0.41768802346E+02 -0.40968987664E+01  0.43400727621E+02  0.00000000000E+00 0.  1.
         11    1    3    3    0    0  0.74524074984E+01  0.89669932411E+01 -0.54141044669E+01  0.12855266343E+02  0.51100000000E-03 0. -1.
        -11    1    3    3    0    0  0.28472441827E+01  0.12859481165E+02  0.67040668628E+01  0.14778956933E+02  0.51100000000E-03 0.  1.
         12    1    3    3    0    0  0.75501833402E+00  0.19942327940E+02  0.28069363705E+01  0.20153049103E+02  0.00000000000E+00 0. -1.
</event>
<event>
 7    1  0.2983653E-010  0.4778727E+02  0.7816164E-02  0.1312668E+00
        -11   -1    0    0    0    0  0.00000000000E+00  0.00000000000E+00  0.45593999997E+02  0.45594000000E+02  0.51100000000E-03 0. -1.
         11   -1    0    0    0    0 -0.00000000000E+00 -0.00000000000E+00 -0.45593999997E+02  0.45594000000E+02  0.51100000000E-03 0.  1.
    9900012    2    1    2    0    0  0.37168570684E+02 -0.15425681544E+02 -0.16253272754E+02  0.47787272206E+02  0.20000005298E+02 0.  0.
        -12    1    1    2    0    0 -0.37168570684E+02  0.15425681544E+02  0.16253272754E+02  0.43400727794E+02  0.00000000000E+00 0.  1.
         11    1    3    3    0    0  0.18475818303E+02 -0.18184803563E+02 -0.77509171398E+01  0.27057709795E+02  0.51100000000E-03 0. -1.
        -11    1    3    3    0    0  0.43823242532E+01  0.91610191421E+00 -0.20066681166E+01  0.49061925939E+01  0.51100000000E-03 0.  1.
         12    1    3    3    0    0  0.14310428128E+02  0.18430201046E+01 -0.64956874977E+01  0.15823369817E+02  0.00000000000E+00 0. -1.
</event>
<event>
 7    1  0.2983653E-010  0.4778723E+02  0.7816164E-02  0.1312668E+00
        -11   -1    0    0    0    0  0.00000000000E+00  0.00000000000E+00  0.45593999997E+02  0.45594000000E+02  0.51100000000E-03 0.  1.
         11   -1    0    0    0    0 -0.00000000000E+00 -0.00000000000E+00 -0.45593999997E+02  0.45594000000E+02  0.51100000000E-03 0. -1.
    9900012    2    1    2    0    0  0.16438017445E+02  0.36278057336E+02 -0.17242988811E+02  0.47787233593E+02  0.19999829244E+02 0.  0.
        -12    1    1    2    0    0 -0.16438017445E+02 -0.36278057336E+02  0.17242988811E+02  0.43400766407E+02  0.00000000000E+00 0.  1.
         11    1    3    3    0    0  0.28641206864E+01  0.15858916177E+02 -0.15883671394E+02  0.22627404333E+02  0.51100000000E-03 0. -1.
        -11    1    3    3    0    0  0.57655547941E+01  0.49406753716E+01  0.10191107382E+01  0.76609713594E+01  0.51100000000E-03 0.  1.
         12    1    3    3    0    0  0.78083419646E+01  0.15478465786E+02 -0.23784281549E+01  0.17498857901E+02  0.00000000000E+00 0. -1.
</event>
<event>
 7    1  0.2983653E-010  0.4778726E+02  0.7816164E-02  0.1312668E+00
        -11   -1    0    0    0    0  0.00000000000E+00  0.00000000000E+00  0.45593999997E+02  0.45594000000E+02  0.51100000000E-03 0. -1.
         11   -1    0    0    0    0 -0.00000000000E+00 -0.00000000000E+00 -0.45593999997E+02  0.45594000000E+02  0.51100000000E-03 0.  1.
    9900012    2    1    2    0    0  0.27258775742E+02  0.30728509944E+02  0.14012197239E+02  0.47787264410E+02  0.19999969749E+02 0.  0.
        -12    1    1    2    0    0 -0.27258775742E+02 -0.30728509944E+02 -0.14012197239E+02  0.43400735590E+02  0.00000000000E+00 0.  1.
         11    1    3    3    0    0  0.93730223927E+00  0.98842179772E+00  0.22641906568E+01  0.26423612034E+01  0.51100000000E-03 0. -1.
        -11    1    3    3    0    0  0.18535287535E+02  0.74498470552E+01  0.56053468750E+01  0.20747940114E+02  0.51100000000E-03 0.  1.
        -12    1    3    3    0    0  0.77861859683E+01  0.22290241091E+02  0.61426597069E+01  0.24396963092E+02  0.00000000000E+00 0.  1.
</event>
<event>
 7    1  0.2983653E-010  0.4778727E+02  0.7816164E-02  0.1312668E+00
        -11   -1    0    0    0    0  0.00000000000E+00  0.00000000000E+00  0.45593999997E+02  0.45594000000E+02  0.51100000000E-03 0.  1.
         11   -1    0    0    0    0 -0.00000000000E+00 -0.00000000000E+00 -0.45593999997E+02  0.45594000000E+02  0.51100000000E-03 0. -1.
    9900012    2    1    2    0    0  0.39779951926E+02  0.16664391614E+02  0.48452836391E+01  0.47787270782E+02  0.19999998803E+02 0.  0.
        -12    1    1    2    0    0 -0.39779951926E+02 -0.16664391614E+02 -0.48452836391E+01  0.43400729218E+02  0.00000000000E+00 0.  1.
         11    1    3    3    0    0  0.21257995808E+02  0.14419461675E+02  0.33466859407E+01  0.25904122603E+02  0.51100000000E-03 0. -1.
        -11    1    3    3    0    0 -0.48347941040E+00 -0.21599100255E+01  0.82563398522E+00  0.23623368509E+01  0.51100000000E-03 0.  1.
         12    1    3    3    0    0  0.19005435529E+02  0.44048399644E+01  0.67296371311E+00  0.19520811328E+02  0.00000000000E+00 0. -1.
</event>
<event>
 7    1  0.2983653E-010  0.4778727E+02  0.7816164E-02  0.1312668E+00
        -11   -1    0    0    0    0  0.00000000000E+00  0.00000000000E+00  0.45593999997E+02  0.45594000000E+02  0.51100000000E-03 0.  1.
         11   -1    0    0    0    0 -0.00000000000E+00 -0.00000000000E+00 -0.45593999997E+02  0.45594000000E+02  0.51100000000E-03 0. -1.
    9900012    2    1    2    0    0 -0.30802063813E+02 -0.90168877415E+00 -0.30562120268E+02  0.47787269902E+02  0.19999994790E+02 0.  0.
        -12    1    1    2    0    0  0.30802063813E+02  0.90168877415E+00  0.30562120268E+02  0.43400730098E+02  0.00000000000E+00 0.  1.
         11    1    3    3    0    0 -0.98180481048E+01  0.76696483466E+01 -0.14938463737E+02  0.19451870692E+02  0.51100000000E-03 0. -1.
        -11    1    3    3    0    0 -0.64608260077E+01 -0.29477393239E+01 -0.13885972856E+01  0.72359963037E+01  0.51100000000E-03 0.  1.
         12    1    3    3    0    0 -0.14523189701E+02 -0.56235977968E+01 -0.14235059245E+02  0.21099402906E+02  0.00000000000E+00 0. -1.
</event>
<event>
 7    1  0.2983653E-010  0.4778727E+02  0.7816164E-02  0.1312668E+00
        -11   -1    0    0    0    0  0.00000000000E+00  0.00000000000E+00  0.45593999997E+02  0.45594000000E+02  0.51100000000E-03 0.  1.
         11   -1    0    0    0    0 -0.00000000000E+00 -0.00000000000E+00 -0.45593999997E+02  0.45594000000E+02  0.51100000000E-03 0. -1.
    9900012    2    1    2    0    0  0.32649572462E+01  0.38162653867E+02 -0.20410173621E+02  0.47787270937E+02  0.19999999508E+02 0.  0.
        -12    1    1    2    0    0 -0.32649572462E+01 -0.38162653867E+02  0.20410173621E+02  0.43400729063E+02  0.00000000000E+00 0.  1.
         11    1    3    3    0    0  0.39795989165E+01  0.38969358760E+00 -0.28592687835E+01  0.49157386898E+01  0.51100000000E-03 0. -1.
        -11    1    3    3    0    0 -0.57989703256E+00  0.27419217524E+02 -0.17469372298E+02  0.32516591749E+02  0.51100000000E-03 0.  1.
        -12    1    3    3    0    0 -0.13474463782E+00  0.10353742756E+02 -0.81532539089E-01  0.10354940498E+02  0.00000000000E+00 0.  1.
</event>
<event>
 7    1  0.2983653E-010  0.4778727E+02  0.7816164E-02  0.1312668E+00
        -11   -1    0    0    0    0  0.00000000000E+00  0.00000000000E+00  0.45593999997E+02  0.45594000000E+02  0.51100000000E-03 0.  1.
         11   -1    0    0    0    0 -0.00000000000E+00 -0.00000000000E+00 -0.45593999997E+02  0.45594000000E+02  0.51100000000E-03 0. -1.
    9900012    2    1    2    0    0 -0.10340477950E+02  0.62299855229E+01 -0.41687948423E+02  0.47787271347E+02  0.20000001381E+02 0.  0.
        -12    1    1    2    0    0  0.10340477950E+02 -0.62299855229E+01  0.41687948423E+02  0.43400728653E+02  0.00000000000E+00 0.  1.
         11    1    3    3    0    0 -0.75277962639E+01  0.62854495870E+00 -0.23190671369E+02  0.24389957445E+02  0.51100000000E-03 0. -1.
        -11    1    3    3    0    0  0.30617387007E+01 -0.99524263999E+00 -0.38048610513E+00  0.32418392497E+01  0.51100000000E-03 0.  1.
        -12    1    3    3    0    0 -0.58744203872E+01  0.65966832041E+01 -0.18116790949E+02  0.20155474652E+02  0.00000000000E+00 0.  1.
</event>
<event>
 7    1  0.2983653E-010  0.4778727E+02  0.7816164E-02  0.1312668E+00
        -11   -1    0    0    0    0  0.00000000000E+00  0.00000000000E+00  0.45593999997E+02  0.45594000000E+02  0.51100000000E-03 0.  1.
         11   -1    0    0    0    0 -0.00000000000E+00 -0.00000000000E+00 -0.45593999997E+02  0.45594000000E+02  0.51100000000E-03 0. -1.
    9900012    2    1    2    0    0  0.38141270376E+02  0.79222183338E+00  0.20693937006E+02  0.47787272470E+02  0.20000006499E+02 0.  0.
        -12    1    1    2    0    0 -0.38141270376E+02 -0.79222183338E+00 -0.20693937006E+02  0.43400727530E+02  0.00000000000E+00 0.  1.
         11    1    3    3    0    0  0.12407383692E+02 -0.54882567452E+01  0.13826943521E+02  0.19371331900E+02  0.51100000000E-03 0. -1.
        -11    1    3    3    0    0  0.16142178189E+02  0.75845804286E+01  0.35630283225E+01  0.18187659224E+02  0.51100000000E-03 0.  1.
        -12    1    3    3    0    0  0.95917084951E+01 -0.13041018500E+01  0.33039651622E+01  0.10228281346E+02  0.00000000000E+00 0.  1.
</event>
<event>
 7    1  0.2983653E-010  0.4778727E+02  0.7816164E-02  0.1312668E+00
        -11   -1    0    0    0    0  0.00000000000E+00  0.00000000000E+00  0.45593999997E+02  0.45594000000E+02  0.51100000000E-03 0.  1.
         11   -1    0    0    0    0 -0.00000000000E+00 -0.00000000000E+00 -0.45593999997E+02  0.45594000000E+02  0.51100000000E-03 0. -1.
    9900012    2    1    2    0    0 -0.42789265160E+00  0.25401075533E+02 -0.35188430905E+02  0.47787269593E+02  0.19999993383E+02 0.  0.
        -12    1    1    2    0    0  0.42789265160E+00 -0.25401075533E+02  0.35188430905E+02  0.43400730407E+02  0.00000000000E+00 0.  1.
         11    1    3    3    0    0 -0.49378711892E+01  0.20441585699E+02 -0.28444150744E+02  0.35373870435E+02  0.51100000000E-03 0. -1.
        -11    1    3    3    0    0  0.23342144189E+01 -0.54588079552E+00  0.10574216747E+01  0.26200541322E+01  0.51100000000E-03 0.  1.
        -12    1    3    3    0    0  0.21757641187E+01  0.55053706294E+01 -0.78017018357E+01  0.97933450261E+01  0.00000000000E+00 0.  1.
</event>
<event>
 7    1  0.2983653E-010  0.4778727E+02  0.7816164E-02  0.1312668E+00
        -11   -1    0    0    0    0  0.00000000000E+00  0.00000000000E+00  0.45593999997E+02  0.45594000000E+02  0.51100000000E-03 0.  1.
         11   -1    0    0    0    0 -0.00000000000E+00 -0.00000000000E+00 -0.45593999997E+02  0.45594000000E+02  0.51100000000E-03 0. -1.
    9900012    2    1    2    0    0 -0.11341279705E+02  0.15630149394E+02 -0.38867683929E+02  0.47787273630E+02  0.20000011788E+02 0.  0.
        -12    1    1    2    0    0  0.11341279705E+02 -0.15630149394E+02  0.38867683929E+02  0.43400726370E+02  0.00000000000E+00 0.  1.
         11    1    3    3    0    0  0.50398918111E+00  0.36177904763E+01 -0.52219801708E+01  0.63727145073E+01  0.51100000000E-03 0. -1.
        -11    1    3    3    0    0  0.21909029282E+01  0.78642491975E+01 -0.19137844536E+02  0.20806334729E+02  0.51100000000E-03 0.  1.
        -12    1    3    3    0    0 -0.14036171815E+02  0.41481097202E+01 -0.14507859222E+02  0.20608224394E+02  0.00000000000E+00 0.  1.
</event>
<event>
 7    1  0.3073637E-010  0.4778726E+02  0.7816164E-02  0.1312668E+00
        -11   -1    0    0    0    0  0.00000000000E+00  0.00000000000E+00  0.45593999997E+02  0.45594000000E+02  0.51100000000E-03 0. -1.
         11   -1    0    0    0    0 -0.00000000000E+00 -0.00000000000E+00 -0.45593999997E+02  0.45594000000E+02  0.51100000000E-03 0.  1.
    9900012    2    1    2    0    0  0.14022474259E+02 -0.41072393923E+02  0.22915712361E+00  0.47787264524E+02  0.19999970269E+02 0.  0.
        -12    1    1    2    0    0 -0.14022474259E+02  0.41072393923E+02 -0.22915712361E+00  0.43400735476E+02  0.00000000000E+00 0.  1.
         11    1    3    3    0    0  0.52443080258E+01 -0.16002439291E+02 -0.18057548195E+01  0.16936398101E+02  0.51100000000E-03 0. -1.
        -11    1    3    3    0    0  0.18467790753E+00 -0.51948716782E+01 -0.58323461668E+01  0.78126218232E+01  0.51100000000E-03 0.  1.
        -12    1    3    3    0    0  0.85934883256E+01 -0.19875082954E+02  0.78672581099E+01  0.23038244599E+02  0.00000000000E+00 0.  1.
</event>
<event>
 7    1  0.2983653E-010  0.4778727E+02  0.7816164E-02  0.1312668E+00
        -11   -1    0    0    0    0  0.00000000000E+00  0.00000000000E+00  0.45593999997E+02  0.45594000000E+02  0.51100000000E-03 0.  1.
         11   -1    0    0    0    0 -0.00000000000E+00 -0.00000000000E+00 -0.45593999997E+02  0.45594000000E+02  0.51100000000E-03 0. -1.
    9900012    2    1    2    0    0 -0.36688936450E+02  0.13738170358E+02 -0.18676394982E+02  0.47787272908E+02  0.20000008495E+02 0.  0.
        -12    1    1    2    0    0  0.36688936450E+02 -0.13738170358E+02  0.18676394982E+02  0.43400727092E+02  0.00000000000E+00 0.  1.
         11    1    3    3    0    0 -0.22220356814E+01 -0.28492419664E+00  0.17716978055E+00  0.22472235668E+01  0.51100000000E-03 0. -1.
        -11    1    3    3    0    0 -0.55339705398E+01  0.69824299486E+00  0.35364670014E+01  0.66044660895E+01  0.51100000000E-03 0.  1.
        -12    1    3    3    0    0 -0.28932930229E+02  0.13324851559E+02 -0.22390031764E+02  0.38935583251E+02  0.00000000000E+00 0.  1.
</event>
<event>
 7    1  0.2983653E-010  0.4778727E+02  0.7816164E-02  0.1312668E+00
        -11   -1    0    0    0    0  0.00000000000E+00  0.00000000000E+00  0.45593999997E+02  0.45594000000E+02  0.51100000000E-03 0.  1.
         11   -1    0    0    0    0 -0.00000000000E+00 -0.00000000000E+00 -0.45593999997E+02  0.45594000000E+02  0.51100000000E-03 0. -1.
    9900012    2    1    2    0    0  0.11350351651E+02  0.41482273154E+02 -0.58321565522E+01  0.47787268225E+02  0.19999987143E+02 0.  0.
        -12    1    1    2    0    0 -0.11350351651E+02 -0.41482273154E+02  0.58321565522E+01  0.43400731775E+02  0.00000000000E+00 0.  1.
         11    1    3    3    0    0  0.10175372420E+02  0.22732208015E+02 -0.95457268142E+01  0.26672314969E+02  0.51100000000E-03 0. -1.
        -11    1    3    3    0    0  0.11245988583E+01  0.17003928750E+02  0.33261811537E-01  0.17041109769E+02  0.51100000000E-03 0.  1.
         12    1    3    3    0    0  0.50380373353E-01  0.17461363882E+01  0.36803084504E+01  0.40738434872E+01  0.00000000000E+00 0. -1.
</event>
<event>
 7    1  0.2983653E-010  0.4778727E+02  0.7816164E-02  0.1312668E+00
        -11   -1    0    0    0    0  0.00000000000E+00  0.00000000000E+00  0.45593999997E+02  0.45594000000E+02  0.51100000000E-03 0. -1.
         11   -1    0    0    0    0 -0.00000000000E+00 -0.00000000000E+00 -0.45593999997E+02  0.45594000000E+02  0.51100000000E-03 0.  1.
    9900012    2    1    2    0    0 -0.15542645453E+02  0.40138464364E+02  0.55635690017E+01  0.47787269024E+02  0.19999990788E+02 0.  0.
        -12    1    1    2    0    0  0.15542645453E+02 -0.40138464364E+02 -0.55635690017E+01  0.43400730976E+02  0.00000000000E+00 0.  1.
         11    1    3    3    0    0 -0.76389667083E+01  0.60352317119E+01  0.65021110556E+01  0.11707061229E+02  0.51100000000E-03 0. -1.
        -11    1    3    3    0    0 -0.25419975936E+00  0.62113248650E+01 -0.33433600692E+01  0.70585572824E+01  0.51100000000E-03 0.  1.
         12    1    3    3    0    0 -0.76494789854E+01  0.27891907787E+02  0.24048180154E+01  0.29021650512E+02  0.00000000000E+00 0. -1.
</event>
<event>
 7    1  0.2983653E-010  0.4778727E+02  0.7816164E-02  0.1312668E+00
        -11   -1    0    0    0    0  0.00000000000E+00  0.00000000000E+00  0.45593999997E+02  0.45594000000E+02  0.51100000000E-03 0.  1.
         11   -1    0    0    0    0 -0.00000000000E+00 -0.00000000000E+00 -0.45593999997E+02  0.45594000000E+02  0.51100000000E-03 0. -1.
    9900012    2    1    2    0    0  0.30371562790E+01  0.12031315669E+01 -0.43277608854E+02  0.47787271066E+02  0.20000000100E+02 0.  0.
        -12    1    1    2    0    0 -0.30371562790E+01 -0.12031315669E+01  0.43277608854E+02  0.43400728934E+02  0.00000000000E+00 0.  1.
         11    1    3    3    0    0  0.67806107987E+01  0.49208924088E+01 -0.32493238554E+02  0.33555959484E+02  0.51100000000E-03 0. -1.
        -11    1    3    3    0    0 -0.49557546271E+01 -0.55686707438E+00 -0.92622863467E+01  0.10519484469E+02  0.51100000000E-03 0.  1.
         12    1    3    3    0    0  0.12123001075E+01 -0.31608937675E+01 -0.15220839537E+01  0.37118271137E+01  0.00000000000E+00 0. -1.
</event>
<event>
 7    1  0.2983653E-010  0.4778727E+02  0.7816164E-02  0.1312668E+00
        -11   -1    0    0    0    0  0.00000000000E+00  0.00000000000E+00  0.45593999997E+02  0.45594000000E+02  0.51100000000E-03 0.  1.
         11   -1    0    0    0    0 -0.00000000000E+00 -0.00000000000E+00 -0.45593999997E+02  0.45594000000E+02  0.51100000000E-03 0. -1.
    9900012    2    1    2    0    0  0.30056968345E+02  0.76399010100E+01 -0.30361719586E+02  0.47787269018E+02  0.19999990762E+02 0.  0.
        -12    1    1    2    0    0 -0.30056968345E+02 -0.76399010100E+01  0.30361719586E+02  0.43400730982E+02  0.00000000000E+00 0.  1.
         11    1    3    3    0    0  0.14428845126E+02 -0.64309354641E-01 -0.12107373345E+02  0.18835715992E+02  0.51100000000E-03 0. -1.
        -11    1    3    3    0    0  0.22266260758E+01  0.21006858537E+01  0.22671755355E+01  0.38093083240E+01  0.51100000000E-03 0.  1.
        -12    1    3    3    0    0  0.13401497143E+02  0.56035245110E+01 -0.20521521777E+02  0.25142244702E+02  0.00000000000E+00 0.  1.
</event>
<event>
 7    1  0.2983653E-010  0.4778727E+02  0.7816164E-02  0.1312668E+00
        -11   -1    0    0    0    0  0.00000000000E+00  0.00000000000E+00  0.45593999997E+02  0.45594000000E+02  0.51100000000E-03 0. -1.
         11   -1    0    0    0    0 -0.00000000000E+00 -0.00000000000E+00 -0.45593999997E+02  0.45594000000E+02  0.51100000000E-03 0.  1.
    9900012    2    1    2    0    0 -0.21750868256E+02 -0.36590144553E+02  0.84666458388E+01  0.47787273738E+02  0.20000012282E+02 0.  0.
        -12    1    1    2    0    0  0.21750868256E+02  0.36590144553E+02 -0.84666458388E+01  0.43400726262E+02  0.00000000000E+00 0.  1.
         11    1    3    3    0    0 -0.56851035421E+01 -0.23658859876E+02  0.50353660612E+01  0.24847876459E+02  0.51100000000E-03 0. -1.
        -11    1    3    3    0    0 -0.81687442714E+01 -0.46142039457E+01 -0.29244780665E+01  0.98270968880E+01  0.51100000000E-03 0.  1.
         12    1    3    3    0    0 -0.78970204429E+01 -0.83170807314E+01  0.63557578441E+01  0.13112300391E+02  0.00000000000E+00 0. -1.
</event>
<event>
 7    1  0.2983653E-010  0.4778727E+02  0.7816164E-02  0.1312668E+00
        -11   -1    0    0    0    0  0.00000000000E+00  0.00000000000E+00  0.45593999997E+02  0.45594000000E+02  0.51100000000E-03 0.  1.
         11   -1    0    0    0    0 -0.00000000000E+00 -0.00000000000E+00 -0.45593999997E+02  0.45594000000E+02  0.51100000000E-03 0. -1.
    9900012    2    1    2    0    0 -0.33086631050E+02  0.98706068992E+01 -0.26295803321E+02  0.47787270662E+02  0.19999998256E+02 0.  0.
        -12    1    1    2    0    0  0.33086631050E+02 -0.98706068992E+01  0.26295803321E+02  0.43400729338E+02  0.00000000000E+00 0.  1.
         11    1    3    3    0    0 -0.32037350983E+02  0.87676303329E+01 -0.18142231390E+02  0.37847110322E+02  0.51100000000E-03 0. -1.
        -11    1    3    3    0    0  0.14660907917E-01 -0.21291683928E+01 -0.43066807563E+01  0.48042764684E+01  0.51100000000E-03 0.  1.
        -12    1    3    3    0    0 -0.10639409753E+01  0.32321449592E+01 -0.38468911744E+01  0.51358838717E+01  0.00000000000E+00 0.  1.
</event>
<event>
 7    1  0.2983653E-010  0.4778725E+02  0.7816164E-02  0.1312668E+00
        -11   -1    0    0    0    0  0.00000000000E+00  0.00000000000E+00  0.45593999997E+02  0.45594000000E+02  0.51100000000E-03 0.  1.
         11   -1    0    0    0    0 -0.00000000000E+00 -0.00000000000E+00 -0.45593999997E+02  0.45594000000E+02  0.51100000000E-03 0. -1.
    9900012    2    1    2    0    0  0.36561176418E+01 -0.38337707969E+02 -0.20011941686E+02  0.47787252788E+02  0.19999916760E+02 0.  0.
        -12    1    1    2    0    0 -0.36561176418E+01  0.38337707969E+02  0.20011941686E+02  0.43400747212E+02  0.00000000000E+00 0.  1.
         11    1    3    3    0    0  0.83870296966E+01 -0.26073589923E+02 -0.11268904275E+02  0.29616930334E+02  0.51100000000E-03 0. -1.
        -11    1    3    3    0    0 -0.19100314090E+01 -0.23724046850E+01 -0.71368666371E+01  0.77595998369E+01  0.51100000000E-03 0.  1.
         12    1    3    3    0    0 -0.28208806457E+01 -0.98917133617E+01 -0.16061707739E+01  0.10410722617E+02  0.00000000000E+00 0. -1.
</event>
<event>
 7    1  0.3152652E-010  0.4778727E+02  0.7816164E-02  0.1312668E+00
        -11   -1    0    0    0    0  0.00000000000E+00  0.00000000000E+00  0.45593999997E+02  0.45594000000E+02  0.51100000000E-03 0.  1.
         11   -1    0    0    0    0 -0.00000000000E+00 -0.00000000000E+00 -0.45593999997E+02  0.45594000000E+02  0.51100000000E-03 0. -1.
    9900012    2    1    2    0    0  0.40655435851E+02  0.12420229663E+02  0.87462425340E+01  0.47787270426E+02  0.19999997180E+02 0.  0.
        -12    1    1    2    0    0 -0.40655435851E+02 -0.12420229663E+02 -0.87462425340E+01  0.43400729574E+02  0.00000000000E+00 0.  1.
         11    1    3    3    0    0  0.35424105911E+02  0.83688790324E+01  0.77771238192E+01  0.37220815023E+02  0.51100000000E-03 0. -1.
        -11    1    3    3    0    0  0.31752773212E+01  0.40492561007E+01 -0.30999920060E+01  0.60073964189E+01  0.51100000000E-03 0.  1.
        -12    1    3    3    0    0  0.20560526189E+01  0.20945300882E-02  0.40691107208E+01  0.45590589837E+01  0.00000000000E+00 0.  1.
</event>
<event>
 7    1  0.2983653E-010  0.4778728E+02  0.7816164E-02  0.1312668E+00
        -11   -1    0    0    0    0  0.00000000000E+00  0.00000000000E+00  0.45593999997E+02  0.45594000000E+02  0.51100000000E-03 0.  1.
         11   -1    0    0    0    0 -0.00000000000E+00 -0.00000000000E+00 -0.45593999997E+02  0.45594000000E+02  0.51100000000E-03 0. -1.
    9900012    2    1    2    0    0 -0.21002951854E+01 -0.43348016264E+02  0.40112395313E+00  0.47787278182E+02  0.20000032544E+02 0.  0.
        -12    1    1    2    0    0  0.21002951854E+01  0.43348016264E+02 -0.40112395313E+00  0.43400721818E+02  0.00000000000E+00 0.  1.
         11    1    3    3    0    0 -0.69792748144E+01 -0.11514607848E+02 -0.60899772498E+01  0.14777831167E+02  0.51100000000E-03 0. -1.
        -11    1    3    3    0    0  0.48666849593E+01 -0.22052721882E+02  0.46427392524E+01  0.23055632564E+02  0.51100000000E-03 0.  1.
         12    1    3    3    0    0  0.12294669676E-01 -0.97806865343E+01  0.18483619505E+01  0.99538144518E+01  0.00000000000E+00 0. -1.
</event>
<event>
 7    1  0.2983653E-010  0.4778727E+02  0.7816164E-02  0.1312668E+00
        -11   -1    0    0    0    0  0.00000000000E+00  0.00000000000E+00  0.45593999997E+02  0.45594000000E+02  0.51100000000E-03 0.  1.
         11   -1    0    0    0    0 -0.00000000000E+00 -0.00000000000E+00 -0.45593999997E+02  0.45594000000E+02  0.51100000000E-03 0. -1.
    9900012    2    1    2    0    0 -0.11254627756E+02 -0.70145662231E+01 -0.41324965122E+02  0.47787268122E+02  0.19999986675E+02 0.  0.
        -12    1    1    2    0    0  0.11254627756E+02  0.70145662231E+01  0.41324965122E+02  0.43400731878E+02  0.00000000000E+00 0.  1.
         11    1    3    3    0    0 -0.84343833569E-01  0.28274815391E+01 -0.22568507782E+01  0.36187209664E+01  0.51100000000E-03 0. -1.
        -11    1    3    3    0    0 -0.79436409781E+01 -0.12021372110E+02 -0.37112283400E+02  0.39811259699E+02  0.51100000000E-03 0.  1.
        -12    1    3    3    0    0 -0.32266429441E+01  0.21793243475E+01 -0.19558309441E+01  0.43572874569E+01  0.00000000000E+00 0.  1.
</event>
<event>
 7    1  0.3150863E-010  0.4778728E+02  0.7816164E-02  0.1312668E+00
        -11   -1    0    0    0    0  0.00000000000E+00  0.00000000000E+00  0.45593999997E+02  0.45594000000E+02  0.51100000000E-03 0.  1.
         11   -1    0    0    0    0 -0.00000000000E+00 -0.00000000000E+00 -0.45593999997E+02  0.45594000000E+02  0.51100000000E-03 0. -1.
    9900012    2    1    2    0    0 -0.98742379540E+01 -0.38528503015E+02  0.17368845895E+02  0.47787275035E+02  0.20000018196E+02 0.  0.
        -12    1    1    2    0    0  0.98742379540E+01  0.38528503015E+02 -0.17368845895E+02  0.43400724965E+02  0.00000000000E+00 0.  1.
         11    1    3    3    0    0  0.85397425017E+00 -0.12687485529E+02 -0.63250309235E-01  0.12716350181E+02  0.51100000000E-03 0. -1.
        -11    1    3    3    0    0 -0.69247239610E+01 -0.24530287827E+02  0.17711194578E+02  0.31038254404E+02  0.51100000000E-03 0.  1.
        -12    1    3    3    0    0 -0.38034882432E+01 -0.13107296590E+01 -0.27909837426E+00  0.40326704499E+01  0.00000000000E+00 0.  1.
</event>
<event>
 7    1  0.2983653E-010  0.4778727E+02  0.7816164E-02  0.1312668E+00
        -11   -1    0    0    0    0  0.00000000000E+00  0.00000000000E+00  0.45593999997E+02  0.45594000000E+02  0.51100000000E-03 0.  1.
         11   -1    0    0    0    0 -0.00000000000E+00 -0.00000000000E+00 -0.45593999997E+02  0.45594000000E+02  0.51100000000E-03 0. -1.
    9900012    2    1    2    0    0 -0.15768554595E+02 -0.14211761301E+01 -0.40409853211E+02  0.47787270834E+02  0.19999999038E+02 0.  0.
        -12    1    1    2    0    0  0.15768554595E+02  0.14211761301E+01  0.40409853211E+02  0.43400729166E+02  0.00000000000E+00 0.  1.
         11    1    3    3    0    0  0.56436620867E-01  0.88485664327E+00 -0.50580064952E+00  0.10207795695E+01  0.51100000000E-03 0. -1.
        -11    1    3    3    0    0 -0.12895974388E+01  0.53135358433E+01 -0.21151246836E+02  0.21846555053E+02  0.51100000000E-03 0.  1.
        -12    1    3    3    0    0 -0.14535393777E+02 -0.76195686167E+01 -0.18752805726E+02  0.24919936211E+02  0.00000000000E+00 0.  1.
</event>
<event>
 7    1  0.2983653E-010  0.4778725E+02  0.7816164E-02  0.1312668E+00
        -11   -1    0    0    0    0  0.00000000000E+00  0.00000000000E+00  0.45593999997E+02  0.45594000000E+02  0.51100000000E-03 0.  1.
         11   -1    0    0    0    0 -0.00000000000E+00 -0.00000000000E+00 -0.45593999997E+02  0.45594000000E+02  0.51100000000E-03 0. -1.
    9900012    2    1    2    0    0  0.95079180197E+01  0.10595747541E+02 -0.40999446489E+02  0.47787251349E+02  0.19999910201E+02 0.  0.
        -12    1    1    2    0    0 -0.95079180197E+01 -0.10595747541E+02  0.40999446489E+02  0.43400748651E+02  0.00000000000E+00 0.  1.
         11    1    3    3    0    0 -0.85337575054E+00  0.32074629187E+01 -0.77106147065E+01  0.83946201796E+01  0.51100000000E-03 0. -1.
        -11    1    3    3    0    0 -0.36824401329E+01  0.58474051384E+01 -0.10059351706E+02  0.12204223416E+02  0.51100000000E-03 0.  1.
        -12    1    3    3    0    0  0.14043733903E+02  0.15408794841E+01 -0.23229480077E+02  0.27188407754E+02  0.00000000000E+00 0.  1.
</event>
<event>
 7    1  0.2983653E-010  0.4778727E+02  0.7816164E-02  0.1312668E+00
        -11   -1    0    0    0    0  0.00000000000E+00  0.00000000000E+00  0.45593999997E+02  0.45594000000E+02  0.51100000000E-03 0.  1.
         11   -1    0    0    0    0 -0.00000000000E+00 -0.00000000000E+00 -0.45593999997E+02  0.45594000000E+02  0.51100000000E-03 0. -1.
    9900012    2    1    2    0    0 -0.43055131456E+02 -0.38109189747E+01 -0.39186758750E+01  0.47787268799E+02  0.19999989764E+02 0.  0.
        -12    1    1    2    0    0  0.43055131456E+02  0.38109189747E+01  0.39186758750E+01  0.43400731201E+02  0.00000000000E+00 0.  1.
         11    1    3    3    0    0 -0.19066379833E+02  0.41899201754E+01 -0.65037051434E+00  0.19532159458E+02  0.51100000000E-03 0. -1.
        -11    1    3    3    0    0 -0.17687407092E+02 -0.11253234257E+02 -0.27772736511E+01  0.21146935950E+02  0.51100000000E-03 0.  1.
        -12    1    3    3    0    0 -0.63013445307E+01  0.32523951066E+01 -0.49103170952E+00  0.71081733915E+01  0.00000000000E+00 0.  1.
</event>
<event>
 7    1  0.2983653E-010  0.4778727E+02  0.7816164E-02  0.1312668E+00
        -11   -1    0    0    0    0  0.00000000000E+00  0.00000000000E+00  0.45593999997E+02  0.45594000000E+02  0.51100000000E-03 0. -1.
         11   -1    0    0    0    0 -0.00000000000E+00 -0.00000000000E+00 -0.45593999997E+02  0.45594000000E+02  0.51100000000E-03 0.  1.
    9900012    2    1    2    0    0 -0.32613694292E+02  0.27137142481E+02  0.91403267224E+01  0.47787272702E+02  0.20000007558E+02 0.  0.
        -12    1    1    2    0    0  0.32613694292E+02 -0.27137142481E+02 -0.91403267224E+01  0.43400727298E+02  0.00000000000E+00 0.  1.
         11    1    3    3    0    0 -0.43370558367E+01  0.10596895982E+02  0.74082061982E+01  0.13637660251E+02  0.51100000000E-03 0. -1.
        -11    1    3    3    0    0 -0.17459298324E+02  0.49441418788E+01 -0.38972068644E+00  0.18150028082E+02  0.51100000000E-03 0.  1.
         12    1    3    3    0    0 -0.10817340131E+02  0.11596104620E+02  0.21218412107E+01  0.15999584369E+02  0.00000000000E+00 0. -1.
</event>
<event>
 7    1  0.2983653E-010  0.4778727E+02  0.7816164E-02  0.1312668E+00
        -11   -1    0    0    0    0  0.00000000000E+00  0.00000000000E+00  0.45593999997E+02  0.45594000000E+02  0.51100000000E-03 0.  1.
         11   -1    0    0    0    0 -0.00000000000E+00 -0.00000000000E+00 -0.45593999997E+02  0.45594000000E+02  0.51100000000E-03 0. -1.
    9900012    2    1    2    0    0  0.24636564646E+02  0.16819330900E+01 -0.35690813124E+02  0.47787270076E+02  0.19999995586E+02 0.  0.
        -12    1    1    2    0    0 -0.24636564646E+02 -0.16819330900E+01  0.35690813124E+02  0.43400729924E+02  0.00000000000E+00 0.  1.
         11    1    3    3    0    0  0.15162421399E+01 -0.22636137526E+00 -0.13995242208E+02  0.14078957150E+02  0.51100000000E-03 0. -1.
        -11    1    3    3    0    0  0.23164039153E+00 -0.64436293038E+00  0.11052753052E+01  0.13001902240E+01  0.51100000000E-03 0.  1.
         12    1    3    3    0    0  0.22888682114E+02  0.25526573957E+01 -0.22800846221E+02  0.32408122703E+02  0.00000000000E+00 0. -1.
</event>
<event>
 7    1  0.2983653E-010  0.4778727E+02  0.7816164E-02  0.1312668E+00
        -11   -1    0    0    0    0  0.00000000000E+00  0.00000000000E+00  0.45593999997E+02  0.45594000000E+02  0.51100000000E-03 0.  1.
         11   -1    0    0    0    0 -0.00000000000E+00 -0.00000000000E+00 -0.45593999997E+02  0.45594000000E+02  0.51100000000E-03 0. -1.
    9900012    2    1    2    0    0 -0.13543293771E+00 -0.35748446231E+02 -0.24610029244E+02  0.47787270866E+02  0.19999999185E+02 0.  0.
        -12    1    1    2    0    0  0.13543293771E+00  0.35748446231E+02  0.24610029244E+02  0.43400729134E+02  0.00000000000E+00 0.  1.
         11    1    3    3    0    0 -0.41308207466E+01 -0.21259887241E+02 -0.14958591614E+02  0.26321207208E+02  0.51100000000E-03 0. -1.
        -11    1    3    3    0    0  0.42182528910E+01 -0.15815393553E+02 -0.57658182570E+01  0.17354105887E+02  0.51100000000E-03 0.  1.
         12    1    3    3    0    0 -0.22286508206E+00  0.13268345632E+01 -0.38856193724E+01  0.41119577710E+01  0.00000000000E+00 0. -1.
</event>
<event>
 7    1  0.2983653E-010  0.4778727E+02  0.7816164E-02  0.1312668E+00
        -11   -1    0    0    0    0  0.00000000000E+00  0.00000000000E+00  0.45593999997E+02  0.45594000000E+02  0.51100000000E-03 0.  1.
         11   -1    0    0    0    0 -0.00000000000E+00 -0.00000000000E+00 -0.45593999997E+02  0.45594000000E+02  0.51100000000E-03 0. -1.
    9900012    2    1    2    0    0  0.29158418530E+02 -0.10593593348E+02 -0.30351038083E+02  0.47787273003E+02  0.20000008930E+02 0.  0.
        -12    1    1    2    0    0 -0.29158418530E+02  0.10593593348E+02  0.30351038083E+02  0.43400726997E+02  0.00000000000E+00 0.  1.
         11    1    3    3    0    0  0.18052263412E+02 -0.26565473811E+01 -0.69727170084E+01  0.19533567033E+02  0.51100000000E-03 0. -1.
        -11    1    3    3    0    0  0.21323824572E+00 -0.16077370307E+01 -0.89652353284E+01  0.91107482494E+01  0.51100000000E-03 0.  1.
         12    1    3    3    0    0  0.10892916872E+02 -0.63293089360E+01 -0.14413085746E+02  0.19142957721E+02  0.00000000000E+00 0. -1.
</event>
<event>
 7    1  0.2983653E-010  0.4778727E+02  0.7816164E-02  0.1312668E+00
        -11   -1    0    0    0    0  0.00000000000E+00  0.00000000000E+00  0.45593999997E+02  0.45594000000E+02  0.51100000000E-03 0.  1.
         11   -1    0    0    0    0 -0.00000000000E+00 -0.00000000000E+00 -0.45593999997E+02  0.45594000000E+02  0.51100000000E-03 0. -1.
    9900012    2    1    2    0    0  0.33992081463E+01  0.70500585878E+01 -0.42689172216E+02  0.47787269977E+02  0.19999995131E+02 0.  0.
        -12    1    1    2    0    0 -0.33992081463E+01 -0.70500585878E+01  0.42689172216E+02  0.43400730023E+02  0.00000000000E+00 0.  1.
         11    1    3    3    0    0 -0.55237832460E+01 -0.27122871145E+01 -0.19331751186E+02  0.20287564834E+02  0.51100000000E-03 0. -1.
        -11    1    3    3    0    0  0.16102422494E+01  0.23170605492E+01 -0.13178275362E+01  0.31142124794E+01  0.51100000000E-03 0.  1.
         12    1    3    3    0    0  0.73127491428E+01  0.74452851531E+01 -0.22039593494E+02  0.24385492663E+02  0.00000000000E+00 0. -1.
</event>
<event>
 7    1  0.2983653E-010  0.4778726E+02  0.7816164E-02  0.1312668E+00
        -11   -1    0    0    0    0  0.00000000000E+00  0.00000000000E+00  0.45593999997E+02  0.45594000000E+02  0.51100000000E-03 0.  1.
         11   -1    0    0    0    0 -0.00000000000E+00 -0.00000000000E+00 -0.45593999997E+02  0.45594000000E+02  0.51100000000E-03 0. -1.
    9900012    2    1    2    0    0 -0.16730386755E+01  0.13375149116E+02 -0.41254458094E+02  0.47787262853E+02  0.19999962652E+02 0.  0.
        -12    1    1    2    0    0  0.16730386755E+01 -0.13375149116E+02  0.41254458094E+02  0.43400737147E+02  0.00000000000E+00 0.  1.
         11    1    3    3    0    0 -0.24567474904E+01  0.62684737976E+01 -0.21412010746E+02  0.22445569194E+02  0.51100000000E-03 0. -1.
        -11    1    3    3    0    0  0.54059119285E+01 -0.17237567818E+01 -0.87548489022E+01  0.10432765730E+02  0.51100000000E-03 0.  1.
        -12    1    3    3    0    0 -0.46222031136E+01  0.88304320999E+01 -0.11087598446E+02  0.14908927929E+02  0.00000000000E+00 0.  1.
</event>
<event>
 7    1  0.2983653E-010  0.4778726E+02  0.7816164E-02  0.1312668E+00
        -11   -1    0    0    0    0  0.00000000000E+00  0.00000000000E+00  0.45593999997E+02  0.45594000000E+02  0.51100000000E-03 0.  1.
         11   -1    0    0    0    0 -0.00000000000E+00 -0.00000000000E+00 -0.45593999997E+02  0.45594000000E+02  0.51100000000E-03 0. -1.
    9900012    2    1    2    0    0 -0.14574346516E+02  0.22104334040E+02 -0.34389106895E+02  0.47787264606E+02  0.19999970646E+02 0.  0.
        -12    1    1    2    0    0  0.14574346516E+02 -0.22104334040E+02  0.34389106895E+02  0.43400735394E+02  0.00000000000E+00 0.  1.
         11    1    3    3    0    0 -0.38758710861E-01  0.64510221253E+01 -0.57729626115E+01  0.86570368068E+01  0.51100000000E-03 0. -1.
        -11    1    3    3    0    0 -0.10143187098E-01  0.98322485877E+01 -0.17011104818E+02  0.19648178098E+02  0.51100000000E-03 0.  1.
        -12    1    3    3    0    0 -0.14525444618E+02  0.58210633268E+01 -0.11605039465E+02  0.19482049702E+02  0.00000000000E+00 0.  1.
</event>
<event>
 7    1  0.2983653E-010  0.4778730E+02  0.7816164E-02  0.1312668E+00
        -11   -1    0    0    0    0  0.00000000000E+00  0.00000000000E+00  0.45593999997E+02  0.45594000000E+02  0.51100000000E-03 0.  1.
         11   -1    0    0    0    0 -0.00000000000E+00 -0.00000000000E+00 -0.45593999997E+02  0.45594000000E+02  0.51100000000E-03 0. -1.
    9900012    2    1    2    0    0  0.18904575780E+02  0.35019904694E+02 -0.17316013348E+02  0.47787296912E+02  0.20000117942E+02 0.  0.
        -12    1    1    2    0    0 -0.18904575780E+02 -0.35019904694E+02  0.17316013348E+02  0.43400703088E+02  0.00000000000E+00 0.  1.
         11    1    3    3    0    0  0.56868105062E+00  0.15038496778E+02 -0.12134661191E+02  0.19332092126E+02  0.51100000000E-03 0. -1.
        -11    1    3    3    0    0  0.11811243117E+01  0.35524566844E+01  0.10699158394E+01  0.38935489337E+01  0.51100000000E-03 0.  1.
         12    1    3    3    0    0  0.17154770418E+02  0.16428951232E+02 -0.62512679957E+01  0.24561655853E+02  0.00000000000E+00 0. -1.
</event>
<event>
 7    1  0.2983653E-010  0.4778727E+02  0.7816164E-02  0.1312668E+00
        -11   -1    0    0    0    0  0.00000000000E+00  0.00000000000E+00  0.45593999997E+02  0.45594000000E+02  0.51100000000E-03 0. -1.
         11   -1    0    0    0    0 -0.00000000000E+00 -0.00000000000E+00 -0.45593999997E+02  0.45594000000E+02  0.51100000000E-03 0.  1.
    9900012    2    1    2    0    0  0.41924005564E+01 -0.20018688708E+02  0.38279229689E+02  0.47787267914E+02  0.19999985729E+02 0.  0.
        -12    1    1    2    0    0 -0.41924005564E+01  0.20018688708E+02 -0.38279229689E+02  0.43400732086E+02  0.00000000000E+00 0.  1.
         11    1    3    3    0    0 -0.64272652797E+01 -0.58858628251E+01  0.15831723122E+02  0.18071983219E+02  0.51100000000E-03 0. -1.
        -11    1    3    3    0    0  0.81875675003E+01 -0.42195812455E+01  0.95617463495E+01  0.13276600505E+02  0.51100000000E-03 0.  1.
         12    1    3    3    0    0  0.24320983358E+01 -0.99132446372E+01  0.12885760217E+02  0.16438684191E+02  0.00000000000E+00 0. -1.
</event>
<event>
 7    1  0.2983653E-010  0.4778727E+02  0.7816164E-02  0.1312668E+00
        -11   -1    0    0    0    0  0.00000000000E+00  0.00000000000E+00  0.45593999997E+02  0.45594000000E+02  0.51100000000E-03 0. -1.
         11   -1    0    0    0    0 -0.00000000000E+00 -0.00000000000E+00 -0.45593999997E+02  0.45594000000E+02  0.51100000000E-03 0.  1.
    9900012    2    1    2    0    0 -0.41362866333E+02  0.87447155427E+01 -0.98115509461E+01  0.47787270822E+02  0.19999998985E+02 0.  0.
        -12    1    1    2    0    0  0.41362866333E+02 -0.87447155427E+01  0.98115509461E+01  0.43400729178E+02  0.00000000000E+00 0.  1.
         11    1    3    3    0    0 -0.14336543261E+02 -0.19293120825E+01 -0.33880954891E+01  0.14857251061E+02  0.51100000000E-03 0. -1.
        -11    1    3    3    0    0 -0.11121289745E+01  0.53426489414E+01 -0.30699196293E+01  0.62614004311E+01  0.51100000000E-03 0.  1.
        -12    1    3    3    0    0 -0.25914194098E+02  0.53313786838E+01 -0.33535358277E+01  0.26668619330E+02  0.00000000000E+00 0.  1.
</event>
<event>
 7    1  0.2983653E-010  0.4778727E+02  0.7816164E-02  0.1312668E+00
        -11   -1    0    0    0    0  0.00000000000E+00  0.00000000000E+00  0.45593999997E+02  0.45594000000E+02  0.51100000000E-03 0. -1.
         11   -1    0    0    0    0 -0.00000000000E+00 -0.00000000000E+00 -0.45593999997E+02  0.45594000000E+02  0.51100000000E-03 0.  1.
    9900012    2    1    2    0    0  0.36873355442E+02  0.16924931107E+02  0.15411867807E+02  0.47787270700E+02  0.19999998430E+02 0.  0.
        -12    1    1    2    0    0 -0.36873355442E+02 -0.16924931107E+02 -0.15411867807E+02  0.43400729300E+02  0.00000000000E+00 0.  1.
         11    1    3    3    0    0  0.21717557607E+02  0.79783333255E+01  0.31823410979E+00  0.23138871716E+02  0.51100000000E-03 0. -1.
        -11    1    3    3    0    0  0.17763778288E+00  0.28160113211E+01  0.44795042856E+01  0.52940942425E+01  0.51100000000E-03 0.  1.
         12    1    3    3    0    0  0.14978160051E+02  0.61305864599E+01  0.10614129411E+02  0.19354304741E+02  0.00000000000E+00 0. -1.
</event>
<event>
 7    1  0.2983653E-010  0.4778728E+02  0.7816164E-02  0.1312668E+00
        -11   -1    0    0    0    0  0.00000000000E+00  0.00000000000E+00  0.45593999997E+02  0.45594000000E+02  0.51100000000E-03 0.  1.
         11   -1    0    0    0    0 -0.00000000000E+00 -0.00000000000E+00 -0.45593999997E+02  0.45594000000E+02  0.51100000000E-03 0. -1.
    9900012    2    1    2    0    0 -0.16586402179E+02  0.34968550325E+02 -0.19639612235E+02  0.47787278603E+02  0.20000034461E+02 0.  0.
        -12    1    1    2    0    0  0.16586402179E+02 -0.34968550325E+02  0.19639612235E+02  0.43400721397E+02  0.00000000000E+00 0.  1.
         11    1    3    3    0    0  0.58747783939E+00  0.12918432108E+02 -0.24933871359E+01  0.13169965756E+02  0.51100000000E-03 0. -1.
        -11    1    3    3    0    0 -0.71720326383E+01  0.33191226812E+01 -0.87310846291E+01  0.11776521838E+02  0.51100000000E-03 0.  1.
         12    1    3    3    0    0 -0.10001847380E+02  0.18730995536E+02 -0.84151404696E+01  0.22840791009E+02  0.00000000000E+00 0. -1.
</event>
<event>
 7    1  0.2983653E-010  0.4778727E+02  0.7816164E-02  0.1312668E+00
        -11   -1    0    0    0    0  0.00000000000E+00  0.00000000000E+00  0.45593999997E+02  0.45594000000E+02  0.51100000000E-03 0. -1.
         11   -1    0    0    0    0 -0.00000000000E+00 -0.00000000000E+00 -0.45593999997E+02  0.45594000000E+02  0.51100000000E-03 0.  1.
    9900012    2    1    2    0    0 -0.95907593821E+01 -0.26689690557E+02  0.32852712559E+02  0.47787274545E+02  0.20000015958E+02 0.  0.
        -12    1    1    2    0    0  0.95907593821E+01  0.26689690557E+02 -0.32852712559E+02  0.43400725455E+02  0.00000000000E+00 0.  1.
         11    1    3    3    0    0 -0.84595797619E+01 -0.22992592157E+02  0.30698049457E+02  0.39275870767E+02  0.51100000000E-03 0. -1.
        -11    1    3    3    0    0 -0.92931610931E+00 -0.14593071885E+01 -0.26743964000E+01  0.31852162041E+01  0.51100000000E-03 0.  1.
        -12    1    3    3    0    0 -0.20186351087E+00 -0.22377912122E+01  0.48290595023E+01  0.53261875730E+01  0.00000000000E+00 0.  1.
</event>
<event>
 7    1  0.2983653E-010  0.4778727E+02  0.7816164E-02  0.1312668E+00
        -11   -1    0    0    0    0  0.00000000000E+00  0.00000000000E+00  0.45593999997E+02  0.45594000000E+02  0.51100000000E-03 0.  1.
         11   -1    0    0    0    0 -0.00000000000E+00 -0.00000000000E+00 -0.45593999997E+02  0.45594000000E+02  0.51100000000E-03 0. -1.
    9900012    2    1    2    0    0 -0.42913875113E+02  0.64442415195E+01  0.70306005694E+00  0.47787271671E+02  0.20000002859E+02 0.  0.
        -12    1    1    2    0    0  0.42913875113E+02 -0.64442415195E+01 -0.70306005694E+00  0.43400728329E+02  0.00000000000E+00 0.  1.
         11    1    3    3    0    0 -0.31447440680E+02 -0.14043764764E+01 -0.64572567833E+01  0.32134249082E+02  0.51100000000E-03 0. -1.
        -11    1    3    3    0    0 -0.10386488117E+02  0.72044811234E+01  0.62544831419E+01  0.14103270660E+02  0.51100000000E-03 0.  1.
         12    1    3    3    0    0 -0.10799463160E+01  0.64413687258E+00  0.90583369828E+00  0.15497519301E+01  0.00000000000E+00 0. -1.
</event>
<event>
 7    1  0.2983653E-010  0.4778728E+02  0.7816164E-02  0.1312668E+00
        -11   -1    0    0    0    0  0.00000000000E+00  0.00000000000E+00  0.45593999997E+02  0.45594000000E+02  0.51100000000E-03 0.  1.
         11   -1    0    0    0    0 -0.00000000000E+00 -0.00000000000E+00 -0.45593999997E+02  0.45594000000E+02  0.51100000000E-03 0. -1.
    9900012    2    1    2    0    0 -0.21489802272E+02 -0.97187738214E+01 -0.36432905773E+02  0.47787276627E+02  0.20000025451E+02 0.  0.
        -12    1    1    2    0    0  0.21489802272E+02  0.97187738214E+01  0.36432905773E+02  0.43400723373E+02  0.00000000000E+00 0.  1.
         11    1    3    3    0    0 -0.21850484536E+01 -0.56195565003E+01 -0.11673137219E+02  0.13138340260E+02  0.51100000000E-03 0. -1.
        -11    1    3    3    0    0 -0.19945593963E+02  0.65578587986E-01 -0.21451665439E+02  0.29291721859E+02  0.51100000000E-03 0.  1.
        -12    1    3    3    0    0  0.64084014498E+00 -0.41647959091E+01 -0.33081031149E+01  0.53572145070E+01  0.00000000000E+00 0.  1.
</event>
<event>
 7    1  0.2983653E-010  0.4778727E+02  0.7816164E-02  0.1312668E+00
        -11   -1    0    0    0    0  0.00000000000E+00  0.00000000000E+00  0.45593999997E+02  0.45594000000E+02  0.51100000000E-03 0.  1.
         11   -1    0    0    0    0 -0.00000000000E+00 -0.00000000000E+00 -0.45593999997E+02  0.45594000000E+02  0.51100000000E-03 0. -1.
    9900012    2    1    2    0    0 -0.15646852631E+02 -0.35106856222E+02 -0.20157088404E+02  0.47787267702E+02  0.19999984761E+02 0.  0.
        -12    1    1    2    0    0  0.15646852631E+02  0.35106856222E+02  0.20157088404E+02  0.43400732298E+02  0.00000000000E+00 0.  1.
         11    1    3    3    0    0 -0.82973309382E+01 -0.17766353100E+02 -0.19081647419E+02  0.27360523965E+02  0.51100000000E-03 0. -1.
        -11    1    3    3    0    0 -0.75967714186E+01 -0.18073593023E+02 -0.86203978295E+00  0.19624189501E+02  0.51100000000E-03 0.  1.
        -12    1    3    3    0    0  0.24724972619E+00  0.73308989988E+00 -0.21340120273E+00  0.80255423601E+00  0.00000000000E+00 0.  1.
</event>
<event>
 7    1  0.2983653E-010  0.4778727E+02  0.7816164E-02  0.1312668E+00
        -11   -1    0    0    0    0  0.00000000000E+00  0.00000000000E+00  0.45593999997E+02  0.45594000000E+02  0.51100000000E-03 0.  1.
         11   -1    0    0    0    0 -0.00000000000E+00 -0.00000000000E+00 -0.45593999997E+02  0.45594000000E+02  0.51100000000E-03 0. -1.
    9900012    2    1    2    0    0 -0.35151888262E+02  0.42716336536E+00 -0.25451631050E+02  0.47787271434E+02  0.20000001777E+02 0.  0.
        -12    1    1    2    0    0  0.35151888262E+02 -0.42716336536E+00  0.25451631050E+02  0.43400728566E+02  0.00000000000E+00 0.  1.
         11    1    3    3    0    0 -0.12323047606E+02  0.23460872243E+01 -0.76820819941E+01  0.14709725068E+02  0.51100000000E-03 0. -1.
        -11    1    3    3    0    0 -0.87123008582E+01  0.37630878150E+01 -0.14787634456E+02  0.17570974623E+02  0.51100000000E-03 0.  1.
        -12    1    3    3    0    0 -0.14116539798E+02 -0.56820116739E+01 -0.29819146007E+01  0.15506571743E+02  0.00000000000E+00 0.  1.
</event>
<event>
 7    1  0.2983653E-010  0.4778726E+02  0.7816164E-02  0.1312668E+00
        -11   -1    0    0    0    0  0.00000000000E+00  0.00000000000E+00  0.45593999997E+02  0.45594000000E+02  0.51100000000E-03 0. -1.
         11   -1    0    0    0    0 -0.00000000000E+00 -0.00000000000E+00 -0.45593999997E+02  0.45594000000E+02  0.51100000000E-03 0.  1.
    9900012    2    1    2    0    0  0.39960891750E+01 -0.43081674486E+02  0.34095106317E+01  0.47787260744E+02  0.19999953037E+02 0.  0.
        -12    1    1    2    0    0 -0.39960891750E+01  0.43081674486E+02 -0.34095106317E+01  0.43400739256E+02  0.00000000000E+00 0.  1.
         11    1    3    3    0    0  0.14101317251E+01 -0.74310478688E+00  0.39232232650E+01  0.42346614097E+01  0.51100000000E-03 0. -1.
        -11    1    3    3    0    0  0.50229575267E+01 -0.38329144451E+02  0.85088781673E+00  0.38666231094E+02  0.51100000000E-03 0.  1.
        -12    1    3    3    0    0 -0.24370000769E+01 -0.40094252483E+01 -0.13646004501E+01  0.48863682408E+01  0.00000000000E+00 0.  1.
</event>
<event>
 7    1  0.2983653E-010  0.4778726E+02  0.7816164E-02  0.1312668E+00
        -11   -1    0    0    0    0  0.00000000000E+00  0.00000000000E+00  0.45593999997E+02  0.45594000000E+02  0.51100000000E-03 0.  1.
         11   -1    0    0    0    0 -0.00000000000E+00 -0.00000000000E+00 -0.45593999997E+02  0.45594000000E+02  0.51100000000E-03 0. -1.
    9900012    2    1    2    0    0  0.10257040568E+02 -0.21606348298E+02 -0.36215782227E+02  0.47787262099E+02  0.19999959215E+02 0.  0.
        -12    1    1    2    0    0 -0.10257040568E+02  0.21606348298E+02  0.36215782227E+02  0.43400737901E+02  0.00000000000E+00 0.  1.
         11    1    3    3    0    0  0.81329929508E+01 -0.11036388968E+02 -0.22389675940E+02  0.26253476812E+02  0.51100000000E-03 0. -1.
        -11    1    3    3    0    0  0.12544525351E+01 -0.10062607977E+02 -0.28800916130E+01  0.10541568119E+02  0.51100000000E-03 0.  1.
         12    1    3    3    0    0  0.86959508178E+00 -0.50735135382E+00 -0.10946014675E+02  0.10992217168E+02  0.00000000000E+00 0. -1.
</event>
<event>
 7    1  0.2983653E-010  0.4778728E+02  0.7816164E-02  0.1312668E+00
        -11   -1    0    0    0    0  0.00000000000E+00  0.00000000000E+00  0.45593999997E+02  0.45594000000E+02  0.51100000000E-03 0.  1.
         11   -1    0    0    0    0 -0.00000000000E+00 -0.00000000000E+00 -0.45593999997E+02  0.45594000000E+02  0.51100000000E-03 0. -1.
    9900012    2    1    2    0    0 -0.33583842642E+02  0.26058787138E+02 -0.87571629825E+01  0.47787276767E+02  0.20000026090E+02 0.  0.
        -12    1    1    2    0    0  0.33583842642E+02 -0.26058787138E+02  0.87571629825E+01  0.43400723233E+02  0.00000000000E+00 0.  1.
         11    1    3    3    0    0 -0.27730549439E+02  0.17085004150E+02 -0.20169771687E+01  0.32633555371E+02  0.51100000000E-03 0. -1.
        -11    1    3    3    0    0 -0.39152900030E+00  0.37840266161E+01 -0.66003723485E+01  0.76182063368E+01  0.51100000000E-03 0.  1.
        -12    1    3    3    0    0 -0.54617642029E+01  0.51897563714E+01 -0.13981346529E+00  0.75355150591E+01  0.00000000000E+00 0.  1.
</event>
<event>
 7    1  0.2983653E-010  0.4778728E+02  0.7816164E-02  0.1312668E+00
        -11   -1    0    0    0    0  0.00000000000E+00  0.00000000000E+00  0.45593999997E+02  0.45594000000E+02  0.51100000000E-03 0. -1.
         11   -1    0    0    0    0 -0.00000000000E+00 -0.00000000000E+00 -0.45593999997E+02  0.45594000000E+02  0.51100000000E-03 0.  1.
    9900012    2    1    2    0    0 -0.24695446820E+02 -0.14843929837E+02  0.32456352286E+02  0.47787283988E+02  0.20000059014E+02 0.  0.
        -12    1    1    2    0    0  0.24695446820E+02  0.14843929837E+02 -0.32456352286E+02  0.43400716012E+02  0.00000000000E+00 0.  1.
         11    1    3    3    0    0 -0.13378186286E+02  0.21471078022E+01  0.13891750234E+02  0.19405325687E+02  0.51100000000E-03 0. -1.
        -11    1    3    3    0    0 -0.22597578769E+01 -0.55074266325E+01  0.19895591262E+01  0.62766710565E+01  0.51100000000E-03 0.  1.
         12    1    3    3    0    0 -0.90575026572E+01 -0.11483611006E+02  0.16575042926E+02  0.22105287244E+02  0.00000000000E+00 0. -1.
</event>
<event>
 7    1  0.2983653E-010  0.4778727E+02  0.7816164E-02  0.1312668E+00
        -11   -1    0    0    0    0  0.00000000000E+00  0.00000000000E+00  0.45593999997E+02  0.45594000000E+02  0.51100000000E-03 0. -1.
         11   -1    0    0    0    0 -0.00000000000E+00 -0.00000000000E+00 -0.45593999997E+02  0.45594000000E+02  0.51100000000E-03 0.  1.
    9900012    2    1    2    0    0  0.28244361695E+02 -0.26208095747E+02  0.19975359004E+02  0.47787271693E+02  0.20000002957E+02 0.  0.
        -12    1    1    2    0    0 -0.28244361695E+02  0.26208095747E+02 -0.19975359004E+02  0.43400728307E+02  0.00000000000E+00 0.  1.
         11    1    3    3    0    0  0.18457618649E+02 -0.13196311099E+02  0.17495956460E+02  0.28651959890E+02  0.51100000000E-03 0. -1.
        -11    1    3    3    0    0 -0.85703466435E+00 -0.30240287873E+01 -0.21667616969E+01  0.38176059298E+01  0.51100000000E-03 0.  1.
        -12    1    3    3    0    0  0.10643777710E+02 -0.99877558607E+01  0.46461642417E+01  0.15317705874E+02  0.00000000000E+00 0.  1.
</event>
<event>
 7    1  0.2983653E-010  0.4778727E+02  0.7816164E-02  0.1312668E+00
        -11   -1    0    0    0    0  0.00000000000E+00  0.00000000000E+00  0.45593999997E+02  0.45594000000E+02  0.51100000000E-03 0.  1.
         11   -1    0    0    0    0 -0.00000000000E+00 -0.00000000000E+00 -0.45593999997E+02  0.45594000000E+02  0.51100000000E-03 0. -1.
    9900012    2    1    2    0    0  0.37654158733E+02 -0.20698052187E+02 -0.61137979308E+01  0.47787267755E+02  0.19999985004E+02 0.  0.
        -12    1    1    2    0    0 -0.37654158733E+02  0.20698052187E+02  0.61137979308E+01  0.43400732245E+02  0.00000000000E+00 0.  1.
         11    1    3    3    0    0  0.33477949962E+02 -0.16946369360E+02 -0.92888636271E+00  0.37534189724E+02  0.51100000000E-03 0. -1.
        -11    1    3    3    0    0 -0.80236146256E+00 -0.37158095154E+01 -0.28662992008E+01  0.47609553286E+01  0.51100000000E-03 0.  1.
         12    1    3    3    0    0  0.49785702339E+01 -0.35873311674E-01 -0.23186123673E+01  0.54921227024E+01  0.00000000000E+00 0. -1.
</event>
<event>
 7    1  0.2983653E-010  0.4778727E+02  0.7816164E-02  0.1312668E+00
        -11   -1    0    0    0    0  0.00000000000E+00  0.00000000000E+00  0.45593999997E+02  0.45594000000E+02  0.51100000000E-03 0.  1.
         11   -1    0    0    0    0 -0.00000000000E+00 -0.00000000000E+00 -0.45593999997E+02  0.45594000000E+02  0.51100000000E-03 0. -1.
    9900012    2    1    2    0    0  0.13850429006E+02  0.34522254968E+02 -0.22360746304E+02  0.47787269050E+02  0.19999990906E+02 0.  0.
        -12    1    1    2    0    0 -0.13850429006E+02 -0.34522254968E+02  0.22360746304E+02  0.43400730950E+02  0.00000000000E+00 0.  1.
         11    1    3    3    0    0  0.79184338607E+01  0.11787015968E+02 -0.12076753563E+02  0.18640904408E+02  0.51100000000E-03 0. -1.
        -11    1    3    3    0    0  0.92656988494E+01  0.86737008304E+01 -0.62218909742E+01  0.14134998720E+02  0.51100000000E-03 0.  1.
        -12    1    3    3    0    0 -0.33337037041E+01  0.14061538170E+02 -0.40621017661E+01  0.15011365922E+02  0.00000000000E+00 0.  1.
</event>
<event>
 7    1  0.2983653E-010  0.4778727E+02  0.7816164E-02  0.1312668E+00
        -11   -1    0    0    0    0  0.00000000000E+00  0.00000000000E+00  0.45593999997E+02  0.45594000000E+02  0.51100000000E-03 0. -1.
         11   -1    0    0    0    0 -0.00000000000E+00 -0.00000000000E+00 -0.45593999997E+02  0.45594000000E+02  0.51100000000E-03 0.  1.
    9900012    2    1    2    0    0 -0.99498839145E+01  0.17198525018E+02  0.38585412788E+02  0.47787268063E+02  0.19999986404E+02 0.  0.
        -12    1    1    2    0    0  0.99498839145E+01 -0.17198525018E+02 -0.38585412788E+02  0.43400731937E+02  0.00000000000E+00 0.  1.
         11    1    3    3    0    0 -0.67884132778E+01  0.10357492595E+02  0.10101725765E+02  0.15981397667E+02  0.51100000000E-03 0. -1.
        -11    1    3    3    0    0 -0.23667788918E+00  0.60544772982E+01  0.42917507071E+01  0.74250815598E+01  0.51100000000E-03 0.  1.
         12    1    3    3    0    0 -0.29247927475E+01  0.78655512505E+00  0.24191936315E+02  0.24380788836E+02  0.00000000000E+00 0. -1.
</event>
<event>
 7    1  0.2983653E-010  0.4778727E+02  0.7816164E-02  0.1312668E+00
        -11   -1    0    0    0    0  0.00000000000E+00  0.00000000000E+00  0.45593999997E+02  0.45594000000E+02  0.51100000000E-03 0.  1.
         11   -1    0    0    0    0 -0.00000000000E+00 -0.00000000000E+00 -0.45593999997E+02  0.45594000000E+02  0.51100000000E-03 0. -1.
    9900012    2    1    2    0    0 -0.12585136425E+02 -0.23454984814E+02 -0.34279755650E+02  0.47787267070E+02  0.19999981878E+02 0.  0.
        -12    1    1    2    0    0  0.12585136425E+02  0.23454984814E+02  0.34279755650E+02  0.43400732930E+02  0.00000000000E+00 0.  1.
         11    1    3    3    0    0 -0.34564702912E+01 -0.20241289138E+02 -0.22629243002E+02  0.30557153205E+02  0.51100000000E-03 0. -1.
        -11    1    3    3    0    0 -0.96502178923E+01 -0.39961544649E+01 -0.72114768731E+01  0.12692570852E+02  0.51100000000E-03 0.  1.
         12    1    3    3    0    0  0.52155175822E+00  0.78245878913E+00 -0.44390357744E+01  0.45375430135E+01  0.00000000000E+00 0. -1.
</event>
<event>
 7    1  0.2983653E-010  0.4778728E+02  0.7816164E-02  0.1312668E+00
        -11   -1    0    0    0    0  0.00000000000E+00  0.00000000000E+00  0.45593999997E+02  0.45594000000E+02  0.51100000000E-03 0. -1.
         11   -1    0    0    0    0 -0.00000000000E+00 -0.00000000000E+00 -0.45593999997E+02  0.45594000000E+02  0.51100000000E-03 0.  1.
    9900012    2    1    2    0    0  0.32844739221E+02  0.13961278388E+02  0.24696734313E+02  0.47787275646E+02  0.20000020981E+02 0.  0.
        -12    1    1    2    0    0 -0.32844739221E+02 -0.13961278388E+02 -0.24696734313E+02  0.43400724354E+02  0.00000000000E+00 0.  1.
         11    1    3    3    0    0  0.44743045216E+01  0.92014827833E+01  0.10169724153E+02  0.14426017329E+02  0.51100000000E-03 0.  1.
        -11    1    3    3    0    0  0.19578565006E+01 -0.25584812985E+00  0.40530925072E+01  0.45084608765E+01  0.51100000000E-03 0. -1.
         12    1    3    3    0    0  0.26412578199E+02  0.50156437345E+01  0.10473917653E+02  0.28852797441E+02  0.00000000000E+00 0. -1.
</event>
<event>
 7    1  0.2983653E-010  0.4778727E+02  0.7816164E-02  0.1312668E+00
        -11   -1    0    0    0    0  0.00000000000E+00  0.00000000000E+00  0.45593999997E+02  0.45594000000E+02  0.51100000000E-03 0. -1.
         11   -1    0    0    0    0 -0.00000000000E+00 -0.00000000000E+00 -0.45593999997E+02  0.45594000000E+02  0.51100000000E-03 0.  1.
    9900012    2    1    2    0    0 -0.34954787912E+02  0.16121009439E+02 -0.20047425674E+02  0.47787269367E+02  0.19999992352E+02 0.  0.
        -12    1    1    2    0    0  0.34954787912E+02 -0.16121009439E+02  0.20047425674E+02  0.43400730633E+02  0.00000000000E+00 0.  1.
         11    1    3    3    0    0 -0.48817379385E+01  0.57260295001E+01  0.19308419825E+01  0.77683286593E+01  0.51100000000E-03 0. -1.
        -11    1    3    3    0    0 -0.76439957259E+01  0.22589196444E+00 -0.10124082774E+02  0.12687740150E+02  0.51100000000E-03 0.  1.
         12    1    3    3    0    0 -0.22429054248E+02  0.10169087975E+02 -0.11854184882E+02  0.27331200557E+02  0.00000000000E+00 0. -1.
</event>
<event>
 7    1  0.2983653E-010  0.4778727E+02  0.7816164E-02  0.1312668E+00
        -11   -1    0    0    0    0  0.00000000000E+00  0.00000000000E+00  0.45593999997E+02  0.45594000000E+02  0.51100000000E-03 0. -1.
         11   -1    0    0    0    0 -0.00000000000E+00 -0.00000000000E+00 -0.45593999997E+02  0.45594000000E+02  0.51100000000E-03 0.  1.
    9900012    2    1    2    0    0  0.11818423673E+02  0.31333630280E+02  0.27607103741E+02  0.47787266117E+02  0.19999977532E+02 0.  0.
        -12    1    1    2    0    0 -0.11818423673E+02 -0.31333630280E+02 -0.27607103741E+02  0.43400733883E+02  0.00000000000E+00 0.  1.
         11    1    3    3    0    0  0.10045148224E+02  0.17694306936E+02  0.60249382799E+01  0.21220117396E+02  0.51100000000E-03 0. -1.
        -11    1    3    3    0    0 -0.94911177722E+00  0.71714315390E+00 -0.85143174614E-01  0.11926261318E+01  0.51100000000E-03 0.  1.
         12    1    3    3    0    0  0.27223872265E+01  0.12922180190E+02  0.21667308636E+02  0.25374522589E+02  0.00000000000E+00 0. -1.
</event>
<event>
 7    1  0.2983653E-010  0.4778727E+02  0.7816164E-02  0.1312668E+00
        -11   -1    0    0    0    0  0.00000000000E+00  0.00000000000E+00  0.45593999997E+02  0.45594000000E+02  0.51100000000E-03 0. -1.
         11   -1    0    0    0    0 -0.00000000000E+00 -0.00000000000E+00 -0.45593999997E+02  0.45594000000E+02  0.51100000000E-03 0.  1.
    9900012    2    1    2    0    0 -0.10404293812E+02  0.11082774328E+02  0.40651517022E+02  0.47787273593E+02  0.20000011618E+02 0.  0.
        -12    1    1    2    0    0  0.10404293812E+02 -0.11082774328E+02 -0.40651517022E+02  0.43400726407E+02  0.00000000000E+00 0.  1.
         11    1    3    3    0    0 -0.39967839069E+01 -0.19559550425E+01  0.62565039597E+01  0.76774920245E+01  0.51100000000E-03 0. -1.
        -11    1    3    3    0    0 -0.66082501074E+01  0.15289124575E+02  0.33937633549E+02  0.37804619703E+02  0.51100000000E-03 0.  1.
        -12    1    3    3    0    0  0.20074020218E+00 -0.22503952046E+01  0.45737951346E+00  0.23051618653E+01  0.00000000000E+00 0.  1.
</event>
<event>
 7    1  0.2983653E-010  0.4778727E+02  0.7816164E-02  0.1312668E+00
        -11   -1    0    0    0    0  0.00000000000E+00  0.00000000000E+00  0.45593999997E+02  0.45594000000E+02  0.51100000000E-03 0. -1.
         11   -1    0    0    0    0 -0.00000000000E+00 -0.00000000000E+00 -0.45593999997E+02  0.45594000000E+02  0.51100000000E-03 0.  1.
    9900012    2    1    2    0    0  0.23921045848E+02  0.13860091636E+02  0.33456011482E+02  0.47787270986E+02  0.19999999735E+02 0.  0.
        -12    1    1    2    0    0 -0.23921045848E+02 -0.13860091636E+02 -0.33456011482E+02  0.43400729014E+02  0.00000000000E+00 0.  1.
         11    1    3    3    0    0 -0.33180393141E+00  0.50701141450E+00  0.36055526613E+01  0.36561133294E+01  0.51100000000E-03 0. -1.
        -11    1    3    3    0    0  0.16677351524E+02  0.83114049320E+01  0.29662179552E+02  0.35029393398E+02  0.51100000000E-03 0.  1.
        -12    1    3    3    0    0  0.75754982556E+01  0.50416752894E+01  0.18827926939E+00  0.91017642591E+01  0.00000000000E+00 0.  1.
</event>
<event>
 7    1  0.2983653E-010  0.4778727E+02  0.7816164E-02  0.1312668E+00
        -11   -1    0    0    0    0  0.00000000000E+00  0.00000000000E+00  0.45593999997E+02  0.45594000000E+02  0.51100000000E-03 0.  1.
         11   -1    0    0    0    0 -0.00000000000E+00 -0.00000000000E+00 -0.45593999997E+02  0.45594000000E+02  0.51100000000E-03 0. -1.
    9900012    2    1    2    0    0  0.27804742265E+02  0.21100515114E+02 -0.25793177243E+02  0.47787269329E+02  0.19999992178E+02 0.  0.
        -12    1    1    2    0    0 -0.27804742265E+02 -0.21100515114E+02  0.25793177243E+02  0.43400730671E+02  0.00000000000E+00 0.  1.
         11    1    3    3    0    0  0.10219793439E+02  0.14744394424E+01 -0.13383825079E+02  0.16903991351E+02  0.51100000000E-03 0. -1.
        -11    1    3    3    0    0  0.18268984410E+02  0.16610733553E+02 -0.89999011227E+01  0.26280610362E+02  0.51100000000E-03 0.  1.
        -12    1    3    3    0    0 -0.68403558393E+00  0.30153421191E+01 -0.34094510412E+01  0.46026676154E+01  0.00000000000E+00 0.  1.
</event>
<event>
 7    1  0.2983653E-010  0.4778727E+02  0.7816164E-02  0.1312668E+00
        -11   -1    0    0    0    0  0.00000000000E+00  0.00000000000E+00  0.45593999997E+02  0.45594000000E+02  0.51100000000E-03 0.  1.
         11   -1    0    0    0    0 -0.00000000000E+00 -0.00000000000E+00 -0.45593999997E+02  0.45594000000E+02  0.51100000000E-03 0. -1.
    9900012    2    1    2    0    0 -0.35233728867E+02  0.23390831930E+02 -0.97507287855E+01  0.47787269821E+02  0.19999994420E+02 0.  0.
        -12    1    1    2    0    0  0.35233728867E+02 -0.23390831930E+02  0.97507287855E+01  0.43400730179E+02  0.00000000000E+00 0.  1.
         11    1    3    3    0    0 -0.11160674182E+01  0.50379184304E+01 -0.59474086262E+01  0.78738744098E+01  0.51100000000E-03 0. -1.
        -11    1    3    3    0    0 -0.35662086006E+01 -0.50869357046E+00  0.86973750164E+00  0.37058138802E+01  0.51100000000E-03 0.  1.
         12    1    3    3    0    0 -0.30551452848E+02  0.18861607070E+02 -0.46730576609E+01  0.36207581531E+02  0.00000000000E+00 0. -1.
</event>
<event>
 7    1  0.2983653E-010  0.4778727E+02  0.7816164E-02  0.1312668E+00
        -11   -1    0    0    0    0  0.00000000000E+00  0.00000000000E+00  0.45593999997E+02  0.45594000000E+02  0.51100000000E-03 0.  1.
         11   -1    0    0    0    0 -0.00000000000E+00 -0.00000000000E+00 -0.45593999997E+02  0.45594000000E+02  0.51100000000E-03 0. -1.
    9900012    2    1    2    0    0  0.20021525487E+02 -0.36454207023E+01 -0.38333701692E+02  0.47787271200E+02  0.20000000709E+02 0.  0.
        -12    1    1    2    0    0 -0.20021525487E+02  0.36454207023E+01  0.38333701692E+02  0.43400728800E+02  0.00000000000E+00 0.  1.
         11    1    3    3    0    0  0.43736406499E+01  0.28513689796E+01 -0.19544038242E+02  0.20229396152E+02  0.51100000000E-03 0. -1.
        -11    1    3    3    0    0  0.15980771755E+02 -0.29643401394E+01 -0.17216750409E+02  0.23676758082E+02  0.51100000000E-03 0.  1.
         12    1    3    3    0    0 -0.33288691792E+00 -0.35324495426E+01 -0.15729130410E+01  0.38811169662E+01  0.00000000000E+00 0. -1.
</event>
<event>
 7    1  0.4511059E-010  0.4778727E+02  0.7816164E-02  0.1312668E+00
        -11   -1    0    0    0    0  0.00000000000E+00  0.00000000000E+00  0.45593999997E+02  0.45594000000E+02  0.51100000000E-03 0.  1.
         11   -1    0    0    0    0 -0.00000000000E+00 -0.00000000000E+00 -0.45593999997E+02  0.45594000000E+02  0.51100000000E-03 0. -1.
    9900012    2    1    2    0    0 -0.10465222362E+02 -0.42103790134E+02  0.11718248346E+01  0.47787271939E+02  0.20000004080E+02 0.  0.
        -12    1    1    2    0    0  0.10465222362E+02  0.42103790134E+02 -0.11718248346E+01  0.43400728061E+02  0.00000000000E+00 0.  1.
         11    1    3    3    0    0 -0.66206914596E+01 -0.14883926939E+02 -0.33073019494E+01  0.16622366949E+02  0.51100000000E-03 0. -1.
        -11    1    3    3    0    0  0.41006016334E+01 -0.16177320252E+02 -0.45177488498E+00  0.16695050916E+02  0.51100000000E-03 0.  1.
        -12    1    3    3    0    0 -0.79451325357E+01 -0.11042542943E+02  0.49309016689E+01  0.14469854074E+02  0.00000000000E+00 0.  1.
</event>
<event>
 7    1  0.2983653E-010  0.4778727E+02  0.7816164E-02  0.1312668E+00
        -11   -1    0    0    0    0  0.00000000000E+00  0.00000000000E+00  0.45593999997E+02  0.45594000000E+02  0.51100000000E-03 0.  1.
         11   -1    0    0    0    0 -0.00000000000E+00 -0.00000000000E+00 -0.45593999997E+02  0.45594000000E+02  0.51100000000E-03 0. -1.
    9900012    2    1    2    0    0 -0.88987428681E+01 -0.39805421551E+02 -0.14831185026E+02  0.47787271218E+02  0.20000000792E+02 0.  0.
        -12    1    1    2    0    0  0.88987428681E+01  0.39805421551E+02  0.14831185026E+02  0.43400728782E+02  0.00000000000E+00 0.  1.
         11    1    3    3    0    0  0.15695814100E+01 -0.16983835385E+02 -0.13914607226E+02  0.22012054532E+02  0.51100000000E-03 0. -1.
        -11    1    3    3    0    0 -0.80315353622E+01 -0.14705496218E+02 -0.30632858353E+01  0.17033522820E+02  0.51100000000E-03 0.  1.
         12    1    3    3    0    0 -0.24367889159E+01 -0.81160899484E+01  0.21467080351E+01  0.87416938667E+01  0.00000000000E+00 0. -1.
</event>
<event>
 7    1  0.2983653E-010  0.4778727E+02  0.7816164E-02  0.1312668E+00
        -11   -1    0    0    0    0  0.00000000000E+00  0.00000000000E+00  0.45593999997E+02  0.45594000000E+02  0.51100000000E-03 0. -1.
         11   -1    0    0    0    0 -0.00000000000E+00 -0.00000000000E+00 -0.45593999997E+02  0.45594000000E+02  0.51100000000E-03 0.  1.
    9900012    2    1    2    0    0  0.35512128940E+02  0.20702145443E+02  0.13925985098E+02  0.47787272025E+02  0.20000004473E+02 0.  0.
        -12    1    1    2    0    0 -0.35512128940E+02 -0.20702145443E+02 -0.13925985098E+02  0.43400727975E+02  0.00000000000E+00 0.  1.
         11    1    3    3    0    0  0.22246229543E+02  0.14991636371E+02  0.14988473694E+02  0.30729435951E+02  0.51100000000E-03 0.  1.
        -11    1    3    3    0    0  0.11684293717E+02  0.36912980113E+01 -0.42471977488E+01  0.12968696529E+02  0.51100000000E-03 0. -1.
        -12    1    3    3    0    0  0.15816056801E+01  0.20192110605E+01  0.31847091530E+01  0.40891395456E+01  0.00000000000E+00 0.  1.
</event>
<event>
 7    1  0.2983653E-010  0.4778727E+02  0.7816164E-02  0.1312668E+00
        -11   -1    0    0    0    0  0.00000000000E+00  0.00000000000E+00  0.45593999997E+02  0.45594000000E+02  0.51100000000E-03 0.  1.
         11   -1    0    0    0    0 -0.00000000000E+00 -0.00000000000E+00 -0.45593999997E+02  0.45594000000E+02  0.51100000000E-03 0. -1.
    9900012    2    1    2    0    0  0.13721084925E+02 -0.39072932003E+02 -0.12986949643E+02  0.47787273649E+02  0.20000011873E+02 0.  0.
        -12    1    1    2    0    0 -0.13721084925E+02  0.39072932003E+02  0.12986949643E+02  0.43400726351E+02  0.00000000000E+00 0.  1.
         11    1    3    3    0    0 -0.26320655897E+01  0.48100341691E+00 -0.16527447077E+01  0.31449481530E+01  0.51100000000E-03 0. -1.
        -11    1    3    3    0    0  0.21045352212E+01 -0.71352736274E+01 -0.41176393743E+01  0.85027144203E+01  0.51100000000E-03 0.  1.
         12    1    3    3    0    0  0.14248615294E+02 -0.32418661792E+02 -0.72165655614E+01  0.36139611075E+02  0.00000000000E+00 0. -1.
</event>
<event>
 7    1  0.2983653E-010  0.4778727E+02  0.7816164E-02  0.1312668E+00
        -11   -1    0    0    0    0  0.00000000000E+00  0.00000000000E+00  0.45593999997E+02  0.45594000000E+02  0.51100000000E-03 0. -1.
         11   -1    0    0    0    0 -0.00000000000E+00 -0.00000000000E+00 -0.45593999997E+02  0.45594000000E+02  0.51100000000E-03 0.  1.
    9900012    2    1    2    0    0  0.33703939220E+02 -0.25647981079E+02  0.94788739862E+01  0.47787268388E+02  0.19999987889E+02 0.  0.
        -12    1    1    2    0    0 -0.33703939220E+02  0.25647981079E+02 -0.94788739862E+01  0.43400731612E+02  0.00000000000E+00 0.  1.
         11    1    3    3    0    0  0.31379061506E+01 -0.98190974980E+01 -0.28078508510E+01  0.10683873705E+02  0.51100000000E-03 0. -1.
        -11    1    3    3    0    0  0.11751858318E+02 -0.33556039172E+01  0.62994593764E+01  0.13749525092E+02  0.51100000000E-03 0.  1.
         12    1    3    3    0    0  0.18814174752E+02 -0.12473279664E+02  0.59872654608E+01  0.23353869591E+02  0.00000000000E+00 0. -1.
</event>
<event>
 7    1  0.2983653E-010  0.4778727E+02  0.7816164E-02  0.1312668E+00
        -11   -1    0    0    0    0  0.00000000000E+00  0.00000000000E+00  0.45593999997E+02  0.45594000000E+02  0.51100000000E-03 0.  1.
         11   -1    0    0    0    0 -0.00000000000E+00 -0.00000000000E+00 -0.45593999997E+02  0.45594000000E+02  0.51100000000E-03 0. -1.
    9900012    2    1    2    0    0 -0.94013561524E+01  0.32232565375E+02 -0.27500896025E+02  0.47787273620E+02  0.20000011741E+02 0.  0.
        -12    1    1    2    0    0  0.94013561524E+01 -0.32232565375E+02  0.27500896025E+02  0.43400726380E+02  0.00000000000E+00 0.  1.
         11    1    3    3    0    0 -0.16439036716E+01  0.19558906133E+02 -0.15627469923E+02  0.25089261544E+02  0.51100000000E-03 0. -1.
        -11    1    3    3    0    0 -0.99802655741E+01  0.48535936582E+01 -0.80740240105E+01  0.13724173429E+02  0.51100000000E-03 0.  1.
        -12    1    3    3    0    0  0.22228130932E+01  0.78200655845E+01 -0.37994020915E+01  0.89738386461E+01  0.00000000000E+00 0.  1.
</event>
<event>
 7    1  0.2983653E-010  0.4778727E+02  0.7816164E-02  0.1312668E+00
        -11   -1    0    0    0    0  0.00000000000E+00  0.00000000000E+00  0.45593999997E+02  0.45594000000E+02  0.51100000000E-03 0. -1.
         11   -1    0    0    0    0 -0.00000000000E+00 -0.00000000000E+00 -0.45593999997E+02  0.45594000000E+02  0.51100000000E-03 0.  1.
    9900012    2    1    2    0    0  0.13424780787E+02 -0.29528287748E+02  0.28835374054E+02  0.47787270590E+02  0.19999997928E+02 0.  0.
        -12    1    1    2    0    0 -0.13424780787E+02  0.29528287748E+02 -0.28835374054E+02  0.43400729410E+02  0.00000000000E+00 0.  1.
         11    1    3    3    0    0 -0.49239438793E+00  0.18398764182E+01  0.32335716903E+01  0.37528100945E+01  0.51100000000E-03 0.  1.
        -11    1    3    3    0    0  0.93714602535E+01 -0.23564282684E+02  0.12907383830E+02  0.28455232266E+02  0.51100000000E-03 0. -1.
        -12    1    3    3    0    0  0.45457149214E+01 -0.78038814821E+01  0.12694418533E+02  0.15579228230E+02  0.00000000000E+00 0.  1.
</event>
<event>
 7    1  0.2983653E-010  0.4778727E+02  0.7816164E-02  0.1312668E+00
        -11   -1    0    0    0    0  0.00000000000E+00  0.00000000000E+00  0.45593999997E+02  0.45594000000E+02  0.51100000000E-03 0.  1.
         11   -1    0    0    0    0 -0.00000000000E+00 -0.00000000000E+00 -0.45593999997E+02  0.45594000000E+02  0.51100000000E-03 0. -1.
    9900012    2    1    2    0    0 -0.39296369490E+02 -0.18160817611E+02  0.30989604002E+01  0.47787268359E+02  0.19999987755E+02 0.  0.
        -12    1    1    2    0    0  0.39296369490E+02  0.18160817611E+02 -0.30989604002E+01  0.43400731641E+02  0.00000000000E+00 0.  1.
         11    1    3    3    0    0 -0.12723270097E+02  0.15394493448E+01  0.27122369637E+01  0.13099913582E+02  0.51100000000E-03 0. -1.
        -11    1    3    3    0    0 -0.53978280075E+01 -0.77784057673E+00  0.29028518680E+01  0.61780362891E+01  0.51100000000E-03 0.  1.
         12    1    3    3    0    0 -0.21175271386E+02 -0.18922426379E+02 -0.25161284314E+01  0.28509318488E+02  0.00000000000E+00 0. -1.
</event>
<event>
 7    1  0.2983653E-010  0.4778727E+02  0.7816164E-02  0.1312668E+00
        -11   -1    0    0    0    0  0.00000000000E+00  0.00000000000E+00  0.45593999997E+02  0.45594000000E+02  0.51100000000E-03 0.  1.
         11   -1    0    0    0    0 -0.00000000000E+00 -0.00000000000E+00 -0.45593999997E+02  0.45594000000E+02  0.51100000000E-03 0. -1.
    9900012    2    1    2    0    0 -0.13692401739E+02  0.18972656253E+02 -0.36553797410E+02  0.47787266645E+02  0.19999979942E+02 0.  0.
        -12    1    1    2    0    0  0.13692401739E+02 -0.18972656253E+02  0.36553797410E+02  0.43400733355E+02  0.00000000000E+00 0.  1.
         11    1    3    3    0    0 -0.13870472526E+02  0.16520741483E+02 -0.30969444596E+02  0.37741640215E+02  0.51100000000E-03 0. -1.
        -11    1    3    3    0    0 -0.12759491781E+01 -0.26186223249E+01 -0.10717094159E+01  0.31038348086E+01  0.51100000000E-03 0.  1.
        -12    1    3    3    0    0  0.14540199650E+01  0.50705370942E+01 -0.45126433974E+01  0.69417916214E+01  0.00000000000E+00 0.  1.
</event>
<event>
 7    1  0.2983653E-010  0.4778726E+02  0.7816164E-02  0.1312668E+00
        -11   -1    0    0    0    0  0.00000000000E+00  0.00000000000E+00  0.45593999997E+02  0.45594000000E+02  0.51100000000E-03 0.  1.
         11   -1    0    0    0    0 -0.00000000000E+00 -0.00000000000E+00 -0.45593999997E+02  0.45594000000E+02  0.51100000000E-03 0. -1.
    9900012    2    1    2    0    0 -0.69708665995E+00 -0.60408055396E+00 -0.43390935818E+02  0.47787260902E+02  0.19999953755E+02 0.  0.
        -12    1    1    2    0    0  0.69708665995E+00  0.60408055396E+00  0.43390935818E+02  0.43400739098E+02  0.00000000000E+00 0.  1.
         11    1    3    3    0    0 -0.19732698470E+01 -0.76486192421E+01 -0.10157703899E+02  0.12867560723E+02  0.51100000000E-03 0.  1.
        -11    1    3    3    0    0  0.29078113621E+01  0.38629352994E+01 -0.73958061051E+01  0.88360389457E+01  0.51100000000E-03 0. -1.
         12    1    3    3    0    0 -0.16316281751E+01  0.31816033888E+01 -0.25837425814E+02  0.26083661233E+02  0.00000000000E+00 0. -1.
</event>
<event>
 7    1  0.2983653E-010  0.4778727E+02  0.7816164E-02  0.1312668E+00
        -11   -1    0    0    0    0  0.00000000000E+00  0.00000000000E+00  0.45593999997E+02  0.45594000000E+02  0.51100000000E-03 0.  1.
         11   -1    0    0    0    0 -0.00000000000E+00 -0.00000000000E+00 -0.45593999997E+02  0.45594000000E+02  0.51100000000E-03 0. -1.
    9900012    2    1    2    0    0 -0.26864686085E+02  0.23679707888E+02 -0.24519048847E+02  0.47787266360E+02  0.19999978643E+02 0.  0.
        -12    1    1    2    0    0  0.26864686085E+02 -0.23679707888E+02  0.24519048847E+02  0.43400733640E+02  0.00000000000E+00 0.  1.
         11    1    3    3    0    0 -0.56123224428E+01  0.11902856476E+02 -0.31632886143E+01  0.13534494841E+02  0.51100000000E-03 0. -1.
        -11    1    3    3    0    0 -0.12727944158E+02  0.62603222097E+00 -0.10314556171E+02  0.16394588989E+02  0.51100000000E-03 0.  1.
        -12    1    3    3    0    0 -0.85244194843E+01  0.11150819191E+02 -0.11041204061E+02  0.17858182531E+02  0.00000000000E+00 0.  1.
</event>
<event>
 7    1  0.2983653E-010  0.4778727E+02  0.7816164E-02  0.1312668E+00
        -11   -1    0    0    0    0  0.00000000000E+00  0.00000000000E+00  0.45593999997E+02  0.45594000000E+02  0.51100000000E-03 0. -1.
         11   -1    0    0    0    0 -0.00000000000E+00 -0.00000000000E+00 -0.45593999997E+02  0.45594000000E+02  0.51100000000E-03 0.  1.
    9900012    2    1    2    0    0 -0.17291315674E+01  0.40286019949E+02  0.16052095414E+02  0.47787273434E+02  0.20000010895E+02 0.  0.
        -12    1    1    2    0    0  0.17291315674E+01 -0.40286019949E+02 -0.16052095414E+02  0.43400726566E+02  0.00000000000E+00 0.  1.
         11    1    3    3    0    0  0.56799261831E+01  0.26888273919E+01  0.39124306564E+01  0.74025987391E+01  0.51100000000E-03 0. -1.
        -11    1    3    3    0    0 -0.40823415397E+01  0.16799101329E+02  0.36116639038E+01  0.17661241019E+02  0.51100000000E-03 0.  1.
         12    1    3    3    0    0 -0.33267162108E+01  0.20798091228E+02  0.85280008542E+01  0.22723433676E+02  0.00000000000E+00 0. -1.
</event>
<event>
 7    1  0.2983653E-010  0.4778726E+02  0.7816164E-02  0.1312668E+00
        -11   -1    0    0    0    0  0.00000000000E+00  0.00000000000E+00  0.45593999997E+02  0.45594000000E+02  0.51100000000E-03 0.  1.
         11   -1    0    0    0    0 -0.00000000000E+00 -0.00000000000E+00 -0.45593999997E+02  0.45594000000E+02  0.51100000000E-03 0. -1.
    9900012    2    1    2    0    0 -0.16732181535E+02  0.49444208654E+01 -0.39739289582E+02  0.47787258842E+02  0.19999944363E+02 0.  0.
        -12    1    1    2    0    0  0.16732181535E+02 -0.49444208654E+01  0.39739289582E+02  0.43400741158E+02  0.00000000000E+00 0.  1.
         11    1    3    3    0    0 -0.13681169933E+02 -0.25205382392E+01 -0.23890808375E+02  0.27645944528E+02  0.51100000000E-03 0. -1.
        -11    1    3    3    0    0 -0.15325387971E+01 -0.12324349970E+01  0.37250679752E-01  0.19669669699E+01  0.51100000000E-03 0.  1.
         12    1    3    3    0    0 -0.15184728051E+01  0.86973941016E+01 -0.15885731886E+02  0.18174347344E+02  0.00000000000E+00 0. -1.
</event>
<event>
 7    1  0.4373250E-010  0.4778725E+02  0.7816164E-02  0.1312668E+00
        -11   -1    0    0    0    0  0.00000000000E+00  0.00000000000E+00  0.45593999997E+02  0.45594000000E+02  0.51100000000E-03 0.  1.
         11   -1    0    0    0    0 -0.00000000000E+00 -0.00000000000E+00 -0.45593999997E+02  0.45594000000E+02  0.51100000000E-03 0. -1.
    9900012    2    1    2    0    0 -0.41842050484E+02 -0.86091108905E+01 -0.76648999437E+01  0.47787254958E+02  0.19999926655E+02 0.  0.
        -12    1    1    2    0    0  0.41842050484E+02  0.86091108905E+01  0.76648999437E+01  0.43400745042E+02  0.00000000000E+00 0.  1.
         11    1    3    3    0    0 -0.12201647365E+02 -0.15262254110E+01 -0.38981042376E+01  0.12899797647E+02  0.51100000000E-03 0. -1.
        -11    1    3    3    0    0 -0.21845732195E+02 -0.12161664164E+02 -0.50149799821E+01  0.25500825768E+02  0.51100000000E-03 0.  1.
        -12    1    3    3    0    0 -0.77946709244E+01  0.50787786841E+01  0.12481842760E+01  0.93866315432E+01  0.00000000000E+00 0.  1.
</event>
<event>
 7    1  0.2983653E-010  0.4778727E+02  0.7816164E-02  0.1312668E+00
        -11   -1    0    0    0    0  0.00000000000E+00  0.00000000000E+00  0.45593999997E+02  0.45594000000E+02  0.51100000000E-03 0.  1.
         11   -1    0    0    0    0 -0.00000000000E+00 -0.00000000000E+00 -0.45593999997E+02  0.45594000000E+02  0.51100000000E-03 0. -1.
    9900012    2    1    2    0    0 -0.19160869725E+02  0.13440416846E+02 -0.36549141868E+02  0.47787268383E+02  0.19999987865E+02 0.  0.
        -12    1    1    2    0    0  0.19160869725E+02 -0.13440416846E+02  0.36549141868E+02  0.43400731617E+02  0.00000000000E+00 0.  1.
         11    1    3    3    0    0 -0.72182496474E+01  0.88549970779E+01 -0.25788576367E+02  0.28205757790E+02  0.51100000000E-03 0. -1.
        -11    1    3    3    0    0 -0.23471727063E+01 -0.34156273658E+00 -0.81437956114E+01  0.84821749592E+01  0.51100000000E-03 0.  1.
         12    1    3    3    0    0 -0.95954473708E+01  0.49269825046E+01 -0.26167698900E+01  0.11099335633E+02  0.00000000000E+00 0. -1.
</event>
<event>
 7    1  0.2983653E-010  0.4778727E+02  0.7816164E-02  0.1312668E+00
        -11   -1    0    0    0    0  0.00000000000E+00  0.00000000000E+00  0.45593999997E+02  0.45594000000E+02  0.51100000000E-03 0.  1.
         11   -1    0    0    0    0 -0.00000000000E+00 -0.00000000000E+00 -0.45593999997E+02  0.45594000000E+02  0.51100000000E-03 0. -1.
    9900012    2    1    2    0    0 -0.29635183806E+02  0.14870267456E+02 -0.28004542780E+02  0.47787269710E+02  0.19999993916E+02 0.  0.
        -12    1    1    2    0    0  0.29635183806E+02 -0.14870267456E+02  0.28004542780E+02  0.43400730290E+02  0.00000000000E+00 0.  1.
         11    1    3    3    0    0 -0.97802730518E+01 -0.25599651447E+01 -0.38381764634E+01  0.10813822698E+02  0.51100000000E-03 0. -1.
        -11    1    3    3    0    0 -0.40366354775E+01  0.15707195342E+01 -0.88045088331E+01  0.98122862721E+01  0.51100000000E-03 0.  1.
         12    1    3    3    0    0 -0.15818275276E+02  0.15859513067E+02 -0.15361857483E+02  0.27161160740E+02  0.00000000000E+00 0. -1.
</event>
<event>
 7    1  0.2983653E-010  0.4778727E+02  0.7816164E-02  0.1312668E+00
        -11   -1    0    0    0    0  0.00000000000E+00  0.00000000000E+00  0.45593999997E+02  0.45594000000E+02  0.51100000000E-03 0.  1.
         11   -1    0    0    0    0 -0.00000000000E+00 -0.00000000000E+00 -0.45593999997E+02  0.45594000000E+02  0.51100000000E-03 0. -1.
    9900012    2    1    2    0    0  0.34577352089E+02  0.12904637688E+00 -0.26230009901E+02  0.47787270169E+02  0.19999996007E+02 0.  0.
        -12    1    1    2    0    0 -0.34577352089E+02 -0.12904637688E+00  0.26230009901E+02  0.43400729831E+02  0.00000000000E+00 0.  1.
         11    1    3    3    0    0  0.10037763241E+02  0.41734038973E+01 -0.16144548065E+02  0.19463309674E+02  0.51100000000E-03 0. -1.
        -11    1    3    3    0    0  0.58586008991E+01 -0.44934065878E+00 -0.68537076956E+01  0.90276475873E+01  0.51100000000E-03 0.  1.
         12    1    3    3    0    0  0.18680987949E+02 -0.35950168616E+01 -0.32317541403E+01  0.19296312907E+02  0.00000000000E+00 0. -1.
</event>
<event>
 7    1  0.2983653E-010  0.4778727E+02  0.7816164E-02  0.1312668E+00
        -11   -1    0    0    0    0  0.00000000000E+00  0.00000000000E+00  0.45593999997E+02  0.45594000000E+02  0.51100000000E-03 0.  1.
         11   -1    0    0    0    0 -0.00000000000E+00 -0.00000000000E+00 -0.45593999997E+02  0.45594000000E+02  0.51100000000E-03 0. -1.
    9900012    2    1    2    0    0  0.58552208860E+01  0.30513342826E+01 -0.42895558601E+02  0.47787271893E+02  0.20000003868E+02 0.  0.
        -12    1    1    2    0    0 -0.58552208860E+01 -0.30513342826E+01  0.42895558601E+02  0.43400728107E+02  0.00000000000E+00 0.  1.
         11    1    3    3    0    0  0.60532751091E-01  0.48580800783E+01 -0.48861416570E+01  0.68904997507E+01  0.51100000000E-03 0. -1.
        -11    1    3    3    0    0  0.13072437678E+01 -0.73859594876E+01 -0.14558096118E+02  0.16376795983E+02  0.51100000000E-03 0.  1.
        -12    1    3    3    0    0  0.44874443672E+01  0.55792136919E+01 -0.23451320826E+02  0.24519976160E+02  0.00000000000E+00 0.  1.
</event>
<event>
 7    1  0.2983653E-010  0.4778727E+02  0.7816164E-02  0.1312668E+00
        -11   -1    0    0    0    0  0.00000000000E+00  0.00000000000E+00  0.45593999997E+02  0.45594000000E+02  0.51100000000E-03 0.  1.
         11   -1    0    0    0    0 -0.00000000000E+00 -0.00000000000E+00 -0.45593999997E+02  0.45594000000E+02  0.51100000000E-03 0. -1.
    9900012    2    1    2    0    0 -0.33439371362E+02 -0.26687175474E+02 -0.72956363043E+01  0.47787271885E+02  0.20000003831E+02 0.  0.
        -12    1    1    2    0    0  0.33439371362E+02  0.26687175474E+02  0.72956363043E+01  0.43400728115E+02  0.00000000000E+00 0.  1.
         11    1    3    3    0    0 -0.16510044017E+02 -0.14560890456E+02 -0.11737555421E+02  0.24947370439E+02  0.51100000000E-03 0. -1.
        -11    1    3    3    0    0 -0.74348258476E+01 -0.92733910002E+01  0.50350935838E+01  0.12908314518E+02  0.51100000000E-03 0.  1.
        -12    1    3    3    0    0 -0.94945014973E+01 -0.28528940179E+01 -0.59317446761E+00  0.99315869281E+01  0.00000000000E+00 0.  1.
</event>
<event>
 7    1  0.2983653E-010  0.4778727E+02  0.7816164E-02  0.1312668E+00
        -11   -1    0    0    0    0  0.00000000000E+00  0.00000000000E+00  0.45593999997E+02  0.45594000000E+02  0.51100000000E-03 0.  1.
         11   -1    0    0    0    0 -0.00000000000E+00 -0.00000000000E+00 -0.45593999997E+02  0.45594000000E+02  0.51100000000E-03 0. -1.
    9900012    2    1    2    0    0  0.89799894440E-01 -0.37766510530E+02  0.21384708868E+02  0.47787272414E+02  0.20000006246E+02 0.  0.
        -12    1    1    2    0    0 -0.89799894440E-01  0.37766510530E+02 -0.21384708868E+02  0.43400727586E+02  0.00000000000E+00 0.  1.
         11    1    3    3    0    0  0.67184840465E+01 -0.23835241126E+02  0.92753431420E+01  0.26444068108E+02  0.51100000000E-03 0. -1.
        -11    1    3    3    0    0 -0.30880019987E+01 -0.60166383764E+01  0.10553149131E+02  0.12534139402E+02  0.51100000000E-03 0.  1.
         12    1    3    3    0    0 -0.35406821534E+01 -0.79146310276E+01  0.15562165946E+01  0.88090649051E+01  0.00000000000E+00 0. -1.
</event>
<event>
 7    1  0.2983653E-010  0.4778727E+02  0.7816164E-02  0.1312668E+00
        -11   -1    0    0    0    0  0.00000000000E+00  0.00000000000E+00  0.45593999997E+02  0.45594000000E+02  0.51100000000E-03 0.  1.
         11   -1    0    0    0    0 -0.00000000000E+00 -0.00000000000E+00 -0.45593999997E+02  0.45594000000E+02  0.51100000000E-03 0. -1.
    9900012    2    1    2    0    0  0.37486186480E+02  0.59876245950E+01  0.21037056234E+02  0.47787267747E+02  0.19999984964E+02 0.  0.
        -12    1    1    2    0    0 -0.37486186480E+02 -0.59876245950E+01 -0.21037056234E+02  0.43400732253E+02  0.00000000000E+00 0.  1.
         11    1    3    3    0    0  0.24400029658E+01  0.34680687601E+01 -0.51239704976E+00  0.42712605160E+01  0.51100000000E-03 0. -1.
        -11    1    3    3    0    0  0.25978032789E+02 -0.38228651807E+01  0.18219791336E+02  0.31959869874E+02  0.51100000000E-03 0.  1.
        -12    1    3    3    0    0  0.90681507252E+01  0.63424210155E+01  0.33296619475E+01  0.11556137356E+02  0.00000000000E+00 0.  1.
</event>
<event>
 7    1  0.2983653E-010  0.4778727E+02  0.7816164E-02  0.1312668E+00
        -11   -1    0    0    0    0  0.00000000000E+00  0.00000000000E+00  0.45593999997E+02  0.45594000000E+02  0.51100000000E-03 0. -1.
         11   -1    0    0    0    0 -0.00000000000E+00 -0.00000000000E+00 -0.45593999997E+02  0.45594000000E+02  0.51100000000E-03 0.  1.
    9900012    2    1    2    0    0 -0.23942027962E+02  0.76978684102E+01  0.35371533064E+02  0.47787271523E+02  0.20000002183E+02 0.  0.
        -12    1    1    2    0    0  0.23942027962E+02 -0.76978684102E+01 -0.35371533064E+02  0.43400728477E+02  0.00000000000E+00 0.  1.
         11    1    3    3    0    0 -0.74293222571E+00  0.73004182214E+01  0.99423786114E+01  0.12357141547E+02  0.51100000000E-03 0. -1.
        -11    1    3    3    0    0 -0.23407896989E+02 -0.40457007658E+00  0.22822699484E+02  0.32695090310E+02  0.51100000000E-03 0.  1.
        -12    1    3    3    0    0  0.20880125255E+00  0.80202026538E+00  0.26064549688E+01  0.27350396658E+01  0.00000000000E+00 0.  1.
</event>
<event>
 7    1  0.2983653E-010  0.4778729E+02  0.7816164E-02  0.1312668E+00
        -11   -1    0    0    0    0  0.00000000000E+00  0.00000000000E+00  0.45593999997E+02  0.45594000000E+02  0.51100000000E-03 0. -1.
         11   -1    0    0    0    0 -0.00000000000E+00 -0.00000000000E+00 -0.45593999997E+02  0.45594000000E+02  0.51100000000E-03 0.  1.
    9900012    2    1    2    0    0 -0.28744499192E+02  0.28833687374E+02  0.15033087844E+02  0.47787291578E+02  0.20000093622E+02 0.  0.
        -12    1    1    2    0    0  0.28744499192E+02 -0.28833687374E+02 -0.15033087844E+02  0.43400708422E+02  0.00000000000E+00 0.  1.
         11    1    3    3    0    0 -0.86274656133E+01  0.54100273406E+01  0.61203745653E+00  0.10201771848E+02  0.51100000000E-03 0. -1.
        -11    1    3    3    0    0 -0.43591162772E+00  0.11689808031E+02  0.35557381253E+01  0.12226401949E+02  0.51100000000E-03 0.  1.
        -12    1    3    3    0    0 -0.19681121951E+02  0.11733852003E+02  0.10865312263E+02  0.25359117781E+02  0.00000000000E+00 0.  1.
</event>
<event>
 7    1  0.2983653E-010  0.4778727E+02  0.7816164E-02  0.1312668E+00
        -11   -1    0    0    0    0  0.00000000000E+00  0.00000000000E+00  0.45593999997E+02  0.45594000000E+02  0.51100000000E-03 0.  1.
         11   -1    0    0    0    0 -0.00000000000E+00 -0.00000000000E+00 -0.45593999997E+02  0.45594000000E+02  0.51100000000E-03 0. -1.
    9900012    2    1    2    0    0 -0.15349912894E+02  0.30437189741E+02 -0.26862257648E+02  0.47787271537E+02  0.20000002246E+02 0.  0.
        -12    1    1    2    0    0  0.15349912894E+02 -0.30437189741E+02  0.26862257648E+02  0.43400728463E+02  0.00000000000E+00 0.  1.
         11    1    3    3    0    0 -0.96219448751E+01  0.73960927537E+01 -0.15999172508E+02  0.20081273176E+02  0.51100000000E-03 0. -1.
        -11    1    3    3    0    0  0.56736765828E+00 -0.71372390384E+00 -0.34434613917E+00  0.97461910265E+00  0.51100000000E-03 0.  1.
         12    1    3    3    0    0 -0.62953356770E+01  0.23754820891E+02 -0.10518739001E+02  0.26731379258E+02  0.00000000000E+00 0. -1.
</event>
<event>
 7    1  0.4142009E-010  0.4778725E+02  0.7816164E-02  0.1312668E+00
        -11   -1    0    0    0    0  0.00000000000E+00  0.00000000000E+00  0.45593999997E+02  0.45594000000E+02  0.51100000000E-03 0. -1.
         11   -1    0    0    0    0 -0.00000000000E+00 -0.00000000000E+00 -0.45593999997E+02  0.45594000000E+02  0.51100000000E-03 0.  1.
    9900012    2    1    2    0    0  0.29056079795E+02  0.93889615708E+01  0.30841795201E+02  0.47787254573E+02  0.19999924899E+02 0.  0.
        -12    1    1    2    0    0 -0.29056079795E+02 -0.93889615708E+01 -0.30841795201E+02  0.43400745427E+02  0.00000000000E+00 0.  1.
         11    1    3    3    0    0  0.54860524145E+01  0.32651975547E+01  0.61101498783E+01  0.88369801381E+01  0.51100000000E-03 0. -1.
        -11    1    3    3    0    0  0.16652551762E+02  0.12379516106E+02  0.16499431360E+02  0.26510208122E+02  0.51100000000E-03 0.  1.
        -12    1    3    3    0    0  0.69174756189E+01 -0.62557520897E+01  0.82322139623E+01  0.12440066313E+02  0.00000000000E+00 0.  1.
</event>
<event>
 7    1  0.2983653E-010  0.4778727E+02  0.7816164E-02  0.1312668E+00
        -11   -1    0    0    0    0  0.00000000000E+00  0.00000000000E+00  0.45593999997E+02  0.45594000000E+02  0.51100000000E-03 0. -1.
         11   -1    0    0    0    0 -0.00000000000E+00 -0.00000000000E+00 -0.45593999997E+02  0.45594000000E+02  0.51100000000E-03 0.  1.
    9900012    2    1    2    0    0  0.12318355406E+02  0.41467135562E+02  0.35153744726E+01  0.47787273401E+02  0.20000010744E+02 0.  0.
        -12    1    1    2    0    0 -0.12318355406E+02 -0.41467135562E+02 -0.35153744726E+01  0.43400726599E+02  0.00000000000E+00 0.  1.
         11    1    3    3    0    0  0.28036209223E+01  0.16119798550E+02  0.23424098690E+01  0.16528613972E+02  0.51100000000E-03 0.  1.
        -11    1    3    3    0    0  0.74126262483E+01  0.18348548195E+02  0.79173998972E+01  0.21314348926E+02  0.51100000000E-03 0. -1.
        -12    1    3    3    0    0  0.21021082353E+01  0.69987888170E+01 -0.67444352936E+01  0.99443105024E+01  0.00000000000E+00 0.  1.
</event>
<event>
 7    1  0.2983653E-010  0.4778727E+02  0.7816164E-02  0.1312668E+00
        -11   -1    0    0    0    0  0.00000000000E+00  0.00000000000E+00  0.45593999997E+02  0.45594000000E+02  0.51100000000E-03 0.  1.
         11   -1    0    0    0    0 -0.00000000000E+00 -0.00000000000E+00 -0.45593999997E+02  0.45594000000E+02  0.51100000000E-03 0. -1.
    9900012    2    1    2    0    0 -0.20309119924E+02  0.28586249792E+02 -0.25573211662E+02  0.47787272081E+02  0.20000004725E+02 0.  0.
        -12    1    1    2    0    0  0.20309119924E+02 -0.28586249792E+02  0.25573211662E+02  0.43400727919E+02  0.00000000000E+00 0.  1.
         11    1    3    3    0    0 -0.15366657768E+01  0.16198146133E+02 -0.69320762589E+01  0.17686010330E+02  0.51100000000E-03 0. -1.
        -11    1    3    3    0    0 -0.10582640920E+02  0.31592535438E+01 -0.11002844845E+02  0.15589604445E+02  0.51100000000E-03 0.  1.
        -12    1    3    3    0    0 -0.81898132270E+01  0.92288501143E+01 -0.76382905581E+01  0.14511657306E+02  0.00000000000E+00 0.  1.
</event>
<event>
 7    1  0.2983653E-010  0.4778727E+02  0.7816164E-02  0.1312668E+00
        -11   -1    0    0    0    0  0.00000000000E+00  0.00000000000E+00  0.45593999997E+02  0.45594000000E+02  0.51100000000E-03 0.  1.
         11   -1    0    0    0    0 -0.00000000000E+00 -0.00000000000E+00 -0.45593999997E+02  0.45594000000E+02  0.51100000000E-03 0. -1.
    9900012    2    1    2    0    0  0.39049377198E+02 -0.14058509397E+02 -0.12693611960E+02  0.47787270391E+02  0.19999997019E+02 0.  0.
        -12    1    1    2    0    0 -0.39049377198E+02  0.14058509397E+02  0.12693611960E+02  0.43400729609E+02  0.00000000000E+00 0.  1.
         11    1    3    3    0    0 -0.13753992488E+01  0.90494530621E+00 -0.13869668250E+01  0.21527485537E+01  0.51100000000E-03 0. -1.
        -11    1    3    3    0    0  0.90221655067E+01 -0.54622678831E+01 -0.67230437580E+01  0.12507404147E+02  0.51100000000E-03 0.  1.
         12    1    3    3    0    0  0.31402610940E+02 -0.95011868202E+01 -0.45836013768E+01  0.33127117690E+02  0.00000000000E+00 0. -1.
</event>
<event>
 7    1  0.2983653E-010  0.4778728E+02  0.7816164E-02  0.1312668E+00
        -11   -1    0    0    0    0  0.00000000000E+00  0.00000000000E+00  0.45593999997E+02  0.45594000000E+02  0.51100000000E-03 0. -1.
         11   -1    0    0    0    0 -0.00000000000E+00 -0.00000000000E+00 -0.45593999997E+02  0.45594000000E+02  0.51100000000E-03 0.  1.
    9900012    2    1    2    0    0  0.10777934992E+02  0.39683857767E+01  0.41853445389E+02  0.47787275821E+02  0.20000021777E+02 0.  0.
        -12    1    1    2    0    0 -0.10777934992E+02 -0.39683857767E+01 -0.41853445389E+02  0.43400724179E+02  0.00000000000E+00 0.  1.
         11    1    3    3    0    0  0.82992362584E+00  0.12941840865E+01  0.18307591207E+02  0.18372032596E+02  0.51100000000E-03 0. -1.
        -11    1    3    3    0    0  0.69657859766E+00 -0.14850299954E+01  0.17561868572E+02  0.17638303882E+02  0.51100000000E-03 0.  1.
        -12    1    3    3    0    0  0.92514327685E+01  0.41592316856E+01  0.59839856099E+01  0.11776939342E+02  0.00000000000E+00 0.  1.
</event>
<event>
 7    1  0.2983653E-010  0.4778727E+02  0.7816164E-02  0.1312668E+00
        -11   -1    0    0    0    0  0.00000000000E+00  0.00000000000E+00  0.45593999997E+02  0.45594000000E+02  0.51100000000E-03 0. -1.
         11   -1    0    0    0    0 -0.00000000000E+00 -0.00000000000E+00 -0.45593999997E+02  0.45594000000E+02  0.51100000000E-03 0.  1.
    9900012    2    1    2    0    0  0.14501154470E+02 -0.18228711572E+02  0.36620403821E+02  0.47787269793E+02  0.19999994293E+02 0.  0.
        -12    1    1    2    0    0 -0.14501154470E+02  0.18228711572E+02 -0.36620403821E+02  0.43400730207E+02  0.00000000000E+00 0.  1.
         11    1    3    3    0    0  0.32055009006E+01 -0.13629895032E+02  0.12635209512E+02  0.18859952128E+02  0.51100000000E-03 0. -1.
        -11    1    3    3    0    0  0.10410779071E+02  0.71033538276E+00  0.18515223590E+02  0.21253291559E+02  0.51100000000E-03 0.  1.
        -12    1    3    3    0    0  0.88487449862E+00 -0.53091519227E+01  0.54699707186E+01  0.76740261062E+01  0.00000000000E+00 0.  1.
</event>
<event>
 7    1  0.2983653E-010  0.4778729E+02  0.7816164E-02  0.1312668E+00
        -11   -1    0    0    0    0  0.00000000000E+00  0.00000000000E+00  0.45593999997E+02  0.45594000000E+02  0.51100000000E-03 0. -1.
         11   -1    0    0    0    0 -0.00000000000E+00 -0.00000000000E+00 -0.45593999997E+02  0.45594000000E+02  0.51100000000E-03 0.  1.
    9900012    2    1    2    0    0  0.35067798690E+02  0.24910286711E+02  0.57748505513E+01  0.47787288163E+02  0.20000078052E+02 0.  0.
        -12    1    1    2    0    0 -0.35067798690E+02 -0.24910286711E+02 -0.57748505513E+01  0.43400711837E+02  0.00000000000E+00 0.  1.
         11    1    3    3    0    0  0.18527606132E+02  0.64400856910E+01  0.41275599943E+01  0.20044541513E+02  0.51100000000E-03 0. -1.
        -11    1    3    3    0    0  0.25583031658E+01  0.92468987238E+01  0.47533172545E+01  0.10707197405E+02  0.51100000000E-03 0.  1.
        -12    1    3    3    0    0  0.13981889392E+02  0.92233022965E+01 -0.31060266975E+01  0.17035549245E+02  0.00000000000E+00 0.  1.
</event>
<event>
 7    1  0.2983653E-010  0.4778729E+02  0.7816164E-02  0.1312668E+00
        -11   -1    0    0    0    0  0.00000000000E+00  0.00000000000E+00  0.45593999997E+02  0.45594000000E+02  0.51100000000E-03 0.  1.
         11   -1    0    0    0    0 -0.00000000000E+00 -0.00000000000E+00 -0.45593999997E+02  0.45594000000E+02  0.51100000000E-03 0. -1.
    9900012    2    1    2    0    0 -0.70259790732E-01  0.12418565456E+02 -0.41586010792E+02  0.47787285743E+02  0.20000067016E+02 0.  0.
        -12    1    1    2    0    0  0.70259790732E-01 -0.12418565456E+02  0.41586010792E+02  0.43400714257E+02  0.00000000000E+00 0.  1.
         11    1    3    3    0    0 -0.95825176072E-01  0.13520829605E+01 -0.22854676737E+02  0.22894836968E+02  0.51100000000E-03 0. -1.
        -11    1    3    3    0    0  0.33543912373E+00  0.75022170065E+01 -0.19841973212E+01  0.77674203368E+01  0.51100000000E-03 0.  1.
        -12    1    3    3    0    0 -0.30987373839E+00  0.35642654890E+01 -0.16747136734E+02  0.17125028438E+02  0.00000000000E+00 0.  1.
</event>
<event>
 7    1  0.2983653E-010  0.4778726E+02  0.7816164E-02  0.1312668E+00
        -11   -1    0    0    0    0  0.00000000000E+00  0.00000000000E+00  0.45593999997E+02  0.45594000000E+02  0.51100000000E-03 0.  1.
         11   -1    0    0    0    0 -0.00000000000E+00 -0.00000000000E+00 -0.45593999997E+02  0.45594000000E+02  0.51100000000E-03 0. -1.
    9900012    2    1    2    0    0  0.32267541359E+01  0.38346021598E+02  0.20069745786E+02  0.47787262557E+02  0.19999961303E+02 0.  0.
        -12    1    1    2    0    0 -0.32267541359E+01 -0.38346021598E+02 -0.20069745786E+02  0.43400737443E+02  0.00000000000E+00 0.  1.
         11    1    3    3    0    0  0.44041240582E+01  0.10046922804E+02  0.29651607706E+01  0.11363500570E+02  0.51100000000E-03 0. -1.
        -11    1    3    3    0    0  0.29936192841E+01  0.83361067975E+01  0.12823692599E+02  0.15585234200E+02  0.51100000000E-03 0.  1.
        -12    1    3    3    0    0 -0.41709892064E+01  0.19962991997E+02  0.42808924166E+01  0.20838527787E+02  0.00000000000E+00 0.  1.
</event>
<event>
 7    1  0.2983653E-010  0.4778727E+02  0.7816164E-02  0.1312668E+00
        -11   -1    0    0    0    0  0.00000000000E+00  0.00000000000E+00  0.45593999997E+02  0.45594000000E+02  0.51100000000E-03 0. -1.
         11   -1    0    0    0    0 -0.00000000000E+00 -0.00000000000E+00 -0.45593999997E+02  0.45594000000E+02  0.51100000000E-03 0.  1.
    9900012    2    1    2    0    0  0.94992344263E+00  0.36527859167E+02  0.23418715494E+02  0.47787273217E+02  0.20000009907E+02 0.  0.
        -12    1    1    2    0    0 -0.94992344263E+00 -0.36527859167E+02 -0.23418715494E+02  0.43400726783E+02  0.00000000000E+00 0.  1.
         11    1    3    3    0    0  0.63861257283E+01  0.97804346501E+01  0.14213766681E+02  0.18397572320E+02  0.51100000000E-03 0. -1.
        -11    1    3    3    0    0 -0.22699169222E+01  0.85529809284E+01  0.21924321211E+00  0.88517836306E+01  0.51100000000E-03 0.  1.
         12    1    3    3    0    0 -0.31662853635E+01  0.18194443589E+02  0.89857056013E+01  0.20537917267E+02  0.00000000000E+00 0. -1.
</event>
<event>
 7    1  0.2983653E-010  0.4778726E+02  0.7816164E-02  0.1312668E+00
        -11   -1    0    0    0    0  0.00000000000E+00  0.00000000000E+00  0.45593999997E+02  0.45594000000E+02  0.51100000000E-03 0.  1.
         11   -1    0    0    0    0 -0.00000000000E+00 -0.00000000000E+00 -0.45593999997E+02  0.45594000000E+02  0.51100000000E-03 0. -1.
    9900012    2    1    2    0    0  0.17986542593E+02 -0.10239024721E+02 -0.38148014686E+02  0.47787258461E+02  0.19999942626E+02 0.  0.
        -12    1    1    2    0    0 -0.17986542593E+02  0.10239024721E+02  0.38148014686E+02  0.43400741539E+02  0.00000000000E+00 0.  1.
         11    1    3    3    0    0  0.66654557709E+01 -0.12075070532E+02 -0.22666383093E+02  0.26533008721E+02  0.51100000000E-03 0. -1.
        -11    1    3    3    0    0  0.10491213677E+02  0.47615364949E+01 -0.12299030184E+02  0.16852416382E+02  0.51100000000E-03 0.  1.
        -12    1    3    3    0    0  0.82987314553E+00 -0.29254906845E+01 -0.31826014089E+01  0.44018333579E+01  0.00000000000E+00 0.  1.
</event>
<event>
 7    1  0.2983653E-010  0.4778727E+02  0.7816164E-02  0.1312668E+00
        -11   -1    0    0    0    0  0.00000000000E+00  0.00000000000E+00  0.45593999997E+02  0.45594000000E+02  0.51100000000E-03 0. -1.
         11   -1    0    0    0    0 -0.00000000000E+00 -0.00000000000E+00 -0.45593999997E+02  0.45594000000E+02  0.51100000000E-03 0.  1.
    9900012    2    1    2    0    0  0.62543757934E+01 -0.24548012888E+02  0.35240616890E+02  0.47787271526E+02  0.20000002194E+02 0.  0.
        -12    1    1    2    0    0 -0.62543757934E+01  0.24548012888E+02 -0.35240616890E+02  0.43400728474E+02  0.00000000000E+00 0.  1.
         11    1    3    3    0    0  0.56522822492E+01 -0.24679591922E+02  0.34687960806E+02  0.42945141485E+02  0.51100000000E-03 0. -1.
        -11    1    3    3    0    0 -0.19204996067E+01  0.86467777595E+00 -0.18298698397E+00  0.21141123179E+01  0.51100000000E-03 0.  1.
         12    1    3    3    0    0  0.25225931508E+01 -0.73309874142E+00  0.73564306864E+00  0.27280177224E+01  0.00000000000E+00 0. -1.
</event>
<event>
 7    1  0.2983653E-010  0.4778727E+02  0.7816164E-02  0.1312668E+00
        -11   -1    0    0    0    0  0.00000000000E+00  0.00000000000E+00  0.45593999997E+02  0.45594000000E+02  0.51100000000E-03 0. -1.
         11   -1    0    0    0    0 -0.00000000000E+00 -0.00000000000E+00 -0.45593999997E+02  0.45594000000E+02  0.51100000000E-03 0.  1.
    9900012    2    1    2    0    0  0.83504395209E+01 -0.42112846805E+02 -0.63562332280E+01  0.47787269510E+02  0.19999993002E+02 0.  0.
        -12    1    1    2    0    0 -0.83504395209E+01  0.42112846805E+02  0.63562332280E+01  0.43400730490E+02  0.00000000000E+00 0.  1.
         11    1    3    3    0    0  0.80850698685E+01 -0.24274138393E+02  0.15994452262E+01  0.25635139454E+02  0.51100000000E-03 0. -1.
        -11    1    3    3    0    0  0.10120242579E+00 -0.18739038226E+02 -0.89788778596E+01  0.20779365810E+02  0.51100000000E-03 0.  1.
         12    1    3    3    0    0  0.16416722657E+00  0.90032981403E+00  0.10231994054E+01  0.13727642462E+01  0.00000000000E+00 0. -1.
</event>
<event>
 7    1  0.2983653E-010  0.4778727E+02  0.7816164E-02  0.1312668E+00
        -11   -1    0    0    0    0  0.00000000000E+00  0.00000000000E+00  0.45593999997E+02  0.45594000000E+02  0.51100000000E-03 0. -1.
         11   -1    0    0    0    0 -0.00000000000E+00 -0.00000000000E+00 -0.45593999997E+02  0.45594000000E+02  0.51100000000E-03 0.  1.
    9900012    2    1    2    0    0 -0.26376995940E+02 -0.24490792109E+02  0.24250334855E+02  0.47787267823E+02  0.19999985310E+02 0.  0.
        -12    1    1    2    0    0  0.26376995940E+02  0.24490792109E+02 -0.24250334855E+02  0.43400732177E+02  0.00000000000E+00 0.  1.
         11    1    3    3    0    0 -0.59368927744E+01 -0.15206543136E+02  0.84532604621E+01  0.18383233194E+02  0.51100000000E-03 0. -1.
        -11    1    3    3    0    0 -0.20463303016E+02 -0.10266457305E+02  0.16478873144E+02  0.28208157973E+02  0.51100000000E-03 0.  1.
        -12    1    3    3    0    0  0.23199850034E-01  0.98220833139E+00 -0.68179875050E+00  0.11958766556E+01  0.00000000000E+00 0.  1.
</event>
<event>
 7    1  0.2983653E-010  0.4778727E+02  0.7816164E-02  0.1312668E+00
        -11   -1    0    0    0    0  0.00000000000E+00  0.00000000000E+00  0.45593999997E+02  0.45594000000E+02  0.51100000000E-03 0.  1.
         11   -1    0    0    0    0 -0.00000000000E+00 -0.00000000000E+00 -0.45593999997E+02  0.45594000000E+02  0.51100000000E-03 0. -1.
    9900012    2    1    2    0    0 -0.56121383513E+01 -0.10110720452E+02 -0.41831810983E+02  0.47787272183E+02  0.20000005191E+02 0.  0.
        -12    1    1    2    0    0  0.56121383513E+01  0.10110720452E+02  0.41831810983E+02  0.43400727817E+02  0.00000000000E+00 0.  1.
         11    1    3    3    0    0 -0.73380886755E+00 -0.72573505165E+01 -0.10233363041E+02  0.12566993728E+02  0.51100000000E-03 0. -1.
        -11    1    3    3    0    0 -0.54468034189E+01  0.50613277924E+01 -0.18012067904E+02  0.19486387478E+02  0.51100000000E-03 0.  1.
        -12    1    3    3    0    0  0.56847393519E+00 -0.79146977274E+01 -0.13586380038E+02  0.15733890977E+02  0.00000000000E+00 0.  1.
</event>
<event>
 7    1  0.2983653E-010  0.4778727E+02  0.7816164E-02  0.1312668E+00
        -11   -1    0    0    0    0  0.00000000000E+00  0.00000000000E+00  0.45593999997E+02  0.45594000000E+02  0.51100000000E-03 0.  1.
         11   -1    0    0    0    0 -0.00000000000E+00 -0.00000000000E+00 -0.45593999997E+02  0.45594000000E+02  0.51100000000E-03 0. -1.
    9900012    2    1    2    0    0  0.45825075508E+01 -0.31151431466E+02 -0.29869920961E+02  0.47787271480E+02  0.20000001987E+02 0.  0.
        -12    1    1    2    0    0 -0.45825075508E+01  0.31151431466E+02  0.29869920961E+02  0.43400728520E+02  0.00000000000E+00 0.  1.
         11    1    3    3    0    0  0.83270186048E+01 -0.63068146075E+01 -0.14183210332E+02  0.17614726933E+02  0.51100000000E-03 0. -1.
        -11    1    3    3    0    0 -0.15133698948E+01 -0.19909450542E+02 -0.10042688654E+02  0.22350214876E+02  0.51100000000E-03 0.  1.
        -12    1    3    3    0    0 -0.22311411592E+01 -0.49351663167E+01 -0.56440219745E+01  0.78223296718E+01  0.00000000000E+00 0.  1.
</event>
<event>
 7    1  0.2983653E-010  0.4778727E+02  0.7816164E-02  0.1312668E+00
        -11   -1    0    0    0    0  0.00000000000E+00  0.00000000000E+00  0.45593999997E+02  0.45594000000E+02  0.51100000000E-03 0.  1.
         11   -1    0    0    0    0 -0.00000000000E+00 -0.00000000000E+00 -0.45593999997E+02  0.45594000000E+02  0.51100000000E-03 0. -1.
    9900012    2    1    2    0    0  0.14268695333E+02  0.36964786290E+01 -0.40821118060E+02  0.47787270738E+02  0.19999998605E+02 0.  0.
        -12    1    1    2    0    0 -0.14268695333E+02 -0.36964786290E+01  0.40821118060E+02  0.43400729262E+02  0.00000000000E+00 0.  1.
         11    1    3    3    0    0  0.14408037666E+02  0.97417898426E+00 -0.37938337717E+02  0.40593817794E+02  0.51100000000E-03 0. -1.
        -11    1    3    3    0    0  0.20857305530E+01  0.27764707861E+01 -0.34516025199E+01  0.48961844514E+01  0.51100000000E-03 0.  1.
         12    1    3    3    0    0 -0.22250728864E+01 -0.54171141336E-01  0.56882217646E+00  0.22972684934E+01  0.00000000000E+00 0. -1.
</event>
<event>
 7    1  0.2983653E-010  0.4778729E+02  0.7816164E-02  0.1312668E+00
        -11   -1    0    0    0    0  0.00000000000E+00  0.00000000000E+00  0.45593999997E+02  0.45594000000E+02  0.51100000000E-03 0.  1.
         11   -1    0    0    0    0 -0.00000000000E+00 -0.00000000000E+00 -0.45593999997E+02  0.45594000000E+02  0.51100000000E-03 0. -1.
    9900012    2    1    2    0    0 -0.25773204103E+02 -0.23713289127E+02 -0.25632860719E+02  0.47787289411E+02  0.20000083742E+02 0.  0.
        -12    1    1    2    0    0  0.25773204103E+02  0.23713289127E+02  0.25632860719E+02  0.43400710589E+02  0.00000000000E+00 0.  1.
         11    1    3    3    0    0  0.31115275516E+01 -0.22613944408E+01 -0.36974545898E+01  0.53354174369E+01  0.51100000000E-03 0. -1.
        -11    1    3    3    0    0 -0.18374088457E+02 -0.10532914961E+02 -0.13294698933E+02  0.25005968171E+02  0.51100000000E-03 0.  1.
         12    1    3    3    0    0 -0.10510643198E+02 -0.10918979725E+02 -0.86407071966E+01  0.17445903804E+02  0.00000000000E+00 0. -1.
</event>
<event>
 7    1  0.2983653E-010  0.4778727E+02  0.7816164E-02  0.1312668E+00
        -11   -1    0    0    0    0  0.00000000000E+00  0.00000000000E+00  0.45593999997E+02  0.45594000000E+02  0.51100000000E-03 0. -1.
         11   -1    0    0    0    0 -0.00000000000E+00 -0.00000000000E+00 -0.45593999997E+02  0.45594000000E+02  0.51100000000E-03 0.  1.
    9900012    2    1    2    0    0 -0.27699384832E+02 -0.33361418418E+02  0.18393262515E+01  0.47787270974E+02  0.19999999678E+02 0.  0.
        -12    1    1    2    0    0  0.27699384832E+02  0.33361418418E+02 -0.18393262515E+01  0.43400729026E+02  0.00000000000E+00 0.  1.
         11    1    3    3    0    0 -0.94081445433E+01 -0.22349716212E+02 -0.60964198969E+01  0.25003786399E+02  0.51100000000E-03 0. -1.
        -11    1    3    3    0    0 -0.98642112790E+01 -0.62375676985E+01  0.42633796906E+01  0.12425229237E+02  0.51100000000E-03 0.  1.
         12    1    3    3    0    0 -0.84270290097E+01 -0.47741345081E+01  0.36723664579E+01  0.10358255337E+02  0.00000000000E+00 0. -1.
</event>
<event>
 7    1  0.2983653E-010  0.4778727E+02  0.7816164E-02  0.1312668E+00
        -11   -1    0    0    0    0  0.00000000000E+00  0.00000000000E+00  0.45593999997E+02  0.45594000000E+02  0.51100000000E-03 0.  1.
         11   -1    0    0    0    0 -0.00000000000E+00 -0.00000000000E+00 -0.45593999997E+02  0.45594000000E+02  0.51100000000E-03 0. -1.
    9900012    2    1    2    0    0  0.86261026744E+01  0.17053418009E+02 -0.38966581051E+02  0.47787272449E+02  0.20000006404E+02 0.  0.
        -12    1    1    2    0    0 -0.86261026744E+01 -0.17053418009E+02  0.38966581051E+02  0.43400727551E+02  0.00000000000E+00 0.  1.
         11    1    3    3    0    0 -0.13798278381E+01  0.11887780387E+02 -0.31487397362E+02  0.33685003195E+02  0.51100000000E-03 0. -1.
        -11    1    3    3    0    0  0.43355152816E+01  0.13567582627E+01 -0.92601810963E+00  0.46362695716E+01  0.51100000000E-03 0.  1.
         12    1    3    3    0    0  0.56704152309E+01  0.38088793598E+01 -0.65531655797E+01  0.94659996822E+01  0.00000000000E+00 0. -1.
</event>
<event>
 7    1  0.2983653E-010  0.4778727E+02  0.7816164E-02  0.1312668E+00
        -11   -1    0    0    0    0  0.00000000000E+00  0.00000000000E+00  0.45593999997E+02  0.45594000000E+02  0.51100000000E-03 0.  1.
         11   -1    0    0    0    0 -0.00000000000E+00 -0.00000000000E+00 -0.45593999997E+02  0.45594000000E+02  0.51100000000E-03 0. -1.
    9900012    2    1    2    0    0 -0.87536430295E+01  0.72646591988E+01 -0.41883427604E+02  0.47787273654E+02  0.20000011896E+02 0.  0.
        -12    1    1    2    0    0  0.87536430295E+01 -0.72646591988E+01  0.41883427604E+02  0.43400726346E+02  0.00000000000E+00 0.  1.
         11    1    3    3    0    0  0.46251359950E+00  0.23382691184E+01 -0.98048763976E+01  0.10090442148E+02  0.51100000000E-03 0.  1.
        -11    1    3    3    0    0 -0.12923411280E+02  0.48331287354E+01 -0.30842109652E+02  0.33787711088E+02  0.51100000000E-03 0. -1.
        -12    1    3    3    0    0  0.37072546513E+01  0.93261344989E-01 -0.12364415539E+01  0.39091204182E+01  0.00000000000E+00 0.  1.
</event>
<event>
 7    1  0.2983653E-010  0.4778727E+02  0.7816164E-02  0.1312668E+00
        -11   -1    0    0    0    0  0.00000000000E+00  0.00000000000E+00  0.45593999997E+02  0.45594000000E+02  0.51100000000E-03 0.  1.
         11   -1    0    0    0    0 -0.00000000000E+00 -0.00000000000E+00 -0.45593999997E+02  0.45594000000E+02  0.51100000000E-03 0. -1.
    9900012    2    1    2    0    0  0.88256765448E+01  0.41045138996E+02 -0.11001245934E+02  0.47787269433E+02  0.19999992653E+02 0.  0.
        -12    1    1    2    0    0 -0.88256765448E+01 -0.41045138996E+02  0.11001245934E+02  0.43400730567E+02  0.00000000000E+00 0.  1.
         11    1    3    3    0    0  0.21883019594E+01  0.73555856820E+01 -0.95528891458E+01  0.12253611610E+02  0.51100000000E-03 0. -1.
        -11    1    3    3    0    0  0.17289146555E+00  0.14856037750E+01  0.20103659258E+01  0.25056898156E+01  0.51100000000E-03 0.  1.
         12    1    3    3    0    0  0.64644831198E+01  0.32203949539E+02 -0.34587227140E+01  0.33027968008E+02  0.00000000000E+00 0. -1.
</event>
<event>
 7    1  0.2983653E-010  0.4778726E+02  0.7816164E-02  0.1312668E+00
        -11   -1    0    0    0    0  0.00000000000E+00  0.00000000000E+00  0.45593999997E+02  0.45594000000E+02  0.51100000000E-03 0. -1.
         11   -1    0    0    0    0 -0.00000000000E+00 -0.00000000000E+00 -0.45593999997E+02  0.45594000000E+02  0.51100000000E-03 0.  1.
    9900012    2    1    2    0    0 -0.54108110190E+01 -0.42994071994E+02  0.24201094684E+01  0.47787262306E+02  0.19999960159E+02 0.  0.
        -12    1    1    2    0    0  0.54108110190E+01  0.42994071994E+02 -0.24201094684E+01  0.43400737694E+02  0.00000000000E+00 0.  1.
         11    1    3    3    0    0 -0.12442690679E+01  0.14146505993E+01 -0.68945877818E+00  0.20061892980E+01  0.51100000000E-03 0. -1.
        -11    1    3    3    0    0 -0.75464593165E+00 -0.75494700563E+01 -0.31928808623E+01  0.82315537461E+01  0.51100000000E-03 0.  1.
         12    1    3    3    0    0 -0.34118960195E+01 -0.36859252537E+02  0.63024491089E+01  0.37549519262E+02  0.00000000000E+00 0. -1.
</event>
<event>
 7    1  0.2983653E-010  0.4778727E+02  0.7816164E-02  0.1312668E+00
        -11   -1    0    0    0    0  0.00000000000E+00  0.00000000000E+00  0.45593999997E+02  0.45594000000E+02  0.51100000000E-03 0.  1.
         11   -1    0    0    0    0 -0.00000000000E+00 -0.00000000000E+00 -0.45593999997E+02  0.45594000000E+02  0.51100000000E-03 0. -1.
    9900012    2    1    2    0    0  0.12489784117E+02 -0.89081558736E+01 -0.40598932736E+02  0.47787270886E+02  0.19999999276E+02 0.  0.
        -12    1    1    2    0    0 -0.12489784117E+02  0.89081558736E+01  0.40598932736E+02  0.43400729114E+02  0.00000000000E+00 0.  1.
         11    1    3    3    0    0 -0.40214838672E+01 -0.44572323678E+01 -0.73163992632E+01  0.94640874528E+01  0.51100000000E-03 0. -1.
        -11    1    3    3    0    0  0.87186924351E+00  0.10519330288E+01 -0.28636605354E+00  0.13959673537E+01  0.51100000000E-03 0.  1.
         12    1    3    3    0    0  0.15639398740E+02 -0.55028565346E+01 -0.32996167419E+02  0.36927216079E+02  0.00000000000E+00 0. -1.
</event>
<event>
 7    1  0.2983653E-010  0.4778727E+02  0.7816164E-02  0.1312668E+00
        -11   -1    0    0    0    0  0.00000000000E+00  0.00000000000E+00  0.45593999997E+02  0.45594000000E+02  0.51100000000E-03 0.  1.
         11   -1    0    0    0    0 -0.00000000000E+00 -0.00000000000E+00 -0.45593999997E+02  0.45594000000E+02  0.51100000000E-03 0. -1.
    9900012    2    1    2    0    0 -0.25608011018E+02 -0.74109278048E+01 -0.34248078819E+02  0.47787274407E+02  0.20000015330E+02 0.  0.
        -12    1    1    2    0    0  0.25608011018E+02  0.74109278048E+01  0.34248078819E+02  0.43400725593E+02  0.00000000000E+00 0.  1.
         11    1    3    3    0    0 -0.27083266566E+02 -0.52366708766E+01 -0.32438518307E+02  0.42581492693E+02  0.51100000000E-03 0. -1.
        -11    1    3    3    0    0  0.18822154851E+01 -0.32164896946E+01 -0.16497309825E+01  0.40755556264E+01  0.51100000000E-03 0.  1.
        -12    1    3    3    0    0 -0.40695993666E+00  0.10422327664E+01 -0.15982952937E+00  0.11302260871E+01  0.00000000000E+00 0.  1.
</event>
<event>
 7    1  0.2983653E-010  0.4778727E+02  0.7816164E-02  0.1312668E+00
        -11   -1    0    0    0    0  0.00000000000E+00  0.00000000000E+00  0.45593999997E+02  0.45594000000E+02  0.51100000000E-03 0.  1.
         11   -1    0    0    0    0 -0.00000000000E+00 -0.00000000000E+00 -0.45593999997E+02  0.45594000000E+02  0.51100000000E-03 0. -1.
    9900012    2    1    2    0    0  0.84449752235E+01 -0.14106296623E+02 -0.40166131106E+02  0.47787270755E+02  0.19999998682E+02 0.  0.
        -12    1    1    2    0    0 -0.84449752235E+01  0.14106296623E+02  0.40166131106E+02  0.43400729245E+02  0.00000000000E+00 0.  1.
         11    1    3    3    0    0  0.52802773327E+01 -0.12720052916E+02 -0.36195289903E+02  0.38726994285E+02  0.51100000000E-03 0. -1.
        -11    1    3    3    0    0  0.20354710293E+01  0.29743743571E+01 -0.21847100748E+01  0.42146178355E+01  0.51100000000E-03 0.  1.
        -12    1    3    3    0    0  0.11292268615E+01 -0.43606180638E+01 -0.17861311283E+01  0.48456586353E+01  0.00000000000E+00 0.  1.
</event>
<event>
 7    1  0.2983653E-010  0.4778731E+02  0.7816164E-02  0.1312668E+00
        -11   -1    0    0    0    0  0.00000000000E+00  0.00000000000E+00  0.45593999997E+02  0.45594000000E+02  0.51100000000E-03 0.  1.
         11   -1    0    0    0    0 -0.00000000000E+00 -0.00000000000E+00 -0.45593999997E+02  0.45594000000E+02  0.51100000000E-03 0. -1.
    9900012    2    1    2    0    0 -0.17930148541E+01  0.34121067421E+02 -0.26761117891E+02  0.47787313658E+02  0.20000194290E+02 0.  0.
        -12    1    1    2    0    0  0.17930148541E+01 -0.34121067421E+02  0.26761117891E+02  0.43400686342E+02  0.00000000000E+00 0.  1.
         11    1    3    3    0    0 -0.79644840042E+01  0.15364333023E+02 -0.89349922215E+01  0.19476391374E+02  0.51100000000E-03 0. -1.
        -11    1    3    3    0    0  0.31413305825E+01  0.16125593599E+02 -0.17901100720E+02  0.24297163086E+02  0.51100000000E-03 0.  1.
         12    1    3    3    0    0  0.30301385675E+01  0.26311407986E+01  0.74975050993E-01  0.40137591979E+01  0.00000000000E+00 0. -1.
</event>
<event>
 7    1  0.2983653E-010  0.4778727E+02  0.7816164E-02  0.1312668E+00
        -11   -1    0    0    0    0  0.00000000000E+00  0.00000000000E+00  0.45593999997E+02  0.45594000000E+02  0.51100000000E-03 0.  1.
         11   -1    0    0    0    0 -0.00000000000E+00 -0.00000000000E+00 -0.45593999997E+02  0.45594000000E+02  0.51100000000E-03 0. -1.
    9900012    2    1    2    0    0  0.30668229685E+02 -0.66638852751E+01 -0.29977923066E+02  0.47787267859E+02  0.19999985477E+02 0.  0.
        -12    1    1    2    0    0 -0.30668229685E+02  0.66638852751E+01  0.29977923066E+02  0.43400732141E+02  0.00000000000E+00 0.  1.
         11    1    3    3    0    0  0.11802662207E+01 -0.19903846045E+01 -0.93544398670E+01  0.96363999872E+01  0.51100000000E-03 0. -1.
        -11    1    3    3    0    0  0.15416983547E+02 -0.38543621978E+01 -0.40598144913E+01  0.16401877441E+02  0.51100000000E-03 0.  1.
        -12    1    3    3    0    0  0.14070979918E+02 -0.81913847283E+00 -0.16563668708E+02  0.21748990431E+02  0.00000000000E+00 0.  1.
</event>
<event>
 7    1  0.2983653E-010  0.4778727E+02  0.7816164E-02  0.1312668E+00
        -11   -1    0    0    0    0  0.00000000000E+00  0.00000000000E+00  0.45593999997E+02  0.45594000000E+02  0.51100000000E-03 0.  1.
         11   -1    0    0    0    0 -0.00000000000E+00 -0.00000000000E+00 -0.45593999997E+02  0.45594000000E+02  0.51100000000E-03 0. -1.
    9900012    2    1    2    0    0  0.26003154197E+02  0.18735840527E-01 -0.34748509913E+02  0.47787270508E+02  0.19999997555E+02 0.  0.
        -12    1    1    2    0    0 -0.26003154197E+02 -0.18735840527E-01  0.34748509913E+02  0.43400729492E+02  0.00000000000E+00 0.  1.
         11    1    3    3    0    0  0.15051354524E+02 -0.46533069148E+01 -0.24809293646E+02  0.29388732360E+02  0.51100000000E-03 0. -1.
        -11    1    3    3    0    0  0.75687161904E+00  0.43224106202E+01 -0.60665063117E+01  0.74872282794E+01  0.51100000000E-03 0.  1.
        -12    1    3    3    0    0  0.10194928054E+02  0.34963213513E+00 -0.38727099556E+01  0.10911309869E+02  0.00000000000E+00 0.  1.
</event>
<event>
 7    1  0.2983653E-010  0.4778727E+02  0.7816164E-02  0.1312668E+00
        -11   -1    0    0    0    0  0.00000000000E+00  0.00000000000E+00  0.45593999997E+02  0.45594000000E+02  0.51100000000E-03 0.  1.
         11   -1    0    0    0    0 -0.00000000000E+00 -0.00000000000E+00 -0.45593999997E+02  0.45594000000E+02  0.51100000000E-03 0. -1.
    9900012    2    1    2    0    0 -0.66382840181E+01 -0.42356774621E+02 -0.67424221721E+01  0.47787269272E+02  0.19999991917E+02 0.  0.
        -12    1    1    2    0    0  0.66382840181E+01  0.42356774621E+02  0.67424221721E+01  0.43400730728E+02  0.00000000000E+00 0.  1.
         11    1    3    3    0    0  0.65130282874E+01 -0.17208906264E+02 -0.13374102511E+01  0.18448703443E+02  0.51100000000E-03 0. -1.
        -11    1    3    3    0    0 -0.83844450682E+01 -0.16572373839E+02 -0.10447410251E+01  0.18601988545E+02  0.51100000000E-03 0.  1.
        -12    1    3    3    0    0 -0.47668672373E+01 -0.85754945178E+01 -0.43602708958E+01  0.10736577284E+02  0.00000000000E+00 0.  1.
</event>
<event>
 7    1  0.2983653E-010  0.4778724E+02  0.7816164E-02  0.1312668E+00
        -11   -1    0    0    0    0  0.00000000000E+00  0.00000000000E+00  0.45593999997E+02  0.45594000000E+02  0.51100000000E-03 0.  1.
         11   -1    0    0    0    0 -0.00000000000E+00 -0.00000000000E+00 -0.45593999997E+02  0.45594000000E+02  0.51100000000E-03 0. -1.
    9900012    2    1    2    0    0 -0.18286502819E+02 -0.35924788448E+02 -0.16082258088E+02  0.47787243836E+02  0.19999875945E+02 0.  0.
        -12    1    1    2    0    0  0.18286502819E+02  0.35924788448E+02  0.16082258088E+02  0.43400756164E+02  0.00000000000E+00 0.  1.
         11    1    3    3    0    0  0.78416578921E+00 -0.86336332880E+01 -0.41126446507E+01  0.95952272521E+01  0.51100000000E-03 0. -1.
        -11    1    3    3    0    0 -0.21378877783E+02 -0.23385610897E+02 -0.98203567992E+01  0.33172015619E+02  0.51100000000E-03 0.  1.
        -12    1    3    3    0    0  0.23082091753E+01 -0.39055442632E+01 -0.21492566385E+01  0.50200009648E+01  0.00000000000E+00 0.  1.
</event>
<event>
 7    1  0.2983653E-010  0.4778727E+02  0.7816164E-02  0.1312668E+00
        -11   -1    0    0    0    0  0.00000000000E+00  0.00000000000E+00  0.45593999997E+02  0.45594000000E+02  0.51100000000E-03 0.  1.
         11   -1    0    0    0    0 -0.00000000000E+00 -0.00000000000E+00 -0.45593999997E+02  0.45594000000E+02  0.51100000000E-03 0. -1.
    9900012    2    1    2    0    0 -0.39139610172E+02  0.68573860382E+01 -0.17455390713E+02  0.47787268524E+02  0.19999988510E+02 0.  0.
        -12    1    1    2    0    0  0.39139610172E+02 -0.68573860382E+01  0.17455390713E+02  0.43400731476E+02  0.00000000000E+00 0.  1.
         11    1    3    3    0    0 -0.38491869253E+02  0.80018622181E+01 -0.19920045637E+02  0.44073370827E+02  0.51100000000E-03 0. -1.
        -11    1    3    3    0    0  0.50773096909E+00 -0.29604646502E+00  0.21729211180E+01  0.22510043742E+01  0.51100000000E-03 0.  1.
         12    1    3    3    0    0 -0.11554718872E+01 -0.84842971481E+00  0.29173380555E+00  0.14628933237E+01  0.00000000000E+00 0. -1.
</event>
<event>
 7    1  0.2983653E-010  0.4778727E+02  0.7816164E-02  0.1312668E+00
        -11   -1    0    0    0    0  0.00000000000E+00  0.00000000000E+00  0.45593999997E+02  0.45594000000E+02  0.51100000000E-03 0.  1.
         11   -1    0    0    0    0 -0.00000000000E+00 -0.00000000000E+00 -0.45593999997E+02  0.45594000000E+02  0.51100000000E-03 0. -1.
    9900012    2    1    2    0    0  0.23196855364E+02  0.35128954941E+01 -0.36512858308E+02  0.47787270106E+02  0.19999995722E+02 0.  0.
        -12    1    1    2    0    0 -0.23196855364E+02 -0.35128954941E+01  0.36512858308E+02  0.43400729894E+02  0.00000000000E+00 0.  1.
         11    1    3    3    0    0  0.45801215009E+01 -0.10126409178E+01 -0.17366262608E+02  0.17988608391E+02  0.51100000000E-03 0. -1.
        -11    1    3    3    0    0  0.87546788411E+01 -0.25715230948E+01 -0.30285367090E+01  0.96140089191E+01  0.51100000000E-03 0.  1.
         12    1    3    3    0    0  0.98620550216E+01  0.70970595066E+01 -0.16118058991E+02  0.20184652796E+02  0.00000000000E+00 0. -1.
</event>
<event>
 7    1  0.3106128E-010  0.4778727E+02  0.7816164E-02  0.1312668E+00
        -11   -1    0    0    0    0  0.00000000000E+00  0.00000000000E+00  0.45593999997E+02  0.45594000000E+02  0.51100000000E-03 0. -1.
         11   -1    0    0    0    0 -0.00000000000E+00 -0.00000000000E+00 -0.45593999997E+02  0.45594000000E+02  0.51100000000E-03 0.  1.
    9900012    2    1    2    0    0 -0.35980902775E+02 -0.37716765838E+01  0.23974416425E+02  0.47787267844E+02  0.19999985409E+02 0.  0.
        -12    1    1    2    0    0  0.35980902775E+02  0.37716765838E+01 -0.23974416425E+02  0.43400732156E+02  0.00000000000E+00 0.  1.
         11    1    3    3    0    0 -0.16700455096E+02 -0.67464705298E+01  0.16848358057E+02  0.24663479773E+02  0.51100000000E-03 0. -1.
        -11    1    3    3    0    0 -0.16561288838E+02 -0.60503332544E-01  0.21630120634E+01  0.16702052871E+02  0.51100000000E-03 0.  1.
        -12    1    3    3    0    0 -0.27191588396E+01  0.30352972786E+01  0.49630463049E+01  0.64217352008E+01  0.00000000000E+00 0.  1.
</event>
<event>
 7    1  0.2983653E-010  0.4778727E+02  0.7816164E-02  0.1312668E+00
        -11   -1    0    0    0    0  0.00000000000E+00  0.00000000000E+00  0.45593999997E+02  0.45594000000E+02  0.51100000000E-03 0. -1.
         11   -1    0    0    0    0 -0.00000000000E+00 -0.00000000000E+00 -0.45593999997E+02  0.45594000000E+02  0.51100000000E-03 0.  1.
    9900012    2    1    2    0    0 -0.46873271981E+01 -0.11336001490E+02  0.41631083678E+02  0.47787273114E+02  0.20000009435E+02 0.  0.
        -12    1    1    2    0    0  0.46873271981E+01  0.11336001490E+02 -0.41631083678E+02  0.43400726886E+02  0.00000000000E+00 0.  1.
         11    1    3    3    0    0 -0.43287395843E+01  0.30861500528E+01  0.44157930555E+01  0.69109722259E+01  0.51100000000E-03 0. -1.
        -11    1    3    3    0    0  0.23338102800E+01 -0.83685261650E+01  0.12062006326E+02  0.14865089891E+02  0.51100000000E-03 0.  1.
         12    1    3    3    0    0 -0.26923978937E+01 -0.60536253776E+01  0.25153284296E+02  0.26011210997E+02  0.00000000000E+00 0. -1.
</event>
<event>
 7    1  0.2983653E-010  0.4778727E+02  0.7816164E-02  0.1312668E+00
        -11   -1    0    0    0    0  0.00000000000E+00  0.00000000000E+00  0.45593999997E+02  0.45594000000E+02  0.51100000000E-03 0.  1.
         11   -1    0    0    0    0 -0.00000000000E+00 -0.00000000000E+00 -0.45593999997E+02  0.45594000000E+02  0.51100000000E-03 0. -1.
    9900012    2    1    2    0    0 -0.34826432251E+02 -0.19148957615E+02 -0.17437334882E+02  0.47787267185E+02  0.19999982402E+02 0.  0.
        -12    1    1    2    0    0  0.34826432251E+02  0.19148957615E+02  0.17437334882E+02  0.43400732815E+02  0.00000000000E+00 0.  1.
         11    1    3    3    0    0 -0.25965713422E+02 -0.60185635834E+01 -0.15997735489E+02  0.31086474907E+02  0.51100000000E-03 0. -1.
        -11    1    3    3    0    0 -0.75350170270E+01 -0.68960971378E+01 -0.25225186694E+00  0.10217449222E+02  0.51100000000E-03 0.  1.
         12    1    3    3    0    0 -0.13257018024E+01 -0.62342968939E+01 -0.11873475263E+01  0.64833430558E+01  0.00000000000E+00 0. -1.
</event>
<event>
 7    1  0.2983653E-010  0.4778727E+02  0.7816164E-02  0.1312668E+00
        -11   -1    0    0    0    0  0.00000000000E+00  0.00000000000E+00  0.45593999997E+02  0.45594000000E+02  0.51100000000E-03 0.  1.
         11   -1    0    0    0    0 -0.00000000000E+00 -0.00000000000E+00 -0.45593999997E+02  0.45594000000E+02  0.51100000000E-03 0. -1.
    9900012    2    1    2    0    0 -0.37501612155E+01  0.95527001096E+01 -0.42169964696E+02  0.47787266008E+02  0.19999977038E+02 0.  0.
        -12    1    1    2    0    0  0.37501612155E+01 -0.95527001096E+01  0.42169964696E+02  0.43400733992E+02  0.00000000000E+00 0.  1.
         11    1    3    3    0    0 -0.79339401853E+01  0.76368303656E+00 -0.10732538598E+02  0.13368545309E+02  0.51100000000E-03 0. -1.
        -11    1    3    3    0    0  0.53589354190E+01  0.59851767736E+01 -0.10293929963E+02  0.13057776388E+02  0.51100000000E-03 0.  1.
         12    1    3    3    0    0 -0.11751564492E+01  0.28038402995E+01 -0.21143496135E+02  0.21360944312E+02  0.00000000000E+00 0. -1.
</event>
<event>
 7    1  0.2983653E-010  0.4778727E+02  0.7816164E-02  0.1312668E+00
        -11   -1    0    0    0    0  0.00000000000E+00  0.00000000000E+00  0.45593999997E+02  0.45594000000E+02  0.51100000000E-03 0.  1.
         11   -1    0    0    0    0 -0.00000000000E+00 -0.00000000000E+00 -0.45593999997E+02  0.45594000000E+02  0.51100000000E-03 0. -1.
    9900012    2    1    2    0    0 -0.90479920025E+01 -0.34584204242E+02 -0.24610778605E+02  0.47787265376E+02  0.19999974157E+02 0.  0.
        -12    1    1    2    0    0  0.90479920025E+01  0.34584204242E+02  0.24610778605E+02  0.43400734624E+02  0.00000000000E+00 0.  1.
         11    1    3    3    0    0 -0.38145879899E+01 -0.51789514757E+01 -0.10351662412E+02  0.12187269377E+02  0.51100000000E-03 0. -1.
        -11    1    3    3    0    0 -0.63441676687E+01 -0.24351644152E+02 -0.60259567141E+01  0.25875919131E+02  0.51100000000E-03 0.  1.
        -12    1    3    3    0    0  0.11107636561E+01 -0.50536086147E+01 -0.82331594786E+01  0.97240768678E+01  0.00000000000E+00 0.  1.
</event>
<event>
 7    1  0.2983653E-010  0.4778727E+02  0.7816164E-02  0.1312668E+00
        -11   -1    0    0    0    0  0.00000000000E+00  0.00000000000E+00  0.45593999997E+02  0.45594000000E+02  0.51100000000E-03 0. -1.
         11   -1    0    0    0    0 -0.00000000000E+00 -0.00000000000E+00 -0.45593999997E+02  0.45594000000E+02  0.51100000000E-03 0.  1.
    9900012    2    1    2    0    0  0.22007883432E+02 -0.32418233447E+02  0.18663723095E+02  0.47787270136E+02  0.19999995858E+02 0.  0.
        -12    1    1    2    0    0 -0.22007883432E+02  0.32418233447E+02 -0.18663723095E+02  0.43400729864E+02  0.00000000000E+00 0.  1.
         11    1    3    3    0    0  0.15820898780E+02 -0.24687954231E+02  0.16254476802E+02  0.33526167969E+02  0.51100000000E-03 0. -1.
        -11    1    3    3    0    0  0.46232135810E+01 -0.49439009137E+01 -0.34424766797E+01  0.75938729258E+01  0.51100000000E-03 0.  1.
         12    1    3    3    0    0  0.15637710710E+01 -0.27863783021E+01  0.58517229727E+01  0.66672292412E+01  0.00000000000E+00 0. -1.
</event>
<event>
 7    1  0.2983653E-010  0.4778727E+02  0.7816164E-02  0.1312668E+00
        -11   -1    0    0    0    0  0.00000000000E+00  0.00000000000E+00  0.45593999997E+02  0.45594000000E+02  0.51100000000E-03 0.  1.
         11   -1    0    0    0    0 -0.00000000000E+00 -0.00000000000E+00 -0.45593999997E+02  0.45594000000E+02  0.51100000000E-03 0. -1.
    9900012    2    1    2    0    0  0.19486729195E+02 -0.96554512808E+01 -0.37558795384E+02  0.47787268844E+02  0.19999989968E+02 0.  0.
        -12    1    1    2    0    0 -0.19486729195E+02  0.96554512808E+01  0.37558795384E+02  0.43400731156E+02  0.00000000000E+00 0.  1.
         11    1    3    3    0    0  0.48999488410E+01 -0.61054966584E+01 -0.62171354533E+01  0.99969676201E+01  0.51100000000E-03 0. -1.
        -11    1    3    3    0    0  0.13904516026E+02 -0.46481848544E+01 -0.13587195235E+02  0.19988823451E+02  0.51100000000E-03 0.  1.
        -12    1    3    3    0    0  0.68226432785E+00  0.10982302320E+01 -0.17754464696E+02  0.17801477773E+02  0.00000000000E+00 0.  1.
</event>
<event>
 7    1  0.2983653E-010  0.4778727E+02  0.7816164E-02  0.1312668E+00
        -11   -1    0    0    0    0  0.00000000000E+00  0.00000000000E+00  0.45593999997E+02  0.45594000000E+02  0.51100000000E-03 0. -1.
         11   -1    0    0    0    0 -0.00000000000E+00 -0.00000000000E+00 -0.45593999997E+02  0.45594000000E+02  0.51100000000E-03 0.  1.
    9900012    2    1    2    0    0  0.17878300026E+02 -0.15541227441E+02  0.36365640822E+02  0.47787271958E+02  0.20000004164E+02 0.  0.
        -12    1    1    2    0    0 -0.17878300026E+02  0.15541227441E+02 -0.36365640822E+02  0.43400728042E+02  0.00000000000E+00 0.  1.
         11    1    3    3    0    0  0.50560324661E+01 -0.26045486929E+01 -0.21574797596E+00  0.56915451015E+01  0.51100000000E-03 0.  1.
        -11    1    3    3    0    0  0.10143814484E+02 -0.14422951860E+02  0.29305641313E+02  0.34201449175E+02  0.51100000000E-03 0. -1.
         12    1    3    3    0    0  0.26784530754E+01  0.14862731115E+01  0.72757474853E+01  0.78942776813E+01  0.00000000000E+00 0. -1.
</event>
<event>
 7    1  0.2983653E-010  0.4778727E+02  0.7816164E-02  0.1312668E+00
        -11   -1    0    0    0    0  0.00000000000E+00  0.00000000000E+00  0.45593999997E+02  0.45594000000E+02  0.51100000000E-03 0.  1.
         11   -1    0    0    0    0 -0.00000000000E+00 -0.00000000000E+00 -0.45593999997E+02  0.45594000000E+02  0.51100000000E-03 0. -1.
    9900012    2    1    2    0    0 -0.43183753823E+02  0.21544385187E+01 -0.37609893549E+01  0.47787271429E+02  0.20000001755E+02 0.  0.
        -12    1    1    2    0    0  0.43183753823E+02 -0.21544385187E+01  0.37609893549E+01  0.43400728571E+02  0.00000000000E+00 0.  1.
         11    1    3    3    0    0 -0.43973322522E+02  0.99840496379E+00 -0.55110930254E+01  0.44328569261E+02  0.51100000000E-03 0. -1.
        -11    1    3    3    0    0  0.16177592612E+01  0.19434567610E+00  0.13838921982E+01  0.21377729408E+01  0.51100000000E-03 0.  1.
         12    1    3    3    0    0 -0.82819056176E+00  0.96168787876E+00  0.36621147233E+00  0.13209292279E+01  0.00000000000E+00 0. -1.
</event>
<event>
 7    1  0.2983653E-010  0.4778727E+02  0.7816164E-02  0.1312668E+00
        -11   -1    0    0    0    0  0.00000000000E+00  0.00000000000E+00  0.45593999997E+02  0.45594000000E+02  0.51100000000E-03 0. -1.
         11   -1    0    0    0    0 -0.00000000000E+00 -0.00000000000E+00 -0.45593999997E+02  0.45594000000E+02  0.51100000000E-03 0.  1.
    9900012    2    1    2    0    0 -0.41067328927E+02 -0.12912753670E+02 -0.55098549717E+01  0.47787271730E+02  0.20000003126E+02 0.  0.
        -12    1    1    2    0    0  0.41067328927E+02  0.12912753670E+02  0.55098549717E+01  0.43400728270E+02  0.00000000000E+00 0.  1.
         11    1    3    3    0    0 -0.16214044705E+02  0.14695068915E+01  0.26241645279E+01  0.16490631763E+02  0.51100000000E-03 0. -1.
        -11    1    3    3    0    0 -0.14288069349E+02 -0.13142241842E+02 -0.68288757765E+01  0.20579139705E+02  0.51100000000E-03 0.  1.
        -12    1    3    3    0    0 -0.10565214873E+02 -0.12400187190E+01 -0.13051437231E+01  0.10717500263E+02  0.00000000000E+00 0.  1.
</event>
<event>
 7    1  0.2983653E-010  0.4778727E+02  0.7816164E-02  0.1312668E+00
        -11   -1    0    0    0    0  0.00000000000E+00  0.00000000000E+00  0.45593999997E+02  0.45594000000E+02  0.51100000000E-03 0.  1.
         11   -1    0    0    0    0 -0.00000000000E+00 -0.00000000000E+00 -0.45593999997E+02  0.45594000000E+02  0.51100000000E-03 0. -1.
    9900012    2    1    2    0    0 -0.22383476034E+02 -0.20079468188E+02 -0.31295657964E+02  0.47787271326E+02  0.20000001282E+02 0.  0.
        -12    1    1    2    0    0  0.22383476034E+02  0.20079468188E+02  0.31295657964E+02  0.43400728674E+02  0.00000000000E+00 0.  1.
         11    1    3    3    0    0 -0.12344135864E+02 -0.77893698342E+01 -0.19178712125E+02  0.24101347923E+02  0.51100000000E-03 0. -1.
        -11    1    3    3    0    0 -0.15781425769E+01 -0.11070636639E+02 -0.39403158878E+01  0.11856458963E+02  0.51100000000E-03 0.  1.
        -12    1    3    3    0    0 -0.84611975931E+01 -0.12194617148E+01 -0.81766299504E+01  0.11829464440E+02  0.00000000000E+00 0.  1.
</event>
<event>
 7    1  0.2983653E-010  0.4778727E+02  0.7816164E-02  0.1312668E+00
        -11   -1    0    0    0    0  0.00000000000E+00  0.00000000000E+00  0.45593999997E+02  0.45594000000E+02  0.51100000000E-03 0. -1.
         11   -1    0    0    0    0 -0.00000000000E+00 -0.00000000000E+00 -0.45593999997E+02  0.45594000000E+02  0.51100000000E-03 0.  1.
    9900012    2    1    2    0    0  0.12070847916E+02 -0.34822328619E+02  0.22919934489E+02  0.47787270319E+02  0.19999996691E+02 0.  0.
        -12    1    1    2    0    0 -0.12070847916E+02  0.34822328619E+02 -0.22919934489E+02  0.43400729681E+02  0.00000000000E+00 0.  1.
         11    1    3    3    0    0  0.13252052662E+00 -0.10547887508E+02  0.25800982108E+01  0.10859668485E+02  0.51100000000E-03 0. -1.
        -11    1    3    3    0    0  0.10005424652E+02 -0.91701625360E+01  0.16226855471E+02  0.21154461518E+02  0.51100000000E-03 0.  1.
        -12    1    3    3    0    0  0.19329027370E+01 -0.15104278576E+02  0.41129808077E+01  0.15773140315E+02  0.00000000000E+00 0.  1.
</event>
<event>
 7    1  0.2983653E-010  0.4778726E+02  0.7816164E-02  0.1312668E+00
        -11   -1    0    0    0    0  0.00000000000E+00  0.00000000000E+00  0.45593999997E+02  0.45594000000E+02  0.51100000000E-03 0.  1.
         11   -1    0    0    0    0 -0.00000000000E+00 -0.00000000000E+00 -0.45593999997E+02  0.45594000000E+02  0.51100000000E-03 0. -1.
    9900012    2    1    2    0    0  0.97421946835E+01 -0.13881077679E+02 -0.39950341570E+02  0.47787257306E+02  0.19999937362E+02 0.  0.
        -12    1    1    2    0    0 -0.97421946835E+01  0.13881077679E+02  0.39950341570E+02  0.43400742694E+02  0.00000000000E+00 0.  1.
         11    1    3    3    0    0  0.24882966656E+01 -0.37222403458E+01 -0.38623358533E+01  0.59130645178E+01  0.51100000000E-03 0. -1.
        -11    1    3    3    0    0 -0.23537270353E+01  0.26127506813E+01 -0.16007566626E+01  0.38637959617E+01  0.51100000000E-03 0.  1.
        -12    1    3    3    0    0  0.96076250531E+01 -0.12771588014E+02 -0.34487249055E+02  0.38010396827E+02  0.00000000000E+00 0.  1.
</event>
<event>
 7    1  0.2983653E-010  0.4778727E+02  0.7816164E-02  0.1312668E+00
        -11   -1    0    0    0    0  0.00000000000E+00  0.00000000000E+00  0.45593999997E+02  0.45594000000E+02  0.51100000000E-03 0.  1.
         11   -1    0    0    0    0 -0.00000000000E+00 -0.00000000000E+00 -0.45593999997E+02  0.45594000000E+02  0.51100000000E-03 0. -1.
    9900012    2    1    2    0    0 -0.40402771209E+02 -0.15245075225E+02  0.43390109873E+01  0.47787271246E+02  0.20000000920E+02 0.  0.
        -12    1    1    2    0    0  0.40402771209E+02  0.15245075225E+02 -0.43390109873E+01  0.43400728754E+02  0.00000000000E+00 0.  1.
         11    1    3    3    0    0 -0.18098863727E+02 -0.16541385786E+02  0.63459742702E+01  0.25327015253E+02  0.51100000000E-03 0. -1.
        -11    1    3    3    0    0 -0.14821287526E+02  0.13892267804E+01 -0.12373952762E+01  0.14937592253E+02  0.51100000000E-03 0.  1.
         12    1    3    3    0    0 -0.74826199558E+01 -0.92916219562E-01 -0.76956800678E+00  0.75226637399E+01  0.00000000000E+00 0. -1.
</event>
<event>
 7    1  0.2983653E-010  0.4778728E+02  0.7816164E-02  0.1312668E+00
        -11   -1    0    0    0    0  0.00000000000E+00  0.00000000000E+00  0.45593999997E+02  0.45594000000E+02  0.51100000000E-03 0. -1.
         11   -1    0    0    0    0 -0.00000000000E+00 -0.00000000000E+00 -0.45593999997E+02  0.45594000000E+02  0.51100000000E-03 0.  1.
    9900012    2    1    2    0    0  0.34285837618E+02 -0.26255580715E+02 -0.43299355157E+01  0.47787279713E+02  0.20000039525E+02 0.  0.
        -12    1    1    2    0    0 -0.34285837618E+02  0.26255580715E+02  0.43299355157E+01  0.43400720287E+02  0.00000000000E+00 0.  1.
         11    1    3    3    0    0  0.33310408672E+02 -0.21710186146E+02  0.77553550251E+00  0.39768290936E+02  0.51100000000E-03 0. -1.
        -11    1    3    3    0    0  0.16149665252E+01 -0.18145889030E+01 -0.45528685048E+01  0.51603741771E+01  0.51100000000E-03 0.  1.
         12    1    3    3    0    0 -0.63953757877E+00 -0.27308056655E+01 -0.55260251335E+00  0.28586146007E+01  0.00000000000E+00 0. -1.
</event>
<event>
 7    1  0.2983653E-010  0.4778727E+02  0.7816164E-02  0.1312668E+00
        -11   -1    0    0    0    0  0.00000000000E+00  0.00000000000E+00  0.45593999997E+02  0.45594000000E+02  0.51100000000E-03 0.  1.
         11   -1    0    0    0    0 -0.00000000000E+00 -0.00000000000E+00 -0.45593999997E+02  0.45594000000E+02  0.51100000000E-03 0. -1.
    9900012    2    1    2    0    0 -0.42394724177E+02  0.71050923274E+01 -0.59856665248E+01  0.47787272140E+02  0.20000004997E+02 0.  0.
        -12    1    1    2    0    0  0.42394724177E+02 -0.71050923274E+01  0.59856665248E+01  0.43400727860E+02  0.00000000000E+00 0.  1.
         11    1    3    3    0    0 -0.21335593908E+02  0.45857467605E+01  0.53031297081E+01  0.22457956847E+02  0.51100000000E-03 0. -1.
        -11    1    3    3    0    0 -0.19274049595E+02  0.45843105486E+01 -0.89699944365E+01  0.21747774402E+02  0.51100000000E-03 0.  1.
        -12    1    3    3    0    0 -0.17850806739E+01 -0.20649649818E+01 -0.23188017965E+01  0.35815408918E+01  0.00000000000E+00 0.  1.
</event>
<event>
 7    1  0.2983653E-010  0.4778725E+02  0.7816164E-02  0.1312668E+00
        -11   -1    0    0    0    0  0.00000000000E+00  0.00000000000E+00  0.45593999997E+02  0.45594000000E+02  0.51100000000E-03 0. -1.
         11   -1    0    0    0    0 -0.00000000000E+00 -0.00000000000E+00 -0.45593999997E+02  0.45594000000E+02  0.51100000000E-03 0.  1.
    9900012    2    1    2    0    0  0.74797857749E+01  0.38938239482E+02 -0.17649120266E+02  0.47787249599E+02  0.19999902223E+02 0.  0.
        -12    1    1    2    0    0 -0.74797857749E+01 -0.38938239482E+02  0.17649120266E+02  0.43400750401E+02  0.00000000000E+00 0.  1.
         11    1    3    3    0    0  0.11375784055E+02  0.14098100119E+02 -0.36854604972E+01  0.18486414178E+02  0.51100000000E-03 0. -1.
        -11    1    3    3    0    0 -0.51736718004E+01  0.21742425054E+02 -0.12789748190E+02  0.25750292933E+02  0.51100000000E-03 0.  1.
        -12    1    3    3    0    0  0.12776735207E+01  0.30977143089E+01 -0.11739115795E+01  0.35505424883E+01  0.00000000000E+00 0.  1.
</event>
<event>
 7    1  0.2983653E-010  0.4778727E+02  0.7816164E-02  0.1312668E+00
        -11   -1    0    0    0    0  0.00000000000E+00  0.00000000000E+00  0.45593999997E+02  0.45594000000E+02  0.51100000000E-03 0. -1.
         11   -1    0    0    0    0 -0.00000000000E+00 -0.00000000000E+00 -0.45593999997E+02  0.45594000000E+02  0.51100000000E-03 0.  1.
    9900012    2    1    2    0    0 -0.11583010587E+02  0.32774477360E+02  0.25986361225E+02  0.47787268783E+02  0.19999989690E+02 0.  0.
        -12    1    1    2    0    0  0.11583010587E+02 -0.32774477360E+02 -0.25986361225E+02  0.43400731217E+02  0.00000000000E+00 0.  1.
         11    1    3    3    0    0 -0.67686455238E+01  0.13116741150E+01  0.40769308729E+01  0.80097700850E+01  0.51100000000E-03 0. -1.
        -11    1    3    3    0    0  0.11030844215E+00 -0.32646000595E+00  0.18177631835E+01  0.18501371139E+01  0.51100000000E-03 0.  1.
         12    1    3    3    0    0 -0.49246735048E+01  0.31789263251E+02  0.20091667168E+02  0.37927361584E+02  0.00000000000E+00 0. -1.
</event>
<event>
 7    1  0.2983653E-010  0.4778727E+02  0.7816164E-02  0.1312668E+00
        -11   -1    0    0    0    0  0.00000000000E+00  0.00000000000E+00  0.45593999997E+02  0.45594000000E+02  0.51100000000E-03 0. -1.
         11   -1    0    0    0    0 -0.00000000000E+00 -0.00000000000E+00 -0.45593999997E+02  0.45594000000E+02  0.51100000000E-03 0.  1.
    9900012    2    1    2    0    0  0.80692202756E+01 -0.31548627883E+02 -0.28691374619E+02  0.47787271726E+02  0.20000003109E+02 0.  0.
        -12    1    1    2    0    0 -0.80692202756E+01  0.31548627883E+02  0.28691374619E+02  0.43400728274E+02  0.00000000000E+00 0.  1.
         11    1    3    3    0    0  0.66695417014E+01 -0.30357806529E+02 -0.29922029985E+02  0.43144027193E+02  0.51100000000E-03 0. -1.
        -11    1    3    3    0    0  0.56116862121E+00 -0.19889435119E+00  0.26518928428E+01  0.27179045412E+01  0.51100000000E-03 0.  1.
        -12    1    3    3    0    0  0.83850995292E+00 -0.99192700325E+00 -0.14212374768E+01  0.19253399924E+01  0.00000000000E+00 0.  1.
</event>
<event>
 7    1  0.2983653E-010  0.4778728E+02  0.7816164E-02  0.1312668E+00
        -11   -1    0    0    0    0  0.00000000000E+00  0.00000000000E+00  0.45593999997E+02  0.45594000000E+02  0.51100000000E-03 0.  1.
         11   -1    0    0    0    0 -0.00000000000E+00 -0.00000000000E+00 -0.45593999997E+02  0.45594000000E+02  0.51100000000E-03 0. -1.
    9900012    2    1    2    0    0  0.25161359159E+02  0.54582736752E+01 -0.34939027315E+02  0.47787281389E+02  0.20000047164E+02 0.  0.
        -12    1    1    2    0    0 -0.25161359159E+02 -0.54582736752E+01  0.34939027315E+02  0.43400718611E+02  0.00000000000E+00 0.  1.
         11    1    3    3    0    0  0.19745150829E+01  0.45710349008E+01 -0.19337273900E-01  0.49793015643E+01  0.51100000000E-03 0.  1.
        -11    1    3    3    0    0  0.14894454496E+02  0.46487818347E+01 -0.20682114859E+02  0.25907640235E+02  0.51100000000E-03 0. -1.
         12    1    3    3    0    0  0.82923895801E+01 -0.37615430602E+01 -0.14237575183E+02  0.16900339589E+02  0.00000000000E+00 0. -1.
</event>
<event>
 7    1  0.2983653E-010  0.4778727E+02  0.7816164E-02  0.1312668E+00
        -11   -1    0    0    0    0  0.00000000000E+00  0.00000000000E+00  0.45593999997E+02  0.45594000000E+02  0.51100000000E-03 0. -1.
         11   -1    0    0    0    0 -0.00000000000E+00 -0.00000000000E+00 -0.45593999997E+02  0.45594000000E+02  0.51100000000E-03 0.  1.
    9900012    2    1    2    0    0  0.35535172728E+02  0.60744569805E+00  0.24909952615E+02  0.47787271546E+02  0.20000002285E+02 0.  0.
        -12    1    1    2    0    0 -0.35535172728E+02 -0.60744569805E+00 -0.24909952615E+02  0.43400728454E+02  0.00000000000E+00 0.  1.
         11    1    3    3    0    0  0.82104482324E+01 -0.22733765380E+01  0.72508960559E+01  0.11187278263E+02  0.51100000000E-03 0. -1.
        -11    1    3    3    0    0  0.28047791118E+02  0.39251725697E+01  0.19484336455E+02  0.34376226285E+02  0.51100000000E-03 0.  1.
        -12    1    3    3    0    0 -0.72306662221E+00 -0.10443503337E+01 -0.18252798957E+01  0.22237669971E+01  0.00000000000E+00 0.  1.
</event>
<event>
 7    1  0.2983653E-010  0.4778728E+02  0.7816164E-02  0.1312668E+00
        -11   -1    0    0    0    0  0.00000000000E+00  0.00000000000E+00  0.45593999997E+02  0.45594000000E+02  0.51100000000E-03 0. -1.
         11   -1    0    0    0    0 -0.00000000000E+00 -0.00000000000E+00 -0.45593999997E+02  0.45594000000E+02  0.51100000000E-03 0.  1.
    9900012    2    1    2    0    0 -0.27955563786E+02  0.31536241362E+02  0.10371828670E+02  0.47787275400E+02  0.20000019860E+02 0.  0.
        -12    1    1    2    0    0  0.27955563786E+02 -0.31536241362E+02 -0.10371828670E+02  0.43400724600E+02  0.00000000000E+00 0.  1.
         11    1    3    3    0    0 -0.34836017152E+01  0.63383532252E+01  0.35388853523E+01  0.80519508391E+01  0.51100000000E-03 0. -1.
        -11    1    3    3    0    0  0.22043881579E+01  0.24546285709E+01  0.30207889331E+01  0.44732197142E+01  0.51100000000E-03 0.  1.
        -12    1    3    3    0    0 -0.26676350228E+02  0.22743259566E+02  0.38121543845E+01  0.35262104847E+02  0.00000000000E+00 0.  1.
</event>
<event>
 7    1  0.2983653E-010  0.4778726E+02  0.7816164E-02  0.1312668E+00
        -11   -1    0    0    0    0  0.00000000000E+00  0.00000000000E+00  0.45593999997E+02  0.45594000000E+02  0.51100000000E-03 0.  1.
         11   -1    0    0    0    0 -0.00000000000E+00 -0.00000000000E+00 -0.45593999997E+02  0.45594000000E+02  0.51100000000E-03 0. -1.
    9900012    2    1    2    0    0 -0.24543398888E+02 -0.10075926157E+02 -0.34347077152E+02  0.47787257773E+02  0.19999939492E+02 0.  0.
        -12    1    1    2    0    0  0.24543398888E+02  0.10075926157E+02  0.34347077152E+02  0.43400742227E+02  0.00000000000E+00 0.  1.
         11    1    3    3    0    0 -0.61233109453E+01  0.11693982472E+01 -0.12976957650E+02  0.14396661395E+02  0.51100000000E-03 0. -1.
        -11    1    3    3    0    0 -0.98606111106E+01 -0.13432606409E+02 -0.12160676743E+02  0.20628829960E+02  0.51100000000E-03 0.  1.
        -12    1    3    3    0    0 -0.85594768319E+01  0.21872820040E+01 -0.92094427592E+01  0.12761766419E+02  0.00000000000E+00 0.  1.
</event>
<event>
 7    1  0.2983653E-010  0.4778727E+02  0.7816164E-02  0.1312668E+00
        -11   -1    0    0    0    0  0.00000000000E+00  0.00000000000E+00  0.45593999997E+02  0.45594000000E+02  0.51100000000E-03 0.  1.
         11   -1    0    0    0    0 -0.00000000000E+00 -0.00000000000E+00 -0.45593999997E+02  0.45594000000E+02  0.51100000000E-03 0. -1.
    9900012    2    1    2    0    0 -0.16863428598E+02 -0.27268537608E+02 -0.29251923311E+02  0.47787269767E+02  0.19999994177E+02 0.  0.
        -12    1    1    2    0    0  0.16863428598E+02  0.27268537608E+02  0.29251923311E+02  0.43400730233E+02  0.00000000000E+00 0.  1.
         11    1    3    3    0    0 -0.13094909738E+02 -0.17461762517E+02 -0.10088552487E+02  0.24045138860E+02  0.51100000000E-03 0. -1.
        -11    1    3    3    0    0 -0.19600469050E+01 -0.10778630174E+02 -0.11815972638E+02  0.16113282159E+02  0.51100000000E-03 0.  1.
         12    1    3    3    0    0 -0.18084719554E+01  0.97185508344E+00 -0.73473981863E+01  0.76288487483E+01  0.00000000000E+00 0. -1.
</event>
<event>
 7    1  0.2983653E-010  0.4778725E+02  0.7816164E-02  0.1312668E+00
        -11   -1    0    0    0    0  0.00000000000E+00  0.00000000000E+00  0.45593999997E+02  0.45594000000E+02  0.51100000000E-03 0.  1.
         11   -1    0    0    0    0 -0.00000000000E+00 -0.00000000000E+00 -0.45593999997E+02  0.45594000000E+02  0.51100000000E-03 0. -1.
    9900012    2    1    2    0    0  0.32284052841E+02  0.14703001030E+01 -0.28968997511E+02  0.47787254994E+02  0.19999926820E+02 0.  0.
        -12    1    1    2    0    0 -0.32284052841E+02 -0.14703001030E+01  0.28968997511E+02  0.43400745006E+02  0.00000000000E+00 0.  1.
         11    1    3    3    0    0  0.15672264869E+02  0.12604648798E+01 -0.18457389807E+02  0.24246317176E+02  0.51100000000E-03 0. -1.
        -11    1    3    3    0    0  0.31571885418E+01 -0.41534613507E+01  0.99016555056E+00  0.53103209657E+01  0.51100000000E-03 0.  1.
        -12    1    3    3    0    0  0.13454599430E+02  0.43632965739E+01 -0.11501773255E+02  0.18230616853E+02  0.00000000000E+00 0.  1.
</event>
<event>
 7    1  0.2983653E-010  0.4778727E+02  0.7816164E-02  0.1312668E+00
        -11   -1    0    0    0    0  0.00000000000E+00  0.00000000000E+00  0.45593999997E+02  0.45594000000E+02  0.51100000000E-03 0.  1.
         11   -1    0    0    0    0 -0.00000000000E+00 -0.00000000000E+00 -0.45593999997E+02  0.45594000000E+02  0.51100000000E-03 0. -1.
    9900012    2    1    2    0    0  0.68878952028E+01  0.31001425715E+02 -0.29581948838E+02  0.47787271968E+02  0.20000004210E+02 0.  0.
        -12    1    1    2    0    0 -0.68878952028E+01 -0.31001425715E+02  0.29581948838E+02  0.43400728032E+02  0.00000000000E+00 0.  1.
         11    1    3    3    0    0  0.61788392275E+01  0.52571751530E+01 -0.15270502183E+02  0.17291737390E+02  0.51100000000E-03 0. -1.
        -11    1    3    3    0    0 -0.28957555973E+01  0.10323940727E+02 -0.82899114030E+01  0.13553294210E+02  0.51100000000E-03 0.  1.
         12    1    3    3    0    0  0.36048115726E+01  0.15420309835E+02 -0.60215352519E+01  0.16942240367E+02  0.00000000000E+00 0. -1.
</event>
<event>
 7    1  0.2983653E-010  0.4778727E+02  0.7816164E-02  0.1312668E+00
        -11   -1    0    0    0    0  0.00000000000E+00  0.00000000000E+00  0.45593999997E+02  0.45594000000E+02  0.51100000000E-03 0.  1.
         11   -1    0    0    0    0 -0.00000000000E+00 -0.00000000000E+00 -0.45593999997E+02  0.45594000000E+02  0.51100000000E-03 0. -1.
    9900012    2    1    2    0    0  0.62414736807E+01  0.77014626475E+01 -0.42253459357E+02  0.47787270187E+02  0.19999996093E+02 0.  0.
        -12    1    1    2    0    0 -0.62414736807E+01 -0.77014626475E+01  0.42253459357E+02  0.43400729813E+02  0.00000000000E+00 0.  1.
         11    1    3    3    0    0 -0.43580148471E+00  0.79336218551E+01 -0.26334857420E+02  0.27507398900E+02  0.51100000000E-03 0. -1.
        -11    1    3    3    0    0  0.55895824855E+01 -0.37487190108E+01 -0.15066808531E+02  0.16501667981E+02  0.51100000000E-03 0.  1.
        -12    1    3    3    0    0  0.10876926799E+01  0.35165598033E+01 -0.85179340623E+00  0.37782033062E+01  0.00000000000E+00 0.  1.
</event>
<event>
 7    1  0.2983653E-010  0.4778727E+02  0.7816164E-02  0.1312668E+00
        -11   -1    0    0    0    0  0.00000000000E+00  0.00000000000E+00  0.45593999997E+02  0.45594000000E+02  0.51100000000E-03 0. -1.
         11   -1    0    0    0    0 -0.00000000000E+00 -0.00000000000E+00 -0.45593999997E+02  0.45594000000E+02  0.51100000000E-03 0.  1.
    9900012    2    1    2    0    0  0.39790722114E+02 -0.30501400325E+01  0.17059260174E+02  0.47787270994E+02  0.19999999770E+02 0.  0.
        -12    1    1    2    0    0 -0.39790722114E+02  0.30501400325E+01 -0.17059260174E+02  0.43400729006E+02  0.00000000000E+00 0.  1.
         11    1    3    3    0    0  0.14963006589E+02  0.25323410834E+01  0.39682138350E-01  0.15175832514E+02  0.51100000000E-03 0. -1.
        -11    1    3    3    0    0  0.26596302765E+01  0.25450807565E+01  0.32706829848E+00  0.36956789901E+01  0.51100000000E-03 0.  1.
         12    1    3    3    0    0  0.22168085248E+02 -0.81275618724E+01  0.16692509737E+02  0.28915759490E+02  0.00000000000E+00 0. -1.
</event>
<event>
 7    1 -0.2983653E-010  0.4778727E+02  0.7816164E-02  0.1312668E+00
        -11   -1    0    0    0    0  0.00000000000E+00  0.00000000000E+00  0.45593999997E+02  0.45594000000E+02  0.51100000000E-03 0. -1.
         11   -1    0    0    0    0 -0.00000000000E+00 -0.00000000000E+00 -0.45593999997E+02  0.45594000000E+02  0.51100000000E-03 0.  1.
    9900012    2    1    2    0    0 -0.13965855714E+02  0.20644084334E+02  0.35530263823E+02  0.47787274302E+02  0.20000014852E+02 0.  0.
        -12    1    1    2    0    0  0.13965855714E+02 -0.20644084334E+02 -0.35530263823E+02  0.43400725698E+02  0.00000000000E+00 0.  1.
         11    1    3    3    0    0 -0.92868483792E+01  0.10425921769E+02  0.28461230654E+02  0.31701530691E+02  0.51100000000E-03 0. -1.
        -11    1    3    3    0    0 -0.31810556746E+01 -0.82980431003E+00  0.18955423086E+01  0.37948348189E+01  0.51100000000E-03 0.  1.
         12    1    3    3    0    0 -0.14979516602E+01  0.11047966876E+02  0.51734908604E+01  0.12290908792E+02  0.00000000000E+00 0. -1.
</event>
<event>
 7    1  0.2983653E-010  0.4778727E+02  0.7816164E-02  0.1312668E+00
        -11   -1    0    0    0    0  0.00000000000E+00  0.00000000000E+00  0.45593999997E+02  0.45594000000E+02  0.51100000000E-03 0.  1.
         11   -1    0    0    0    0 -0.00000000000E+00 -0.00000000000E+00 -0.45593999997E+02  0.45594000000E+02  0.51100000000E-03 0. -1.
    9900012    2    1    2    0    0 -0.19616477215E+02  0.26575686697E+02 -0.28152259071E+02  0.47787274286E+02  0.20000014778E+02 0.  0.
        -12    1    1    2    0    0  0.19616477215E+02 -0.26575686697E+02  0.28152259071E+02  0.43400725714E+02  0.00000000000E+00 0.  1.
         11    1    3    3    0    0 -0.10404257735E+02  0.12508298522E+02 -0.25549558790E+02  0.30290032446E+02  0.51100000000E-03 0. -1.
        -11    1    3    3    0    0 -0.80469429370E+01  0.11135700326E+02 -0.58284725769E+00  0.13751248073E+02  0.51100000000E-03 0.  1.
        -12    1    3    3    0    0 -0.11652765427E+01  0.29316878491E+01 -0.20198530233E+01  0.37459937668E+01  0.00000000000E+00 0.  1.
</event>
<event>
 7    1  0.2983653E-010  0.4778727E+02  0.7816164E-02  0.1312668E+00
        -11   -1    0    0    0    0  0.00000000000E+00  0.00000000000E+00  0.45593999997E+02  0.45594000000E+02  0.51100000000E-03 0. -1.
         11   -1    0    0    0    0 -0.00000000000E+00 -0.00000000000E+00 -0.45593999997E+02  0.45594000000E+02  0.51100000000E-03 0.  1.
    9900012    2    1    2    0    0 -0.13284243934E+02  0.27739605479E+02  0.30621339191E+02  0.47787271171E+02  0.20000000578E+02 0.  0.
        -12    1    1    2    0    0  0.13284243934E+02 -0.27739605479E+02 -0.30621339191E+02  0.43400728829E+02  0.00000000000E+00 0.  1.
         11    1    3    3    0    0 -0.94088505958E+01  0.29631153702E+02  0.22720563273E+02  0.38506567426E+02  0.51100000000E-03 0. -1.
        -11    1    3    3    0    0 -0.23597064510E+01 -0.17306682645E+01  0.67928802049E+01  0.73963943186E+01  0.51100000000E-03 0.  1.
         12    1    3    3    0    0 -0.15156868876E+01 -0.16087995871E+00  0.11078957130E+01  0.18843094261E+01  0.00000000000E+00 0. -1.
</event>
<event>
 7    1  0.2983653E-010  0.4778727E+02  0.7816164E-02  0.1312668E+00
        -11   -1    0    0    0    0  0.00000000000E+00  0.00000000000E+00  0.45593999997E+02  0.45594000000E+02  0.51100000000E-03 0.  1.
         11   -1    0    0    0    0 -0.00000000000E+00 -0.00000000000E+00 -0.45593999997E+02  0.45594000000E+02  0.51100000000E-03 0. -1.
    9900012    2    1    2    0    0 -0.22429512215E+02 -0.37093076943E+02 -0.21549727547E+01  0.47787270941E+02  0.19999999530E+02 0.  0.
        -12    1    1    2    0    0  0.22429512215E+02  0.37093076943E+02  0.21549727547E+01  0.43400729059E+02  0.00000000000E+00 0.  1.
         11    1    3    3    0    0 -0.16774721707E+01 -0.77636649974E+01 -0.80265671514E+01  0.11292218009E+02  0.51100000000E-03 0. -1.
        -11    1    3    3    0    0 -0.91563420825E+01 -0.11280249360E+02  0.31933910670E+01  0.14875495713E+02  0.51100000000E-03 0.  1.
         12    1    3    3    0    0 -0.11595697961E+02 -0.18049162586E+02  0.26782033296E+01  0.21619557219E+02  0.00000000000E+00 0. -1.
</event>
<event>
 7    1  0.2983653E-010  0.4778727E+02  0.7816164E-02  0.1312668E+00
        -11   -1    0    0    0    0  0.00000000000E+00  0.00000000000E+00  0.45593999997E+02  0.45594000000E+02  0.51100000000E-03 0. -1.
         11   -1    0    0    0    0 -0.00000000000E+00 -0.00000000000E+00 -0.45593999997E+02  0.45594000000E+02  0.51100000000E-03 0.  1.
    9900012    2    1    2    0    0  0.15726898609E+02  0.17497728583E+02  0.36470773748E+02  0.47787272089E+02  0.20000004764E+02 0.  0.
        -12    1    1    2    0    0 -0.15726898609E+02 -0.17497728583E+02 -0.36470773748E+02  0.43400727911E+02  0.00000000000E+00 0.  1.
         11    1    3    3    0    0  0.49286530676E+01  0.15105016680E+02  0.15731354677E+02  0.22359084735E+02  0.51100000000E-03 0. -1.
        -11    1    3    3    0    0  0.81758889101E+01 -0.59974473449E+00  0.19667201760E+02  0.21307362074E+02  0.51100000000E-03 0.  1.
        -12    1    3    3    0    0  0.26223566314E+01  0.29924566374E+01  0.10722173108E+01  0.41208252803E+01  0.00000000000E+00 0.  1.
</event>
<event>
 7    1  0.2983653E-010  0.4778727E+02  0.7816164E-02  0.1312668E+00
        -11   -1    0    0    0    0  0.00000000000E+00  0.00000000000E+00  0.45593999997E+02  0.45594000000E+02  0.51100000000E-03 0.  1.
         11   -1    0    0    0    0 -0.00000000000E+00 -0.00000000000E+00 -0.45593999997E+02  0.45594000000E+02  0.51100000000E-03 0. -1.
    9900012    2    1    2    0    0  0.40108598079E+02  0.11856130287E+02 -0.11591200320E+02  0.47787269705E+02  0.19999993894E+02 0.  0.
        -12    1    1    2    0    0 -0.40108598079E+02 -0.11856130287E+02  0.11591200320E+02  0.43400730295E+02  0.00000000000E+00 0.  1.
         11    1    3    3    0    0  0.20445654521E+02  0.12609531760E+02 -0.16398856384E+01  0.24077257010E+02  0.51100000000E-03 0. -1.
        -11    1    3    3    0    0  0.62575878373E+00 -0.22680137583E+01 -0.51463102673E+00  0.24083824070E+01  0.51100000000E-03 0.  1.
         12    1    3    3    0    0  0.19037184775E+02  0.15146122859E+01 -0.94366836547E+01  0.21301630288E+02  0.00000000000E+00 0. -1.
</event>
<event>
 7    1  0.2983653E-010  0.4778727E+02  0.7816164E-02  0.1312668E+00
        -11   -1    0    0    0    0  0.00000000000E+00  0.00000000000E+00  0.45593999997E+02  0.45594000000E+02  0.51100000000E-03 0.  1.
         11   -1    0    0    0    0 -0.00000000000E+00 -0.00000000000E+00 -0.45593999997E+02  0.45594000000E+02  0.51100000000E-03 0. -1.
    9900012    2    1    2    0    0  0.42811730238E+02 -0.16261125261E+01 -0.69379291544E+01  0.47787270180E+02  0.19999996059E+02 0.  0.
        -12    1    1    2    0    0 -0.42811730238E+02  0.16261125261E+01  0.69379291544E+01  0.43400729820E+02  0.00000000000E+00 0.  1.
         11    1    3    3    0    0  0.18175625925E+02  0.25321249688E+01 -0.32378499511E+01  0.18634610465E+02  0.51100000000E-03 0. -1.
        -11    1    3    3    0    0  0.77003760792E+01 -0.84305022618E+01 -0.21409951100E+01  0.11616928186E+02  0.51100000000E-03 0.  1.
        -12    1    3    3    0    0  0.16935728234E+02  0.42722647669E+01 -0.15590840932E+01  0.17535731530E+02  0.00000000000E+00 0.  1.
</event>
<event>
 7    1  0.2983653E-010  0.4778727E+02  0.7816164E-02  0.1312668E+00
        -11   -1    0    0    0    0  0.00000000000E+00  0.00000000000E+00  0.45593999997E+02  0.45594000000E+02  0.51100000000E-03 0.  1.
         11   -1    0    0    0    0 -0.00000000000E+00 -0.00000000000E+00 -0.45593999997E+02  0.45594000000E+02  0.51100000000E-03 0. -1.
    9900012    2    1    2    0    0  0.11026357200E+02 -0.25341388312E+02 -0.33464262289E+02  0.47787269992E+02  0.19999995204E+02 0.  0.
        -12    1    1    2    0    0 -0.11026357200E+02  0.25341388312E+02  0.33464262289E+02  0.43400730008E+02  0.00000000000E+00 0.  1.
         11    1    3    3    0    0  0.40958667807E+01 -0.57827493754E+01 -0.10454733839E+02  0.12630034637E+02  0.51100000000E-03 0. -1.
        -11    1    3    3    0    0  0.69322538891E+01 -0.22278919950E+02 -0.18044886062E+02  0.29496174860E+02  0.51100000000E-03 0.  1.
        -12    1    3    3    0    0 -0.17634700257E-02  0.27202810132E+01 -0.49646423878E+01  0.56610604960E+01  0.00000000000E+00 0.  1.
</event>
<event>
 7    1  0.2983653E-010  0.4778727E+02  0.7816164E-02  0.1312668E+00
        -11   -1    0    0    0    0  0.00000000000E+00  0.00000000000E+00  0.45593999997E+02  0.45594000000E+02  0.51100000000E-03 0.  1.
         11   -1    0    0    0    0 -0.00000000000E+00 -0.00000000000E+00 -0.45593999997E+02  0.45594000000E+02  0.51100000000E-03 0. -1.
    9900012    2    1    2    0    0  0.19666611983E+01 -0.83912508600E+01 -0.42536365020E+02  0.47787271937E+02  0.20000004070E+02 0.  0.
        -12    1    1    2    0    0 -0.19666611983E+01  0.83912508600E+01  0.42536365020E+02  0.43400728063E+02  0.00000000000E+00 0.  1.
         11    1    3    3    0    0  0.42551951121E+01 -0.39138136643E+01 -0.38510449737E+02  0.38941999975E+02  0.51100000000E-03 0. -1.
        -11    1    3    3    0    0 -0.31837920932E+01 -0.47851392139E+01 -0.49030377705E+01  0.75547249473E+01  0.51100000000E-03 0.  1.
         12    1    3    3    0    0  0.89525817939E+00  0.30770201819E+00  0.87712248723E+00  0.12905470148E+01  0.00000000000E+00 0. -1.
</event>
<event>
 7    1  0.2983653E-010  0.4778727E+02  0.7816164E-02  0.1312668E+00
        -11   -1    0    0    0    0  0.00000000000E+00  0.00000000000E+00  0.45593999997E+02  0.45594000000E+02  0.51100000000E-03 0. -1.
         11   -1    0    0    0    0 -0.00000000000E+00 -0.00000000000E+00 -0.45593999997E+02  0.45594000000E+02  0.51100000000E-03 0.  1.
    9900012    2    1    2    0    0  0.12468422266E+02  0.22418124754E+02  0.35008417983E+02  0.47787271884E+02  0.20000003829E+02 0.  0.
        -12    1    1    2    0    0 -0.12468422266E+02 -0.22418124754E+02 -0.35008417983E+02  0.43400728116E+02  0.00000000000E+00 0.  1.
         11    1    3    3    0    0  0.80200247695E+00  0.90647215819E+01  0.17583721966E+02  0.19798981382E+02  0.51100000000E-03 0. -1.
        -11    1    3    3    0    0  0.11262318868E+02  0.36358192147E+01  0.70862197180E+01  0.13793966717E+02  0.51100000000E-03 0.  1.
        -12    1    3    3    0    0  0.40410092129E+00  0.97175839577E+01  0.10338476299E+02  0.14194323785E+02  0.00000000000E+00 0.  1.
</event>
<event>
 7    1  0.2983653E-010  0.4778729E+02  0.7816164E-02  0.1312668E+00
        -11   -1    0    0    0    0  0.00000000000E+00  0.00000000000E+00  0.45593999997E+02  0.45594000000E+02  0.51100000000E-03 0.  1.
         11   -1    0    0    0    0 -0.00000000000E+00 -0.00000000000E+00 -0.45593999997E+02  0.45594000000E+02  0.51100000000E-03 0. -1.
    9900012    2    1    2    0    0  0.85677220844E+01  0.18181998331E+02 -0.38465965035E+02  0.47787292735E+02  0.20000098896E+02 0.  0.
        -12    1    1    2    0    0 -0.85677220844E+01 -0.18181998331E+02  0.38465965035E+02  0.43400707265E+02  0.00000000000E+00 0.  1.
         11    1    3    3    0    0  0.50375424719E+01  0.38497788235E+01 -0.37267759923E+01  0.73543518208E+01  0.51100000000E-03 0. -1.
        -11    1    3    3    0    0 -0.26745382326E+01  0.12966738823E+02 -0.28966515391E+02  0.31848838041E+02  0.51100000000E-03 0.  1.
        -12    1    3    3    0    0  0.62047178450E+01  0.13654806850E+01 -0.57726736520E+01  0.85841028727E+01  0.00000000000E+00 0.  1.
</event>
<event>
 7    1  0.2983653E-010  0.4778727E+02  0.7816164E-02  0.1312668E+00
        -11   -1    0    0    0    0  0.00000000000E+00  0.00000000000E+00  0.45593999997E+02  0.45594000000E+02  0.51100000000E-03 0.  1.
         11   -1    0    0    0    0 -0.00000000000E+00 -0.00000000000E+00 -0.45593999997E+02  0.45594000000E+02  0.51100000000E-03 0. -1.
    9900012    2    1    2    0    0  0.10591630632E+01 -0.70798686314E+01 -0.42806276186E+02  0.47787266745E+02  0.19999980395E+02 0.  0.
        -12    1    1    2    0    0 -0.10591630632E+01  0.70798686314E+01  0.42806276186E+02  0.43400733255E+02  0.00000000000E+00 0.  1.
         11    1    3    3    0    0  0.42994337055E+01 -0.50519432428E+01 -0.49267899705E+01  0.82632027926E+01  0.51100000000E-03 0. -1.
        -11    1    3    3    0    0 -0.67082996569E+01  0.85487127296E+00 -0.21891981817E+02  0.22912681147E+02  0.51100000000E-03 0.  1.
         12    1    3    3    0    0  0.34680290146E+01 -0.28827966616E+01 -0.15987504398E+02  0.16611382805E+02  0.00000000000E+00 0. -1.
</event>
<event>
 7    1  0.2983653E-010  0.4778728E+02  0.7816164E-02  0.1312668E+00
        -11   -1    0    0    0    0  0.00000000000E+00  0.00000000000E+00  0.45593999997E+02  0.45594000000E+02  0.51100000000E-03 0. -1.
         11   -1    0    0    0    0 -0.00000000000E+00 -0.00000000000E+00 -0.45593999997E+02  0.45594000000E+02  0.51100000000E-03 0.  1.
    9900012    2    1    2    0    0 -0.41874809485E+02 -0.92860530252E+01  0.66251214530E+01  0.47787277835E+02  0.20000030959E+02 0.  0.
        -12    1    1    2    0    0  0.41874809485E+02  0.92860530252E+01 -0.66251214530E+01  0.43400722165E+02  0.00000000000E+00 0.  1.
         11    1    3    3    0    0 -0.86637489712E+00 -0.76252878395E+00  0.15872644099E+01  0.19625147584E+01  0.51100000000E-03 0. -1.
        -11    1    3    3    0    0 -0.22243322655E+02 -0.10752408299E+02 -0.37420998405E+01  0.24987656922E+02  0.51100000000E-03 0.  1.
        -12    1    3    3    0    0 -0.18765111933E+02  0.22288840581E+01  0.87799568836E+01  0.20837106155E+02  0.00000000000E+00 0.  1.
</event>
<event>
 7    1  0.2983653E-010  0.4778728E+02  0.7816164E-02  0.1312668E+00
        -11   -1    0    0    0    0  0.00000000000E+00  0.00000000000E+00  0.45593999997E+02  0.45594000000E+02  0.51100000000E-03 0.  1.
         11   -1    0    0    0    0 -0.00000000000E+00 -0.00000000000E+00 -0.45593999997E+02  0.45594000000E+02  0.51100000000E-03 0. -1.
    9900012    2    1    2    0    0 -0.12430256027E+02 -0.28335802793E+02 -0.30433432674E+02  0.47787276399E+02  0.20000024412E+02 0.  0.
        -12    1    1    2    0    0  0.12430256027E+02  0.28335802793E+02  0.30433432674E+02  0.43400723601E+02  0.00000000000E+00 0.  1.
         11    1    3    3    0    0 -0.33661001767E+01 -0.10096810959E+02 -0.22831368251E+02  0.25190228233E+02  0.51100000000E-03 0. -1.
        -11    1    3    3    0    0 -0.82460901760E+01 -0.11838149122E+02 -0.31771866713E+01  0.14772755099E+02  0.51100000000E-03 0.  1.
         12    1    3    3    0    0 -0.81806567447E+00 -0.64008427122E+01 -0.44248777509E+01  0.78242930662E+01  0.00000000000E+00 0. -1.
</event>
<event>
 7    1  0.2983653E-010  0.4778726E+02  0.7816164E-02  0.1312668E+00
        -11   -1    0    0    0    0  0.00000000000E+00  0.00000000000E+00  0.45593999997E+02  0.45594000000E+02  0.51100000000E-03 0. -1.
         11   -1    0    0    0    0 -0.00000000000E+00 -0.00000000000E+00 -0.45593999997E+02  0.45594000000E+02  0.51100000000E-03 0.  1.
    9900012    2    1    2    0    0  0.66303742482E+01 -0.32067506267E+02  0.28483986044E+02  0.47787259433E+02  0.19999947059E+02 0.  0.
        -12    1    1    2    0    0 -0.66303742482E+01  0.32067506267E+02 -0.28483986044E+02  0.43400740567E+02  0.00000000000E+00 0.  1.
         11    1    3    3    0    0 -0.78004785407E+00 -0.29039986141E+02  0.18760532839E+02  0.34581597164E+02  0.51100000000E-03 0. -1.
        -11    1    3    3    0    0  0.66715574898E+01 -0.10787599812E+01  0.81890078634E+01  0.10617591652E+02  0.51100000000E-03 0.  1.
        -12    1    3    3    0    0  0.73886461245E+00 -0.19487601443E+01  0.15344453412E+01  0.25880706174E+01  0.00000000000E+00 0.  1.
</event>
<event>
 7    1  0.2983653E-010  0.4778727E+02  0.7816164E-02  0.1312668E+00
        -11   -1    0    0    0    0  0.00000000000E+00  0.00000000000E+00  0.45593999997E+02  0.45594000000E+02  0.51100000000E-03 0.  1.
         11   -1    0    0    0    0 -0.00000000000E+00 -0.00000000000E+00 -0.45593999997E+02  0.45594000000E+02  0.51100000000E-03 0. -1.
    9900012    2    1    2    0    0  0.26933229531E+02 -0.34984047254E+01 -0.33852411538E+02  0.47787268951E+02  0.19999990456E+02 0.  0.
        -12    1    1    2    0    0 -0.26933229531E+02  0.34984047254E+01  0.33852411538E+02  0.43400731049E+02  0.00000000000E+00 0.  1.
         11    1    3    3    0    0 -0.10284095874E+01 -0.27352364062E+01 -0.94178154201E+01  0.98607500742E+01  0.51100000000E-03 0. -1.
        -11    1    3    3    0    0  0.21666574699E+02 -0.29864414359E+01 -0.15654487368E+02  0.26896510306E+02  0.51100000000E-03 0.  1.
        -12    1    3    3    0    0  0.62950644202E+01  0.22232731168E+01 -0.87801087507E+01  0.11030008571E+02  0.00000000000E+00 0.  1.
</event>
<event>
 7    1  0.2983653E-010  0.4778727E+02  0.7816164E-02  0.1312668E+00
        -11   -1    0    0    0    0  0.00000000000E+00  0.00000000000E+00  0.45593999997E+02  0.45594000000E+02  0.51100000000E-03 0.  1.
         11   -1    0    0    0    0 -0.00000000000E+00 -0.00000000000E+00 -0.45593999997E+02  0.45594000000E+02  0.51100000000E-03 0. -1.
    9900012    2    1    2    0    0 -0.13559350927E+02 -0.24090710125E+02 -0.33457510673E+02  0.47787270372E+02  0.19999996932E+02 0.  0.
        -12    1    1    2    0    0  0.13559350927E+02  0.24090710125E+02  0.33457510673E+02  0.43400729628E+02  0.00000000000E+00 0.  1.
         11    1    3    3    0    0 -0.12686514343E+02 -0.16473618762E+02 -0.27165706177E+02  0.34209696778E+02  0.51100000000E-03 0. -1.
        -11    1    3    3    0    0 -0.41265985894E+01 -0.19693600525E+01 -0.79215484328E-01  0.45731247838E+01  0.51100000000E-03 0.  1.
         12    1    3    3    0    0  0.32537620056E+01 -0.56477313101E+01 -0.62125890119E+01  0.90044488099E+01  0.00000000000E+00 0. -1.
</event>
<event>
 7    1  0.2983653E-010  0.4778726E+02  0.7816164E-02  0.1312668E+00
        -11   -1    0    0    0    0  0.00000000000E+00  0.00000000000E+00  0.45593999997E+02  0.45594000000E+02  0.51100000000E-03 0.  1.
         11   -1    0    0    0    0 -0.00000000000E+00 -0.00000000000E+00 -0.45593999997E+02  0.45594000000E+02  0.51100000000E-03 0. -1.
    9900012    2    1    2    0    0  0.11583512570E+02  0.18700454299E+02 -0.37413093096E+02  0.47787259345E+02  0.19999946656E+02 0.  0.
        -12    1    1    2    0    0 -0.11583512570E+02 -0.18700454299E+02  0.37413093096E+02  0.43400740655E+02  0.00000000000E+00 0.  1.
         11    1    3    3    0    0  0.18567994974E+01  0.45184153343E+01 -0.11688770724E+02  0.12668509889E+02  0.51100000000E-03 0. -1.
        -11    1    3    3    0    0  0.12060005739E+02  0.16430175013E+02 -0.20083973739E+02  0.28613989425E+02  0.51100000000E-03 0.  1.
        -12    1    3    3    0    0 -0.23332926669E+01 -0.22481360483E+01 -0.56403486333E+01  0.65047600314E+01  0.00000000000E+00 0.  1.
</event>
<event>
 7    1  0.2983653E-010  0.4778728E+02  0.7816164E-02  0.1312668E+00
        -11   -1    0    0    0    0  0.00000000000E+00  0.00000000000E+00  0.45593999997E+02  0.45594000000E+02  0.51100000000E-03 0.  1.
         11   -1    0    0    0    0 -0.00000000000E+00 -0.00000000000E+00 -0.45593999997E+02  0.45594000000E+02  0.51100000000E-03 0. -1.
    9900012    2    1    2    0    0 -0.16544342368E+02  0.32035697049E+02 -0.24158264923E+02  0.47787275192E+02  0.20000018909E+02 0.  0.
        -12    1    1    2    0    0  0.16544342368E+02 -0.32035697049E+02  0.24158264923E+02  0.43400724808E+02  0.00000000000E+00 0.  1.
         11    1    3    3    0    0 -0.60521606790E+01  0.13356441103E+02 -0.45661792834E+01  0.15358162694E+02  0.51100000000E-03 0. -1.
        -11    1    3    3    0    0 -0.11777889294E+02  0.15764358831E+02 -0.95101929160E+01  0.21855833435E+02  0.51100000000E-03 0.  1.
        -12    1    3    3    0    0  0.12857076056E+01  0.29148971143E+01 -0.10081892724E+02  0.10573279062E+02  0.00000000000E+00 0.  1.
</event>
<event>
 7    1  0.2983653E-010  0.4778727E+02  0.7816164E-02  0.1312668E+00
        -11   -1    0    0    0    0  0.00000000000E+00  0.00000000000E+00  0.45593999997E+02  0.45594000000E+02  0.51100000000E-03 0.  1.
         11   -1    0    0    0    0 -0.00000000000E+00 -0.00000000000E+00 -0.45593999997E+02  0.45594000000E+02  0.51100000000E-03 0. -1.
    9900012    2    1    2    0    0  0.90185319279E+00  0.24225959922E+02 -0.35998784685E+02  0.47787274521E+02  0.20000015850E+02 0.  0.
        -12    1    1    2    0    0 -0.90185319279E+00 -0.24225959922E+02  0.35998784685E+02  0.43400725479E+02  0.00000000000E+00 0.  1.
         11    1    3    3    0    0 -0.19617103641E+01  0.63146402982E+01 -0.16396501118E+02  0.17679599510E+02  0.51100000000E-03 0. -1.
        -11    1    3    3    0    0 -0.36326115773E+00  0.18048307274E+02 -0.11547175847E+02  0.21429200275E+02  0.51100000000E-03 0.  1.
        -12    1    3    3    0    0  0.32268247146E+01 -0.13698765072E+00 -0.80551077203E+01  0.86784747358E+01  0.00000000000E+00 0.  1.
</event>
<event>
 7    1  0.2983653E-010  0.4778727E+02  0.7816164E-02  0.1312668E+00
        -11   -1    0    0    0    0  0.00000000000E+00  0.00000000000E+00  0.45593999997E+02  0.45594000000E+02  0.51100000000E-03 0.  1.
         11   -1    0    0    0    0 -0.00000000000E+00 -0.00000000000E+00 -0.45593999997E+02  0.45594000000E+02  0.51100000000E-03 0. -1.
    9900012    2    1    2    0    0 -0.24285112800E+02  0.21944801755E+02 -0.28500564229E+02  0.47787272021E+02  0.20000004451E+02 0.  0.
        -12    1    1    2    0    0  0.24285112800E+02 -0.21944801755E+02  0.28500564229E+02  0.43400727979E+02  0.00000000000E+00 0.  1.
         11    1    3    3    0    0 -0.65350233280E+01  0.11021385962E+02 -0.11345798246E+01  0.12863310229E+02  0.51100000000E-03 0.  1.
        -11    1    3    3    0    0 -0.83043030458E+01  0.48515396004E+01 -0.17535674782E+02  0.19999969397E+02  0.51100000000E-03 0. -1.
        -12    1    3    3    0    0 -0.94457864263E+01  0.60718761934E+01 -0.98303096216E+01  0.14923992394E+02  0.00000000000E+00 0.  1.
</event>
<event>
 7    1  0.2983653E-010  0.4778726E+02  0.7816164E-02  0.1312668E+00
        -11   -1    0    0    0    0  0.00000000000E+00  0.00000000000E+00  0.45593999997E+02  0.45594000000E+02  0.51100000000E-03 0.  1.
         11   -1    0    0    0    0 -0.00000000000E+00 -0.00000000000E+00 -0.45593999997E+02  0.45594000000E+02  0.51100000000E-03 0. -1.
    9900012    2    1    2    0    0  0.35454334313E+01  0.16047057420E+02 -0.40168966593E+02  0.47787262366E+02  0.19999960432E+02 0.  0.
        -12    1    1    2    0    0 -0.35454334313E+01 -0.16047057420E+02  0.40168966593E+02  0.43400737634E+02  0.00000000000E+00 0.  1.
         11    1    3    3    0    0 -0.23639316753E+01  0.13428098668E+02 -0.22295043569E+02  0.26133713375E+02  0.51100000000E-03 0. -1.
        -11    1    3    3    0    0  0.87109714478E+01  0.30017447848E+01 -0.15122232521E+02  0.17708004179E+02  0.51100000000E-03 0.  1.
        -12    1    3    3    0    0 -0.28016063413E+01 -0.38278603269E+00 -0.27516905030E+01  0.39455448119E+01  0.00000000000E+00 0.  1.
</event>
<event>
 7    1  0.2983653E-010  0.4778727E+02  0.7816164E-02  0.1312668E+00
        -11   -1    0    0    0    0  0.00000000000E+00  0.00000000000E+00  0.45593999997E+02  0.45594000000E+02  0.51100000000E-03 0.  1.
         11   -1    0    0    0    0 -0.00000000000E+00 -0.00000000000E+00 -0.45593999997E+02  0.45594000000E+02  0.51100000000E-03 0. -1.
    9900012    2    1    2    0    0  0.15064532621E+02 -0.36907565959E+02 -0.17161428407E+02  0.47787271975E+02  0.20000004242E+02 0.  0.
        -12    1    1    2    0    0 -0.15064532621E+02  0.36907565959E+02  0.17161428407E+02  0.43400728025E+02  0.00000000000E+00 0.  1.
         11    1    3    3    0    0  0.12937841983E+02 -0.29317367588E+02 -0.15944981293E+02  0.35792991300E+02  0.51100000000E-03 0. -1.
        -11    1    3    3    0    0  0.52791125808E+01 -0.50896191998E+01 -0.25368088698E+01  0.77594234800E+01  0.51100000000E-03 0.  1.
         12    1    3    3    0    0 -0.31524219429E+01 -0.25005791712E+01  0.13203617556E+01  0.42348571951E+01  0.00000000000E+00 0. -1.
</event>
<event>
 7    1  0.2983653E-010  0.4778727E+02  0.7816164E-02  0.1312668E+00
        -11   -1    0    0    0    0  0.00000000000E+00  0.00000000000E+00  0.45593999997E+02  0.45594000000E+02  0.51100000000E-03 0.  1.
         11   -1    0    0    0    0 -0.00000000000E+00 -0.00000000000E+00 -0.45593999997E+02  0.45594000000E+02  0.51100000000E-03 0. -1.
    9900012    2    1    2    0    0  0.38869911212E+01  0.43182490178E+02 -0.19460825889E+01  0.47787269644E+02  0.19999993617E+02 0.  0.
        -12    1    1    2    0    0 -0.38869911212E+01 -0.43182490178E+02  0.19460825889E+01  0.43400730356E+02  0.00000000000E+00 0.  1.
         11    1    3    3    0    0 -0.33422066149E+01  0.17888635882E+02 -0.73084867893E+01  0.19610905594E+02  0.51100000000E-03 0. -1.
        -11    1    3    3    0    0  0.66460932193E+01  0.82478508730E+01  0.24760634633E+01  0.10877889944E+02  0.51100000000E-03 0.  1.
         12    1    3    3    0    0  0.58310451684E+00  0.17046003423E+02  0.28863407371E+01  0.17298474107E+02  0.00000000000E+00 0. -1.
</event>
<event>
 7    1  0.2983653E-010  0.4778727E+02  0.7816164E-02  0.1312668E+00
        -11   -1    0    0    0    0  0.00000000000E+00  0.00000000000E+00  0.45593999997E+02  0.45594000000E+02  0.51100000000E-03 0. -1.
         11   -1    0    0    0    0 -0.00000000000E+00 -0.00000000000E+00 -0.45593999997E+02  0.45594000000E+02  0.51100000000E-03 0.  1.
    9900012    2    1    2    0    0  0.40421718142E+02 -0.14844135182E+01  0.15732278855E+02  0.47787269833E+02  0.19999994476E+02 0.  0.
        -12    1    1    2    0    0 -0.40421718142E+02  0.14844135182E+01 -0.15732278855E+02  0.43400730167E+02  0.00000000000E+00 0.  1.
         11    1    3    3    0    0  0.22935733854E+02 -0.57914916599E+00  0.16663846783E+02  0.28356076792E+02  0.51100000000E-03 0. -1.
        -11    1    3    3    0    0  0.23818875388E+01  0.28428971906E+01 -0.10984690156E+01  0.38680857182E+01  0.51100000000E-03 0.  1.
         12    1    3    3    0    0  0.15104096749E+02 -0.37481615427E+01  0.16690108817E+00  0.15563107323E+02  0.00000000000E+00 0. -1.
</event>
<event>
 7    1  0.2983653E-010  0.4778727E+02  0.7816164E-02  0.1312668E+00
        -11   -1    0    0    0    0  0.00000000000E+00  0.00000000000E+00  0.45593999997E+02  0.45594000000E+02  0.51100000000E-03 0.  1.
         11   -1    0    0    0    0 -0.00000000000E+00 -0.00000000000E+00 -0.45593999997E+02  0.45594000000E+02  0.51100000000E-03 0. -1.
    9900012    2    1    2    0    0  0.78425285058E+01  0.94244017613E+01 -0.41632901201E+02  0.47787273459E+02  0.20000011007E+02 0.  0.
        -12    1    1    2    0    0 -0.78425285058E+01 -0.94244017613E+01  0.41632901201E+02  0.43400726541E+02  0.00000000000E+00 0.  1.
         11    1    3    3    0    0  0.33082082000E+01  0.65534947031E+01 -0.68406932160E+01  0.10034322013E+02  0.51100000000E-03 0.  1.
        -11    1    3    3    0    0 -0.70016359047E-01 -0.52678419026E+01 -0.11284575248E+02  0.12453782534E+02  0.51100000000E-03 0. -1.
        -12    1    3    3    0    0  0.46043366649E+01  0.81387489608E+01 -0.23507632737E+02  0.25299168912E+02  0.00000000000E+00 0.  1.
</event>
<event>
 7    1  0.2983653E-010  0.4778727E+02  0.7816164E-02  0.1312668E+00
        -11   -1    0    0    0    0  0.00000000000E+00  0.00000000000E+00  0.45593999997E+02  0.45594000000E+02  0.51100000000E-03 0. -1.
         11   -1    0    0    0    0 -0.00000000000E+00 -0.00000000000E+00 -0.45593999997E+02  0.45594000000E+02  0.51100000000E-03 0.  1.
    9900012    2    1    2    0    0 -0.31801494421E+02  0.28253270795E+02  0.86047068245E+01  0.47787270311E+02  0.19999996654E+02 0.  0.
        -12    1    1    2    0    0  0.31801494421E+02 -0.28253270795E+02 -0.86047068245E+01  0.43400729689E+02  0.00000000000E+00 0.  1.
         11    1    3    3    0    0 -0.45505902626E+01  0.74482586365E+00  0.29986681464E+01  0.55004225491E+01  0.51100000000E-03 0. -1.
        -11    1    3    3    0    0 -0.26042790021E+02  0.17052619008E+02  0.62167051257E+01  0.31743757654E+02  0.51100000000E-03 0.  1.
        -12    1    3    3    0    0 -0.12081141376E+01  0.10455825923E+02 -0.61066644763E+00  0.10543090107E+02  0.00000000000E+00 0.  1.
</event>
<event>
 7    1  0.2983653E-010  0.4778727E+02  0.7816164E-02  0.1312668E+00
        -11   -1    0    0    0    0  0.00000000000E+00  0.00000000000E+00  0.45593999997E+02  0.45594000000E+02  0.51100000000E-03 0. -1.
         11   -1    0    0    0    0 -0.00000000000E+00 -0.00000000000E+00 -0.45593999997E+02  0.45594000000E+02  0.51100000000E-03 0.  1.
    9900012    2    1    2    0    0 -0.21911827127E+02 -0.10059329656E+02  0.36087469346E+02  0.47787265848E+02  0.19999976307E+02 0.  0.
        -12    1    1    2    0    0  0.21911827127E+02  0.10059329656E+02 -0.36087469346E+02  0.43400734152E+02  0.00000000000E+00 0.  1.
         11    1    3    3    0    0 -0.91010417353E+00 -0.45219082509E+01  0.15014850469E+02  0.15707376570E+02  0.51100000000E-03 0. -1.
        -11    1    3    3    0    0 -0.13765261816E+00  0.14794958575E+01  0.38618976338E+01  0.41378871216E+01  0.51100000000E-03 0.  1.
         12    1    3    3    0    0 -0.20864070335E+02 -0.70169172630E+01  0.17210721243E+02  0.27942002157E+02  0.00000000000E+00 0. -1.
</event>
<event>
 7    1  0.2983653E-010  0.4778727E+02  0.7816164E-02  0.1312668E+00
        -11   -1    0    0    0    0  0.00000000000E+00  0.00000000000E+00  0.45593999997E+02  0.45594000000E+02  0.51100000000E-03 0.  1.
         11   -1    0    0    0    0 -0.00000000000E+00 -0.00000000000E+00 -0.45593999997E+02  0.45594000000E+02  0.51100000000E-03 0. -1.
    9900012    2    1    2    0    0 -0.13744359218E+02 -0.58158314486E+01 -0.40754044416E+02  0.47787269108E+02  0.19999991170E+02 0.  0.
        -12    1    1    2    0    0  0.13744359218E+02  0.58158314486E+01  0.40754044416E+02  0.43400730892E+02  0.00000000000E+00 0.  1.
         11    1    3    3    0    0 -0.32289542712E+01 -0.66750461058E+01 -0.27034209528E+02  0.28032675064E+02  0.51100000000E-03 0. -1.
        -11    1    3    3    0    0 -0.12223158594E+02  0.13017475893E+01 -0.10903077317E+02  0.16430984390E+02  0.51100000000E-03 0.  1.
        -12    1    3    3    0    0  0.17077536471E+01 -0.44253293215E+00 -0.28167575707E+01  0.33236096533E+01  0.00000000000E+00 0.  1.
</event>
<event>
 7    1  0.2983653E-010  0.4778727E+02  0.7816164E-02  0.1312668E+00
        -11   -1    0    0    0    0  0.00000000000E+00  0.00000000000E+00  0.45593999997E+02  0.45594000000E+02  0.51100000000E-03 0.  1.
         11   -1    0    0    0    0 -0.00000000000E+00 -0.00000000000E+00 -0.45593999997E+02  0.45594000000E+02  0.51100000000E-03 0. -1.
    9900012    2    1    2    0    0 -0.33695753963E+02 -0.58846401845E+01 -0.26713117270E+02  0.47787268906E+02  0.19999990248E+02 0.  0.
        -12    1    1    2    0    0  0.33695753963E+02  0.58846401845E+01  0.26713117270E+02  0.43400731094E+02  0.00000000000E+00 0.  1.
         11    1    3    3    0    0 -0.16920284464E+02 -0.11434765936E+02 -0.18229216784E+02  0.27374335484E+02  0.51100000000E-03 0. -1.
        -11    1    3    3    0    0 -0.15003933707E+02  0.54570389039E+01 -0.53977982702E+01  0.16853294239E+02  0.51100000000E-03 0.  1.
        -12    1    3    3    0    0 -0.17715357915E+01  0.93086847573E-01 -0.30861022162E+01  0.35596391826E+01  0.00000000000E+00 0.  1.
</event>
<event>
 7    1  0.2983653E-010  0.4778727E+02  0.7816164E-02  0.1312668E+00
        -11   -1    0    0    0    0  0.00000000000E+00  0.00000000000E+00  0.45593999997E+02  0.45594000000E+02  0.51100000000E-03 0.  1.
         11   -1    0    0    0    0 -0.00000000000E+00 -0.00000000000E+00 -0.45593999997E+02  0.45594000000E+02  0.51100000000E-03 0. -1.
    9900012    2    1    2    0    0  0.15554724574E+01 -0.40952743505E+02 -0.14285534994E+02  0.47787271836E+02  0.20000003607E+02 0.  0.
        -12    1    1    2    0    0 -0.15554724574E+01  0.40952743505E+02  0.14285534994E+02  0.43400728164E+02  0.00000000000E+00 0.  1.
         11    1    3    3    0    0  0.13184912727E+01 -0.35845253592E+02 -0.59355038961E+01  0.36357266551E+02  0.51100000000E-03 0. -1.
        -11    1    3    3    0    0 -0.19946238235E+01 -0.38056533738E+01 -0.76155942527E+01  0.87440721567E+01  0.51100000000E-03 0.  1.
         12    1    3    3    0    0  0.22316050081E+01 -0.13018365389E+01 -0.73443684492E+00  0.26859331275E+01  0.00000000000E+00 0. -1.
</event>
<event>
 7    1  0.3671912E-010  0.4778727E+02  0.7816164E-02  0.1312668E+00
        -11   -1    0    0    0    0  0.00000000000E+00  0.00000000000E+00  0.45593999997E+02  0.45594000000E+02  0.51100000000E-03 0.  1.
         11   -1    0    0    0    0 -0.00000000000E+00 -0.00000000000E+00 -0.45593999997E+02  0.45594000000E+02  0.51100000000E-03 0. -1.
    9900012    2    1    2    0    0  0.40214176961E+02 -0.16293430668E+02 -0.98353262094E+00  0.47787271343E+02  0.20000001361E+02 0.  0.
        -12    1    1    2    0    0 -0.40214176961E+02  0.16293430668E+02  0.98353262094E+00  0.43400728657E+02  0.00000000000E+00 0.  1.
         11    1    3    3    0    0  0.14561159723E+02 -0.35467194352E+01  0.15178171973E+00  0.14987649221E+02  0.51100000000E-03 0. -1.
        -11    1    3    3    0    0  0.24671888073E+02 -0.15331188067E+02 -0.33736908352E+01  0.29242591861E+02  0.51100000000E-03 0.  1.
        -12    1    3    3    0    0  0.98112916449E+00  0.25844768343E+01  0.22383764946E+01  0.35570302607E+01  0.00000000000E+00 0.  1.
</event>
<event>
 7    1  0.2983653E-010  0.4778727E+02  0.7816164E-02  0.1312668E+00
        -11   -1    0    0    0    0  0.00000000000E+00  0.00000000000E+00  0.45593999997E+02  0.45594000000E+02  0.51100000000E-03 0.  1.
         11   -1    0    0    0    0 -0.00000000000E+00 -0.00000000000E+00 -0.45593999997E+02  0.45594000000E+02  0.51100000000E-03 0. -1.
    9900012    2    1    2    0    0 -0.35896882375E+02  0.88834556382E+01 -0.22718305346E+02  0.47787270212E+02  0.19999996206E+02 0.  0.
        -12    1    1    2    0    0  0.35896882375E+02 -0.88834556382E+01  0.22718305346E+02  0.43400729788E+02  0.00000000000E+00 0.  1.
         11    1    3    3    0    0 -0.25119908487E+02  0.77264041981E+01 -0.14935543333E+02  0.30228754178E+02  0.51100000000E-03 0. -1.
        -11    1    3    3    0    0 -0.73970515907E+01 -0.43658774577E+01 -0.18713015182E+01  0.87908490969E+01  0.51100000000E-03 0.  1.
        -12    1    3    3    0    0 -0.33799222970E+01  0.55229288978E+01 -0.59114604942E+01  0.87676669371E+01  0.00000000000E+00 0.  1.
</event>
<event>
 7    1  0.2983653E-010  0.4778727E+02  0.7816164E-02  0.1312668E+00
        -11   -1    0    0    0    0  0.00000000000E+00  0.00000000000E+00  0.45593999997E+02  0.45594000000E+02  0.51100000000E-03 0.  1.
         11   -1    0    0    0    0 -0.00000000000E+00 -0.00000000000E+00 -0.45593999997E+02  0.45594000000E+02  0.51100000000E-03 0. -1.
    9900012    2    1    2    0    0 -0.21087126671E+02  0.37874344884E+02  0.21190844195E+01  0.47787269241E+02  0.19999991779E+02 0.  0.
        -12    1    1    2    0    0  0.21087126671E+02 -0.37874344884E+02 -0.21190844195E+01  0.43400730759E+02  0.00000000000E+00 0.  1.
         11    1    3    3    0    0 -0.43266096651E+01  0.90251240952E+01 -0.27346973059E+01  0.10375499301E+02  0.51100000000E-03 0. -1.
        -11    1    3    3    0    0 -0.95809687806E+01  0.21940650293E+02 -0.37675720539E+01  0.24235958770E+02  0.51100000000E-03 0.  1.
        -12    1    3    3    0    0 -0.71795482252E+01  0.69085704958E+01  0.86213537794E+01  0.13175811171E+02  0.00000000000E+00 0.  1.
</event>
<event>
 7    1  0.2983653E-010  0.4778728E+02  0.7816164E-02  0.1312668E+00
        -11   -1    0    0    0    0  0.00000000000E+00  0.00000000000E+00  0.45593999997E+02  0.45594000000E+02  0.51100000000E-03 0.  1.
         11   -1    0    0    0    0 -0.00000000000E+00 -0.00000000000E+00 -0.45593999997E+02  0.45594000000E+02  0.51100000000E-03 0. -1.
    9900012    2    1    2    0    0  0.30357086585E+02  0.13032373575E+02 -0.28146531994E+02  0.47787277308E+02  0.20000028557E+02 0.  0.
        -12    1    1    2    0    0 -0.30357086585E+02 -0.13032373575E+02  0.28146531994E+02  0.43400722692E+02  0.00000000000E+00 0.  1.
         11    1    3    3    0    0  0.56076996802E+01  0.28568989621E+01 -0.61258146230E+01  0.87825834718E+01  0.51100000000E-03 0. -1.
        -11    1    3    3    0    0  0.11851761128E+02 -0.39345510147E+01 -0.51488720689E+01  0.13507620714E+02  0.51100000000E-03 0.  1.
        -12    1    3    3    0    0  0.12897625777E+02  0.14110025627E+02 -0.16871845302E+02  0.25497073122E+02  0.00000000000E+00 0.  1.
</event>
<event>
 7    1  0.2983653E-010  0.4778726E+02  0.7816164E-02  0.1312668E+00
        -11   -1    0    0    0    0  0.00000000000E+00  0.00000000000E+00  0.45593999997E+02  0.45594000000E+02  0.51100000000E-03 0.  1.
         11   -1    0    0    0    0 -0.00000000000E+00 -0.00000000000E+00 -0.45593999997E+02  0.45594000000E+02  0.51100000000E-03 0. -1.
    9900012    2    1    2    0    0  0.34098102470E+02  0.43510323326E+01 -0.26495506292E+02  0.47787263508E+02  0.19999965638E+02 0.  0.
        -12    1    1    2    0    0 -0.34098102470E+02 -0.43510323326E+01  0.26495506292E+02  0.43400736492E+02  0.00000000000E+00 0.  1.
         11    1    3    3    0    0  0.92706493170E+01  0.13860625792E+01 -0.19362307896E+02  0.21511975166E+02  0.51100000000E-03 0. -1.
        -11    1    3    3    0    0  0.20112449311E+02  0.37683576551E+01 -0.63758109180E+01  0.21432734353E+02  0.51100000000E-03 0.  1.
         12    1    3    3    0    0  0.47150038417E+01 -0.80338790167E+00 -0.75738747834E+00  0.48425539894E+01  0.00000000000E+00 0. -1.
</event>
<event>
 7    1  0.2983653E-010  0.4778725E+02  0.7816164E-02  0.1312668E+00
        -11   -1    0    0    0    0  0.00000000000E+00  0.00000000000E+00  0.45593999997E+02  0.45594000000E+02  0.51100000000E-03 0.  1.
         11   -1    0    0    0    0 -0.00000000000E+00 -0.00000000000E+00 -0.45593999997E+02  0.45594000000E+02  0.51100000000E-03 0. -1.
    9900012    2    1    2    0    0  0.26420986736E+02  0.25141118567E+02  0.23526169695E+02  0.47787250658E+02  0.19999907051E+02 0.  0.
        -12    1    1    2    0    0 -0.26420986736E+02 -0.25141118567E+02 -0.23526169695E+02  0.43400749342E+02  0.00000000000E+00 0.  1.
         11    1    3    3    0    0  0.61517165990E+01  0.31544237188E+01  0.99090972498E+01  0.12082392755E+02  0.51100000000E-03 0. -1.
        -11    1    3    3    0    0  0.15985749087E+02  0.20402949093E+02  0.56600357773E+01  0.26530369594E+02  0.51100000000E-03 0.  1.
        -12    1    3    3    0    0  0.42835210500E+01  0.15837457562E+01  0.79570366676E+01  0.91744883092E+01  0.00000000000E+00 0.  1.
</event>
<event>
 7    1  0.2983653E-010  0.4778728E+02  0.7816164E-02  0.1312668E+00
        -11   -1    0    0    0    0  0.00000000000E+00  0.00000000000E+00  0.45593999997E+02  0.45594000000E+02  0.51100000000E-03 0.  1.
         11   -1    0    0    0    0 -0.00000000000E+00 -0.00000000000E+00 -0.45593999997E+02  0.45594000000E+02  0.51100000000E-03 0. -1.
    9900012    2    1    2    0    0  0.27368927429E+02 -0.95026531991E+01 -0.32315078804E+02  0.47787275069E+02  0.20000018349E+02 0.  0.
        -12    1    1    2    0    0 -0.27368927429E+02  0.95026531991E+01  0.32315078804E+02  0.43400724931E+02  0.00000000000E+00 0.  1.
         11    1    3    3    0    0  0.15660720977E+01 -0.18693360251E+00 -0.18425873652E+01  0.24254184065E+01  0.51100000000E-03 0. -1.
        -11    1    3    3    0    0  0.94348528385E+01 -0.96447682827E+01 -0.37165415897E+01  0.13994666304E+02  0.51100000000E-03 0.  1.
        -12    1    3    3    0    0  0.16368002493E+02  0.32904868613E+00 -0.26755949849E+02  0.31367190358E+02  0.00000000000E+00 0.  1.
</event>
<event>
 7    1  0.2983653E-010  0.4778727E+02  0.7816164E-02  0.1312668E+00
        -11   -1    0    0    0    0  0.00000000000E+00  0.00000000000E+00  0.45593999997E+02  0.45594000000E+02  0.51100000000E-03 0.  1.
         11   -1    0    0    0    0 -0.00000000000E+00 -0.00000000000E+00 -0.45593999997E+02  0.45594000000E+02  0.51100000000E-03 0. -1.
    9900012    2    1    2    0    0 -0.13036479212E+02  0.38359291850E+02 -0.15564003734E+02  0.47787271046E+02  0.20000000008E+02 0.  0.
        -12    1    1    2    0    0  0.13036479212E+02 -0.38359291850E+02  0.15564003734E+02  0.43400728954E+02  0.00000000000E+00 0.  1.
         11    1    3    3    0    0 -0.11496013880E+02  0.19871115252E+02 -0.10890361791E+02  0.25409044388E+02  0.51100000000E-03 0. -1.
        -11    1    3    3    0    0  0.50836170096E+00  0.70904574372E+01  0.37699353341E+01  0.80464545592E+01  0.51100000000E-03 0.  1.
        -12    1    3    3    0    0 -0.20488270333E+01  0.11397719161E+02 -0.84435772769E+01  0.14331772099E+02  0.00000000000E+00 0.  1.
</event>
<event>
 7    1  0.2983653E-010  0.4778728E+02  0.7816164E-02  0.1312668E+00
        -11   -1    0    0    0    0  0.00000000000E+00  0.00000000000E+00  0.45593999997E+02  0.45594000000E+02  0.51100000000E-03 0. -1.
         11   -1    0    0    0    0 -0.00000000000E+00 -0.00000000000E+00 -0.45593999997E+02  0.45594000000E+02  0.51100000000E-03 0.  1.
    9900012    2    1    2    0    0  0.53405604080E+01  0.39283603286E+02 -0.17660686590E+02  0.47787275082E+02  0.20000018410E+02 0.  0.
        -12    1    1    2    0    0 -0.53405604080E+01 -0.39283603286E+02  0.17660686590E+02  0.43400724918E+02  0.00000000000E+00 0.  1.
         11    1    3    3    0    0 -0.70957081569E+01  0.14360218110E+02 -0.60472083011E+01  0.17121146775E+02  0.51100000000E-03 0. -1.
        -11    1    3    3    0    0  0.64103384870E+01  0.14314913176E+02 -0.93419689709E+01  0.18256000747E+02  0.51100000000E-03 0.  1.
        -12    1    3    3    0    0  0.60259300779E+01  0.10608471999E+02 -0.22715093176E+01  0.12410127560E+02  0.00000000000E+00 0.  1.
</event>
<event>
 7    1  0.2983653E-010  0.4778727E+02  0.7816164E-02  0.1312668E+00
        -11   -1    0    0    0    0  0.00000000000E+00  0.00000000000E+00  0.45593999997E+02  0.45594000000E+02  0.51100000000E-03 0.  1.
         11   -1    0    0    0    0 -0.00000000000E+00 -0.00000000000E+00 -0.45593999997E+02  0.45594000000E+02  0.51100000000E-03 0. -1.
    9900012    2    1    2    0    0 -0.10421936142E+02 -0.32407908942E+02 -0.26920883990E+02  0.47787270631E+02  0.19999998114E+02 0.  0.
        -12    1    1    2    0    0  0.10421936142E+02  0.32407908942E+02  0.26920883990E+02  0.43400729369E+02  0.00000000000E+00 0.  1.
         11    1    3    3    0    0 -0.11192795241E+02 -0.14560073120E+02 -0.18924121992E+02  0.26370377092E+02  0.51100000000E-03 0. -1.
        -11    1    3    3    0    0  0.16711951980E+01 -0.51117107121E+01 -0.66880288185E+01  0.85820865489E+01  0.51100000000E-03 0.  1.
         12    1    3    3    0    0 -0.90033609866E+00 -0.12736125111E+02 -0.13087331795E+01  0.12834806990E+02  0.00000000000E+00 0. -1.
</event>
<event>
 7    1  0.2983653E-010  0.4778728E+02  0.7816164E-02  0.1312668E+00
        -11   -1    0    0    0    0  0.00000000000E+00  0.00000000000E+00  0.45593999997E+02  0.45594000000E+02  0.51100000000E-03 0.  1.
         11   -1    0    0    0    0 -0.00000000000E+00 -0.00000000000E+00 -0.45593999997E+02  0.45594000000E+02  0.51100000000E-03 0. -1.
    9900012    2    1    2    0    0  0.38328845360E+00 -0.81611542416E+01 -0.42624768043E+02  0.47787283423E+02  0.20000056441E+02 0.  0.
        -12    1    1    2    0    0 -0.38328845360E+00  0.81611542416E+01  0.42624768043E+02  0.43400716577E+02  0.00000000000E+00 0.  1.
         11    1    3    3    0    0  0.73962559253E+01 -0.64665637491E+01 -0.13038924488E+02  0.16325887434E+02  0.51100000000E-03 0. -1.
        -11    1    3    3    0    0 -0.69693882864E+01 -0.41576731760E+01 -0.24525229499E+02  0.25833031211E+02  0.51100000000E-03 0.  1.
         12    1    3    3    0    0 -0.43579185321E-01  0.24630826835E+01 -0.50606140559E+01  0.56283647780E+01  0.00000000000E+00 0. -1.
</event>
<event>
 7    1  0.2983653E-010  0.4778727E+02  0.7816164E-02  0.1312668E+00
        -11   -1    0    0    0    0  0.00000000000E+00  0.00000000000E+00  0.45593999997E+02  0.45594000000E+02  0.51100000000E-03 0.  1.
         11   -1    0    0    0    0 -0.00000000000E+00 -0.00000000000E+00 -0.45593999997E+02  0.45594000000E+02  0.51100000000E-03 0. -1.
    9900012    2    1    2    0    0  0.78414514351E+01  0.37386144410E+02 -0.20601237391E+02  0.47787272627E+02  0.20000007215E+02 0.  0.
        -12    1    1    2    0    0 -0.78414514351E+01 -0.37386144410E+02  0.20601237391E+02  0.43400727373E+02  0.00000000000E+00 0.  1.
         11    1    3    3    0    0  0.74467251580E+01  0.15434606732E+02 -0.10377889546E+02  0.20034505041E+02  0.51100000000E-03 0. -1.
        -11    1    3    3    0    0 -0.49792344303E+01  0.18284748286E+02 -0.55636453216E+01  0.19750416323E+02  0.51100000000E-03 0.  1.
        -12    1    3    3    0    0  0.53739607073E+01  0.36667893924E+01 -0.46597025228E+01  0.80023512628E+01  0.00000000000E+00 0.  1.
</event>
<event>
 7    1  0.2983653E-010  0.4778728E+02  0.7816164E-02  0.1312668E+00
        -11   -1    0    0    0    0  0.00000000000E+00  0.00000000000E+00  0.45593999997E+02  0.45594000000E+02  0.51100000000E-03 0. -1.
         11   -1    0    0    0    0 -0.00000000000E+00 -0.00000000000E+00 -0.45593999997E+02  0.45594000000E+02  0.51100000000E-03 0.  1.
    9900012    2    1    2    0    0  0.17521344248E+01  0.41309412746E+02  0.13194125079E+02  0.47787280040E+02  0.20000041012E+02 0.  0.
        -12    1    1    2    0    0 -0.17521344248E+01 -0.41309412746E+02 -0.13194125079E+02  0.43400719960E+02  0.00000000000E+00 0.  1.
         11    1    3    3    0    0  0.66160134799E+01  0.11855477525E+02  0.27897036228E+01  0.13860246328E+02  0.51100000000E-03 0.  1.
        -11    1    3    3    0    0 -0.84298378738E+01  0.16059861420E+02  0.36220265051E+01  0.18495956089E+02  0.51100000000E-03 0. -1.
         12    1    3    3    0    0  0.35659588188E+01  0.13394073802E+02  0.67823949514E+01  0.15431077622E+02  0.00000000000E+00 0. -1.
</event>
<event>
 7    1  0.2983653E-010  0.4778727E+02  0.7816164E-02  0.1312668E+00
        -11   -1    0    0    0    0  0.00000000000E+00  0.00000000000E+00  0.45593999997E+02  0.45594000000E+02  0.51100000000E-03 0.  1.
         11   -1    0    0    0    0 -0.00000000000E+00 -0.00000000000E+00 -0.45593999997E+02  0.45594000000E+02  0.51100000000E-03 0. -1.
    9900012    2    1    2    0    0  0.22182103117E+02  0.24508158353E+02 -0.28123439539E+02  0.47787269867E+02  0.19999994634E+02 0.  0.
        -12    1    1    2    0    0 -0.22182103117E+02 -0.24508158353E+02  0.28123439539E+02  0.43400730133E+02  0.00000000000E+00 0.  1.
         11    1    3    3    0    0  0.16241971299E+01  0.12942060758E+02 -0.15740857354E+02  0.20442835994E+02  0.51100000000E-03 0. -1.
        -11    1    3    3    0    0  0.14120988821E+02  0.66072010987E+01 -0.11052831790E+02  0.19110795966E+02  0.51100000000E-03 0.  1.
         12    1    3    3    0    0  0.64369171663E+01  0.49588964961E+01 -0.13297503948E+01  0.82336379067E+01  0.00000000000E+00 0. -1.
</event>
<event>
 7    1  0.2983653E-010  0.4778724E+02  0.7816164E-02  0.1312668E+00
        -11   -1    0    0    0    0  0.00000000000E+00  0.00000000000E+00  0.45593999997E+02  0.45594000000E+02  0.51100000000E-03 0. -1.
         11   -1    0    0    0    0 -0.00000000000E+00 -0.00000000000E+00 -0.45593999997E+02  0.45594000000E+02  0.51100000000E-03 0.  1.
    9900012    2    1    2    0    0  0.25926600007E+01  0.36516792101E+02  0.23311534917E+02  0.47787243654E+02  0.19999875115E+02 0.  0.
        -12    1    1    2    0    0 -0.25926600007E+01 -0.36516792101E+02 -0.23311534917E+02  0.43400756346E+02  0.00000000000E+00 0.  1.
         11    1    3    3    0    0 -0.36187061373E+01  0.96141222572E+01  0.16667582697E+01  0.10406943080E+02  0.51100000000E-03 0.  1.
        -11    1    3    3    0    0  0.34925343725E+01  0.24638867581E+02  0.22705327944E+02  0.33686844752E+02  0.51100000000E-03 0. -1.
        -12    1    3    3    0    0  0.27188317656E+01  0.22638022622E+01 -0.10605512965E+01  0.36934558213E+01  0.00000000000E+00 0.  1.
</event>
<event>
 7    1  0.2983653E-010  0.4778727E+02  0.7816164E-02  0.1312668E+00
        -11   -1    0    0    0    0  0.00000000000E+00  0.00000000000E+00  0.45593999997E+02  0.45594000000E+02  0.51100000000E-03 0.  1.
         11   -1    0    0    0    0 -0.00000000000E+00 -0.00000000000E+00 -0.45593999997E+02  0.45594000000E+02  0.51100000000E-03 0. -1.
    9900012    2    1    2    0    0  0.27408985520E+02 -0.33163964306E+02  0.57028140921E+01  0.47787272998E+02  0.20000008906E+02 0.  0.
        -12    1    1    2    0    0 -0.27408985520E+02  0.33163964306E+02 -0.57028140921E+01  0.43400727002E+02  0.00000000000E+00 0.  1.
         11    1    3    3    0    0  0.10624421386E+02 -0.23588923531E+02 -0.67714199326E+00  0.25879995454E+02  0.51100000000E-03 0. -1.
        -11    1    3    3    0    0  0.59979156452E+01 -0.51633865276E+01 -0.12005626023E+01  0.80048050159E+01  0.51100000000E-03 0.  1.
         12    1    3    3    0    0  0.10786648488E+02 -0.44116542475E+01  0.75805186877E+01  0.13902472528E+02  0.00000000000E+00 0. -1.
</event>
<event>
 7    1  0.2983653E-010  0.4778727E+02  0.7816164E-02  0.1312668E+00
        -11   -1    0    0    0    0  0.00000000000E+00  0.00000000000E+00  0.45593999997E+02  0.45594000000E+02  0.51100000000E-03 0.  1.
         11   -1    0    0    0    0 -0.00000000000E+00 -0.00000000000E+00 -0.45593999997E+02  0.45594000000E+02  0.51100000000E-03 0. -1.
    9900012    2    1    2    0    0  0.11887327677E+02  0.36776104304E+02 -0.19744187325E+02  0.47787270280E+02  0.19999996516E+02 0.  0.
        -12    1    1    2    0    0 -0.11887327677E+02 -0.36776104304E+02  0.19744187325E+02  0.43400729720E+02  0.00000000000E+00 0.  1.
         11    1    3    3    0    0  0.65964255809E+00  0.65409919678E+01 -0.72982427371E+00  0.66145557643E+01  0.51100000000E-03 0. -1.
        -11    1    3    3    0    0  0.17403528041E+01  0.25683190647E+02 -0.15645966099E+02  0.30123933427E+02  0.51100000000E-03 0.  1.
        -12    1    3    3    0    0  0.94873323150E+01  0.45519216890E+01 -0.33683969526E+01  0.11048781089E+02  0.00000000000E+00 0.  1.
</event>
<event>
 7    1  0.2983653E-010  0.4778727E+02  0.7816164E-02  0.1312668E+00
        -11   -1    0    0    0    0  0.00000000000E+00  0.00000000000E+00  0.45593999997E+02  0.45594000000E+02  0.51100000000E-03 0.  1.
         11   -1    0    0    0    0 -0.00000000000E+00 -0.00000000000E+00 -0.45593999997E+02  0.45594000000E+02  0.51100000000E-03 0. -1.
    9900012    2    1    2    0    0 -0.34906716685E+02  0.22833428027E+02 -0.11990795437E+02  0.47787268665E+02  0.19999989152E+02 0.  0.
        -12    1    1    2    0    0  0.34906716685E+02 -0.22833428027E+02  0.11990795437E+02  0.43400731335E+02  0.00000000000E+00 0.  1.
         11    1    3    3    0    0 -0.22654210735E+02  0.66997423241E+01 -0.62429931529E+01  0.24435113567E+02  0.51100000000E-03 0. -1.
        -11    1    3    3    0    0 -0.68371236461E+01  0.10637740926E+02  0.15398540451E+01  0.12738875245E+02  0.51100000000E-03 0.  1.
        -12    1    3    3    0    0 -0.54153823033E+01  0.54959447768E+01 -0.72876563287E+01  0.10613279853E+02  0.00000000000E+00 0.  1.
</event>
<event>
 7    1  0.2983653E-010  0.4778727E+02  0.7816164E-02  0.1312668E+00
        -11   -1    0    0    0    0  0.00000000000E+00  0.00000000000E+00  0.45593999997E+02  0.45594000000E+02  0.51100000000E-03 0. -1.
         11   -1    0    0    0    0 -0.00000000000E+00 -0.00000000000E+00 -0.45593999997E+02  0.45594000000E+02  0.51100000000E-03 0.  1.
    9900012    2    1    2    0    0  0.37412747466E+02  0.15171464009E+02  0.15929103299E+02  0.47787270455E+02  0.19999997312E+02 0.  0.
        -12    1    1    2    0    0 -0.37412747466E+02 -0.15171464009E+02 -0.15929103299E+02  0.43400729545E+02  0.00000000000E+00 0.  1.
         11    1    3    3    0    0  0.13836516783E+02  0.12099071148E+02  0.12051453878E+02  0.21978950388E+02  0.51100000000E-03 0. -1.
        -11    1    3    3    0    0  0.85023916624E+01  0.12069320627E-02 -0.29200294840E+01  0.89898408154E+01  0.51100000000E-03 0.  1.
        -12    1    3    3    0    0  0.15073839021E+02  0.30711859289E+01  0.67976789048E+01  0.16818479251E+02  0.00000000000E+00 0.  1.
</event>
<event>
 7    1  0.2983653E-010  0.4778728E+02  0.7816164E-02  0.1312668E+00
        -11   -1    0    0    0    0  0.00000000000E+00  0.00000000000E+00  0.45593999997E+02  0.45594000000E+02  0.51100000000E-03 0.  1.
         11   -1    0    0    0    0 -0.00000000000E+00 -0.00000000000E+00 -0.45593999997E+02  0.45594000000E+02  0.51100000000E-03 0. -1.
    9900012    2    1    2    0    0 -0.70024676454E+01 -0.35977704719E+02  0.23242055113E+02  0.47787275169E+02  0.20000018806E+02 0.  0.
        -12    1    1    2    0    0  0.70024676454E+01  0.35977704719E+02 -0.23242055113E+02  0.43400724831E+02  0.00000000000E+00 0.  1.
         11    1    3    3    0    0 -0.42731720820E+01 -0.74465089208E+01 -0.48825632448E+00  0.85993540018E+01  0.51100000000E-03 0. -1.
        -11    1    3    3    0    0 -0.24457931647E+01 -0.17822380867E+02  0.21864847108E+02  0.28314143167E+02  0.51100000000E-03 0.  1.
        -12    1    3    3    0    0 -0.28350239876E+00 -0.10708814931E+02  0.18654643297E+01  0.10873778000E+02  0.00000000000E+00 0.  1.
</event>
<event>
 7    1  0.2983653E-010  0.4778727E+02  0.7816164E-02  0.1312668E+00
        -11   -1    0    0    0    0  0.00000000000E+00  0.00000000000E+00  0.45593999997E+02  0.45594000000E+02  0.51100000000E-03 0.  1.
         11   -1    0    0    0    0 -0.00000000000E+00 -0.00000000000E+00 -0.45593999997E+02  0.45594000000E+02  0.51100000000E-03 0. -1.
    9900012    2    1    2    0    0  0.80548540360E+01 -0.33156393540E+01 -0.42517636455E+02  0.47787267891E+02  0.19999985623E+02 0.  0.
        -12    1    1    2    0    0 -0.80548540360E+01  0.33156393540E+01  0.42517636455E+02  0.43400732109E+02  0.00000000000E+00 0.  1.
         11    1    3    3    0    0 -0.13568106735E+01  0.44561613805E+01 -0.13190700188E+02  0.13989027170E+02  0.51100000000E-03 0. -1.
        -11    1    3    3    0    0  0.47970921485E+01 -0.71929611438E+01 -0.27456294388E+02  0.28785393603E+02  0.51100000000E-03 0.  1.
        -12    1    3    3    0    0  0.46145725610E+01 -0.57883959059E+00 -0.18706418792E+01  0.50128471184E+01  0.00000000000E+00 0.  1.
</event>
<event>
 7    1  0.3234336E-010  0.4778727E+02  0.7816164E-02  0.1312668E+00
        -11   -1    0    0    0    0  0.00000000000E+00  0.00000000000E+00  0.45593999997E+02  0.45594000000E+02  0.51100000000E-03 0.  1.
         11   -1    0    0    0    0 -0.00000000000E+00 -0.00000000000E+00 -0.45593999997E+02  0.45594000000E+02  0.51100000000E-03 0. -1.
    9900012    2    1    2    0    0 -0.18509494342E+02 -0.36620772070E+02  0.14140039081E+02  0.47787273819E+02  0.20000012651E+02 0.  0.
        -12    1    1    2    0    0  0.18509494342E+02  0.36620772070E+02 -0.14140039081E+02  0.43400726181E+02  0.00000000000E+00 0.  1.
         11    1    3    3    0    0 -0.85057631800E+01 -0.13769746789E+02  0.62760139752E+01  0.17359213276E+02  0.51100000000E-03 0. -1.
        -11    1    3    3    0    0 -0.48429290188E+01 -0.20364108603E+02  0.29325897945E+00  0.20934108095E+02  0.51100000000E-03 0.  1.
        -12    1    3    3    0    0 -0.51608021432E+01 -0.24869166788E+01  0.75707661268E+01  0.94939524475E+01  0.00000000000E+00 0.  1.
</event>
<event>
 7    1  0.2983653E-010  0.4778727E+02  0.7816164E-02  0.1312668E+00
        -11   -1    0    0    0    0  0.00000000000E+00  0.00000000000E+00  0.45593999997E+02  0.45594000000E+02  0.51100000000E-03 0. -1.
         11   -1    0    0    0    0 -0.00000000000E+00 -0.00000000000E+00 -0.45593999997E+02  0.45594000000E+02  0.51100000000E-03 0.  1.
    9900012    2    1    2    0    0  0.39865233821E+02  0.11941931021E+02  0.12319785162E+02  0.47787266244E+02  0.19999978113E+02 0.  0.
        -12    1    1    2    0    0 -0.39865233821E+02 -0.11941931021E+02 -0.12319785162E+02  0.43400733756E+02  0.00000000000E+00 0.  1.
         11    1    3    3    0    0  0.16079496297E+02 -0.10964211499E+01  0.22488314221E+01  0.16272970950E+02  0.51100000000E-03 0. -1.
        -11    1    3    3    0    0  0.14983653790E+02  0.97276596497E+01  0.12497767914E+02  0.21802097291E+02  0.51100000000E-03 0.  1.
         12    1    3    3    0    0  0.88020837340E+01  0.33106925213E+01 -0.24268141747E+01  0.97121980041E+01  0.00000000000E+00 0. -1.
</event>
<event>
 7    1  0.2983653E-010  0.4778728E+02  0.7816164E-02  0.1312668E+00
        -11   -1    0    0    0    0  0.00000000000E+00  0.00000000000E+00  0.45593999997E+02  0.45594000000E+02  0.51100000000E-03 0. -1.
         11   -1    0    0    0    0 -0.00000000000E+00 -0.00000000000E+00 -0.45593999997E+02  0.45594000000E+02  0.51100000000E-03 0.  1.
    9900012    2    1    2    0    0  0.22391025560E+02  0.36124304567E+02 -0.87920001984E+01  0.47787277960E+02  0.20000031531E+02 0.  0.
        -12    1    1    2    0    0 -0.22391025560E+02 -0.36124304567E+02  0.87920001984E+01  0.43400722040E+02  0.00000000000E+00 0.  1.
         11    1    3    3    0    0  0.96311633143E+01  0.28074543892E+02 -0.40965660292E+01  0.29961995511E+02  0.51100000000E-03 0. -1.
        -11    1    3    3    0    0  0.88014798722E+01  0.67315732534E+01 -0.69530976302E+01  0.13081501952E+02  0.51100000000E-03 0.  1.
        -12    1    3    3    0    0  0.39583823737E+01  0.13181874217E+01  0.22576634611E+01  0.47437804964E+01  0.00000000000E+00 0.  1.
</event>
<event>
 7    1  0.2983653E-010  0.4778729E+02  0.7816164E-02  0.1312668E+00
        -11   -1    0    0    0    0  0.00000000000E+00  0.00000000000E+00  0.45593999997E+02  0.45594000000E+02  0.51100000000E-03 0.  1.
         11   -1    0    0    0    0 -0.00000000000E+00 -0.00000000000E+00 -0.45593999997E+02  0.45594000000E+02  0.51100000000E-03 0. -1.
    9900012    2    1    2    0    0 -0.17815540284E+02  0.32405812886E+02 -0.22717654317E+02  0.47787285696E+02  0.20000066803E+02 0.  0.
        -12    1    1    2    0    0  0.17815540284E+02 -0.32405812886E+02  0.22717654317E+02  0.43400714304E+02  0.00000000000E+00 0.  1.
         11    1    3    3    0    0 -0.20509219400E+02  0.29883995690E+02 -0.21328221602E+02  0.42054420883E+02  0.51100000000E-03 0. -1.
        -11    1    3    3    0    0  0.32693083546E+01  0.57282438336E+00 -0.16094945598E+01  0.36887637347E+01  0.51100000000E-03 0.  1.
         12    1    3    3    0    0 -0.57562923903E+00  0.19489928125E+01  0.22006184508E+00  0.20441010786E+01  0.00000000000E+00 0. -1.
</event>
<event>
 7    1  0.2983653E-010  0.4778727E+02  0.7816164E-02  0.1312668E+00
        -11   -1    0    0    0    0  0.00000000000E+00  0.00000000000E+00  0.45593999997E+02  0.45594000000E+02  0.51100000000E-03 0.  1.
         11   -1    0    0    0    0 -0.00000000000E+00 -0.00000000000E+00 -0.45593999997E+02  0.45594000000E+02  0.51100000000E-03 0. -1.
    9900012    2    1    2    0    0  0.15672200365E+02  0.89002525004E+01 -0.39481523685E+02  0.47787273378E+02  0.20000010640E+02 0.  0.
        -12    1    1    2    0    0 -0.15672200365E+02 -0.89002525004E+01  0.39481523685E+02  0.43400726622E+02  0.00000000000E+00 0.  1.
         11    1    3    3    0    0  0.13630902605E+02  0.13349331246E+02 -0.24414029941E+02  0.30984689909E+02  0.51100000000E-03 0. -1.
        -11    1    3    3    0    0  0.21516373521E+01 -0.16960700188E+01 -0.13182650016E+02  0.13464340255E+02  0.51100000000E-03 0.  1.
         12    1    3    3    0    0 -0.11033959207E+00 -0.27530087271E+01 -0.18848437275E+01  0.33382432137E+01  0.00000000000E+00 0. -1.
</event>
<event>
 7    1  0.2983653E-010  0.4778729E+02  0.7816164E-02  0.1312668E+00
        -11   -1    0    0    0    0  0.00000000000E+00  0.00000000000E+00  0.45593999997E+02  0.45594000000E+02  0.51100000000E-03 0. -1.
         11   -1    0    0    0    0 -0.00000000000E+00 -0.00000000000E+00 -0.45593999997E+02  0.45594000000E+02  0.51100000000E-03 0.  1.
    9900012    2    1    2    0    0  0.17552393376E+02 -0.39467968675E+02 -0.42207698075E+01  0.47787286154E+02  0.20000068891E+02 0.  0.
        -12    1    1    2    0    0 -0.17552393376E+02  0.39467968675E+02  0.42207698075E+01  0.43400713846E+02  0.00000000000E+00 0.  1.
         11    1    3    3    0    0  0.31892093209E+01 -0.34966035039E+01 -0.41887740477E+00  0.47510788983E+01  0.51100000000E-03 0. -1.
        -11    1    3    3    0    0  0.12068126767E+02 -0.73049452670E+01 -0.14903915420E+01  0.14185315514E+02  0.51100000000E-03 0.  1.
        -12    1    3    3    0    0  0.22950572883E+01 -0.28666419904E+02 -0.23115008607E+01  0.28850891742E+02  0.00000000000E+00 0.  1.
</event>
<event>
 7    1  0.2983653E-010  0.4778725E+02  0.7816164E-02  0.1312668E+00
        -11   -1    0    0    0    0  0.00000000000E+00  0.00000000000E+00  0.45593999997E+02  0.45594000000E+02  0.51100000000E-03 0.  1.
         11   -1    0    0    0    0 -0.00000000000E+00 -0.00000000000E+00 -0.45593999997E+02  0.45594000000E+02  0.51100000000E-03 0. -1.
    9900012    2    1    2    0    0 -0.75568011756E+01 -0.30770024622E+02 -0.29660169557E+02  0.47787247501E+02  0.19999892658E+02 0.  0.
        -12    1    1    2    0    0  0.75568011756E+01  0.30770024622E+02  0.29660169557E+02  0.43400752499E+02  0.00000000000E+00 0.  1.
         11    1    3    3    0    0 -0.30362906789E+01 -0.46081948435E+01  0.17071979213E+01  0.57765946549E+01  0.51100000000E-03 0. -1.
        -11    1    3    3    0    0 -0.17297459446E+01 -0.84317260802E+01 -0.45355019304E+01  0.97291728192E+01  0.51100000000E-03 0.  1.
         12    1    3    3    0    0 -0.27907645520E+01 -0.17730103699E+02 -0.26831865548E+02  0.32281480027E+02  0.00000000000E+00 0. -1.
</event>
<event>
 7    1  0.2983653E-010  0.4778727E+02  0.7816164E-02  0.1312668E+00
        -11   -1    0    0    0    0  0.00000000000E+00  0.00000000000E+00  0.45593999997E+02  0.45594000000E+02  0.51100000000E-03 0.  1.
         11   -1    0    0    0    0 -0.00000000000E+00 -0.00000000000E+00 -0.45593999997E+02  0.45594000000E+02  0.51100000000E-03 0. -1.
    9900012    2    1    2    0    0 -0.19105988388E+02 -0.30350872194E+02 -0.24441955682E+02  0.47787269214E+02  0.19999991652E+02 0.  0.
        -12    1    1    2    0    0  0.19105988388E+02  0.30350872194E+02  0.24441955682E+02  0.43400730786E+02  0.00000000000E+00 0.  1.
         11    1    3    3    0    0  0.28870270848E+01 -0.10177037326E+02 -0.49305037728E+01  0.11671198818E+02  0.51100000000E-03 0. -1.
        -11    1    3    3    0    0 -0.14614889080E+02 -0.16742125259E+02 -0.13548886250E+02  0.26028178191E+02  0.51100000000E-03 0.  1.
         12    1    3    3    0    0 -0.73781263928E+01 -0.34317096081E+01 -0.59625656595E+01  0.10087892205E+02  0.00000000000E+00 0. -1.
</event>
<event>
 7    1  0.2983653E-010  0.4778727E+02  0.7816164E-02  0.1312668E+00
        -11   -1    0    0    0    0  0.00000000000E+00  0.00000000000E+00  0.45593999997E+02  0.45594000000E+02  0.51100000000E-03 0.  1.
         11   -1    0    0    0    0 -0.00000000000E+00 -0.00000000000E+00 -0.45593999997E+02  0.45594000000E+02  0.51100000000E-03 0. -1.
    9900012    2    1    2    0    0 -0.20757947156E+02  0.36316218367E+02 -0.11569920079E+02  0.47787272618E+02  0.20000007176E+02 0.  0.
        -12    1    1    2    0    0  0.20757947156E+02 -0.36316218367E+02  0.11569920079E+02  0.43400727382E+02  0.00000000000E+00 0.  1.
         11    1    3    3    0    0 -0.39165286944E+01  0.10770089397E+02 -0.38232769976E+01  0.12081037616E+02  0.51100000000E-03 0. -1.
        -11    1    3    3    0    0 -0.46423486123E+00  0.98461699396E+01 -0.84866579900E+01  0.13007149595E+02  0.51100000000E-03 0.  1.
        -12    1    3    3    0    0 -0.16377183600E+02  0.15699959031E+02  0.74001490869E+00  0.22699085407E+02  0.00000000000E+00 0.  1.
</event>
<event>
 7    1  0.2983653E-010  0.4778727E+02  0.7816164E-02  0.1312668E+00
        -11   -1    0    0    0    0  0.00000000000E+00  0.00000000000E+00  0.45593999997E+02  0.45594000000E+02  0.51100000000E-03 0.  1.
         11   -1    0    0    0    0 -0.00000000000E+00 -0.00000000000E+00 -0.45593999997E+02  0.45594000000E+02  0.51100000000E-03 0. -1.
    9900012    2    1    2    0    0  0.10387589360E+01  0.24438311984E+02 -0.35851265082E+02  0.47787270504E+02  0.19999997536E+02 0.  0.
        -12    1    1    2    0    0 -0.10387589360E+01 -0.24438311984E+02  0.35851265082E+02  0.43400729496E+02  0.00000000000E+00 0.  1.
         11    1    3    3    0    0  0.79208750554E+01  0.17897299625E+02 -0.24686141952E+02  0.31503320464E+02  0.51100000000E-03 0. -1.
        -11    1    3    3    0    0  0.72416103003E+00 -0.43903629623E+00  0.25971637678E+00  0.88578491989E+00  0.51100000000E-03 0.  1.
         12    1    3    3    0    0 -0.76062771494E+01  0.69800486553E+01 -0.11424839507E+02  0.15398165120E+02  0.00000000000E+00 0. -1.
</event>
<event>
 7    1  0.2983653E-010  0.4778725E+02  0.7816164E-02  0.1312668E+00
        -11   -1    0    0    0    0  0.00000000000E+00  0.00000000000E+00  0.45593999997E+02  0.45594000000E+02  0.51100000000E-03 0.  1.
         11   -1    0    0    0    0 -0.00000000000E+00 -0.00000000000E+00 -0.45593999997E+02  0.45594000000E+02  0.51100000000E-03 0. -1.
    9900012    2    1    2    0    0 -0.42250164427E+00  0.42439334250E+02  0.90746509922E+01  0.47787252427E+02  0.19999915116E+02 0.  0.
        -12    1    1    2    0    0  0.42250164427E+00 -0.42439334250E+02 -0.90746509922E+01  0.43400747573E+02  0.00000000000E+00 0.  1.
         11    1    3    3    0    0 -0.22273163462E-01  0.18277610088E+02  0.18151802641E+01  0.18367536751E+02  0.51100000000E-03 0. -1.
        -11    1    3    3    0    0 -0.99779639250E+00 -0.16763592759E+01  0.24486973893E+01  0.31307981775E+01  0.51100000000E-03 0.  1.
        -12    1    3    3    0    0  0.59756791169E+00  0.25838083438E+02  0.48107733388E+01  0.26288917499E+02  0.00000000000E+00 0.  1.
</event>
<event>
 7    1  0.2983653E-010  0.4778727E+02  0.7816164E-02  0.1312668E+00
        -11   -1    0    0    0    0  0.00000000000E+00  0.00000000000E+00  0.45593999997E+02  0.45594000000E+02  0.51100000000E-03 0.  1.
         11   -1    0    0    0    0 -0.00000000000E+00 -0.00000000000E+00 -0.45593999997E+02  0.45594000000E+02  0.51100000000E-03 0. -1.
    9900012    2    1    2    0    0  0.28129070633E+02  0.27126383140E+02 -0.18882214577E+02  0.47787270694E+02  0.19999998403E+02 0.  0.
        -12    1    1    2    0    0 -0.28129070633E+02 -0.27126383140E+02  0.18882214577E+02  0.43400729306E+02  0.00000000000E+00 0.  1.
         11    1    3    3    0    0  0.13314473848E+02  0.31015271771E+01 -0.41690979510E+01  0.14292517716E+02  0.51100000000E-03 0. -1.
        -11    1    3    3    0    0 -0.13812350032E+00  0.80595879735E+01 -0.24865790457E+01  0.84355860505E+01  0.51100000000E-03 0.  1.
        -12    1    3    3    0    0  0.14952720285E+02  0.15965267990E+02 -0.12226537580E+02  0.25059166928E+02  0.00000000000E+00 0.  1.
</event>
<event>
 7    1  0.2983653E-010  0.4778727E+02  0.7816164E-02  0.1312668E+00
        -11   -1    0    0    0    0  0.00000000000E+00  0.00000000000E+00  0.45593999997E+02  0.45594000000E+02  0.51100000000E-03 0. -1.
         11   -1    0    0    0    0 -0.00000000000E+00 -0.00000000000E+00 -0.45593999997E+02  0.45594000000E+02  0.51100000000E-03 0.  1.
    9900012    2    1    2    0    0 -0.39495445648E+02  0.17047186453E+02  0.57555777774E+01  0.47787268802E+02  0.19999989777E+02 0.  0.
        -12    1    1    2    0    0  0.39495445648E+02 -0.17047186453E+02 -0.57555777774E+01  0.43400731198E+02  0.00000000000E+00 0.  1.
         11    1    3    3    0    0 -0.45237535143E+00  0.51936334531E+01  0.19587472607E+01  0.55691258736E+01  0.51100000000E-03 0. -1.
        -11    1    3    3    0    0 -0.62006246042E+01  0.37529210077E+01 -0.27713128779E+01  0.77596608754E+01  0.51100000000E-03 0.  1.
         12    1    3    3    0    0 -0.32842445693E+02  0.81006319926E+01  0.65681433946E+01  0.34458482053E+02  0.00000000000E+00 0. -1.
</event>
<event>
 7    1  0.2983653E-010  0.4778727E+02  0.7816164E-02  0.1312668E+00
        -11   -1    0    0    0    0  0.00000000000E+00  0.00000000000E+00  0.45593999997E+02  0.45594000000E+02  0.51100000000E-03 0.  1.
         11   -1    0    0    0    0 -0.00000000000E+00 -0.00000000000E+00 -0.45593999997E+02  0.45594000000E+02  0.51100000000E-03 0. -1.
    9900012    2    1    2    0    0 -0.67485241326E+01  0.34467700603E+02 -0.25496241517E+02  0.47787270809E+02  0.19999998927E+02 0.  0.
        -12    1    1    2    0    0  0.67485241326E+01 -0.34467700603E+02  0.25496241517E+02  0.43400729191E+02  0.00000000000E+00 0.  1.
         11    1    3    3    0    0 -0.25447397715E+01  0.31035390401E+02 -0.20596329647E+02  0.37334701727E+02  0.51100000000E-03 0. -1.
        -11    1    3    3    0    0 -0.39163216980E+01 -0.33977496774E+00 -0.53542455844E+01  0.66423616817E+01  0.51100000000E-03 0.  1.
        -12    1    3    3    0    0 -0.28746266311E+00  0.37720851695E+01  0.45433371465E+00  0.38102074002E+01  0.00000000000E+00 0.  1.
</event>
<event>
 7    1  0.2983653E-010  0.4778727E+02  0.7816164E-02  0.1312668E+00
        -11   -1    0    0    0    0  0.00000000000E+00  0.00000000000E+00  0.45593999997E+02  0.45594000000E+02  0.51100000000E-03 0. -1.
         11   -1    0    0    0    0 -0.00000000000E+00 -0.00000000000E+00 -0.45593999997E+02  0.45594000000E+02  0.51100000000E-03 0.  1.
    9900012    2    1    2    0    0  0.29340473628E+02 -0.30948513955E+02  0.80591411506E+01  0.47787266540E+02  0.19999979464E+02 0.  0.
        -12    1    1    2    0    0 -0.29340473628E+02  0.30948513955E+02 -0.80591411506E+01  0.43400733460E+02  0.00000000000E+00 0.  1.
         11    1    3    3    0    0  0.15806256850E+02 -0.13384568487E+02 -0.41797920484E+01  0.21129483926E+02  0.51100000000E-03 0. -1.
        -11    1    3    3    0    0 -0.36975037271E+00 -0.20127070188E+01  0.34714026712E+01  0.40296825741E+01  0.51100000000E-03 0.  1.
         12    1    3    3    0    0  0.13903967151E+02 -0.15551238450E+02  0.87675305277E+01  0.22628100040E+02  0.00000000000E+00 0. -1.
</event>
<event>
 7    1  0.2983653E-010  0.4778725E+02  0.7816164E-02  0.1312668E+00
        -11   -1    0    0    0    0  0.00000000000E+00  0.00000000000E+00  0.45593999997E+02  0.45594000000E+02  0.51100000000E-03 0.  1.
         11   -1    0    0    0    0 -0.00000000000E+00 -0.00000000000E+00 -0.45593999997E+02  0.45594000000E+02  0.51100000000E-03 0. -1.
    9900012    2    1    2    0    0 -0.42106060389E+01 -0.34520154587E+02 -0.25966413066E+02  0.47787252502E+02  0.19999915457E+02 0.  0.
        -12    1    1    2    0    0  0.42106060389E+01  0.34520154587E+02  0.25966413066E+02  0.43400747498E+02  0.00000000000E+00 0.  1.
         11    1    3    3    0    0  0.10298150574E+01 -0.14654695146E+02 -0.10353263394E+01  0.14727270955E+02  0.51100000000E-03 0. -1.
        -11    1    3    3    0    0 -0.56463192088E+01 -0.18609434018E+02 -0.19765650875E+02  0.27728557659E+02  0.51100000000E-03 0.  1.
        -12    1    3    3    0    0  0.40589811248E+00 -0.12560254218E+01 -0.51654358514E+01  0.53314238879E+01  0.00000000000E+00 0.  1.
</event>
<event>
 7    1  0.2983653E-010  0.4778727E+02  0.7816164E-02  0.1312668E+00
        -11   -1    0    0    0    0  0.00000000000E+00  0.00000000000E+00  0.45593999997E+02  0.45594000000E+02  0.51100000000E-03 0.  1.
         11   -1    0    0    0    0 -0.00000000000E+00 -0.00000000000E+00 -0.45593999997E+02  0.45594000000E+02  0.51100000000E-03 0. -1.
    9900012    2    1    2    0    0  0.19299501463E+02 -0.27100410042E+02 -0.27869703951E+02  0.47787269828E+02  0.19999994453E+02 0.  0.
        -12    1    1    2    0    0 -0.19299501463E+02  0.27100410042E+02  0.27869703951E+02  0.43400730172E+02  0.00000000000E+00 0.  1.
         11    1    3    3    0    0  0.23545005182E+01 -0.15678349380E+02 -0.14612939419E+02  0.21561361522E+02  0.51100000000E-03 0. -1.
        -11    1    3    3    0    0 -0.83895477782E+00 -0.18246742571E+01  0.85825603073E-01  0.20101362041E+01  0.51100000000E-03 0.  1.
         12    1    3    3    0    0  0.17783955723E+02 -0.95973864045E+01 -0.13342590135E+02  0.24215772101E+02  0.00000000000E+00 0. -1.
</event>
<event>
 7    1  0.2983653E-010  0.4778727E+02  0.7816164E-02  0.1312668E+00
        -11   -1    0    0    0    0  0.00000000000E+00  0.00000000000E+00  0.45593999997E+02  0.45594000000E+02  0.51100000000E-03 0. -1.
         11   -1    0    0    0    0 -0.00000000000E+00 -0.00000000000E+00 -0.45593999997E+02  0.45594000000E+02  0.51100000000E-03 0.  1.
    9900012    2    1    2    0    0 -0.16840716470E+02 -0.24268318901E+02  0.31797208133E+02  0.47787268686E+02  0.19999989249E+02 0.  0.
        -12    1    1    2    0    0  0.16840716470E+02  0.24268318901E+02 -0.31797208133E+02  0.43400731314E+02  0.00000000000E+00 0.  1.
         11    1    3    3    0    0 -0.55670973900E+01 -0.61044400804E+01  0.20130021728E+02  0.21759470055E+02  0.51100000000E-03 0. -1.
        -11    1    3    3    0    0 -0.22342042417E+01 -0.82976578716E+01  0.51481058074E+00  0.86085901832E+01  0.51100000000E-03 0.  1.
         12    1    3    3    0    0 -0.90394148386E+01 -0.98662209492E+01  0.11152375824E+02  0.17419208448E+02  0.00000000000E+00 0. -1.
</event>
<event>
 7    1  0.2983653E-010  0.4778727E+02  0.7816164E-02  0.1312668E+00
        -11   -1    0    0    0    0  0.00000000000E+00  0.00000000000E+00  0.45593999997E+02  0.45594000000E+02  0.51100000000E-03 0. -1.
         11   -1    0    0    0    0 -0.00000000000E+00 -0.00000000000E+00 -0.45593999997E+02  0.45594000000E+02  0.51100000000E-03 0.  1.
    9900012    2    1    2    0    0  0.81573939651E+01  0.23950610591E+02  0.35262562991E+02  0.47787272210E+02  0.20000005314E+02 0.  0.
        -12    1    1    2    0    0 -0.81573939651E+01 -0.23950610591E+02 -0.35262562991E+02  0.43400727790E+02  0.00000000000E+00 0.  1.
         11    1    3    3    0    0  0.37132604360E+01  0.55693569103E+01 -0.16351899986E+00  0.66957283535E+01  0.51100000000E-03 0. -1.
        -11    1    3    3    0    0 -0.19863342112E+01  0.89035571567E+00  0.33555638415E+01  0.39997582245E+01  0.51100000000E-03 0.  1.
         12    1    3    3    0    0  0.64304677403E+01  0.17490897965E+02  0.32070518149E+02  0.37091785632E+02  0.00000000000E+00 0. -1.
</event>
<event>
 7    1  0.2983653E-010  0.4778728E+02  0.7816164E-02  0.1312668E+00
        -11   -1    0    0    0    0  0.00000000000E+00  0.00000000000E+00  0.45593999997E+02  0.45594000000E+02  0.51100000000E-03 0. -1.
         11   -1    0    0    0    0 -0.00000000000E+00 -0.00000000000E+00 -0.45593999997E+02  0.45594000000E+02  0.51100000000E-03 0.  1.
    9900012    2    1    2    0    0 -0.15540493148E+02 -0.32918530961E+02 -0.23632312910E+02  0.47787276257E+02  0.20000023766E+02 0.  0.
        -12    1    1    2    0    0  0.15540493148E+02  0.32918530961E+02  0.23632312910E+02  0.43400723743E+02  0.00000000000E+00 0.  1.
         11    1    3    3    0    0  0.28995374749E+01 -0.95191744803E+01 -0.12615028830E+01  0.10030622620E+02  0.51100000000E-03 0. -1.
        -11    1    3    3    0    0 -0.87092467975E+01 -0.12473829602E+02 -0.15037824816E+02  0.21391203336E+02  0.51100000000E-03 0.  1.
         12    1    3    3    0    0 -0.97307838257E+01 -0.10925526879E+02 -0.73329852114E+01  0.16365450301E+02  0.00000000000E+00 0. -1.
</event>
<event>
 7    1  0.2983653E-010  0.4778726E+02  0.7816164E-02  0.1312668E+00
        -11   -1    0    0    0    0  0.00000000000E+00  0.00000000000E+00  0.45593999997E+02  0.45594000000E+02  0.51100000000E-03 0. -1.
         11   -1    0    0    0    0 -0.00000000000E+00 -0.00000000000E+00 -0.45593999997E+02  0.45594000000E+02  0.51100000000E-03 0.  1.
    9900012    2    1    2    0    0  0.20393851393E+02 -0.35681932435E+02  0.13946855845E+02  0.47787259627E+02  0.19999947945E+02 0.  0.
        -12    1    1    2    0    0 -0.20393851393E+02  0.35681932435E+02 -0.13946855845E+02  0.43400740373E+02  0.00000000000E+00 0.  1.
         11    1    3    3    0    0  0.20639750285E+02 -0.30988713466E+02  0.89097865219E+01  0.38284251987E+02  0.51100000000E-03 0. -1.
        -11    1    3    3    0    0 -0.11225087161E+01  0.16777182932E+00  0.43745336543E+01  0.45193714340E+01  0.51100000000E-03 0.  1.
         12    1    3    3    0    0  0.87660982496E+00 -0.48609907978E+01  0.66253566837E+00  0.49836362060E+01  0.00000000000E+00 0. -1.
</event>
<event>
 7    1  0.2983653E-010  0.4778727E+02  0.7816164E-02  0.1312668E+00
        -11   -1    0    0    0    0  0.00000000000E+00  0.00000000000E+00  0.45593999997E+02  0.45594000000E+02  0.51100000000E-03 0.  1.
         11   -1    0    0    0    0 -0.00000000000E+00 -0.00000000000E+00 -0.45593999997E+02  0.45594000000E+02  0.51100000000E-03 0. -1.
    9900012    2    1    2    0    0  0.15019774665E+02  0.22851531402E+01 -0.40654736923E+02  0.47787272009E+02  0.20000004398E+02 0.  0.
        -12    1    1    2    0    0 -0.15019774665E+02 -0.22851531402E+01  0.40654736923E+02  0.43400727991E+02  0.00000000000E+00 0.  1.
         11    1    3    3    0    0 -0.57097356696E+00  0.56275262759E+01 -0.39109997464E+01  0.68768439038E+01  0.51100000000E-03 0. -1.
        -11    1    3    3    0    0  0.36066520725E+01 -0.34018248891E+01 -0.52859647090E+01  0.72471908292E+01  0.51100000000E-03 0.  1.
         12    1    3    3    0    0  0.11984096159E+02  0.59451753465E-01 -0.31457772468E+02  0.33663237276E+02  0.00000000000E+00 0. -1.
</event>
<event>
 7    1  0.2983653E-010  0.4778728E+02  0.7816164E-02  0.1312668E+00
        -11   -1    0    0    0    0  0.00000000000E+00  0.00000000000E+00  0.45593999997E+02  0.45594000000E+02  0.51100000000E-03 0.  1.
         11   -1    0    0    0    0 -0.00000000000E+00 -0.00000000000E+00 -0.45593999997E+02  0.45594000000E+02  0.51100000000E-03 0. -1.
    9900012    2    1    2    0    0  0.31874451652E+02 -0.22730038964E+02 -0.18734657391E+02  0.47787277345E+02  0.20000028728E+02 0.  0.
        -12    1    1    2    0    0 -0.31874451652E+02  0.22730038964E+02  0.18734657391E+02  0.43400722655E+02  0.00000000000E+00 0.  1.
         11    1    3    3    0    0  0.17654551768E+02 -0.21264836880E+01 -0.58290277676E+01  0.18713169052E+02  0.51100000000E-03 0. -1.
        -11    1    3    3    0    0  0.22513464891E+01 -0.93275576974E+01 -0.43024048179E+01  0.10515825269E+02  0.51100000000E-03 0.  1.
         12    1    3    3    0    0  0.11968553395E+02 -0.11275997578E+02 -0.86032248056E+01  0.18558283024E+02  0.00000000000E+00 0. -1.
</event>
<event>
 7    1  0.2983653E-010  0.4778727E+02  0.7816164E-02  0.1312668E+00
        -11   -1    0    0    0    0  0.00000000000E+00  0.00000000000E+00  0.45593999997E+02  0.45594000000E+02  0.51100000000E-03 0.  1.
         11   -1    0    0    0    0 -0.00000000000E+00 -0.00000000000E+00 -0.45593999997E+02  0.45594000000E+02  0.51100000000E-03 0. -1.
    9900012    2    1    2    0    0  0.15167420656E+02  0.96810041954E+01 -0.39494946694E+02  0.47787270675E+02  0.19999998315E+02 0.  0.
        -12    1    1    2    0    0 -0.15167420656E+02 -0.96810041954E+01  0.39494946694E+02  0.43400729325E+02  0.00000000000E+00 0.  1.
         11    1    3    3    0    0  0.66842340001E+00  0.29638815356E+01 -0.27157645314E+02  0.27327076002E+02  0.51100000000E-03 0. -1.
        -11    1    3    3    0    0  0.37053877843E+01  0.36139931918E+00 -0.36719528321E+01  0.52291247798E+01  0.51100000000E-03 0.  1.
         12    1    3    3    0    0  0.10793609472E+02  0.63557233406E+01 -0.86653485481E+01  0.15231069893E+02  0.00000000000E+00 0. -1.
</event>
<event>
 7    1  0.2983653E-010  0.4778727E+02  0.7816164E-02  0.1312668E+00
        -11   -1    0    0    0    0  0.00000000000E+00  0.00000000000E+00  0.45593999997E+02  0.45594000000E+02  0.51100000000E-03 0. -1.
         11   -1    0    0    0    0 -0.00000000000E+00 -0.00000000000E+00 -0.45593999997E+02  0.45594000000E+02  0.51100000000E-03 0.  1.
    9900012    2    1    2    0    0  0.18140064390E+02 -0.37259684974E+02  0.12894864580E+02  0.47787267368E+02  0.19999983238E+02 0.  0.
        -12    1    1    2    0    0 -0.18140064390E+02  0.37259684974E+02 -0.12894864580E+02  0.43400732632E+02  0.00000000000E+00 0.  1.
         11    1    3    3    0    0  0.82493807090E+01 -0.29080502953E+02  0.94369726071E+01  0.31666771012E+02  0.51100000000E-03 0. -1.
        -11    1    3    3    0    0  0.10247609562E+02 -0.61593198741E+01  0.55579882993E+01  0.13184914002E+02  0.51100000000E-03 0.  1.
         12    1    3    3    0    0 -0.35692588116E+00 -0.20198621469E+01 -0.21000963260E+01  0.29355823537E+01  0.00000000000E+00 0. -1.
</event>
<event>
 7    1  0.2983653E-010  0.4778728E+02  0.7816164E-02  0.1312668E+00
        -11   -1    0    0    0    0  0.00000000000E+00  0.00000000000E+00  0.45593999997E+02  0.45594000000E+02  0.51100000000E-03 0.  1.
         11   -1    0    0    0    0 -0.00000000000E+00 -0.00000000000E+00 -0.45593999997E+02  0.45594000000E+02  0.51100000000E-03 0. -1.
    9900012    2    1    2    0    0 -0.34225530172E+01 -0.29657625112E+02 -0.31501332088E+02  0.47787279732E+02  0.20000039610E+02 0.  0.
        -12    1    1    2    0    0  0.34225530172E+01  0.29657625112E+02  0.31501332088E+02  0.43400720268E+02  0.00000000000E+00 0.  1.
         11    1    3    3    0    0 -0.79753340445E+01 -0.18853125917E+02 -0.14508965729E+02  0.25090962451E+02  0.51100000000E-03 0. -1.
        -11    1    3    3    0    0  0.51038697866E+01 -0.59684150768E+01 -0.39814036033E+01  0.88047169313E+01  0.51100000000E-03 0.  1.
        -12    1    3    3    0    0 -0.55108875936E+00 -0.48360841185E+01 -0.13010962756E+02  0.13891600349E+02  0.00000000000E+00 0.  1.
</event>
<event>
 7    1  0.2983653E-010  0.4778726E+02  0.7816164E-02  0.1312668E+00
        -11   -1    0    0    0    0  0.00000000000E+00  0.00000000000E+00  0.45593999997E+02  0.45594000000E+02  0.51100000000E-03 0.  1.
         11   -1    0    0    0    0 -0.00000000000E+00 -0.00000000000E+00 -0.45593999997E+02  0.45594000000E+02  0.51100000000E-03 0. -1.
    9900012    2    1    2    0    0 -0.15285776278E+01 -0.72630936821E+01 -0.42761373317E+02  0.47787261212E+02  0.19999955169E+02 0.  0.
        -12    1    1    2    0    0  0.15285776278E+01  0.72630936821E+01  0.42761373317E+02  0.43400738788E+02  0.00000000000E+00 0.  1.
         11    1    3    3    0    0 -0.53449629465E+01 -0.12608800996E+02 -0.27952548414E+02  0.31127085546E+02  0.51100000000E-03 0. -1.
        -11    1    3    3    0    0  0.42636752541E+01  0.35266271581E+01 -0.90823159686E+01  0.10635059445E+02  0.51100000000E-03 0.  1.
         12    1    3    3    0    0 -0.44728993538E+00  0.18190801561E+01 -0.57265089342E+01  0.60251162208E+01  0.00000000000E+00 0. -1.
</event>
<event>
 7    1  0.2983653E-010  0.4778727E+02  0.7816164E-02  0.1312668E+00
        -11   -1    0    0    0    0  0.00000000000E+00  0.00000000000E+00  0.45593999997E+02  0.45594000000E+02  0.51100000000E-03 0. -1.
         11   -1    0    0    0    0 -0.00000000000E+00 -0.00000000000E+00 -0.45593999997E+02  0.45594000000E+02  0.51100000000E-03 0.  1.
    9900012    2    1    2    0    0 -0.37381881618E+02 -0.21892906737E+02 -0.26303404435E+01  0.47787272708E+02  0.20000007583E+02 0.  0.
        -12    1    1    2    0    0  0.37381881618E+02  0.21892906737E+02  0.26303404435E+01  0.43400727292E+02  0.00000000000E+00 0.  1.
         11    1    3    3    0    0 -0.26640829412E+02 -0.13403911891E+02  0.60332593764E+00  0.29828889490E+02  0.51100000000E-03 0. -1.
        -11    1    3    3    0    0  0.10238012605E+01 -0.53801288708E+01 -0.13952936307E+01  0.56516192604E+01  0.51100000000E-03 0.  1.
         12    1    3    3    0    0 -0.11764853466E+02 -0.31088659750E+01 -0.18383727505E+01  0.12306763957E+02  0.00000000000E+00 0. -1.
</event>
<event>
 7    1  0.2983653E-010  0.4778727E+02  0.7816164E-02  0.1312668E+00
        -11   -1    0    0    0    0  0.00000000000E+00  0.00000000000E+00  0.45593999997E+02  0.45594000000E+02  0.51100000000E-03 0.  1.
         11   -1    0    0    0    0 -0.00000000000E+00 -0.00000000000E+00 -0.45593999997E+02  0.45594000000E+02  0.51100000000E-03 0. -1.
    9900012    2    1    2    0    0 -0.83772973481E+01 -0.40753024475E+02  0.12354549042E+02  0.47787274238E+02  0.20000014559E+02 0.  0.
        -12    1    1    2    0    0  0.83772973481E+01  0.40753024475E+02 -0.12354549042E+02  0.43400725762E+02  0.00000000000E+00 0.  1.
         11    1    3    3    0    0 -0.24243224464E+01 -0.89938811947E+01  0.20527358424E+01  0.95383941504E+01  0.51100000000E-03 0. -1.
        -11    1    3    3    0    0 -0.35683142236E+01 -0.10229209700E+02  0.12423394507E+02  0.16483638215E+02  0.51100000000E-03 0.  1.
        -12    1    3    3    0    0 -0.23846606782E+01 -0.21529933580E+02 -0.21215813073E+01  0.21765241872E+02  0.00000000000E+00 0.  1.
</event>
<event>
 7    1  0.2983653E-010  0.4778726E+02  0.7816164E-02  0.1312668E+00
        -11   -1    0    0    0    0  0.00000000000E+00  0.00000000000E+00  0.45593999997E+02  0.45594000000E+02  0.51100000000E-03 0.  1.
         11   -1    0    0    0    0 -0.00000000000E+00 -0.00000000000E+00 -0.45593999997E+02  0.45594000000E+02  0.51100000000E-03 0. -1.
    9900012    2    1    2    0    0  0.36147151844E+02  0.23758439327E+02 -0.35417468496E+01  0.47787262720E+02  0.19999962048E+02 0.  0.
        -12    1    1    2    0    0 -0.36147151844E+02 -0.23758439327E+02  0.35417468496E+01  0.43400737280E+02  0.00000000000E+00 0.  1.
         11    1    3    3    0    0  0.16265929698E+02  0.91770045401E+01  0.68109340909E+01  0.19879303426E+02  0.51100000000E-03 0. -1.
        -11    1    3    3    0    0  0.10923149489E+02  0.12720906270E+02 -0.66291040810E+01  0.18030021416E+02  0.51100000000E-03 0.  1.
         12    1    3    3    0    0  0.89580726573E+01  0.18605285164E+01 -0.37235768595E+01  0.98779378781E+01  0.00000000000E+00 0. -1.
</event>
<event>
 7    1  0.2983653E-010  0.4778730E+02  0.7816164E-02  0.1312668E+00
        -11   -1    0    0    0    0  0.00000000000E+00  0.00000000000E+00  0.45593999997E+02  0.45594000000E+02  0.51100000000E-03 0.  1.
         11   -1    0    0    0    0 -0.00000000000E+00 -0.00000000000E+00 -0.45593999997E+02  0.45594000000E+02  0.51100000000E-03 0. -1.
    9900012    2    1    2    0    0 -0.20415011652E+02  0.26842388173E+02 -0.27319126730E+02  0.47787295064E+02  0.20000109516E+02 0.  0.
        -12    1    1    2    0    0  0.20415011652E+02 -0.26842388173E+02  0.27319126730E+02  0.43400704936E+02  0.00000000000E+00 0.  1.
         11    1    3    3    0    0 -0.63156302760E+01  0.88253743974E+01 -0.21426449284E+02  0.24018058794E+02  0.51100000000E-03 0. -1.
        -11    1    3    3    0    0 -0.46646463994E+01  0.78064581365E+01 -0.29361753766E+01  0.95561938433E+01  0.51100000000E-03 0.  1.
         12    1    3    3    0    0 -0.94347349771E+01  0.10210555639E+02 -0.29565020697E+01  0.14213042427E+02  0.00000000000E+00 0. -1.
</event>
<event>
 7    1  0.2983653E-010  0.4778727E+02  0.7816164E-02  0.1312668E+00
        -11   -1    0    0    0    0  0.00000000000E+00  0.00000000000E+00  0.45593999997E+02  0.45594000000E+02  0.51100000000E-03 0.  1.
         11   -1    0    0    0    0 -0.00000000000E+00 -0.00000000000E+00 -0.45593999997E+02  0.45594000000E+02  0.51100000000E-03 0. -1.
    9900012    2    1    2    0    0  0.22200216637E+02 -0.20095436626E+02 -0.31415713962E+02  0.47787271024E+02  0.19999999907E+02 0.  0.
        -12    1    1    2    0    0 -0.22200216637E+02  0.20095436626E+02  0.31415713962E+02  0.43400728976E+02  0.00000000000E+00 0.  1.
         11    1    3    3    0    0  0.62408358400E+01 -0.65642923521E+01 -0.11559525417E+01  0.91309469721E+01  0.51100000000E-03 0. -1.
        -11    1    3    3    0    0  0.30348929667E+01 -0.16118145939E+01  0.24770610546E+00  0.34452692464E+01  0.51100000000E-03 0.  1.
         12    1    3    3    0    0  0.12924487831E+02 -0.11919329680E+02 -0.30507467525E+02  0.35211054805E+02  0.00000000000E+00 0. -1.
</event>
<event>
 7    1  0.2983653E-010  0.4778727E+02  0.7816164E-02  0.1312668E+00
        -11   -1    0    0    0    0  0.00000000000E+00  0.00000000000E+00  0.45593999997E+02  0.45594000000E+02  0.51100000000E-03 0.  1.
         11   -1    0    0    0    0 -0.00000000000E+00 -0.00000000000E+00 -0.45593999997E+02  0.45594000000E+02  0.51100000000E-03 0. -1.
    9900012    2    1    2    0    0  0.38103534443E+02 -0.13198367448E+01 -0.20736483584E+02  0.47787273537E+02  0.20000011364E+02 0.  0.
        -12    1    1    2    0    0 -0.38103534443E+02  0.13198367448E+01  0.20736483584E+02  0.43400726463E+02  0.00000000000E+00 0.  1.
         11    1    3    3    0    0  0.12973516094E+02 -0.30572599560E+01 -0.92232708751E+01  0.16208876710E+02  0.51100000000E-03 0. -1.
        -11    1    3    3    0    0  0.15037609693E+02  0.58999549835E+01 -0.12766767153E+02  0.20589548754E+02  0.51100000000E-03 0.  1.
        -12    1    3    3    0    0  0.10092408656E+02 -0.41625317724E+01  0.12535544440E+01  0.10988848074E+02  0.00000000000E+00 0.  1.
</event>
<event>
 7    1  0.2983653E-010  0.4778727E+02  0.7816164E-02  0.1312668E+00
        -11   -1    0    0    0    0  0.00000000000E+00  0.00000000000E+00  0.45593999997E+02  0.45594000000E+02  0.51100000000E-03 0.  1.
         11   -1    0    0    0    0 -0.00000000000E+00 -0.00000000000E+00 -0.45593999997E+02  0.45594000000E+02  0.51100000000E-03 0. -1.
    9900012    2    1    2    0    0  0.49007968269E+01 -0.10354390141E+02 -0.41861583517E+02  0.47787269830E+02  0.19999994463E+02 0.  0.
        -12    1    1    2    0    0 -0.49007968269E+01  0.10354390141E+02  0.41861583517E+02  0.43400730170E+02  0.00000000000E+00 0.  1.
         11    1    3    3    0    0  0.41189107093E-02 -0.13053448303E+02 -0.22602513173E+02  0.26101075296E+02  0.51100000000E-03 0. -1.
        -11    1    3    3    0    0  0.28346591683E+01  0.42877557077E+01 -0.18137558819E+02  0.18851821710E+02  0.51100000000E-03 0.  1.
         12    1    3    3    0    0  0.20620187479E+01 -0.15886975459E+01 -0.11215115243E+01  0.28343728245E+01  0.00000000000E+00 0. -1.
</event>
<event>
 7    1  0.2983653E-010  0.4778731E+02  0.7816164E-02  0.1312668E+00
        -11   -1    0    0    0    0  0.00000000000E+00  0.00000000000E+00  0.45593999997E+02  0.45594000000E+02  0.51100000000E-03 0.  1.
         11   -1    0    0    0    0 -0.00000000000E+00 -0.00000000000E+00 -0.45593999997E+02  0.45594000000E+02  0.51100000000E-03 0. -1.
    9900012    2    1    2    0    0  0.19701218018E+02  0.16108059857E+02 -0.35156962377E+02  0.47787313516E+02  0.20000193645E+02 0.  0.
        -12    1    1    2    0    0 -0.19701218018E+02 -0.16108059857E+02  0.35156962377E+02  0.43400686484E+02  0.00000000000E+00 0.  1.
         11    1    3    3    0    0  0.30289524861E+01 -0.40187765581E+01 -0.75815656151E+01  0.90997393163E+01  0.51100000000E-03 0. -1.
        -11    1    3    3    0    0 -0.40898692794E+00  0.22802470870E+01 -0.14553397049E+01  0.27358382633E+01  0.51100000000E-03 0.  1.
         12    1    3    3    0    0  0.17081252459E+02  0.17846589328E+02 -0.26120057056E+02  0.35951735937E+02  0.00000000000E+00 0. -1.
</event>
<event>
 7    1  0.2983653E-010  0.4778725E+02  0.7816164E-02  0.1312668E+00
        -11   -1    0    0    0    0  0.00000000000E+00  0.00000000000E+00  0.45593999997E+02  0.45594000000E+02  0.51100000000E-03 0. -1.
         11   -1    0    0    0    0 -0.00000000000E+00 -0.00000000000E+00 -0.45593999997E+02  0.45594000000E+02  0.51100000000E-03 0.  1.
    9900012    2    1    2    0    0  0.11834799174E+02  0.33624261256E+02  0.24758263104E+02  0.47787251061E+02  0.19999908888E+02 0.  0.
        -12    1    1    2    0    0 -0.11834799174E+02 -0.33624261256E+02 -0.24758263104E+02  0.43400748939E+02  0.00000000000E+00 0.  1.
         11    1    3    3    0    0 -0.38412024712E+01  0.73316423240E+01  0.10183113689E+02  0.13122637702E+02  0.51100000000E-03 0. -1.
        -11    1    3    3    0    0  0.11698786189E+02  0.20722412974E+02  0.14407336652E+02  0.27818183755E+02  0.51100000000E-03 0.  1.
         12    1    3    3    0    0  0.39772154561E+01  0.55702059582E+01  0.16781276291E+00  0.68464296041E+01  0.00000000000E+00 0. -1.
</event>
<event>
 7    1  0.2983653E-010  0.4778727E+02  0.7816164E-02  0.1312668E+00
        -11   -1    0    0    0    0  0.00000000000E+00  0.00000000000E+00  0.45593999997E+02  0.45594000000E+02  0.51100000000E-03 0. -1.
         11   -1    0    0    0    0 -0.00000000000E+00 -0.00000000000E+00 -0.45593999997E+02  0.45594000000E+02  0.51100000000E-03 0.  1.
    9900012    2    1    2    0    0  0.98627301464E+01  0.58546330132E+01  0.41857771059E+02  0.47787272222E+02  0.20000005367E+02 0.  0.
        -12    1    1    2    0    0 -0.98627301464E+01 -0.58546330132E+01 -0.41857771059E+02  0.43400727778E+02  0.00000000000E+00 0.  1.
         11    1    3    3    0    0  0.50007028224E+01  0.40570724937E+01  0.53034168761E+01  0.83422477043E+01  0.51100000000E-03 0. -1.
        -11    1    3    3    0    0  0.55342219414E+00  0.46641963626E+01  0.31807912503E+01  0.56726040822E+01  0.51100000000E-03 0.  1.
         12    1    3    3    0    0  0.43086051298E+01 -0.28666358431E+01  0.33373562933E+02  0.33772420435E+02  0.00000000000E+00 0. -1.
</event>
<event>
 7    1  0.2983653E-010  0.4778727E+02  0.7816164E-02  0.1312668E+00
        -11   -1    0    0    0    0  0.00000000000E+00  0.00000000000E+00  0.45593999997E+02  0.45594000000E+02  0.51100000000E-03 0.  1.
         11   -1    0    0    0    0 -0.00000000000E+00 -0.00000000000E+00 -0.45593999997E+02  0.45594000000E+02  0.51100000000E-03 0. -1.
    9900012    2    1    2    0    0  0.13383660366E+02 -0.32127213030E+02 -0.25929578424E+02  0.47787271676E+02  0.20000002878E+02 0.  0.
        -12    1    1    2    0    0 -0.13383660366E+02  0.32127213030E+02  0.25929578424E+02  0.43400728324E+02  0.00000000000E+00 0.  1.
         11    1    3    3    0    0  0.60813232701E+01 -0.17939747269E+02 -0.15611453352E+02  0.24546578189E+02  0.51100000000E-03 0. -1.
        -11    1    3    3    0    0 -0.92185353314E+00 -0.84402162843E+01  0.47584474592E+00  0.85037340825E+01  0.51100000000E-03 0.  1.
        -12    1    3    3    0    0  0.82241906286E+01 -0.57472494770E+01 -0.10793969817E+02  0.14736959404E+02  0.00000000000E+00 0.  1.
</event>
<event>
 7    1  0.2983653E-010  0.4778727E+02  0.7816164E-02  0.1312668E+00
        -11   -1    0    0    0    0  0.00000000000E+00  0.00000000000E+00  0.45593999997E+02  0.45594000000E+02  0.51100000000E-03 0. -1.
         11   -1    0    0    0    0 -0.00000000000E+00 -0.00000000000E+00 -0.45593999997E+02  0.45594000000E+02  0.51100000000E-03 0.  1.
    9900012    2    1    2    0    0  0.12281360385E+02  0.18029062525E+02  0.37519920345E+02  0.47787270385E+02  0.19999996992E+02 0.  0.
        -12    1    1    2    0    0 -0.12281360385E+02 -0.18029062525E+02 -0.37519920345E+02  0.43400729615E+02  0.00000000000E+00 0.  1.
         11    1    3    3    0    0  0.21574768590E+01  0.16775530855E+01  0.10436825005E+02  0.10788707392E+02  0.51100000000E-03 0. -1.
        -11    1    3    3    0    0  0.40343718471E+01  0.78053146548E+01  0.24729611047E+02  0.26244099449E+02  0.51100000000E-03 0.  1.
        -12    1    3    3    0    0  0.60895116794E+01  0.85461947848E+01  0.23534842927E+01  0.10754463544E+02  0.00000000000E+00 0.  1.
</event>
<event>
 7    1  0.2983653E-010  0.4778721E+02  0.7816164E-02  0.1312668E+00
        -11   -1    0    0    0    0  0.00000000000E+00  0.00000000000E+00  0.45593999997E+02  0.45594000000E+02  0.51100000000E-03 0. -1.
         11   -1    0    0    0    0 -0.00000000000E+00 -0.00000000000E+00 -0.45593999997E+02  0.45594000000E+02  0.51100000000E-03 0.  1.
    9900012    2    1    2    0    0 -0.82152447619E-01  0.21868171271E+02  0.37488727581E+02  0.47787212456E+02  0.19999732870E+02 0.  0.
        -12    1    1    2    0    0  0.82152447619E-01 -0.21868171271E+02 -0.37488727581E+02  0.43400787544E+02  0.00000000000E+00 0.  1.
         11    1    3    3    0    0 -0.12304722353E+01  0.60999910978E+01 -0.10296432907E+00  0.62237091215E+01  0.51100000000E-03 0. -1.
        -11    1    3    3    0    0  0.19018498588E+01  0.14974006009E+02  0.27143649878E+02  0.31058261667E+02  0.51100000000E-03 0.  1.
        -12    1    3    3    0    0 -0.75353007108E+00  0.79417416416E+00  0.10448042033E+02  0.10505241667E+02  0.00000000000E+00 0.  1.
</event>
<event>
 7    1  0.2983653E-010  0.4778727E+02  0.7816164E-02  0.1312668E+00
        -11   -1    0    0    0    0  0.00000000000E+00  0.00000000000E+00  0.45593999997E+02  0.45594000000E+02  0.51100000000E-03 0. -1.
         11   -1    0    0    0    0 -0.00000000000E+00 -0.00000000000E+00 -0.45593999997E+02  0.45594000000E+02  0.51100000000E-03 0.  1.
    9900012    2    1    2    0    0 -0.30538190859E+02 -0.26030761400E+02  0.16536070176E+02  0.47787271240E+02  0.20000000894E+02 0.  0.
        -12    1    1    2    0    0  0.30538190859E+02  0.26030761400E+02 -0.16536070176E+02  0.43400728760E+02  0.00000000000E+00 0.  1.
         11    1    3    3    0    0 -0.28817755975E+02 -0.19797676108E+02  0.11980875985E+02  0.36958793654E+02  0.51100000000E-03 0. -1.
        -11    1    3    3    0    0 -0.12008055177E+01  0.70177081293E+00 -0.11724966544E+01  0.18191110002E+01  0.51100000000E-03 0.  1.
         12    1    3    3    0    0 -0.51962936631E+00 -0.69348561049E+01  0.57276908453E+01  0.90093665867E+01  0.00000000000E+00 0. -1.
</event>
<event>
 7    1  0.2983653E-010  0.4778727E+02  0.7816164E-02  0.1312668E+00
        -11   -1    0    0    0    0  0.00000000000E+00  0.00000000000E+00  0.45593999997E+02  0.45594000000E+02  0.51100000000E-03 0. -1.
         11   -1    0    0    0    0 -0.00000000000E+00 -0.00000000000E+00 -0.45593999997E+02  0.45594000000E+02  0.51100000000E-03 0.  1.
    9900012    2    1    2    0    0 -0.29409790184E+02  0.30168953584E+02  0.10417401418E+02  0.47787265313E+02  0.19999973870E+02 0.  0.
        -12    1    1    2    0    0  0.29409790184E+02 -0.30168953584E+02 -0.10417401418E+02  0.43400734687E+02  0.00000000000E+00 0.  1.
         11    1    3    3    0    0 -0.55530830180E+01  0.30635848398E+01 -0.37215283073E+00  0.63530135421E+01  0.51100000000E-03 0.  1.
        -11    1    3    3    0    0 -0.18731042753E+02  0.18261567382E+02 -0.55259718906E+00  0.26165667769E+02  0.51100000000E-03 0. -1.
        -12    1    3    3    0    0 -0.51256644123E+01  0.88438013625E+01  0.11342151437E+02  0.15268584002E+02  0.00000000000E+00 0.  1.
</event>
<event>
 7    1  0.2983653E-010  0.4778727E+02  0.7816164E-02  0.1312668E+00
        -11   -1    0    0    0    0  0.00000000000E+00  0.00000000000E+00  0.45593999997E+02  0.45594000000E+02  0.51100000000E-03 0.  1.
         11   -1    0    0    0    0 -0.00000000000E+00 -0.00000000000E+00 -0.45593999997E+02  0.45594000000E+02  0.51100000000E-03 0. -1.
    9900012    2    1    2    0    0 -0.31066712493E+02 -0.27801296004E+02  0.12065250881E+02  0.47787274620E+02  0.20000016304E+02 0.  0.
        -12    1    1    2    0    0  0.31066712493E+02  0.27801296004E+02 -0.12065250881E+02  0.43400725380E+02  0.00000000000E+00 0.  1.
         11    1    3    3    0    0  0.12519272608E+01 -0.65860875541E+00 -0.18054807814E+01  0.22936539565E+01  0.51100000000E-03 0. -1.
        -11    1    3    3    0    0 -0.75187532391E+00  0.46827258375E+00  0.15460189611E+01  0.17817885970E+01  0.51100000000E-03 0.  1.
         12    1    3    3    0    0 -0.31566764430E+02 -0.27610959833E+02  0.12324712701E+02  0.43711832067E+02  0.00000000000E+00 0. -1.
</event>
<event>
 7    1  0.2983653E-010  0.4778727E+02  0.7816164E-02  0.1312668E+00
        -11   -1    0    0    0    0  0.00000000000E+00  0.00000000000E+00  0.45593999997E+02  0.45594000000E+02  0.51100000000E-03 0. -1.
         11   -1    0    0    0    0 -0.00000000000E+00 -0.00000000000E+00 -0.45593999997E+02  0.45594000000E+02  0.51100000000E-03 0.  1.
    9900012    2    1    2    0    0  0.39565738055E+02  0.13585569952E+02 -0.11558883513E+02  0.47787272738E+02  0.20000007722E+02 0.  0.
        -12    1    1    2    0    0 -0.39565738055E+02 -0.13585569952E+02  0.11558883513E+02  0.43400727262E+02  0.00000000000E+00 0.  1.
         11    1    3    3    0    0  0.82651294739E+01  0.38963922529E+00  0.39754700418E+01  0.91797900989E+01  0.51100000000E-03 0. -1.
        -11    1    3    3    0    0  0.29019601939E+02  0.11057715844E+02 -0.10692972609E+02  0.32844330407E+02  0.51100000000E-03 0.  1.
         12    1    3    3    0    0  0.22810066424E+01  0.21382148828E+01 -0.48413809463E+01  0.57631522325E+01  0.00000000000E+00 0. -1.
</event>
<event>
 7    1  0.2983653E-010  0.4778727E+02  0.7816164E-02  0.1312668E+00
        -11   -1    0    0    0    0  0.00000000000E+00  0.00000000000E+00  0.45593999997E+02  0.45594000000E+02  0.51100000000E-03 0. -1.
         11   -1    0    0    0    0 -0.00000000000E+00 -0.00000000000E+00 -0.45593999997E+02  0.45594000000E+02  0.51100000000E-03 0.  1.
    9900012    2    1    2    0    0 -0.23853455937E+02  0.35554544344E+02  0.71070610493E+01  0.47787270739E+02  0.19999998606E+02 0.  0.
        -12    1    1    2    0    0  0.23853455937E+02 -0.35554544344E+02 -0.71070610493E+01  0.43400729261E+02  0.00000000000E+00 0.  1.
         11    1    3    3    0    0 -0.12940481457E+02  0.26172396652E+02  0.75161336700E+01  0.30148676131E+02  0.51100000000E-03 0. -1.
        -11    1    3    3    0    0 -0.98525182800E+01  0.77968591781E+01 -0.43208904658E+01  0.13286580605E+02  0.51100000000E-03 0.  1.
         12    1    3    3    0    0 -0.10604562000E+01  0.15852885137E+01  0.39118178450E+01  0.43520140023E+01  0.00000000000E+00 0. -1.
</event>
<event>
 7    1  0.2983653E-010  0.4778727E+02  0.7816164E-02  0.1312668E+00
        -11   -1    0    0    0    0  0.00000000000E+00  0.00000000000E+00  0.45593999997E+02  0.45594000000E+02  0.51100000000E-03 0.  1.
         11   -1    0    0    0    0 -0.00000000000E+00 -0.00000000000E+00 -0.45593999997E+02  0.45594000000E+02  0.51100000000E-03 0. -1.
    9900012    2    1    2    0    0 -0.14559496274E+02 -0.25494627041E+02 -0.31963551498E+02  0.47787267701E+02  0.19999984757E+02 0.  0.
        -12    1    1    2    0    0  0.14559496274E+02  0.25494627041E+02  0.31963551498E+02  0.43400732299E+02  0.00000000000E+00 0.  1.
         11    1    3    3    0    0 -0.80526702580E+01 -0.17313775775E+02 -0.94888558234E+01  0.21322540068E+02  0.51100000000E-03 0. -1.
        -11    1    3    3    0    0 -0.83242296049E+01 -0.66380851310E+01 -0.13580023448E+02  0.17256129631E+02  0.51100000000E-03 0.  1.
         12    1    3    3    0    0  0.18174035886E+01 -0.15427661352E+01 -0.88946722261E+01  0.92085980020E+01  0.00000000000E+00 0. -1.
</event>
<event>
 7    1  0.2983653E-010  0.4778727E+02  0.7816164E-02  0.1312668E+00
        -11   -1    0    0    0    0  0.00000000000E+00  0.00000000000E+00  0.45593999997E+02  0.45594000000E+02  0.51100000000E-03 0.  1.
         11   -1    0    0    0    0 -0.00000000000E+00 -0.00000000000E+00 -0.45593999997E+02  0.45594000000E+02  0.51100000000E-03 0. -1.
    9900012    2    1    2    0    0 -0.22050961321E+02 -0.36215431661E+02 -0.92639609784E+01  0.47787270069E+02  0.19999995552E+02 0.  0.
        -12    1    1    2    0    0  0.22050961321E+02  0.36215431661E+02  0.92639609784E+01  0.43400729931E+02  0.00000000000E+00 0.  1.
         11    1    3    3    0    0 -0.53013168004E+01 -0.25706602354E+02 -0.27577862680E+01  0.26392020570E+02  0.51100000000E-03 0. -1.
        -11    1    3    3    0    0 -0.99279303170E+01 -0.39451048169E+01 -0.50525278883E+01  0.11817600887E+02  0.51100000000E-03 0.  1.
         12    1    3    3    0    0 -0.68217142036E+01 -0.65637244897E+01 -0.14536468220E+01  0.95776486120E+01  0.00000000000E+00 0. -1.
</event>
<event>
 7    1  0.2983653E-010  0.4778727E+02  0.7816164E-02  0.1312668E+00
        -11   -1    0    0    0    0  0.00000000000E+00  0.00000000000E+00  0.45593999997E+02  0.45594000000E+02  0.51100000000E-03 0. -1.
         11   -1    0    0    0    0 -0.00000000000E+00 -0.00000000000E+00 -0.45593999997E+02  0.45594000000E+02  0.51100000000E-03 0.  1.
    9900012    2    1    2    0    0  0.27875470729E+02 -0.18541651157E+02  0.27618627149E+02  0.47787271186E+02  0.20000000645E+02 0.  0.
        -12    1    1    2    0    0 -0.27875470729E+02  0.18541651157E+02 -0.27618627149E+02  0.43400728814E+02  0.00000000000E+00 0.  1.
         11    1    3    3    0    0 -0.14735649525E+01  0.17018436085E+01  0.35064435164E+01  0.41668707361E+01  0.51100000000E-03 0. -1.
        -11    1    3    3    0    0  0.18951175675E+02 -0.89085525251E+01  0.13053135232E+02  0.24675771664E+02  0.51100000000E-03 0.  1.
         12    1    3    3    0    0  0.10397860006E+02 -0.11334942241E+02  0.11059048401E+02  0.18944628786E+02  0.00000000000E+00 0. -1.
</event>
<event>
 7    1  0.2983653E-010  0.4778728E+02  0.7816164E-02  0.1312668E+00
        -11   -1    0    0    0    0  0.00000000000E+00  0.00000000000E+00  0.45593999997E+02  0.45594000000E+02  0.51100000000E-03 0. -1.
         11   -1    0    0    0    0 -0.00000000000E+00 -0.00000000000E+00 -0.45593999997E+02  0.45594000000E+02  0.51100000000E-03 0.  1.
    9900012    2    1    2    0    0 -0.17611417105E+02  0.34844982005E+02  0.18954883470E+02  0.47787281218E+02  0.20000046387E+02 0.  0.
        -12    1    1    2    0    0  0.17611417105E+02 -0.34844982005E+02 -0.18954883470E+02  0.43400718782E+02  0.00000000000E+00 0.  1.
         11    1    3    3    0    0 -0.18680654238E+02  0.31111134304E+02  0.10586977139E+02  0.37801502690E+02  0.51100000000E-03 0. -1.
        -11    1    3    3    0    0  0.79334182907E+00 -0.64022730404E+00  0.11090370763E+01  0.15064015920E+01  0.51100000000E-03 0.  1.
         12    1    3    3    0    0  0.27589530397E+00  0.43740750058E+01  0.72588692547E+01  0.84793769365E+01  0.00000000000E+00 0. -1.
</event>
<event>
 7    1  0.2983653E-010  0.4778727E+02  0.7816164E-02  0.1312668E+00
        -11   -1    0    0    0    0  0.00000000000E+00  0.00000000000E+00  0.45593999997E+02  0.45594000000E+02  0.51100000000E-03 0.  1.
         11   -1    0    0    0    0 -0.00000000000E+00 -0.00000000000E+00 -0.45593999997E+02  0.45594000000E+02  0.51100000000E-03 0. -1.
    9900012    2    1    2    0    0 -0.24343891233E+02 -0.35547873903E+02  0.52294042073E+01  0.47787273649E+02  0.20000011877E+02 0.  0.
        -12    1    1    2    0    0  0.24343891233E+02  0.35547873903E+02 -0.52294042073E+01  0.43400726351E+02  0.00000000000E+00 0.  1.
         11    1    3    3    0    0 -0.71643115319E+01 -0.99136597137E+01 -0.52170318549E+00  0.12242556233E+02  0.51100000000E-03 0. -1.
        -11    1    3    3    0    0 -0.17260053224E+02 -0.27604728292E+02  0.68753439128E+01  0.33274627204E+02  0.51100000000E-03 0.  1.
        -12    1    3    3    0    0  0.80473522604E-01  0.19705141030E+01 -0.11242365201E+01  0.22700902121E+01  0.00000000000E+00 0.  1.
</event>
<event>
 7    1  0.2983653E-010  0.4778727E+02  0.7816164E-02  0.1312668E+00
        -11   -1    0    0    0    0  0.00000000000E+00  0.00000000000E+00  0.45593999997E+02  0.45594000000E+02  0.51100000000E-03 0.  1.
         11   -1    0    0    0    0 -0.00000000000E+00 -0.00000000000E+00 -0.45593999997E+02  0.45594000000E+02  0.51100000000E-03 0. -1.
    9900012    2    1    2    0    0  0.11347038225E+02  0.17225049284E+01 -0.41855714312E+02  0.47787272814E+02  0.20000008068E+02 0.  0.
        -12    1    1    2    0    0 -0.11347038225E+02 -0.17225049284E+01  0.41855714312E+02  0.43400727186E+02  0.00000000000E+00 0.  1.
         11    1    3    3    0    0  0.41590842341E+01  0.12270792063E+01 -0.31340482023E+02  0.31639050535E+02  0.51100000000E-03 0. -1.
        -11    1    3    3    0    0  0.50131223528E+00 -0.11319569593E+01 -0.90216309121E+01  0.91061773039E+01  0.51100000000E-03 0.  1.
         12    1    3    3    0    0  0.66866417554E+01  0.16273826814E+01 -0.14936013768E+01  0.70420449750E+01  0.00000000000E+00 0. -1.
</event>
<event>
 7    1  0.2983653E-010  0.4778727E+02  0.7816164E-02  0.1312668E+00
        -11   -1    0    0    0    0  0.00000000000E+00  0.00000000000E+00  0.45593999997E+02  0.45594000000E+02  0.51100000000E-03 0.  1.
         11   -1    0    0    0    0 -0.00000000000E+00 -0.00000000000E+00 -0.45593999997E+02  0.45594000000E+02  0.51100000000E-03 0. -1.
    9900012    2    1    2    0    0  0.88162207792E+00 -0.43187399892E+02  0.42064930089E+01  0.47787270163E+02  0.19999995983E+02 0.  0.
        -12    1    1    2    0    0 -0.88162207792E+00  0.43187399892E+02 -0.42064930089E+01  0.43400729837E+02  0.00000000000E+00 0.  1.
         11    1    3    3    0    0  0.39251608722E+01 -0.18885299866E+02 -0.54693198806E+01  0.20049311687E+02  0.51100000000E-03 0. -1.
        -11    1    3    3    0    0 -0.60095389872E+01 -0.18862199849E+02  0.75570699249E+01  0.21189772252E+02  0.51100000000E-03 0.  1.
        -12    1    3    3    0    0  0.29660001929E+01 -0.54399001774E+01  0.21187429646E+01  0.65481862248E+01  0.00000000000E+00 0.  1.
</event>
<event>
 7    1  0.2983653E-010  0.4778727E+02  0.7816164E-02  0.1312668E+00
        -11   -1    0    0    0    0  0.00000000000E+00  0.00000000000E+00  0.45593999997E+02  0.45594000000E+02  0.51100000000E-03 0.  1.
         11   -1    0    0    0    0 -0.00000000000E+00 -0.00000000000E+00 -0.45593999997E+02  0.45594000000E+02  0.51100000000E-03 0. -1.
    9900012    2    1    2    0    0  0.48817339225E+01  0.42823064945E+02 -0.50967741306E+01  0.47787270468E+02  0.19999997371E+02 0.  0.
        -12    1    1    2    0    0 -0.48817339225E+01 -0.42823064945E+02  0.50967741306E+01  0.43400729532E+02  0.00000000000E+00 0.  1.
         11    1    3    3    0    0 -0.27627355611E+01  0.30558547861E+01 -0.17764110113E+01  0.44862671116E+01  0.51100000000E-03 0. -1.
        -11    1    3    3    0    0  0.11943007784E+02  0.32394913749E+02 -0.14056957568E+01  0.34554910686E+02  0.51100000000E-03 0.  1.
        -12    1    3    3    0    0 -0.42985383002E+01  0.73722964103E+01 -0.19146673625E+01  0.87460926698E+01  0.00000000000E+00 0.  1.
</event>
<event>
 7    1  0.2983653E-010  0.4778727E+02  0.7816164E-02  0.1312668E+00
        -11   -1    0    0    0    0  0.00000000000E+00  0.00000000000E+00  0.45593999997E+02  0.45594000000E+02  0.51100000000E-03 0.  1.
         11   -1    0    0    0    0 -0.00000000000E+00 -0.00000000000E+00 -0.45593999997E+02  0.45594000000E+02  0.51100000000E-03 0. -1.
    9900012    2    1    2    0    0  0.72206055504E+01  0.16502073498E+02 -0.39486299220E+02  0.47787269588E+02  0.19999993359E+02 0.  0.
        -12    1    1    2    0    0 -0.72206055504E+01 -0.16502073498E+02  0.39486299220E+02  0.43400730412E+02  0.00000000000E+00 0.  1.
         11    1    3    3    0    0  0.35373054003E+01  0.12914007926E+02 -0.29600266175E+02  0.32487842158E+02  0.51100000000E-03 0. -1.
        -11    1    3    3    0    0  0.28978986862E+00 -0.36609386492E+01 -0.30920822648E+01  0.48007731622E+01  0.51100000000E-03 0.  1.
         12    1    3    3    0    0  0.33935102815E+01  0.72490042214E+01 -0.67939507800E+01  0.10498654268E+02  0.00000000000E+00 0. -1.
</event>
<event>
 7    1  0.2983653E-010  0.4778727E+02  0.7816164E-02  0.1312668E+00
        -11   -1    0    0    0    0  0.00000000000E+00  0.00000000000E+00  0.45593999997E+02  0.45594000000E+02  0.51100000000E-03 0. -1.
         11   -1    0    0    0    0 -0.00000000000E+00 -0.00000000000E+00 -0.45593999997E+02  0.45594000000E+02  0.51100000000E-03 0.  1.
    9900012    2    1    2    0    0  0.23410448978E+02  0.36213859559E+02 -0.49122950353E+01  0.47787269729E+02  0.19999994004E+02 0.  0.
        -12    1    1    2    0    0 -0.23410448978E+02 -0.36213859559E+02  0.49122950353E+01  0.43400730271E+02  0.00000000000E+00 0.  1.
         11    1    3    3    0    0  0.59557334958E+00  0.97856088392E+01 -0.39847046264E+01  0.10582566758E+02  0.51100000000E-03 0. -1.
        -11    1    3    3    0    0  0.75709956510E+01  0.16977985972E+02 -0.39811464019E+01  0.19011089126E+02  0.51100000000E-03 0.  1.
         12    1    3    3    0    0  0.15243879977E+02  0.94502647481E+01  0.30535559930E+01  0.18193613846E+02  0.00000000000E+00 0. -1.
</event>
<event>
 7    1  0.2983653E-010  0.4778728E+02  0.7816164E-02  0.1312668E+00
        -11   -1    0    0    0    0  0.00000000000E+00  0.00000000000E+00  0.45593999997E+02  0.45594000000E+02  0.51100000000E-03 0.  1.
         11   -1    0    0    0    0 -0.00000000000E+00 -0.00000000000E+00 -0.45593999997E+02  0.45594000000E+02  0.51100000000E-03 0. -1.
    9900012    2    1    2    0    0  0.18194753332E+02 -0.31577373881E+02 -0.23567838488E+02  0.47787278796E+02  0.20000035344E+02 0.  0.
        -12    1    1    2    0    0 -0.18194753332E+02  0.31577373881E+02  0.23567838488E+02  0.43400721204E+02  0.00000000000E+00 0.  1.
         11    1    3    3    0    0 -0.88573646765E+00 -0.10587065637E+02 -0.77149770067E+01  0.13129788969E+02  0.51100000000E-03 0. -1.
        -11    1    3    3    0    0  0.17717406849E+02 -0.14766860419E+02 -0.77110122914E+01  0.24319259505E+02  0.51100000000E-03 0.  1.
        -12    1    3    3    0    0  0.13630829508E+01 -0.62234478248E+01 -0.81418491896E+01  0.10338230322E+02  0.00000000000E+00 0.  1.
</event>
<event>
 7    1  0.2983653E-010  0.4778728E+02  0.7816164E-02  0.1312668E+00
        -11   -1    0    0    0    0  0.00000000000E+00  0.00000000000E+00  0.45593999997E+02  0.45594000000E+02  0.51100000000E-03 0.  1.
         11   -1    0    0    0    0 -0.00000000000E+00 -0.00000000000E+00 -0.45593999997E+02  0.45594000000E+02  0.51100000000E-03 0. -1.
    9900012    2    1    2    0    0 -0.42742191724E+02  0.74432514569E+01 -0.11514877406E+01  0.47787275701E+02  0.20000021233E+02 0.  0.
        -12    1    1    2    0    0  0.42742191724E+02 -0.74432514569E+01  0.11514877406E+01  0.43400724299E+02  0.00000000000E+00 0.  1.
         11    1    3    3    0    0 -0.92402563960E+01  0.19559713541E+01 -0.70130291905E+01  0.11763959405E+02  0.51100000000E-03 0. -1.
        -11    1    3    3    0    0 -0.31655229086E+02  0.71399435304E+01  0.71519660825E+01  0.33229248279E+02  0.51100000000E-03 0.  1.
        -12    1    3    3    0    0 -0.18467062423E+01 -0.16526634276E+01 -0.12904246326E+01  0.27940680168E+01  0.00000000000E+00 0.  1.
</event>
<event>
 7    1  0.2983653E-010  0.4778727E+02  0.7816164E-02  0.1312668E+00
        -11   -1    0    0    0    0  0.00000000000E+00  0.00000000000E+00  0.45593999997E+02  0.45594000000E+02  0.51100000000E-03 0. -1.
         11   -1    0    0    0    0 -0.00000000000E+00 -0.00000000000E+00 -0.45593999997E+02  0.45594000000E+02  0.51100000000E-03 0.  1.
    9900012    2    1    2    0    0  0.18286371612E+02  0.36654938473E+02 -0.14340405721E+02  0.47787272617E+02  0.20000007169E+02 0.  0.
        -12    1    1    2    0    0 -0.18286371612E+02 -0.36654938473E+02  0.14340405721E+02  0.43400727383E+02  0.00000000000E+00 0.  1.
         11    1    3    3    0    0  0.44896099097E+01 -0.25522256390E+00 -0.31362118576E+01  0.54824776128E+01  0.51100000000E-03 0. -1.
        -11    1    3    3    0    0  0.33835955897E+01  0.88816365225E+01 -0.76368673198E+01  0.12192371761E+02  0.51100000000E-03 0.  1.
         12    1    3    3    0    0  0.10413166112E+02  0.28028524514E+02 -0.35673265435E+01  0.30112423243E+02  0.00000000000E+00 0. -1.
</event>
<event>
 7    1  0.2983653E-010  0.4778727E+02  0.7816164E-02  0.1312668E+00
        -11   -1    0    0    0    0  0.00000000000E+00  0.00000000000E+00  0.45593999997E+02  0.45594000000E+02  0.51100000000E-03 0.  1.
         11   -1    0    0    0    0 -0.00000000000E+00 -0.00000000000E+00 -0.45593999997E+02  0.45594000000E+02  0.51100000000E-03 0. -1.
    9900012    2    1    2    0    0  0.16354560184E+02 -0.18715080766E+02 -0.35579448031E+02  0.47787274095E+02  0.20000013908E+02 0.  0.
        -12    1    1    2    0    0 -0.16354560184E+02  0.18715080766E+02  0.35579448031E+02  0.43400725905E+02  0.00000000000E+00 0.  1.
         11    1    3    3    0    0  0.11950062552E+02 -0.90719188669E+01 -0.10633821785E+02  0.18389721937E+02  0.51100000000E-03 0. -1.
        -11    1    3    3    0    0 -0.37862755154E+00  0.10471214058E+01 -0.11552704136E+02  0.11606239493E+02  0.51100000000E-03 0.  1.
         12    1    3    3    0    0  0.47831251837E+01 -0.10690283305E+02 -0.13392922110E+02  0.17791312664E+02  0.00000000000E+00 0. -1.
</event>
<event>
 7    1  0.2983653E-010  0.4778728E+02  0.7816164E-02  0.1312668E+00
        -11   -1    0    0    0    0  0.00000000000E+00  0.00000000000E+00  0.45593999997E+02  0.45594000000E+02  0.51100000000E-03 0.  1.
         11   -1    0    0    0    0 -0.00000000000E+00 -0.00000000000E+00 -0.45593999997E+02  0.45594000000E+02  0.51100000000E-03 0. -1.
    9900012    2    1    2    0    0 -0.14246011912E+02  0.19437255240E+02 -0.36095243234E+02  0.47787281909E+02  0.20000049538E+02 0.  0.
        -12    1    1    2    0    0  0.14246011912E+02 -0.19437255240E+02  0.36095243234E+02  0.43400718091E+02  0.00000000000E+00 0.  1.
         11    1    3    3    0    0 -0.17132813196E+02  0.96821961988E+01 -0.19697350886E+02  0.27843560179E+02  0.51100000000E-03 0. -1.
        -11    1    3    3    0    0  0.30498725406E+01  0.51056085804E+01 -0.12618474983E+02  0.13949726615E+02  0.51100000000E-03 0.  1.
         12    1    3    3    0    0 -0.16307125669E+00  0.46494504611E+01 -0.37794173650E+01  0.59939951155E+01  0.00000000000E+00 0. -1.
</event>
<event>
 7    1  0.2983653E-010  0.4778729E+02  0.7816164E-02  0.1312668E+00
        -11   -1    0    0    0    0  0.00000000000E+00  0.00000000000E+00  0.45593999997E+02  0.45594000000E+02  0.51100000000E-03 0.  1.
         11   -1    0    0    0    0 -0.00000000000E+00 -0.00000000000E+00 -0.45593999997E+02  0.45594000000E+02  0.51100000000E-03 0. -1.
    9900012    2    1    2    0    0  0.18325245361E+02  0.24824542405E+02 -0.30521291205E+02  0.47787288716E+02  0.20000080570E+02 0.  0.
        -12    1    1    2    0    0 -0.18325245361E+02 -0.24824542405E+02  0.30521291205E+02  0.43400711284E+02  0.00000000000E+00 0.  1.
         11    1    3    3    0    0  0.11000028585E+02  0.89853793031E+01 -0.11244386349E+02  0.18115570505E+02  0.51100000000E-03 0. -1.
        -11    1    3    3    0    0  0.31746134005E+01  0.14163648354E+02 -0.60810932632E+01  0.15737433096E+02  0.51100000000E-03 0.  1.
        -12    1    3    3    0    0  0.41506033752E+01  0.16755147488E+01 -0.13195811592E+02  0.13934285114E+02  0.00000000000E+00 0.  1.
</event>
<event>
 7    1  0.2983653E-010  0.4778727E+02  0.7816164E-02  0.1312668E+00
        -11   -1    0    0    0    0  0.00000000000E+00  0.00000000000E+00  0.45593999997E+02  0.45594000000E+02  0.51100000000E-03 0.  1.
         11   -1    0    0    0    0 -0.00000000000E+00 -0.00000000000E+00 -0.45593999997E+02  0.45594000000E+02  0.51100000000E-03 0. -1.
    9900012    2    1    2    0    0  0.35538452146E+01  0.41626105001E+02 -0.11758429352E+02  0.47787273114E+02  0.20000009436E+02 0.  0.
        -12    1    1    2    0    0 -0.35538452146E+01 -0.41626105001E+02  0.11758429352E+02  0.43400726886E+02  0.00000000000E+00 0.  1.
         11    1    3    3    0    0 -0.41466829489E+00  0.41123189869E+02 -0.11829723788E+02  0.42792885623E+02  0.51100000000E-03 0. -1.
        -11    1    3    3    0    0  0.19891378057E+01  0.19344877758E+00 -0.14581243093E+01  0.24739075169E+01  0.51100000000E-03 0.  1.
         12    1    3    3    0    0  0.19793757038E+01  0.30946635477E+00  0.15294187451E+01  0.25204799740E+01  0.00000000000E+00 0. -1.
</event>
<event>
 7    1  0.2983653E-010  0.4778727E+02  0.7816164E-02  0.1312668E+00
        -11   -1    0    0    0    0  0.00000000000E+00  0.00000000000E+00  0.45593999997E+02  0.45594000000E+02  0.51100000000E-03 0.  1.
         11   -1    0    0    0    0 -0.00000000000E+00 -0.00000000000E+00 -0.45593999997E+02  0.45594000000E+02  0.51100000000E-03 0. -1.
    9900012    2    1    2    0    0  0.31607256787E+02 -0.16781284477E+02 -0.24555923496E+02  0.47787267644E+02  0.19999984496E+02 0.  0.
        -12    1    1    2    0    0 -0.31607256787E+02  0.16781284477E+02  0.24555923496E+02  0.43400732356E+02  0.00000000000E+00 0.  1.
         11    1    3    3    0    0  0.19658496141E+02 -0.71266407487E+01 -0.53452836355E+01  0.21582806497E+02  0.51100000000E-03 0. -1.
        -11    1    3    3    0    0  0.82716451114E+01 -0.10071873968E+02 -0.18168669760E+02  0.22359859552E+02  0.51100000000E-03 0.  1.
        -12    1    3    3    0    0  0.36771155352E+01  0.41723024033E+00 -0.10419701000E+01  0.38446015947E+01  0.00000000000E+00 0.  1.
</event>
<event>
 7    1  0.2983653E-010  0.4778726E+02  0.7816164E-02  0.1312668E+00
        -11   -1    0    0    0    0  0.00000000000E+00  0.00000000000E+00  0.45593999997E+02  0.45594000000E+02  0.51100000000E-03 0.  1.
         11   -1    0    0    0    0 -0.00000000000E+00 -0.00000000000E+00 -0.45593999997E+02  0.45594000000E+02  0.51100000000E-03 0. -1.
    9900012    2    1    2    0    0 -0.35193249813E+01 -0.32623184180E+02 -0.28407148027E+02  0.47787264368E+02  0.19999969561E+02 0.  0.
        -12    1    1    2    0    0  0.35193249813E+01  0.32623184180E+02  0.28407148027E+02  0.43400735632E+02  0.00000000000E+00 0.  1.
         11    1    3    3    0    0 -0.77974236188E+01 -0.25357161052E+02 -0.17242524424E+02  0.31640007593E+02  0.51100000000E-03 0.  1.
        -11    1    3    3    0    0 -0.24081577575E+01 -0.22819712740E+01 -0.34583742285E+01  0.47923865918E+01  0.51100000000E-03 0. -1.
         12    1    3    3    0    0  0.66862563950E+01 -0.49840518536E+01 -0.77062493745E+01  0.11354870183E+02  0.00000000000E+00 0. -1.
</event>
<event>
 7    1  0.2983653E-010  0.4778727E+02  0.7816164E-02  0.1312668E+00
        -11   -1    0    0    0    0  0.00000000000E+00  0.00000000000E+00  0.45593999997E+02  0.45594000000E+02  0.51100000000E-03 0.  1.
         11   -1    0    0    0    0 -0.00000000000E+00 -0.00000000000E+00 -0.45593999997E+02  0.45594000000E+02  0.51100000000E-03 0. -1.
    9900012    2    1    2    0    0  0.67147847854E-01  0.43149472492E+02 -0.46628074057E+01  0.47787271227E+02  0.20000000830E+02 0.  0.
        -12    1    1    2    0    0 -0.67147847854E-01 -0.43149472492E+02  0.46628074057E+01  0.43400728773E+02  0.00000000000E+00 0.  1.
         11    1    3    3    0    0 -0.48930151799E+01  0.42493885686E+01  0.21421773563E+01  0.68255274407E+01  0.51100000000E-03 0. -1.
        -11    1    3    3    0    0  0.75142926130E+01  0.23584340422E+02 -0.26883553919E+01  0.24898051361E+02  0.51100000000E-03 0.  1.
        -12    1    3    3    0    0 -0.25541295853E+01  0.15315743501E+02 -0.41166293701E+01  0.16063692424E+02  0.00000000000E+00 0.  1.
</event>
<event>
 7    1  0.2983653E-010  0.4778727E+02  0.7816164E-02  0.1312668E+00
        -11   -1    0    0    0    0  0.00000000000E+00  0.00000000000E+00  0.45593999997E+02  0.45594000000E+02  0.51100000000E-03 0. -1.
         11   -1    0    0    0    0 -0.00000000000E+00 -0.00000000000E+00 -0.45593999997E+02  0.45594000000E+02  0.51100000000E-03 0.  1.
    9900012    2    1    2    0    0  0.34616455662E+02 -0.23475271079E+02  0.11586043902E+02  0.47787265350E+02  0.19999974037E+02 0.  0.
        -12    1    1    2    0    0 -0.34616455662E+02  0.23475271079E+02 -0.11586043902E+02  0.43400734650E+02  0.00000000000E+00 0.  1.
         11    1    3    3    0    0  0.85864136582E+01 -0.12998237567E+02 -0.31697391697E+01  0.15897418848E+02  0.51100000000E-03 0. -1.
        -11    1    3    3    0    0  0.21759308121E+02 -0.78604122903E+01  0.10931105057E+02  0.25587939138E+02  0.51100000000E-03 0.  1.
         12    1    3    3    0    0  0.42707338827E+01 -0.26166212223E+01  0.38246780143E+01  0.63019073646E+01  0.00000000000E+00 0. -1.
</event>
<event>
 7    1  0.2983653E-010  0.4778727E+02  0.7816164E-02  0.1312668E+00
        -11   -1    0    0    0    0  0.00000000000E+00  0.00000000000E+00  0.45593999997E+02  0.45594000000E+02  0.51100000000E-03 0. -1.
         11   -1    0    0    0    0 -0.00000000000E+00 -0.00000000000E+00 -0.45593999997E+02  0.45594000000E+02  0.51100000000E-03 0.  1.
    9900012    2    1    2    0    0 -0.12311252547E+02 -0.33529216539E+02  0.24654580412E+02  0.47787266870E+02  0.19999980965E+02 0.  0.
        -12    1    1    2    0    0  0.12311252547E+02  0.33529216539E+02 -0.24654580412E+02  0.43400733130E+02  0.00000000000E+00 0.  1.
         11    1    3    3    0    0 -0.16386048130E-01 -0.38937026877E+01  0.75025281292E+01  0.84527579945E+01  0.51100000000E-03 0. -1.
        -11    1    3    3    0    0 -0.35841466098E+01 -0.15425929234E+02  0.60487333162E+00  0.15848383881E+02  0.51100000000E-03 0.  1.
        -12    1    3    3    0    0 -0.87107198888E+01 -0.14209584617E+02  0.16547178951E+02  0.23486124994E+02  0.00000000000E+00 0.  1.
</event>
<event>
 7    1  0.2983653E-010  0.4778727E+02  0.7816164E-02  0.1312668E+00
        -11   -1    0    0    0    0  0.00000000000E+00  0.00000000000E+00  0.45593999997E+02  0.45594000000E+02  0.51100000000E-03 0. -1.
         11   -1    0    0    0    0 -0.00000000000E+00 -0.00000000000E+00 -0.45593999997E+02  0.45594000000E+02  0.51100000000E-03 0.  1.
    9900012    2    1    2    0    0 -0.83485673514E+01  0.10170193006E+02  0.41358098265E+02  0.47787266197E+02  0.19999977897E+02 0.  0.
        -12    1    1    2    0    0  0.83485673514E+01 -0.10170193006E+02 -0.41358098265E+02  0.43400733803E+02  0.00000000000E+00 0.  1.
         11    1    3    3    0    0 -0.84138697376E+01  0.10188770786E+02  0.11920061794E+02  0.17795845794E+02  0.51100000000E-03 0.  1.
        -11    1    3    3    0    0 -0.66851821270E+00  0.11611450807E+01  0.27846787307E+02  0.27879001741E+02  0.51100000000E-03 0. -1.
        -12    1    3    3    0    0  0.73382059894E+00 -0.11797228606E+01  0.15912491641E+01  0.21124186615E+01  0.00000000000E+00 0.  1.
</event>
<event>
 7    1  0.2983653E-010  0.4778727E+02  0.7816164E-02  0.1312668E+00
        -11   -1    0    0    0    0  0.00000000000E+00  0.00000000000E+00  0.45593999997E+02  0.45594000000E+02  0.51100000000E-03 0. -1.
         11   -1    0    0    0    0 -0.00000000000E+00 -0.00000000000E+00 -0.45593999997E+02  0.45594000000E+02  0.51100000000E-03 0.  1.
    9900012    2    1    2    0    0 -0.11516965568E+02  0.34036389212E+02  0.24341475743E+02  0.47787265815E+02  0.19999976156E+02 0.  0.
        -12    1    1    2    0    0  0.11516965568E+02 -0.34036389212E+02 -0.24341475743E+02  0.43400734185E+02  0.00000000000E+00 0.  1.
         11    1    3    3    0    0 -0.31124054761E+01  0.11571984222E+02 -0.88741008786E-01  0.11983562155E+02  0.51100000000E-03 0. -1.
        -11    1    3    3    0    0  0.10689697012E+01  0.63560983033E-01 -0.30554701260E+00  0.11135957339E+01  0.51100000000E-03 0.  1.
         12    1    3    3    0    0 -0.94735297932E+01  0.22400844007E+02  0.24735763764E+02  0.34690107926E+02  0.00000000000E+00 0. -1.
</event>
<event>
 7    1  0.2983653E-010  0.4778727E+02  0.7816164E-02  0.1312668E+00
        -11   -1    0    0    0    0  0.00000000000E+00  0.00000000000E+00  0.45593999997E+02  0.45594000000E+02  0.51100000000E-03 0.  1.
         11   -1    0    0    0    0 -0.00000000000E+00 -0.00000000000E+00 -0.45593999997E+02  0.45594000000E+02  0.51100000000E-03 0. -1.
    9900012    2    1    2    0    0  0.14406862656E+02  0.20559994748E+02 -0.35402714958E+02  0.47787270721E+02  0.19999998523E+02 0.  0.
        -12    1    1    2    0    0 -0.14406862656E+02 -0.20559994748E+02  0.35402714958E+02  0.43400729279E+02  0.00000000000E+00 0.  1.
         11    1    3    3    0    0  0.12204623642E+02  0.16916458642E+02 -0.15882464674E+02  0.26217782050E+02  0.51100000000E-03 0. -1.
        -11    1    3    3    0    0  0.47194691495E-01  0.20850309556E+01 -0.23163827017E+00  0.20983893762E+01  0.51100000000E-03 0.  1.
         12    1    3    3    0    0  0.21550443228E+01  0.15585051501E+01 -0.19288612014E+02  0.19471099295E+02  0.00000000000E+00 0. -1.
</event>
<event>
 7    1  0.2983653E-010  0.4778733E+02  0.7816164E-02  0.1312667E+00
        -11   -1    0    0    0    0  0.00000000000E+00  0.00000000000E+00  0.45593999997E+02  0.45594000000E+02  0.51100000000E-03 0. -1.
         11   -1    0    0    0    0 -0.00000000000E+00 -0.00000000000E+00 -0.45593999997E+02  0.45594000000E+02  0.51100000000E-03 0.  1.
    9900012    2    1    2    0    0 -0.34756913030E+02 -0.11656944554E+02  0.23231240573E+02  0.47787332974E+02  0.20000282362E+02 0.  0.
        -12    1    1    2    0    0  0.34756913030E+02  0.11656944554E+02 -0.23231240573E+02  0.43400667026E+02  0.00000000000E+00 0.  1.
         11    1    3    3    0    0 -0.20875438941E+02  0.80297756485E-01  0.15014493388E+02  0.25714303620E+02  0.51100000000E-03 0. -1.
        -11    1    3    3    0    0 -0.16913010325E+01 -0.69865644278E+01  0.44664345436E+01  0.84629557177E+01  0.51100000000E-03 0.  1.
         12    1    3    3    0    0 -0.12190173056E+02 -0.47506778830E+01  0.37503126418E+01  0.13610073637E+02  0.00000000000E+00 0. -1.
</event>
<event>
 7    1  0.2983653E-010  0.4778727E+02  0.7816164E-02  0.1312668E+00
        -11   -1    0    0    0    0  0.00000000000E+00  0.00000000000E+00  0.45593999997E+02  0.45594000000E+02  0.51100000000E-03 0. -1.
         11   -1    0    0    0    0 -0.00000000000E+00 -0.00000000000E+00 -0.45593999997E+02  0.45594000000E+02  0.51100000000E-03 0.  1.
    9900012    2    1    2    0    0  0.40103334269E+02 -0.87781046729E+01  0.14081581540E+02  0.47787268672E+02  0.19999989185E+02 0.  0.
        -12    1    1    2    0    0 -0.40103334269E+02  0.87781046729E+01 -0.14081581540E+02  0.43400731328E+02  0.00000000000E+00 0.  1.
         11    1    3    3    0    0  0.92705129282E+01 -0.51231400055E+01 -0.25639870160E+01  0.10897843968E+02  0.51100000000E-03 0. -1.
        -11    1    3    3    0    0  0.18010265784E+02  0.40320739892E+00  0.14798676310E+02  0.23313795714E+02  0.51100000000E-03 0.  1.
        -12    1    3    3    0    0  0.12822555556E+02 -0.40581720664E+01  0.18468922466E+01  0.13575628990E+02  0.00000000000E+00 0.  1.
</event>
<event>
 7    1  0.2983653E-010  0.4778727E+02  0.7816164E-02  0.1312668E+00
        -11   -1    0    0    0    0  0.00000000000E+00  0.00000000000E+00  0.45593999997E+02  0.45594000000E+02  0.51100000000E-03 0.  1.
         11   -1    0    0    0    0 -0.00000000000E+00 -0.00000000000E+00 -0.45593999997E+02  0.45594000000E+02  0.51100000000E-03 0. -1.
    9900012    2    1    2    0    0 -0.16403008577E+01  0.19012395481E+02 -0.38980270814E+02  0.47787270956E+02  0.19999999595E+02 0.  0.
        -12    1    1    2    0    0  0.16403008577E+01 -0.19012395481E+02  0.38980270814E+02  0.43400729044E+02  0.00000000000E+00 0.  1.
         11    1    3    3    0    0 -0.84909427859E+01  0.12602055019E+02 -0.16494365025E+02  0.22427036763E+02  0.51100000000E-03 0. -1.
        -11    1    3    3    0    0  0.51309855631E+01  0.94947743621E+00 -0.15342894456E+02  0.16205953560E+02  0.51100000000E-03 0.  1.
        -12    1    3    3    0    0  0.17196563651E+01  0.54608630251E+01 -0.71430113330E+01  0.91542806324E+01  0.00000000000E+00 0.  1.
</event>
<event>
 7    1  0.2983653E-010  0.4778727E+02  0.7816164E-02  0.1312668E+00
        -11   -1    0    0    0    0  0.00000000000E+00  0.00000000000E+00  0.45593999997E+02  0.45594000000E+02  0.51100000000E-03 0.  1.
         11   -1    0    0    0    0 -0.00000000000E+00 -0.00000000000E+00 -0.45593999997E+02  0.45594000000E+02  0.51100000000E-03 0. -1.
    9900012    2    1    2    0    0 -0.66165274436E+00 -0.22726903627E+02 -0.36968541110E+02  0.47787274607E+02  0.20000016242E+02 0.  0.
        -12    1    1    2    0    0  0.66165274436E+00  0.22726903627E+02  0.36968541110E+02  0.43400725393E+02  0.00000000000E+00 0.  1.
         11    1    3    3    0    0 -0.19379743631E+01 -0.60353368452E+01 -0.13986831778E+02  0.15356187643E+02  0.51100000000E-03 0.  1.
        -11    1    3    3    0    0 -0.56320810825E+01 -0.39963590065E+01 -0.13445704907E+02  0.15115495471E+02  0.51100000000E-03 0. -1.
        -12    1    3    3    0    0  0.69084027012E+01 -0.12695207776E+02 -0.95360044244E+01  0.17315591492E+02  0.00000000000E+00 0.  1.
</event>
<event>
 7    1  0.2983653E-010  0.4778727E+02  0.7816164E-02  0.1312668E+00
        -11   -1    0    0    0    0  0.00000000000E+00  0.00000000000E+00  0.45593999997E+02  0.45594000000E+02  0.51100000000E-03 0.  1.
         11   -1    0    0    0    0 -0.00000000000E+00 -0.00000000000E+00 -0.45593999997E+02  0.45594000000E+02  0.51100000000E-03 0. -1.
    9900012    2    1    2    0    0 -0.36384488204E+02 -0.59997501461E+01 -0.22886577313E+02  0.47787269537E+02  0.19999993125E+02 0.  0.
        -12    1    1    2    0    0  0.36384488204E+02  0.59997501461E+01  0.22886577313E+02  0.43400730463E+02  0.00000000000E+00 0.  1.
         11    1    3    3    0    0 -0.10304342478E+02 -0.54876052359E+01 -0.63147092215E+01  0.13272860956E+02  0.51100000000E-03 0. -1.
        -11    1    3    3    0    0 -0.84737484615E+01 -0.74358691116E+01 -0.74358391280E+01  0.13505120001E+02  0.51100000000E-03 0.  1.
        -12    1    3    3    0    0 -0.17606397264E+02  0.69237242013E+01 -0.91360289637E+01  0.21009288580E+02  0.00000000000E+00 0.  1.
</event>
<event>
 7    1  0.2983653E-010  0.4778727E+02  0.7816164E-02  0.1312668E+00
        -11   -1    0    0    0    0  0.00000000000E+00  0.00000000000E+00  0.45593999997E+02  0.45594000000E+02  0.51100000000E-03 0.  1.
         11   -1    0    0    0    0 -0.00000000000E+00 -0.00000000000E+00 -0.45593999997E+02  0.45594000000E+02  0.51100000000E-03 0. -1.
    9900012    2    1    2    0    0 -0.54158800196E+01 -0.72087772348E+00 -0.43055449947E+02  0.47787271997E+02  0.20000004342E+02 0.  0.
        -12    1    1    2    0    0  0.54158800196E+01  0.72087772348E+00  0.43055449947E+02  0.43400728003E+02  0.00000000000E+00 0.  1.
         11    1    3    3    0    0 -0.60280911954E+01 -0.14505334048E+01 -0.23449846752E+02  0.24255664154E+02  0.51100000000E-03 0. -1.
        -11    1    3    3    0    0  0.55275257019E-01  0.16173248988E+01  0.16143421847E+01  0.22858031702E+01  0.51100000000E-03 0.  1.
        -12    1    3    3    0    0  0.55693591878E+00 -0.88766921749E+00 -0.21219945380E+02  0.21245804672E+02  0.00000000000E+00 0.  1.
</event>
<event>
 7    1  0.2983653E-010  0.4778727E+02  0.7816164E-02  0.1312668E+00
        -11   -1    0    0    0    0  0.00000000000E+00  0.00000000000E+00  0.45593999997E+02  0.45594000000E+02  0.51100000000E-03 0. -1.
         11   -1    0    0    0    0 -0.00000000000E+00 -0.00000000000E+00 -0.45593999997E+02  0.45594000000E+02  0.51100000000E-03 0.  1.
    9900012    2    1    2    0    0 -0.27416560378E+02 -0.32546124487E+02 -0.85267303668E+01  0.47787272670E+02  0.20000007410E+02 0.  0.
        -12    1    1    2    0    0  0.27416560378E+02  0.32546124487E+02  0.85267303668E+01  0.43400727330E+02  0.00000000000E+00 0.  1.
         11    1    3    3    0    0 -0.17277742825E+02 -0.10405688651E+02 -0.60049780949E+01  0.21044203849E+02  0.51100000000E-03 0. -1.
        -11    1    3    3    0    0 -0.99941861881E+01 -0.14108049534E+02 -0.55489452693E+01  0.18157962801E+02  0.51100000000E-03 0.  1.
         12    1    3    3    0    0 -0.14463136427E+00 -0.80323863014E+01  0.30271929974E+01  0.85851060198E+01  0.00000000000E+00 0. -1.
</event>
<event>
 7    1  0.2983653E-010  0.4778727E+02  0.7816164E-02  0.1312668E+00
        -11   -1    0    0    0    0  0.00000000000E+00  0.00000000000E+00  0.45593999997E+02  0.45594000000E+02  0.51100000000E-03 0.  1.
         11   -1    0    0    0    0 -0.00000000000E+00 -0.00000000000E+00 -0.45593999997E+02  0.45594000000E+02  0.51100000000E-03 0. -1.
    9900012    2    1    2    0    0 -0.39381451276E+02  0.11372104439E+02 -0.14261827591E+02  0.47787272008E+02  0.20000004395E+02 0.  0.
        -12    1    1    2    0    0  0.39381451276E+02 -0.11372104439E+02  0.14261827591E+02  0.43400727992E+02  0.00000000000E+00 0.  1.
         11    1    3    3    0    0 -0.99441456415E+01 -0.24264823550E+01 -0.10513628082E+02  0.14673453066E+02  0.51100000000E-03 0. -1.
        -11    1    3    3    0    0 -0.20498458739E+02  0.12023603431E+02 -0.21528781398E+01  0.23861867795E+02  0.51100000000E-03 0.  1.
         12    1    3    3    0    0 -0.89388468958E+01  0.17749833630E+01 -0.15953213684E+01  0.92519511474E+01  0.00000000000E+00 0. -1.
</event>
<event>
 7    1  0.2983653E-010  0.4778727E+02  0.7816164E-02  0.1312668E+00
        -11   -1    0    0    0    0  0.00000000000E+00  0.00000000000E+00  0.45593999997E+02  0.45594000000E+02  0.51100000000E-03 0. -1.
         11   -1    0    0    0    0 -0.00000000000E+00 -0.00000000000E+00 -0.45593999997E+02  0.45594000000E+02  0.51100000000E-03 0.  1.
    9900012    2    1    2    0    0  0.74014728521E+01 -0.24440178602E+02  0.35093005821E+02  0.47787272033E+02  0.20000004507E+02 0.  0.
        -12    1    1    2    0    0 -0.74014728521E+01  0.24440178602E+02 -0.35093005821E+02  0.43400727967E+02  0.00000000000E+00 0.  1.
         11    1    3    3    0    0  0.74310048931E+01 -0.96037511420E+00  0.12266536939E+02  0.14373937624E+02  0.51100000000E-03 0. -1.
        -11    1    3    3    0    0 -0.12658547813E+01 -0.15362307116E+02  0.18667409013E+02  0.24208986509E+02  0.51100000000E-03 0.  1.
         12    1    3    3    0    0  0.12363227403E+01 -0.81174963727E+01  0.41590598690E+01  0.92043479005E+01  0.00000000000E+00 0. -1.
</event>
<event>
 7    1  0.2983653E-010  0.4778726E+02  0.7816164E-02  0.1312668E+00
        -11   -1    0    0    0    0  0.00000000000E+00  0.00000000000E+00  0.45593999997E+02  0.45594000000E+02  0.51100000000E-03 0. -1.
         11   -1    0    0    0    0 -0.00000000000E+00 -0.00000000000E+00 -0.45593999997E+02  0.45594000000E+02  0.51100000000E-03 0.  1.
    9900012    2    1    2    0    0 -0.29650072540E+02 -0.22914235322E+02  0.21896012911E+02  0.47787258492E+02  0.19999942767E+02 0.  0.
        -12    1    1    2    0    0  0.29650072540E+02  0.22914235322E+02 -0.21896012911E+02  0.43400741508E+02  0.00000000000E+00 0.  1.
         11    1    3    3    0    0 -0.77758738874E+01  0.11193897403E+01  0.40578338158E+01  0.88421300398E+01  0.51100000000E-03 0.  1.
        -11    1    3    3    0    0 -0.18732484920E+02 -0.22792673470E+02  0.19310207906E+02  0.35260403923E+02  0.51100000000E-03 0. -1.
         12    1    3    3    0    0 -0.31417137334E+01 -0.12409515927E+01 -0.14720288101E+01  0.36847245292E+01  0.00000000000E+00 0. -1.
</event>
<event>
 7    1  0.2983653E-010  0.4778727E+02  0.7816164E-02  0.1312668E+00
        -11   -1    0    0    0    0  0.00000000000E+00  0.00000000000E+00  0.45593999997E+02  0.45594000000E+02  0.51100000000E-03 0. -1.
         11   -1    0    0    0    0 -0.00000000000E+00 -0.00000000000E+00 -0.45593999997E+02  0.45594000000E+02  0.51100000000E-03 0.  1.
    9900012    2    1    2    0    0  0.35053764681E+02  0.17543606494E+01  0.25529962549E+02  0.47787272041E+02  0.20000004546E+02 0.  0.
        -12    1    1    2    0    0 -0.35053764681E+02 -0.17543606494E+01 -0.25529962549E+02  0.43400727959E+02  0.00000000000E+00 0.  1.
         11    1    3    3    0    0  0.28432378476E+02  0.10476852564E+01  0.22641658624E+02  0.36361277421E+02  0.51100000000E-03 0. -1.
        -11    1    3    3    0    0  0.82799087295E+01 -0.13743528697E+01  0.21407819386E+01  0.86619098326E+01  0.51100000000E-03 0.  1.
         12    1    3    3    0    0 -0.16585225246E+01  0.20810282627E+01  0.74752198668E+00  0.27640847880E+01  0.00000000000E+00 0. -1.
</event>
<event>
 7    1  0.2983653E-010  0.4778727E+02  0.7816164E-02  0.1312668E+00
        -11   -1    0    0    0    0  0.00000000000E+00  0.00000000000E+00  0.45593999997E+02  0.45594000000E+02  0.51100000000E-03 0.  1.
         11   -1    0    0    0    0 -0.00000000000E+00 -0.00000000000E+00 -0.45593999997E+02  0.45594000000E+02  0.51100000000E-03 0. -1.
    9900012    2    1    2    0    0  0.28479423289E+02  0.20660690651E+02 -0.25410266490E+02  0.47787270373E+02  0.19999996938E+02 0.  0.
        -12    1    1    2    0    0 -0.28479423289E+02 -0.20660690651E+02  0.25410266490E+02  0.43400729627E+02  0.00000000000E+00 0.  1.
         11    1    3    3    0    0  0.16599111510E+02  0.19737108029E+01 -0.14379278270E+02  0.22049709319E+02  0.51100000000E-03 0. -1.
        -11    1    3    3    0    0 -0.22989459431E+00  0.18511204918E+00 -0.17187964230E+01  0.17439551026E+01  0.51100000000E-03 0.  1.
         12    1    3    3    0    0  0.12110206374E+02  0.18501867799E+02 -0.93121917978E+01  0.23993605951E+02  0.00000000000E+00 0. -1.
</event>
<event>
 7    1  0.2983653E-010  0.4778727E+02  0.7816164E-02  0.1312668E+00
        -11   -1    0    0    0    0  0.00000000000E+00  0.00000000000E+00  0.45593999997E+02  0.45594000000E+02  0.51100000000E-03 0.  1.
         11   -1    0    0    0    0 -0.00000000000E+00 -0.00000000000E+00 -0.45593999997E+02  0.45594000000E+02  0.51100000000E-03 0. -1.
    9900012    2    1    2    0    0 -0.37145540994E+02 -0.19546295410E+02 -0.11035141299E+02  0.47787271625E+02  0.20000002649E+02 0.  0.
        -12    1    1    2    0    0  0.37145540994E+02  0.19546295410E+02  0.11035141299E+02  0.43400728375E+02  0.00000000000E+00 0.  1.
         11    1    3    3    0    0 -0.34417525923E+02 -0.20473800675E+02 -0.13704010694E+02  0.42326617088E+02  0.51100000000E-03 0. -1.
        -11    1    3    3    0    0  0.29416621073E+00  0.53240718464E+00  0.23134787470E+01  0.23921068839E+01  0.51100000000E-03 0.  1.
         12    1    3    3    0    0 -0.30221812814E+01  0.39509808060E+00  0.35539064802E+00  0.30685476538E+01  0.00000000000E+00 0. -1.
</event>
<event>
 7    1  0.2983653E-010  0.4778727E+02  0.7816164E-02  0.1312668E+00
        -11   -1    0    0    0    0  0.00000000000E+00  0.00000000000E+00  0.45593999997E+02  0.45594000000E+02  0.51100000000E-03 0. -1.
         11   -1    0    0    0    0 -0.00000000000E+00 -0.00000000000E+00 -0.45593999997E+02  0.45594000000E+02  0.51100000000E-03 0.  1.
    9900012    2    1    2    0    0 -0.34595157253E+02  0.92996169115E+01  0.24501340660E+02  0.47787268737E+02  0.19999989478E+02 0.  0.
        -12    1    1    2    0    0  0.34595157253E+02 -0.92996169115E+01 -0.24501340660E+02  0.43400731263E+02  0.00000000000E+00 0.  1.
         11    1    3    3    0    0 -0.17149428705E+02  0.55391589417E+01  0.18868714730E+02  0.26092404690E+02  0.51100000000E-03 0. -1.
        -11    1    3    3    0    0 -0.10347660446E+02  0.61848044656E+01 -0.41133462728E+00  0.12062134115E+02  0.51100000000E-03 0.  1.
        -12    1    3    3    0    0 -0.70980681016E+01 -0.24243464958E+01  0.60439605579E+01  0.96327299315E+01  0.00000000000E+00 0.  1.
</event>
<event>
 7    1  0.2983653E-010  0.4778727E+02  0.7816164E-02  0.1312668E+00
        -11   -1    0    0    0    0  0.00000000000E+00  0.00000000000E+00  0.45593999997E+02  0.45594000000E+02  0.51100000000E-03 0. -1.
         11   -1    0    0    0    0 -0.00000000000E+00 -0.00000000000E+00 -0.45593999997E+02  0.45594000000E+02  0.51100000000E-03 0.  1.
    9900012    2    1    2    0    0  0.23395115392E+02  0.17353667620E+01  0.36514112044E+02  0.47787270739E+02  0.19999998607E+02 0.  0.
        -12    1    1    2    0    0 -0.23395115392E+02 -0.17353667620E+01 -0.36514112044E+02  0.43400729261E+02  0.00000000000E+00 0.  1.
         11    1    3    3    0    0  0.11815023809E+02  0.99556552009E+01  0.21950807522E+02  0.26843021611E+02  0.51100000000E-03 0. -1.
        -11    1    3    3    0    0  0.75166857964E+01 -0.77619990925E+01  0.11851073440E+02  0.16037366904E+02  0.51100000000E-03 0.  1.
         12    1    3    3    0    0  0.40634057871E+01 -0.45828934650E+00  0.27122310818E+01  0.49068822237E+01  0.00000000000E+00 0. -1.
</event>
<event>
 7    1  0.2983653E-010  0.4778727E+02  0.7816164E-02  0.1312668E+00
        -11   -1    0    0    0    0  0.00000000000E+00  0.00000000000E+00  0.45593999997E+02  0.45594000000E+02  0.51100000000E-03 0.  1.
         11   -1    0    0    0    0 -0.00000000000E+00 -0.00000000000E+00 -0.45593999997E+02  0.45594000000E+02  0.51100000000E-03 0. -1.
    9900012    2    1    2    0    0 -0.27326378799E+02 -0.31735362263E+02 -0.11391171502E+02  0.47787274380E+02  0.20000015207E+02 0.  0.
        -12    1    1    2    0    0  0.27326378799E+02  0.31735362263E+02  0.11391171502E+02  0.43400725620E+02  0.00000000000E+00 0.  1.
         11    1    3    3    0    0  0.15593709804E+01 -0.10910900329E+01  0.17811413399E+01  0.26066415266E+01  0.51100000000E-03 0.  1.
        -11    1    3    3    0    0 -0.17630189241E+02 -0.18718978467E+02 -0.30124122080E+01  0.25890120801E+02  0.51100000000E-03 0. -1.
         12    1    3    3    0    0 -0.11255560538E+02 -0.11925293763E+02 -0.10159900633E+02  0.19290512052E+02  0.00000000000E+00 0. -1.
</event>
<event>
 7    1  0.2983653E-010  0.4778727E+02  0.7816164E-02  0.1312668E+00
        -11   -1    0    0    0    0  0.00000000000E+00  0.00000000000E+00  0.45593999997E+02  0.45594000000E+02  0.51100000000E-03 0.  1.
         11   -1    0    0    0    0 -0.00000000000E+00 -0.00000000000E+00 -0.45593999997E+02  0.45594000000E+02  0.51100000000E-03 0. -1.
    9900012    2    1    2    0    0 -0.43769044816E+01  0.35138267081E+02 -0.25095176106E+02  0.47787274544E+02  0.20000015956E+02 0.  0.
        -12    1    1    2    0    0  0.43769044816E+01 -0.35138267081E+02  0.25095176106E+02  0.43400725456E+02  0.00000000000E+00 0.  1.
         11    1    3    3    0    0 -0.10884835862E+01  0.23436883025E+01 -0.93683450200E+01  0.97182076564E+01  0.51100000000E-03 0. -1.
        -11    1    3    3    0    0 -0.51176293463E+01  0.24264317882E+02 -0.70875458067E+01  0.25791094553E+02  0.51100000000E-03 0.  1.
        -12    1    3    3    0    0  0.18292084510E+01  0.85302608968E+01 -0.86392852794E+01  0.12277972335E+02  0.00000000000E+00 0.  1.
</event>
<event>
 7    1  0.2983653E-010  0.4778727E+02  0.7816164E-02  0.1312668E+00
        -11   -1    0    0    0    0  0.00000000000E+00  0.00000000000E+00  0.45593999997E+02  0.45594000000E+02  0.51100000000E-03 0. -1.
         11   -1    0    0    0    0 -0.00000000000E+00 -0.00000000000E+00 -0.45593999997E+02  0.45594000000E+02  0.51100000000E-03 0.  1.
    9900012    2    1    2    0    0 -0.22956088727E+02  0.35487934012E+02 -0.98614319048E+01  0.47787270637E+02  0.19999998142E+02 0.  0.
        -12    1    1    2    0    0  0.22956088727E+02 -0.35487934012E+02  0.98614319048E+01  0.43400729363E+02  0.00000000000E+00 0.  1.
         11    1    3    3    0    0 -0.14497150988E+02  0.33755707291E+02 -0.82180633539E+01  0.37645075735E+02  0.51100000000E-03 0. -1.
        -11    1    3    3    0    0 -0.29981600797E+01 -0.66265709659E+00  0.14825170606E+01  0.34096825933E+01  0.51100000000E-03 0.  1.
         12    1    3    3    0    0 -0.54607776587E+01  0.23948838168E+01 -0.31258856114E+01  0.67325123089E+01  0.00000000000E+00 0. -1.
</event>
<event>
 7    1  0.2983653E-010  0.4778727E+02  0.7816164E-02  0.1312668E+00
        -11   -1    0    0    0    0  0.00000000000E+00  0.00000000000E+00  0.45593999997E+02  0.45594000000E+02  0.51100000000E-03 0.  1.
         11   -1    0    0    0    0 -0.00000000000E+00 -0.00000000000E+00 -0.45593999997E+02  0.45594000000E+02  0.51100000000E-03 0. -1.
    9900012    2    1    2    0    0 -0.13899974316E+02 -0.40092147385E+02 -0.91122708984E+01  0.47787273637E+02  0.20000011818E+02 0.  0.
        -12    1    1    2    0    0  0.13899974316E+02  0.40092147385E+02  0.91122708984E+01  0.43400726363E+02  0.00000000000E+00 0.  1.
         11    1    3    3    0    0 -0.37383338731E+01 -0.21248098947E+02 -0.11744208078E+02  0.24563861110E+02  0.51100000000E-03 0. -1.
        -11    1    3    3    0    0  0.50473630146E+00 -0.72581576216E+01  0.15440689701E+01  0.74377254614E+01  0.51100000000E-03 0.  1.
         12    1    3    3    0    0 -0.10666376744E+02 -0.11585890817E+02  0.10878682096E+01  0.15785687065E+02  0.00000000000E+00 0. -1.
</event>
<event>
 7    1  0.2983653E-010  0.4778727E+02  0.7816164E-02  0.1312668E+00
        -11   -1    0    0    0    0  0.00000000000E+00  0.00000000000E+00  0.45593999997E+02  0.45594000000E+02  0.51100000000E-03 0. -1.
         11   -1    0    0    0    0 -0.00000000000E+00 -0.00000000000E+00 -0.45593999997E+02  0.45594000000E+02  0.51100000000E-03 0.  1.
    9900012    2    1    2    0    0 -0.20233770956E+02  0.18813399224E+02  0.33470490406E+02  0.47787271832E+02  0.20000003593E+02 0.  0.
        -12    1    1    2    0    0  0.20233770956E+02 -0.18813399224E+02 -0.33470490406E+02  0.43400728168E+02  0.00000000000E+00 0.  1.
         11    1    3    3    0    0 -0.12369351989E+02  0.12283897268E+02  0.10005383981E+02  0.20099818646E+02  0.51100000000E-03 0. -1.
        -11    1    3    3    0    0 -0.10189052798E+00 -0.69225806297E+00  0.12191296975E+02  0.12211360494E+02  0.51100000000E-03 0.  1.
         12    1    3    3    0    0 -0.77625284395E+01  0.72217600186E+01  0.11273809450E+02  0.15476092693E+02  0.00000000000E+00 0. -1.
</event>
<event>
 7    1  0.2983653E-010  0.4778727E+02  0.7816164E-02  0.1312668E+00
        -11   -1    0    0    0    0  0.00000000000E+00  0.00000000000E+00  0.45593999997E+02  0.45594000000E+02  0.51100000000E-03 0.  1.
         11   -1    0    0    0    0 -0.00000000000E+00 -0.00000000000E+00 -0.45593999997E+02  0.45594000000E+02  0.51100000000E-03 0. -1.
    9900012    2    1    2    0    0  0.33556560526E+02  0.24235705630E+01 -0.27417274479E+02  0.47787269724E+02  0.19999993981E+02 0.  0.
        -12    1    1    2    0    0 -0.33556560526E+02 -0.24235705630E+01  0.27417274479E+02  0.43400730276E+02  0.00000000000E+00 0.  1.
         11    1    3    3    0    0  0.62070408905E+01 -0.20146911706E+01 -0.34030977102E+01  0.73598513175E+01  0.51100000000E-03 0. -1.
        -11    1    3    3    0    0  0.24011490960E+02 -0.31286809247E+01 -0.18730026246E+02  0.30612974796E+02  0.51100000000E-03 0.  1.
        -12    1    3    3    0    0  0.33380286753E+01  0.75669426583E+01 -0.52841505230E+01  0.98144436104E+01  0.00000000000E+00 0.  1.
</event>
<event>
 7    1  0.3234672E-010  0.4778727E+02  0.7816164E-02  0.1312668E+00
        -11   -1    0    0    0    0  0.00000000000E+00  0.00000000000E+00  0.45593999997E+02  0.45594000000E+02  0.51100000000E-03 0. -1.
         11   -1    0    0    0    0 -0.00000000000E+00 -0.00000000000E+00 -0.45593999997E+02  0.45594000000E+02  0.51100000000E-03 0.  1.
    9900012    2    1    2    0    0  0.21085787819E+01 -0.36856548850E+02  0.22820427648E+02  0.47787271715E+02  0.20000003057E+02 0.  0.
        -12    1    1    2    0    0 -0.21085787819E+01  0.36856548850E+02 -0.22820427648E+02  0.43400728285E+02  0.00000000000E+00 0.  1.
         11    1    3    3    0    0  0.61600006625E+00 -0.22185588118E+02  0.13945598163E+02  0.26211819559E+02  0.51100000000E-03 0. -1.
        -11    1    3    3    0    0  0.63408639752E+00 -0.20818193355E+01 -0.33575795364E+01  0.40011720670E+01  0.51100000000E-03 0.  1.
        -12    1    3    3    0    0  0.85849231814E+00 -0.12589141397E+02  0.12232409022E+02  0.17574280089E+02  0.00000000000E+00 0.  1.
</event>
<event>
 7    1  0.2983653E-010  0.4778727E+02  0.7816164E-02  0.1312668E+00
        -11   -1    0    0    0    0  0.00000000000E+00  0.00000000000E+00  0.45593999997E+02  0.45594000000E+02  0.51100000000E-03 0. -1.
         11   -1    0    0    0    0 -0.00000000000E+00 -0.00000000000E+00 -0.45593999997E+02  0.45594000000E+02  0.51100000000E-03 0.  1.
    9900012    2    1    2    0    0 -0.32771954179E+02  0.26103852950E+02 -0.11323046340E+02  0.47787268463E+02  0.19999988228E+02 0.  0.
        -12    1    1    2    0    0  0.32771954179E+02 -0.26103852950E+02  0.11323046340E+02  0.43400731537E+02  0.00000000000E+00 0.  1.
         11    1    3    3    0    0 -0.13485778053E+02  0.78469462443E+01 -0.40189074767E+01  0.16111871171E+02  0.51100000000E-03 0. -1.
        -11    1    3    3    0    0 -0.83645306855E+01  0.53595034212E+01 -0.10522650659E+02  0.14471206849E+02  0.51100000000E-03 0.  1.
        -12    1    3    3    0    0 -0.10921645440E+02  0.12897403285E+02  0.32185117957E+01  0.17204190443E+02  0.00000000000E+00 0.  1.
</event>
<event>
 7    1  0.2983653E-010  0.4778728E+02  0.7816164E-02  0.1312668E+00
        -11   -1    0    0    0    0  0.00000000000E+00  0.00000000000E+00  0.45593999997E+02  0.45594000000E+02  0.51100000000E-03 0. -1.
         11   -1    0    0    0    0 -0.00000000000E+00 -0.00000000000E+00 -0.45593999997E+02  0.45594000000E+02  0.51100000000E-03 0.  1.
    9900012    2    1    2    0    0  0.24739055836E+02 -0.25980413820E+02  0.24425796521E+02  0.47787282015E+02  0.20000050018E+02 0.  0.
        -12    1    1    2    0    0 -0.24739055836E+02  0.25980413820E+02 -0.24425796521E+02  0.43400717985E+02  0.00000000000E+00 0.  1.
         11    1    3    3    0    0  0.15994191985E+02 -0.19928622376E+02  0.23139024101E+02  0.34472867645E+02  0.51100000000E-03 0. -1.
        -11    1    3    3    0    0  0.82875633889E+01 -0.78363163071E+01  0.99246953623E+00  0.11448867028E+02  0.51100000000E-03 0.  1.
         12    1    3    3    0    0  0.45730046250E+00  0.17845248622E+01  0.29430288369E+00  0.18655473418E+01  0.00000000000E+00 0. -1.
</event>
<event>
 7    1  0.2983653E-010  0.4778727E+02  0.7816164E-02  0.1312668E+00
        -11   -1    0    0    0    0  0.00000000000E+00  0.00000000000E+00  0.45593999997E+02  0.45594000000E+02  0.51100000000E-03 0.  1.
         11   -1    0    0    0    0 -0.00000000000E+00 -0.00000000000E+00 -0.45593999997E+02  0.45594000000E+02  0.51100000000E-03 0. -1.
    9900012    2    1    2    0    0  0.11899276566E+02 -0.19736390003E+02 -0.36776424059E+02  0.47787271438E+02  0.20000001793E+02 0.  0.
        -12    1    1    2    0    0 -0.11899276566E+02  0.19736390003E+02  0.36776424059E+02  0.43400728562E+02  0.00000000000E+00 0.  1.
         11    1    3    3    0    0  0.14232178097E+02 -0.12077459608E+02 -0.24511003972E+02  0.30809239522E+02  0.51100000000E-03 0. -1.
        -11    1    3    3    0    0 -0.47052657359E+01 -0.50629675188E+01 -0.11439819776E+02  0.13365726412E+02  0.51100000000E-03 0.  1.
        -12    1    3    3    0    0  0.23723642051E+01 -0.25959628770E+01 -0.82560031099E+00  0.36123055040E+01  0.00000000000E+00 0.  1.
</event>
<event>
 7    1  0.2983653E-010  0.4778727E+02  0.7816164E-02  0.1312668E+00
        -11   -1    0    0    0    0  0.00000000000E+00  0.00000000000E+00  0.45593999997E+02  0.45594000000E+02  0.51100000000E-03 0.  1.
         11   -1    0    0    0    0 -0.00000000000E+00 -0.00000000000E+00 -0.45593999997E+02  0.45594000000E+02  0.51100000000E-03 0. -1.
    9900012    2    1    2    0    0 -0.30365274317E+02  0.31003764948E+02  0.58292699117E+00  0.47787272712E+02  0.20000007603E+02 0.  0.
        -12    1    1    2    0    0  0.30365274317E+02 -0.31003764948E+02 -0.58292699117E+00  0.43400727288E+02  0.00000000000E+00 0.  1.
         11    1    3    3    0    0 -0.10537728063E+02  0.17402398739E+02 -0.69180549924E+01  0.21488291690E+02  0.51100000000E-03 0. -1.
        -11    1    3    3    0    0 -0.89665642952E+00 -0.30240599256E+00  0.19445140587E+01  0.21625395540E+01  0.51100000000E-03 0.  1.
         12    1    3    3    0    0 -0.18930889824E+02  0.13903772201E+02  0.55564679248E+01  0.24136441468E+02  0.00000000000E+00 0. -1.
</event>
<event>
 7    1  0.2983653E-010  0.4778727E+02  0.7816164E-02  0.1312668E+00
        -11   -1    0    0    0    0  0.00000000000E+00  0.00000000000E+00  0.45593999997E+02  0.45594000000E+02  0.51100000000E-03 0.  1.
         11   -1    0    0    0    0 -0.00000000000E+00 -0.00000000000E+00 -0.45593999997E+02  0.45594000000E+02  0.51100000000E-03 0. -1.
    9900012    2    1    2    0    0 -0.12774153344E+02  0.29007829361E+02 -0.29647768952E+02  0.47787270033E+02  0.19999995387E+02 0.  0.
        -12    1    1    2    0    0  0.12774153344E+02 -0.29007829361E+02  0.29647768952E+02  0.43400729967E+02  0.00000000000E+00 0.  1.
         11    1    3    3    0    0 -0.78136301166E+01  0.22553063425E+02 -0.23465444801E+02  0.33471190380E+02  0.51100000000E-03 0. -1.
        -11    1    3    3    0    0  0.23713016141E+01  0.72706628632E+00  0.88387057290E+00  0.26330446598E+01  0.51100000000E-03 0.  1.
         12    1    3    3    0    0 -0.73318248418E+01  0.57276996492E+01 -0.70661947234E+01  0.11683034993E+02  0.00000000000E+00 0. -1.
</event>
<event>
 7    1  0.3566628E-010  0.4778727E+02  0.7816164E-02  0.1312668E+00
        -11   -1    0    0    0    0  0.00000000000E+00  0.00000000000E+00  0.45593999997E+02  0.45594000000E+02  0.51100000000E-03 0.  1.
         11   -1    0    0    0    0 -0.00000000000E+00 -0.00000000000E+00 -0.45593999997E+02  0.45594000000E+02  0.51100000000E-03 0. -1.
    9900012    2    1    2    0    0  0.35350215464E+02  0.10939364105E+02 -0.22678543204E+02  0.47787265649E+02  0.19999975399E+02 0.  0.
        -12    1    1    2    0    0 -0.35350215464E+02 -0.10939364105E+02  0.22678543204E+02  0.43400734351E+02  0.00000000000E+00 0.  1.
         11    1    3    3    0    0  0.19904649693E+02  0.47456999268E+01 -0.13085191972E+02  0.24288659831E+02  0.51100000000E-03 0. -1.
        -11    1    3    3    0    0  0.31424917967E+01  0.75521392538E+01 -0.71877597078E+01  0.10889166721E+02  0.51100000000E-03 0.  1.
        -12    1    3    3    0    0  0.12303073975E+02 -0.13584750753E+01 -0.24055915239E+01  0.12609439097E+02  0.00000000000E+00 0.  1.
</event>
<event>
 7    1  0.2983653E-010  0.4778727E+02  0.7816164E-02  0.1312668E+00
        -11   -1    0    0    0    0  0.00000000000E+00  0.00000000000E+00  0.45593999997E+02  0.45594000000E+02  0.51100000000E-03 0.  1.
         11   -1    0    0    0    0 -0.00000000000E+00 -0.00000000000E+00 -0.45593999997E+02  0.45594000000E+02  0.51100000000E-03 0. -1.
    9900012    2    1    2    0    0  0.11051922456E+02  0.38705050676E+02 -0.16229524192E+02  0.47787269669E+02  0.19999993729E+02 0.  0.
        -12    1    1    2    0    0 -0.11051922456E+02 -0.38705050676E+02  0.16229524192E+02  0.43400730331E+02  0.00000000000E+00 0.  1.
         11    1    3    3    0    0  0.75459650257E+01  0.18370311340E+02 -0.98280867169E+01  0.22158547237E+02  0.51100000000E-03 0. -1.
        -11    1    3    3    0    0 -0.53155407616E+01  0.74572354644E+01 -0.15905130058E+01  0.92948946333E+01  0.51100000000E-03 0.  1.
        -12    1    3    3    0    0  0.88214981917E+01  0.12877503872E+02 -0.48109244692E+01  0.16333827799E+02  0.00000000000E+00 0.  1.
</event>
<event>
 7    1  0.2983653E-010  0.4778726E+02  0.7816164E-02  0.1312668E+00
        -11   -1    0    0    0    0  0.00000000000E+00  0.00000000000E+00  0.45593999997E+02  0.45594000000E+02  0.51100000000E-03 0. -1.
         11   -1    0    0    0    0 -0.00000000000E+00 -0.00000000000E+00 -0.45593999997E+02  0.45594000000E+02  0.51100000000E-03 0.  1.
    9900012    2    1    2    0    0 -0.26986529292E+02  0.24302730028E+02  0.23764025853E+02  0.47787258361E+02  0.19999942172E+02 0.  0.
        -12    1    1    2    0    0  0.26986529292E+02 -0.24302730028E+02 -0.23764025853E+02  0.43400741639E+02  0.00000000000E+00 0.  1.
         11    1    3    3    0    0 -0.82645467634E+01  0.59707742328E+01  0.49373481317E+01  0.11328295767E+02  0.51100000000E-03 0. -1.
        -11    1    3    3    0    0 -0.12877548989E+02  0.20857172917E+02  0.12631097946E+02  0.27575307172E+02  0.51100000000E-03 0.  1.
        -12    1    3    3    0    0 -0.58444335392E+01 -0.25252171217E+01  0.61955797757E+01  0.88836554223E+01  0.00000000000E+00 0.  1.
</event>
<event>
 7    1  0.2983653E-010  0.4778728E+02  0.7816164E-02  0.1312668E+00
        -11   -1    0    0    0    0  0.00000000000E+00  0.00000000000E+00  0.45593999997E+02  0.45594000000E+02  0.51100000000E-03 0.  1.
         11   -1    0    0    0    0 -0.00000000000E+00 -0.00000000000E+00 -0.45593999997E+02  0.45594000000E+02  0.51100000000E-03 0. -1.
    9900012    2    1    2    0    0  0.17861941833E+02 -0.84090424952E+01 -0.38650506366E+02  0.47787278761E+02  0.20000035183E+02 0.  0.
        -12    1    1    2    0    0 -0.17861941833E+02  0.84090424952E+01  0.38650506366E+02  0.43400721239E+02  0.00000000000E+00 0.  1.
         11    1    3    3    0    0  0.19628600743E+02 -0.29617657799E+01 -0.26107757747E+02  0.32797393776E+02  0.51100000000E-03 0. -1.
        -11    1    3    3    0    0 -0.24735641967E+00  0.12022468081E+01 -0.10033929643E+01  0.15853644022E+01  0.51100000000E-03 0.  1.
         12    1    3    3    0    0 -0.15193024898E+01 -0.66495235234E+01 -0.11539355654E+02  0.13404520583E+02  0.00000000000E+00 0. -1.
</event>
<event>
 7    1  0.2983653E-010  0.4778727E+02  0.7816164E-02  0.1312668E+00
        -11   -1    0    0    0    0  0.00000000000E+00  0.00000000000E+00  0.45593999997E+02  0.45594000000E+02  0.51100000000E-03 0.  1.
         11   -1    0    0    0    0 -0.00000000000E+00 -0.00000000000E+00 -0.45593999997E+02  0.45594000000E+02  0.51100000000E-03 0. -1.
    9900012    2    1    2    0    0  0.17860991414E+02 -0.82999671928E+01 -0.38674526087E+02  0.47787269156E+02  0.19999991391E+02 0.  0.
        -12    1    1    2    0    0 -0.17860991414E+02  0.82999671928E+01  0.38674526087E+02  0.43400730844E+02  0.00000000000E+00 0.  1.
         11    1    3    3    0    0  0.23743663755E+01  0.33082165736E+01  0.10590757191E-01  0.40721032659E+01  0.51100000000E-03 0. -1.
        -11    1    3    3    0    0  0.37078170947E+01 -0.36753620573E+01 -0.53207827118E+01  0.74543224231E+01  0.51100000000E-03 0.  1.
         12    1    3    3    0    0  0.11778807943E+02 -0.79328217091E+01 -0.33364334133E+02  0.36260843467E+02  0.00000000000E+00 0. -1.
</event>
<event>
 7    1  0.2983653E-010  0.4778727E+02  0.7816164E-02  0.1312668E+00
        -11   -1    0    0    0    0  0.00000000000E+00  0.00000000000E+00  0.45593999997E+02  0.45594000000E+02  0.51100000000E-03 0.  1.
         11   -1    0    0    0    0 -0.00000000000E+00 -0.00000000000E+00 -0.45593999997E+02  0.45594000000E+02  0.51100000000E-03 0. -1.
    9900012    2    1    2    0    0  0.31884414260E+02 -0.99400232703E+01 -0.27716479097E+02  0.47787272484E+02  0.20000006566E+02 0.  0.
        -12    1    1    2    0    0 -0.31884414260E+02  0.99400232703E+01  0.27716479097E+02  0.43400727516E+02  0.00000000000E+00 0.  1.
         11    1    3    3    0    0  0.81047275403E+01  0.28659979356E+01 -0.24810510666E+01  0.89474112081E+01  0.51100000000E-03 0. -1.
        -11    1    3    3    0    0  0.15342194331E+02 -0.12024115509E+02 -0.11302122339E+02  0.22532204736E+02  0.51100000000E-03 0.  1.
        -12    1    3    3    0    0  0.84374923892E+01 -0.78190569739E+00 -0.13933305692E+02  0.16307656541E+02  0.00000000000E+00 0.  1.
</event>
<event>
 7    1  0.2983653E-010  0.4778727E+02  0.7816164E-02  0.1312668E+00
        -11   -1    0    0    0    0  0.00000000000E+00  0.00000000000E+00  0.45593999997E+02  0.45594000000E+02  0.51100000000E-03 0.  1.
         11   -1    0    0    0    0 -0.00000000000E+00 -0.00000000000E+00 -0.45593999997E+02  0.45594000000E+02  0.51100000000E-03 0. -1.
    9900012    2    1    2    0    0 -0.38405763574E+01  0.16571537964E+02 -0.39928155421E+02  0.47787268525E+02  0.19999988515E+02 0.  0.
        -12    1    1    2    0    0  0.38405763574E+01 -0.16571537964E+02  0.39928155421E+02  0.43400731475E+02  0.00000000000E+00 0.  1.
         11    1    3    3    0    0  0.79900857811E+01  0.85993753315E+01 -0.16057985785E+02  0.19890943533E+02  0.51100000000E-03 0. -1.
        -11    1    3    3    0    0 -0.56566200999E+01  0.26118861849E+01 -0.94396723412E+01  0.11310469246E+02  0.51100000000E-03 0.  1.
         12    1    3    3    0    0 -0.61740420387E+01  0.53602764475E+01 -0.14430497294E+02  0.16585855747E+02  0.00000000000E+00 0. -1.
</event>
<event>
 7    1  0.2983653E-010  0.4778728E+02  0.7816164E-02  0.1312668E+00
        -11   -1    0    0    0    0  0.00000000000E+00  0.00000000000E+00  0.45593999997E+02  0.45594000000E+02  0.51100000000E-03 0. -1.
         11   -1    0    0    0    0 -0.00000000000E+00 -0.00000000000E+00 -0.45593999997E+02  0.45594000000E+02  0.51100000000E-03 0.  1.
    9900012    2    1    2    0    0  0.41813573168E+02  0.11163322390E+02  0.32599959021E+01  0.47787282942E+02  0.20000054244E+02 0.  0.
        -12    1    1    2    0    0 -0.41813573168E+02 -0.11163322390E+02 -0.32599959021E+01  0.43400717058E+02  0.00000000000E+00 0.  1.
         11    1    3    3    0    0  0.18999751494E+02  0.72474784004E+01 -0.10618429125E+01  0.20362809497E+02  0.51100000000E-03 0. -1.
        -11    1    3    3    0    0  0.21341260827E+02 -0.12286469614E+01  0.52045705348E+01  0.22001057741E+02  0.51100000000E-03 0.  1.
        -12    1    3    3    0    0  0.14725608481E+01  0.51444909514E+01 -0.88273172021E+00  0.54234157033E+01  0.00000000000E+00 0.  1.
</event>
<event>
 7    1  0.2983653E-010  0.4778727E+02  0.7816164E-02  0.1312668E+00
        -11   -1    0    0    0    0  0.00000000000E+00  0.00000000000E+00  0.45593999997E+02  0.45594000000E+02  0.51100000000E-03 0. -1.
         11   -1    0    0    0    0 -0.00000000000E+00 -0.00000000000E+00 -0.45593999997E+02  0.45594000000E+02  0.51100000000E-03 0.  1.
    9900012    2    1    2    0    0 -0.39850720931E+02 -0.13291973776E+02 -0.10902607025E+02  0.47787269988E+02  0.19999995184E+02 0.  0.
        -12    1    1    2    0    0  0.39850720931E+02  0.13291973776E+02  0.10902607025E+02  0.43400730012E+02  0.00000000000E+00 0.  1.
         11    1    3    3    0    0 -0.19485337388E+02  0.26578885056E+01 -0.81503360097E+01  0.21287806880E+02  0.51100000000E-03 0. -1.
        -11    1    3    3    0    0 -0.16816457657E+02 -0.12791577985E+02 -0.41814625561E+01  0.21538392346E+02  0.51100000000E-03 0.  1.
         12    1    3    3    0    0 -0.35489258863E+01 -0.31582842969E+01  0.14291915407E+01  0.49610707620E+01  0.00000000000E+00 0. -1.
</event>
<event>
 7    1  0.2983653E-010  0.4778726E+02  0.7816164E-02  0.1312668E+00
        -11   -1    0    0    0    0  0.00000000000E+00  0.00000000000E+00  0.45593999997E+02  0.45594000000E+02  0.51100000000E-03 0.  1.
         11   -1    0    0    0    0 -0.00000000000E+00 -0.00000000000E+00 -0.45593999997E+02  0.45594000000E+02  0.51100000000E-03 0. -1.
    9900012    2    1    2    0    0  0.21860952253E+02 -0.10699707145E+02 -0.35933812633E+02  0.47787264329E+02  0.19999969383E+02 0.  0.
        -12    1    1    2    0    0 -0.21860952253E+02  0.10699707145E+02  0.35933812633E+02  0.43400735671E+02  0.00000000000E+00 0.  1.
         11    1    3    3    0    0  0.11320776730E+02 -0.81999786571E+00 -0.23814153669E+02  0.26380794103E+02  0.51100000000E-03 0. -1.
        -11    1    3    3    0    0 -0.10944267644E+01 -0.42072697775E+00  0.95496503412E+00  0.15121969481E+01  0.51100000000E-03 0.  1.
         12    1    3    3    0    0  0.11634602287E+02 -0.94589823019E+01 -0.13074623998E+02  0.19894273278E+02  0.00000000000E+00 0. -1.
</event>
<event>
 7    1  0.2983653E-010  0.4778728E+02  0.7816164E-02  0.1312668E+00
        -11   -1    0    0    0    0  0.00000000000E+00  0.00000000000E+00  0.45593999997E+02  0.45594000000E+02  0.51100000000E-03 0.  1.
         11   -1    0    0    0    0 -0.00000000000E+00 -0.00000000000E+00 -0.45593999997E+02  0.45594000000E+02  0.51100000000E-03 0. -1.
    9900012    2    1    2    0    0  0.16490935739E+02  0.22150816161E+02 -0.33481533632E+02  0.47787277511E+02  0.20000029486E+02 0.  0.
        -12    1    1    2    0    0 -0.16490935739E+02 -0.22150816161E+02  0.33481533632E+02  0.43400722489E+02  0.00000000000E+00 0.  1.
         11    1    3    3    0    0  0.17832391714E+01  0.96405660691E+00  0.22115160358E+01  0.30000250868E+01  0.51100000000E-03 0. -1.
        -11    1    3    3    0    0  0.32577377618E+01  0.10675925317E+02 -0.11455811184E+02  0.15994494266E+02  0.51100000000E-03 0.  1.
         12    1    3    3    0    0  0.11449958806E+02  0.10510834237E+02 -0.24237238484E+02  0.28792758158E+02  0.00000000000E+00 0. -1.
</event>
<event>
 7    1  0.2983653E-010  0.4778728E+02  0.7816164E-02  0.1312668E+00
        -11   -1    0    0    0    0  0.00000000000E+00  0.00000000000E+00  0.45593999997E+02  0.45594000000E+02  0.51100000000E-03 0.  1.
         11   -1    0    0    0    0 -0.00000000000E+00 -0.00000000000E+00 -0.45593999997E+02  0.45594000000E+02  0.51100000000E-03 0. -1.
    9900012    2    1    2    0    0 -0.74735460990E+01  0.24200063582E+02 -0.35243806704E+02  0.47787275586E+02  0.20000020706E+02 0.  0.
        -12    1    1    2    0    0  0.74735460990E+01 -0.24200063582E+02  0.35243806704E+02  0.43400724414E+02  0.00000000000E+00 0.  1.
         11    1    3    3    0    0 -0.23473770494E+01 -0.13572043143E+01  0.52788669318E+00  0.27623988099E+01  0.51100000000E-03 0. -1.
        -11    1    3    3    0    0 -0.16921334660E+01  0.16721594152E+01 -0.74925549954E+00  0.24941565391E+01  0.51100000000E-03 0.  1.
         12    1    3    3    0    0 -0.34340355836E+01  0.23885108481E+02 -0.35022437898E+02  0.42530720237E+02  0.00000000000E+00 0. -1.
</event>
<event>
 7    1  0.2983653E-010  0.4778729E+02  0.7816164E-02  0.1312668E+00
        -11   -1    0    0    0    0  0.00000000000E+00  0.00000000000E+00  0.45593999997E+02  0.45594000000E+02  0.51100000000E-03 0.  1.
         11   -1    0    0    0    0 -0.00000000000E+00 -0.00000000000E+00 -0.45593999997E+02  0.45594000000E+02  0.51100000000E-03 0. -1.
    9900012    2    1    2    0    0  0.31497244642E+02  0.13140418164E+02 -0.26811837516E+02  0.47787289861E+02  0.20000085792E+02 0.  0.
        -12    1    1    2    0    0 -0.31497244642E+02 -0.13140418164E+02  0.26811837516E+02  0.43400710139E+02  0.00000000000E+00 0.  1.
         11    1    3    3    0    0  0.24818928642E+02  0.69527671179E+01 -0.25334385329E+02  0.36140714849E+02  0.51100000000E-03 0. -1.
        -11    1    3    3    0    0  0.63849708102E+01  0.60653749191E+01 -0.35900090044E+01  0.95102465830E+01  0.51100000000E-03 0.  1.
         12    1    3    3    0    0  0.29334519016E+00  0.12227612698E+00  0.21125568171E+01  0.21363284292E+01  0.00000000000E+00 0. -1.
</event>
<event>
 7    1  0.2983653E-010  0.4778727E+02  0.7816164E-02  0.1312668E+00
        -11   -1    0    0    0    0  0.00000000000E+00  0.00000000000E+00  0.45593999997E+02  0.45594000000E+02  0.51100000000E-03 0.  1.
         11   -1    0    0    0    0 -0.00000000000E+00 -0.00000000000E+00 -0.45593999997E+02  0.45594000000E+02  0.51100000000E-03 0. -1.
    9900012    2    1    2    0    0 -0.24015061495E+02 -0.35687879669E+02 -0.57684637816E+01  0.47787272952E+02  0.20000008696E+02 0.  0.
        -12    1    1    2    0    0  0.24015061495E+02  0.35687879669E+02  0.57684637816E+01  0.43400727048E+02  0.00000000000E+00 0.  1.
         11    1    3    3    0    0 -0.13106777091E+02 -0.12856722548E+02 -0.90395862857E+01  0.20464531289E+02  0.51100000000E-03 0. -1.
        -11    1    3    3    0    0 -0.12478073112E+02 -0.19661726059E+02  0.42073262623E+01  0.23664052374E+02  0.51100000000E-03 0.  1.
        -12    1    3    3    0    0  0.15697887068E+01 -0.31694310617E+01 -0.93620375811E+00  0.36586892893E+01  0.00000000000E+00 0.  1.
</event>
<event>
 7    1  0.4529582E-010  0.4778725E+02  0.7816164E-02  0.1312668E+00
        -11   -1    0    0    0    0  0.00000000000E+00  0.00000000000E+00  0.45593999997E+02  0.45594000000E+02  0.51100000000E-03 0. -1.
         11   -1    0    0    0    0 -0.00000000000E+00 -0.00000000000E+00 -0.45593999997E+02  0.45594000000E+02  0.51100000000E-03 0.  1.
    9900012    2    1    2    0    0 -0.40954382485E+02 -0.69900969785E+01  0.12549997020E+02  0.47787247406E+02  0.19999892224E+02 0.  0.
        -12    1    1    2    0    0  0.40954382485E+02  0.69900969785E+01 -0.12549997020E+02  0.43400752594E+02  0.00000000000E+00 0.  1.
         11    1    3    3    0    0 -0.23609815188E+02 -0.61611918876E+01  0.10520285254E+02  0.26571790696E+02  0.51100000000E-03 0. -1.
        -11    1    3    3    0    0  0.15431339832E+01  0.10101604984E+00  0.17053377362E+01  0.23020955211E+01  0.51100000000E-03 0.  1.
        -12    1    3    3    0    0 -0.18887701280E+02 -0.92992114080E+00  0.32437403008E+00  0.18913361189E+02  0.00000000000E+00 0.  1.
</event>
<event>
 7    1  0.2983653E-010  0.4778730E+02  0.7816164E-02  0.1312668E+00
        -11   -1    0    0    0    0  0.00000000000E+00  0.00000000000E+00  0.45593999997E+02  0.45594000000E+02  0.51100000000E-03 0.  1.
         11   -1    0    0    0    0 -0.00000000000E+00 -0.00000000000E+00 -0.45593999997E+02  0.45594000000E+02  0.51100000000E-03 0. -1.
    9900012    2    1    2    0    0 -0.17898871359E+02 -0.21651861810E+02 -0.33082448378E+02  0.47787296015E+02  0.20000113850E+02 0.  0.
        -12    1    1    2    0    0  0.17898871359E+02  0.21651861810E+02  0.33082448378E+02  0.43400703985E+02  0.00000000000E+00 0.  1.
         11    1    3    3    0    0 -0.11405970222E+01 -0.59948907039E+01  0.68395537301E+00  0.61406409545E+01  0.51100000000E-03 0. -1.
        -11    1    3    3    0    0 -0.54019896880E+01 -0.16571649903E+01 -0.12828414904E+02  0.14017700154E+02  0.51100000000E-03 0.  1.
         12    1    3    3    0    0 -0.11356284648E+02 -0.13999806116E+02 -0.20937988847E+02  0.27628954907E+02  0.00000000000E+00 0. -1.
</event>
<event>
 7    1  0.2983653E-010  0.4778727E+02  0.7816164E-02  0.1312668E+00
        -11   -1    0    0    0    0  0.00000000000E+00  0.00000000000E+00  0.45593999997E+02  0.45594000000E+02  0.51100000000E-03 0. -1.
         11   -1    0    0    0    0 -0.00000000000E+00 -0.00000000000E+00 -0.45593999997E+02  0.45594000000E+02  0.51100000000E-03 0.  1.
    9900012    2    1    2    0    0  0.34630315698E+02 -0.25108051008E+02 -0.73451180511E+01  0.47787265560E+02  0.19999974994E+02 0.  0.
        -12    1    1    2    0    0 -0.34630315698E+02  0.25108051008E+02  0.73451180511E+01  0.43400734440E+02  0.00000000000E+00 0.  1.
         11    1    3    3    0    0  0.26106883081E+02 -0.11348667742E+02 -0.29526280200E+00  0.28468382183E+02  0.51100000000E-03 0. -1.
        -11    1    3    3    0    0  0.45297397196E+01 -0.13095663180E+02 -0.46699059689E+01  0.14622686417E+02  0.51100000000E-03 0.  1.
         12    1    3    3    0    0  0.39936928966E+01 -0.66372008716E+00 -0.23799492801E+01  0.46961969595E+01  0.00000000000E+00 0. -1.
</event>
<event>
 7    1  0.2983653E-010  0.4778727E+02  0.7816164E-02  0.1312668E+00
        -11   -1    0    0    0    0  0.00000000000E+00  0.00000000000E+00  0.45593999997E+02  0.45594000000E+02  0.51100000000E-03 0.  1.
         11   -1    0    0    0    0 -0.00000000000E+00 -0.00000000000E+00 -0.45593999997E+02  0.45594000000E+02  0.51100000000E-03 0. -1.
    9900012    2    1    2    0    0 -0.41487180468E+02 -0.75767008237E+01 -0.10248445268E+02  0.47787272253E+02  0.20000005509E+02 0.  0.
        -12    1    1    2    0    0  0.41487180468E+02  0.75767008237E+01  0.10248445268E+02  0.43400727747E+02  0.00000000000E+00 0.  1.
         11    1    3    3    0    0 -0.22615197186E+02 -0.64045130411E+01 -0.11545997193E+02  0.26187305752E+02  0.51100000000E-03 0. -1.
        -11    1    3    3    0    0 -0.13295379622E+02 -0.44837095474E+00  0.56857230358E+01  0.14467052309E+02  0.51100000000E-03 0.  1.
        -12    1    3    3    0    0 -0.55766036597E+01 -0.72381682777E+00 -0.43881711110E+01  0.71329141924E+01  0.00000000000E+00 0.  1.
</event>
<event>
 7    1  0.2983653E-010  0.4778726E+02  0.7816164E-02  0.1312668E+00
        -11   -1    0    0    0    0  0.00000000000E+00  0.00000000000E+00  0.45593999997E+02  0.45594000000E+02  0.51100000000E-03 0. -1.
         11   -1    0    0    0    0 -0.00000000000E+00 -0.00000000000E+00 -0.45593999997E+02  0.45594000000E+02  0.51100000000E-03 0.  1.
    9900012    2    1    2    0    0 -0.24573779655E+02  0.34452246583E+02  0.96330806463E+01  0.47787260561E+02  0.19999952201E+02 0.  0.
        -12    1    1    2    0    0  0.24573779655E+02 -0.34452246583E+02 -0.96330806463E+01  0.43400739439E+02  0.00000000000E+00 0.  1.
         11    1    3    3    0    0 -0.37018519053E+01  0.67096837975E+01  0.31919042672E+01  0.83013141913E+01  0.51100000000E-03 0. -1.
        -11    1    3    3    0    0 -0.16214650274E+02  0.13417799477E+02  0.11000891622E+02  0.23748091356E+02  0.51100000000E-03 0.  1.
        -12    1    3    3    0    0 -0.46572774756E+01  0.14324763308E+02 -0.45597152431E+01  0.15737855013E+02  0.00000000000E+00 0.  1.
</event>
<event>
 7    1  0.2983653E-010  0.4778728E+02  0.7816164E-02  0.1312668E+00
        -11   -1    0    0    0    0  0.00000000000E+00  0.00000000000E+00  0.45593999997E+02  0.45594000000E+02  0.51100000000E-03 0. -1.
         11   -1    0    0    0    0 -0.00000000000E+00 -0.00000000000E+00 -0.45593999997E+02  0.45594000000E+02  0.51100000000E-03 0.  1.
    9900012    2    1    2    0    0  0.25679927150E+02  0.34815478744E+02  0.34707964468E+01  0.47787278272E+02  0.20000032952E+02 0.  0.
        -12    1    1    2    0    0 -0.25679927150E+02 -0.34815478744E+02 -0.34707964468E+01  0.43400721728E+02  0.00000000000E+00 0.  1.
         11    1    3    3    0    0  0.11693204251E+01  0.43983135448E+01 -0.52189653964E+01  0.69245990761E+01  0.51100000000E-03 0. -1.
        -11    1    3    3    0    0  0.11197217651E+01 -0.98227459107E-01  0.12849011640E+01  0.17071604281E+01  0.51100000000E-03 0.  1.
         12    1    3    3    0    0  0.23390884959E+02  0.30515392658E+02  0.74048606792E+01  0.39155518767E+02  0.00000000000E+00 0. -1.
</event>
<event>
 7    1  0.2983653E-010  0.4778727E+02  0.7816164E-02  0.1312668E+00
        -11   -1    0    0    0    0  0.00000000000E+00  0.00000000000E+00  0.45593999997E+02  0.45594000000E+02  0.51100000000E-03 0.  1.
         11   -1    0    0    0    0 -0.00000000000E+00 -0.00000000000E+00 -0.45593999997E+02  0.45594000000E+02  0.51100000000E-03 0. -1.
    9900012    2    1    2    0    0 -0.22462382193E+02  0.15465144808E+02 -0.33762319730E+02  0.47787267849E+02  0.19999985429E+02 0.  0.
        -12    1    1    2    0    0  0.22462382193E+02 -0.15465144808E+02  0.33762319730E+02  0.43400732151E+02  0.00000000000E+00 0.  1.
         11    1    3    3    0    0 -0.31161793540E+01  0.28356580896E+01 -0.32869897073E+01  0.53437657288E+01  0.51100000000E-03 0. -1.
        -11    1    3    3    0    0 -0.92446800772E+01  0.75716098754E+01 -0.24105571224E+01  0.12190331076E+02  0.51100000000E-03 0.  1.
        -12    1    3    3    0    0 -0.10101522761E+02  0.50578768434E+01 -0.28064772900E+02  0.30253171044E+02  0.00000000000E+00 0.  1.
</event>
<event>
 7    1  0.2983653E-010  0.4778727E+02  0.7816164E-02  0.1312668E+00
        -11   -1    0    0    0    0  0.00000000000E+00  0.00000000000E+00  0.45593999997E+02  0.45594000000E+02  0.51100000000E-03 0. -1.
         11   -1    0    0    0    0 -0.00000000000E+00 -0.00000000000E+00 -0.45593999997E+02  0.45594000000E+02  0.51100000000E-03 0.  1.
    9900012    2    1    2    0    0 -0.15790721967E+01  0.39316975476E+02  0.18311356248E+02  0.47787265015E+02  0.19999972510E+02 0.  0.
        -12    1    1    2    0    0  0.15790721967E+01 -0.39316975476E+02 -0.18311356248E+02  0.43400734985E+02  0.00000000000E+00 0.  1.
         11    1    3    3    0    0  0.40289442367E+01  0.36022949725E+02  0.12176363849E+02  0.38238058729E+02  0.51100000000E-03 0. -1.
        -11    1    3    3    0    0 -0.51560129082E+00  0.19602957433E+01  0.20801303480E+01  0.29044012495E+01  0.51100000000E-03 0.  1.
         12    1    3    3    0    0 -0.50924151425E+01  0.13337300079E+01  0.40548620507E+01  0.66448050361E+01  0.00000000000E+00 0. -1.
</event>
<event>
 7    1  0.2983653E-010  0.4778728E+02  0.7816164E-02  0.1312668E+00
        -11   -1    0    0    0    0  0.00000000000E+00  0.00000000000E+00  0.45593999997E+02  0.45594000000E+02  0.51100000000E-03 0.  1.
         11   -1    0    0    0    0 -0.00000000000E+00 -0.00000000000E+00 -0.45593999997E+02  0.45594000000E+02  0.51100000000E-03 0. -1.
    9900012    2    1    2    0    0  0.39227535218E+02  0.95889122171E+01  0.15902054182E+02  0.47787284752E+02  0.20000062500E+02 0.  0.
        -12    1    1    2    0    0 -0.39227535218E+02 -0.95889122171E+01 -0.15902054182E+02  0.43400715248E+02  0.00000000000E+00 0.  1.
         11    1    3    3    0    0  0.22095738181E+02  0.12356327789E+02  0.53828571010E+01  0.25881955742E+02  0.51100000000E-03 0. -1.
        -11    1    3    3    0    0  0.85889368989E+01 -0.27905641492E+01  0.98086821179E+01  0.13332941554E+02  0.51100000000E-03 0.  1.
         12    1    3    3    0    0  0.85428601383E+01  0.23148577522E-01  0.71051496286E+00  0.85723874569E+01  0.00000000000E+00 0. -1.
</event>
<event>
 7    1  0.2983653E-010  0.4778727E+02  0.7816164E-02  0.1312668E+00
        -11   -1    0    0    0    0  0.00000000000E+00  0.00000000000E+00  0.45593999997E+02  0.45594000000E+02  0.51100000000E-03 0.  1.
         11   -1    0    0    0    0 -0.00000000000E+00 -0.00000000000E+00 -0.45593999997E+02  0.45594000000E+02  0.51100000000E-03 0. -1.
    9900012    2    1    2    0    0 -0.51435554230E+01 -0.17141967549E+02 -0.39538840247E+02  0.47787273025E+02  0.20000009031E+02 0.  0.
        -12    1    1    2    0    0  0.51435554230E+01  0.17141967549E+02  0.39538840247E+02  0.43400726975E+02  0.00000000000E+00 0.  1.
         11    1    3    3    0    0  0.50613116009E+01 -0.88117366028E+01 -0.69031064932E+01  0.12284805924E+02  0.51100000000E-03 0.  1.
        -11    1    3    3    0    0 -0.72954427531E+01 -0.77452797553E+01 -0.28423919732E+02  0.30350157441E+02  0.51100000000E-03 0. -1.
        -12    1    3    3    0    0 -0.29094242708E+01 -0.58495119081E+00 -0.42118140218E+01  0.51523096605E+01  0.00000000000E+00 0.  1.
</event>
<event>
 7    1  0.2983653E-010  0.4778727E+02  0.7816164E-02  0.1312668E+00
        -11   -1    0    0    0    0  0.00000000000E+00  0.00000000000E+00  0.45593999997E+02  0.45594000000E+02  0.51100000000E-03 0.  1.
         11   -1    0    0    0    0 -0.00000000000E+00 -0.00000000000E+00 -0.45593999997E+02  0.45594000000E+02  0.51100000000E-03 0. -1.
    9900012    2    1    2    0    0 -0.47284963450E+01  0.23438303382E+02 -0.36220308767E+02  0.47787268321E+02  0.19999987584E+02 0.  0.
        -12    1    1    2    0    0  0.47284963450E+01 -0.23438303382E+02  0.36220308767E+02  0.43400731679E+02  0.00000000000E+00 0.  1.
         11    1    3    3    0    0  0.49433304190E+01  0.59339557721E+01 -0.50382894804E+01  0.92213181209E+01  0.51100000000E-03 0. -1.
        -11    1    3    3    0    0  0.87614047249E+00  0.29607292730E+00 -0.70296597058E+01  0.70902325171E+01  0.51100000000E-03 0.  1.
         12    1    3    3    0    0 -0.10547967237E+02  0.17208274682E+02 -0.24152359581E+02  0.31475717683E+02  0.00000000000E+00 0. -1.
</event>
<event>
 7    1  0.3076074E-010  0.4778727E+02  0.7816164E-02  0.1312668E+00
        -11   -1    0    0    0    0  0.00000000000E+00  0.00000000000E+00  0.45593999997E+02  0.45594000000E+02  0.51100000000E-03 0. -1.
         11   -1    0    0    0    0 -0.00000000000E+00 -0.00000000000E+00 -0.45593999997E+02  0.45594000000E+02  0.51100000000E-03 0.  1.
    9900012    2    1    2    0    0  0.34528216683E+02  0.20447889141E+02  0.16532072586E+02  0.47787270264E+02  0.19999996442E+02 0.  0.
        -12    1    1    2    0    0 -0.34528216683E+02 -0.20447889141E+02 -0.16532072586E+02  0.43400729736E+02  0.00000000000E+00 0.  1.
         11    1    3    3    0    0  0.24094049724E+02  0.14803400549E+02  0.10965605218E+02  0.30329991724E+02  0.51100000000E-03 0. -1.
        -11    1    3    3    0    0 -0.51801285790E+00 -0.65133931799E+00 -0.23879203411E+01  0.25287831154E+01  0.51100000000E-03 0.  1.
        -12    1    3    3    0    0  0.10952179817E+02  0.62958279097E+01  0.79543877095E+01  0.14928495425E+02  0.00000000000E+00 0.  1.
</event>
<event>
 7    1  0.2983653E-010  0.4778727E+02  0.7816164E-02  0.1312668E+00
        -11   -1    0    0    0    0  0.00000000000E+00  0.00000000000E+00  0.45593999997E+02  0.45594000000E+02  0.51100000000E-03 0. -1.
         11   -1    0    0    0    0 -0.00000000000E+00 -0.00000000000E+00 -0.45593999997E+02  0.45594000000E+02  0.51100000000E-03 0.  1.
    9900012    2    1    2    0    0  0.88535512005E+00 -0.38515113227E+02  0.19985630161E+02  0.47787271740E+02  0.20000003173E+02 0.  0.
        -12    1    1    2    0    0 -0.88535512005E+00  0.38515113227E+02 -0.19985630161E+02  0.43400728260E+02  0.00000000000E+00 0.  1.
         11    1    3    3    0    0 -0.86996170709E+01 -0.24119496500E+02  0.96073262043E+01  0.27381273997E+02  0.51100000000E-03 0. -1.
        -11    1    3    3    0    0  0.84586589179E+01 -0.13978605325E+02  0.99553014834E+01  0.19132651291E+02  0.51100000000E-03 0.  1.
         12    1    3    3    0    0  0.11263132730E+01 -0.41701140130E+00  0.42300247286E+00  0.12733464532E+01  0.00000000000E+00 0. -1.
</event>
<event>
 7    1  0.2983653E-010  0.4778727E+02  0.7816164E-02  0.1312668E+00
        -11   -1    0    0    0    0  0.00000000000E+00  0.00000000000E+00  0.45593999997E+02  0.45594000000E+02  0.51100000000E-03 0.  1.
         11   -1    0    0    0    0 -0.00000000000E+00 -0.00000000000E+00 -0.45593999997E+02  0.45594000000E+02  0.51100000000E-03 0. -1.
    9900012    2    1    2    0    0 -0.18240122965E+01 -0.38264018092E+02 -0.20400025078E+02  0.47787272764E+02  0.20000007840E+02 0.  0.
        -12    1    1    2    0    0  0.18240122965E+01  0.38264018092E+02  0.20400025078E+02  0.43400727236E+02  0.00000000000E+00 0.  1.
         11    1    3    3    0    0 -0.72566485961E+01 -0.72423140342E+01 -0.58267135265E+01  0.11792398068E+02  0.51100000000E-03 0. -1.
        -11    1    3    3    0    0 -0.26518454367E+00 -0.21537436408E+02 -0.72496327713E+01  0.22726386987E+02  0.51100000000E-03 0.  1.
         12    1    3    3    0    0  0.56978208432E+01 -0.94842676495E+01 -0.73236787805E+01  0.13268487709E+02  0.00000000000E+00 0. -1.
</event>
<event>
 7    1  0.2983653E-010  0.4778727E+02  0.7816164E-02  0.1312668E+00
        -11   -1    0    0    0    0  0.00000000000E+00  0.00000000000E+00  0.45593999997E+02  0.45594000000E+02  0.51100000000E-03 0. -1.
         11   -1    0    0    0    0 -0.00000000000E+00 -0.00000000000E+00 -0.45593999997E+02  0.45594000000E+02  0.51100000000E-03 0.  1.
    9900012    2    1    2    0    0  0.13338858712E+02 -0.31552973516E+02  0.26647851277E+02  0.47787271122E+02  0.20000000352E+02 0.  0.
        -12    1    1    2    0    0 -0.13338858712E+02  0.31552973516E+02 -0.26647851277E+02  0.43400728878E+02  0.00000000000E+00 0.  1.
         11    1    3    3    0    0 -0.13163748186E+00 -0.16869398699E+02  0.18646583453E+02  0.25145357735E+02  0.51100000000E-03 0. -1.
        -11    1    3    3    0    0  0.85195090900E+01 -0.13691629858E+02  0.58662058286E+01  0.17159695056E+02  0.51100000000E-03 0.  1.
         12    1    3    3    0    0  0.49509871042E+01 -0.99194495915E+00  0.21350619960E+01  0.54822183316E+01  0.00000000000E+00 0. -1.
</event>
<event>
 7    1  0.2983653E-010  0.4778727E+02  0.7816164E-02  0.1312668E+00
        -11   -1    0    0    0    0  0.00000000000E+00  0.00000000000E+00  0.45593999997E+02  0.45594000000E+02  0.51100000000E-03 0. -1.
         11   -1    0    0    0    0 -0.00000000000E+00 -0.00000000000E+00 -0.45593999997E+02  0.45594000000E+02  0.51100000000E-03 0.  1.
    9900012    2    1    2    0    0  0.21961541385E+02  0.12905406657E+02  0.35139219075E+02  0.47787268000E+02  0.19999986119E+02 0.  0.
        -12    1    1    2    0    0 -0.21961541385E+02 -0.12905406657E+02 -0.35139219075E+02  0.43400732000E+02  0.00000000000E+00 0.  1.
         11    1    3    3    0    0  0.20242635785E+02  0.11226182085E+01  0.20481510147E+02  0.28818688959E+02  0.51100000000E-03 0.  1.
        -11    1    3    3    0    0  0.29842275519E+00  0.78951616017E+01  0.96478426899E+01  0.12470104317E+02  0.51100000000E-03 0. -1.
        -12    1    3    3    0    0  0.14204828446E+01  0.38876268465E+01  0.50098662377E+01  0.64984747233E+01  0.00000000000E+00 0.  1.
</event>
<event>
 7    1  0.2983653E-010  0.4778727E+02  0.7816164E-02  0.1312668E+00
        -11   -1    0    0    0    0  0.00000000000E+00  0.00000000000E+00  0.45593999997E+02  0.45594000000E+02  0.51100000000E-03 0.  1.
         11   -1    0    0    0    0 -0.00000000000E+00 -0.00000000000E+00 -0.45593999997E+02  0.45594000000E+02  0.51100000000E-03 0. -1.
    9900012    2    1    2    0    0 -0.23974395988E+02  0.33572785322E+01 -0.36021943468E+02  0.47787269668E+02  0.19999993724E+02 0.  0.
        -12    1    1    2    0    0  0.23974395988E+02 -0.33572785322E+01  0.36021943468E+02  0.43400730332E+02  0.00000000000E+00 0.  1.
         11    1    3    3    0    0 -0.17561350493E+02 -0.21881209538E+01 -0.29801665911E+02  0.34660181704E+02  0.51100000000E-03 0. -1.
        -11    1    3    3    0    0  0.14542740333E+01  0.25759470803E+00  0.44105958810E+00  0.15413636232E+01  0.51100000000E-03 0.  1.
         12    1    3    3    0    0 -0.78673195277E+01  0.52878047780E+01 -0.66613371455E+01  0.11585724340E+02  0.00000000000E+00 0. -1.
</event>
<event>
 7    1  0.2983653E-010  0.4778727E+02  0.7816164E-02  0.1312668E+00
        -11   -1    0    0    0    0  0.00000000000E+00  0.00000000000E+00  0.45593999997E+02  0.45594000000E+02  0.51100000000E-03 0.  1.
         11   -1    0    0    0    0 -0.00000000000E+00 -0.00000000000E+00 -0.45593999997E+02  0.45594000000E+02  0.51100000000E-03 0. -1.
    9900012    2    1    2    0    0  0.13169576360E+02 -0.34911759687E+02 -0.22166518889E+02  0.47787271140E+02  0.20000000435E+02 0.  0.
        -12    1    1    2    0    0 -0.13169576360E+02  0.34911759687E+02  0.22166518889E+02  0.43400728860E+02  0.00000000000E+00 0.  1.
         11    1    3    3    0    0  0.40432865579E+01 -0.24690688917E+02 -0.79003099310E+01  0.26237248001E+02  0.51100000000E-03 0. -1.
        -11    1    3    3    0    0  0.61844188875E+01 -0.10078485551E+02 -0.14361563126E+02  0.18603155745E+02  0.51100000000E-03 0.  1.
         12    1    3    3    0    0  0.29418709144E+01 -0.14258521840E+00  0.95354168069E-01  0.29468673941E+01  0.00000000000E+00 0. -1.
</event>
<event>
 7    1  0.2983653E-010  0.4778727E+02  0.7816164E-02  0.1312668E+00
        -11   -1    0    0    0    0  0.00000000000E+00  0.00000000000E+00  0.45593999997E+02  0.45594000000E+02  0.51100000000E-03 0. -1.
         11   -1    0    0    0    0 -0.00000000000E+00 -0.00000000000E+00 -0.45593999997E+02  0.45594000000E+02  0.51100000000E-03 0.  1.
    9900012    2    1    2    0    0  0.69968520350E+00 -0.55281652946E+01  0.43041531610E+02  0.47787267124E+02  0.19999982123E+02 0.  0.
        -12    1    1    2    0    0 -0.69968520350E+00  0.55281652946E+01 -0.43041531610E+02  0.43400732876E+02  0.00000000000E+00 0.  1.
         11    1    3    3    0    0 -0.50742897211E+01  0.21151249625E+01  0.21421396954E+02  0.22115569573E+02  0.51100000000E-03 0. -1.
        -11    1    3    3    0    0  0.63305973775E+01 -0.25490179118E+01  0.55256276591E+01  0.87810316455E+01  0.51100000000E-03 0.  1.
         12    1    3    3    0    0 -0.55662245287E+00 -0.50942723453E+01  0.16094506996E+02  0.16890665905E+02  0.00000000000E+00 0. -1.
</event>
<event>
 7    1  0.2983653E-010  0.4778727E+02  0.7816164E-02  0.1312668E+00
        -11   -1    0    0    0    0  0.00000000000E+00  0.00000000000E+00  0.45593999997E+02  0.45594000000E+02  0.51100000000E-03 0.  1.
         11   -1    0    0    0    0 -0.00000000000E+00 -0.00000000000E+00 -0.45593999997E+02  0.45594000000E+02  0.51100000000E-03 0. -1.
    9900012    2    1    2    0    0 -0.32620243839E+02  0.28563303384E+02  0.19184235208E+01  0.47787274694E+02  0.20000016639E+02 0.  0.
        -12    1    1    2    0    0  0.32620243839E+02 -0.28563303384E+02 -0.19184235208E+01  0.43400725306E+02  0.00000000000E+00 0.  1.
         11    1    3    3    0    0 -0.29592068181E+02  0.27939137474E+02 -0.21068966460E+01  0.40751992783E+02  0.51100000000E-03 0. -1.
        -11    1    3    3    0    0 -0.27856067409E+00 -0.17797602427E+01  0.31462017845E+00  0.18286958983E+01  0.51100000000E-03 0.  1.
        -12    1    3    3    0    0 -0.27496149832E+01  0.24039261527E+01  0.37106999883E+01  0.52065860126E+01  0.00000000000E+00 0.  1.
</event>
<event>
 7    1  0.2983653E-010  0.4778727E+02  0.7816164E-02  0.1312668E+00
        -11   -1    0    0    0    0  0.00000000000E+00  0.00000000000E+00  0.45593999997E+02  0.45594000000E+02  0.51100000000E-03 0.  1.
         11   -1    0    0    0    0 -0.00000000000E+00 -0.00000000000E+00 -0.45593999997E+02  0.45594000000E+02  0.51100000000E-03 0. -1.
    9900012    2    1    2    0    0 -0.14732438235E+02 -0.17557069219E+01 -0.40785978142E+02  0.47787271248E+02  0.20000000929E+02 0.  0.
        -12    1    1    2    0    0  0.14732438235E+02  0.17557069219E+01  0.40785978142E+02  0.43400728752E+02  0.00000000000E+00 0.  1.
         11    1    3    3    0    0 -0.10478978557E+02  0.20387137901E+01 -0.98365208254E+01  0.14516283537E+02  0.51100000000E-03 0. -1.
        -11    1    3    3    0    0  0.17219273880E+01 -0.35153844904E+01 -0.22954499097E+02  0.23285875356E+02  0.51100000000E-03 0.  1.
        -12    1    3    3    0    0 -0.59753870663E+01 -0.27903622156E+00 -0.79949582200E+01  0.99851123552E+01  0.00000000000E+00 0.  1.
</event>
<event>
 7    1  0.2983653E-010  0.4778722E+02  0.7816164E-02  0.1312668E+00
        -11   -1    0    0    0    0  0.00000000000E+00  0.00000000000E+00  0.45593999997E+02  0.45594000000E+02  0.51100000000E-03 0.  1.
         11   -1    0    0    0    0 -0.00000000000E+00 -0.00000000000E+00 -0.45593999997E+02  0.45594000000E+02  0.51100000000E-03 0. -1.
    9900012    2    1    2    0    0 -0.28302523422E+02 -0.26635662506E+02 -0.19316737435E+02  0.47787220118E+02  0.19999767806E+02 0.  0.
        -12    1    1    2    0    0  0.28302523422E+02  0.26635662506E+02  0.19316737435E+02  0.43400779882E+02  0.00000000000E+00 0.  1.
         11    1    3    3    0    0 -0.25773406920E+02 -0.24248408089E+02 -0.15502013942E+02  0.38633744779E+02  0.51100000000E-03 0. -1.
        -11    1    3    3    0    0 -0.16073939372E+01 -0.41611870818E+01  0.40999081346E+00  0.44796524338E+01  0.51100000000E-03 0.  1.
         12    1    3    3    0    0 -0.92172256472E+00  0.17739326643E+01 -0.42247143061E+01  0.46738229055E+01  0.00000000000E+00 0. -1.
</event>
<event>
 7    1  0.2983653E-010  0.4778727E+02  0.7816164E-02  0.1312668E+00
        -11   -1    0    0    0    0  0.00000000000E+00  0.00000000000E+00  0.45593999997E+02  0.45594000000E+02  0.51100000000E-03 0.  1.
         11   -1    0    0    0    0 -0.00000000000E+00 -0.00000000000E+00 -0.45593999997E+02  0.45594000000E+02  0.51100000000E-03 0. -1.
    9900012    2    1    2    0    0 -0.32551608955E+02 -0.12834615929E+02 -0.25676613308E+02  0.47787273248E+02  0.20000010049E+02 0.  0.
        -12    1    1    2    0    0  0.32551608955E+02  0.12834615929E+02  0.25676613308E+02  0.43400726752E+02  0.00000000000E+00 0.  1.
         11    1    3    3    0    0 -0.13052624635E+02 -0.30371884302E+01 -0.75533027032E+01  0.15383364568E+02  0.51100000000E-03 0. -1.
        -11    1    3    3    0    0 -0.14675884385E+02 -0.32624431792E+01 -0.31366648728E+01  0.15357857427E+02  0.51100000000E-03 0.  1.
        -12    1    3    3    0    0 -0.48230999346E+01 -0.65349843198E+01 -0.14986645732E+02  0.17046051254E+02  0.00000000000E+00 0.  1.
</event>
<event>
 7    1  0.2983653E-010  0.4778727E+02  0.7816164E-02  0.1312668E+00
        -11   -1    0    0    0    0  0.00000000000E+00  0.00000000000E+00  0.45593999997E+02  0.45594000000E+02  0.51100000000E-03 0.  1.
         11   -1    0    0    0    0 -0.00000000000E+00 -0.00000000000E+00 -0.45593999997E+02  0.45594000000E+02  0.51100000000E-03 0. -1.
    9900012    2    1    2    0    0 -0.10196840216E+02  0.27452126759E+02 -0.32031678550E+02  0.47787271380E+02  0.20000001529E+02 0.  0.
        -12    1    1    2    0    0  0.10196840216E+02 -0.27452126759E+02  0.32031678550E+02  0.43400728620E+02  0.00000000000E+00 0.  1.
         11    1    3    3    0    0 -0.67809254766E+01  0.25994493018E+01 -0.12472930380E+02  0.14433020457E+02  0.51100000000E-03 0. -1.
        -11    1    3    3    0    0  0.12363830150E+01  0.58442664819E+00 -0.38201969270E+01  0.40575980935E+01  0.51100000000E-03 0.  1.
         12    1    3    3    0    0 -0.46522977544E+01  0.24268250809E+02 -0.15738551244E+02  0.29296652829E+02  0.00000000000E+00 0. -1.
</event>
<event>
 7    1  0.2983653E-010  0.4778726E+02  0.7816164E-02  0.1312668E+00
        -11   -1    0    0    0    0  0.00000000000E+00  0.00000000000E+00  0.45593999997E+02  0.45594000000E+02  0.51100000000E-03 0.  1.
         11   -1    0    0    0    0 -0.00000000000E+00 -0.00000000000E+00 -0.45593999997E+02  0.45594000000E+02  0.51100000000E-03 0. -1.
    9900012    2    1    2    0    0 -0.59589237238E+01  0.15391006307E+02 -0.40140159077E+02  0.47787260170E+02  0.19999950419E+02 0.  0.
        -12    1    1    2    0    0  0.59589237238E+01 -0.15391006307E+02  0.40140159077E+02  0.43400739830E+02  0.00000000000E+00 0.  1.
         11    1    3    3    0    0 -0.79489157140E+00  0.36057041763E+01 -0.78203622190E+01  0.86481801967E+01  0.51100000000E-03 0. -1.
        -11    1    3    3    0    0  0.46472174350E+01 -0.13327139294E+01 -0.12643947913E+02  0.13536697359E+02  0.51100000000E-03 0.  1.
        -12    1    3    3    0    0 -0.98112495874E+01  0.13118016060E+02 -0.19675848945E+02  0.25602382614E+02  0.00000000000E+00 0.  1.
</event>
<event>
 7    1  0.2983653E-010  0.4778727E+02  0.7816164E-02  0.1312668E+00
        -11   -1    0    0    0    0  0.00000000000E+00  0.00000000000E+00  0.45593999997E+02  0.45594000000E+02  0.51100000000E-03 0.  1.
         11   -1    0    0    0    0 -0.00000000000E+00 -0.00000000000E+00 -0.45593999997E+02  0.45594000000E+02  0.51100000000E-03 0. -1.
    9900012    2    1    2    0    0 -0.70854455314E+01  0.40487433312E+02 -0.13935120178E+02  0.47787269949E+02  0.19999995007E+02 0.  0.
        -12    1    1    2    0    0  0.70854455314E+01 -0.40487433312E+02  0.13935120178E+02  0.43400730051E+02  0.00000000000E+00 0.  1.
         11    1    3    3    0    0  0.25801712703E+01  0.20317861107E+02 -0.13254892613E+01  0.20523880866E+02  0.51100000000E-03 0. -1.
        -11    1    3    3    0    0  0.11215033831E+01  0.61943584496E+00  0.49467306348E+00  0.13733798838E+01  0.51100000000E-03 0.  1.
         12    1    3    3    0    0 -0.10787120185E+02  0.19550136360E+02 -0.13104303980E+02  0.25890009200E+02  0.00000000000E+00 0. -1.
</event>
<event>
 7    1  0.2983653E-010  0.4778727E+02  0.7816164E-02  0.1312668E+00
        -11   -1    0    0    0    0  0.00000000000E+00  0.00000000000E+00  0.45593999997E+02  0.45594000000E+02  0.51100000000E-03 0.  1.
         11   -1    0    0    0    0 -0.00000000000E+00 -0.00000000000E+00 -0.45593999997E+02  0.45594000000E+02  0.51100000000E-03 0. -1.
    9900012    2    1    2    0    0  0.32847160297E+02  0.10331731437E+02 -0.26418610622E+02  0.47787267273E+02  0.19999982804E+02 0.  0.
        -12    1    1    2    0    0 -0.32847160297E+02 -0.10331731437E+02  0.26418610622E+02  0.43400732727E+02  0.00000000000E+00 0.  1.
         11    1    3    3    0    0  0.19268680251E+02  0.18006970419E+01 -0.18841669993E+02  0.27009869989E+02  0.51100000000E-03 0. -1.
        -11    1    3    3    0    0  0.15494782272E+01  0.17064175309E+01  0.26977380115E+01  0.35483142767E+01  0.51100000000E-03 0.  1.
         12    1    3    3    0    0  0.12029001818E+02  0.68246168641E+01 -0.10274678641E+02  0.17229083007E+02  0.00000000000E+00 0. -1.
</event>
<event>
 7    1  0.2983653E-010  0.4778728E+02  0.7816164E-02  0.1312668E+00
        -11   -1    0    0    0    0  0.00000000000E+00  0.00000000000E+00  0.45593999997E+02  0.45594000000E+02  0.51100000000E-03 0. -1.
         11   -1    0    0    0    0 -0.00000000000E+00 -0.00000000000E+00 -0.45593999997E+02  0.45594000000E+02  0.51100000000E-03 0.  1.
    9900012    2    1    2    0    0 -0.36315352007E+02 -0.18171089974E+02  0.15317624055E+02  0.47787275249E+02  0.20000019170E+02 0.  0.
        -12    1    1    2    0    0  0.36315352007E+02  0.18171089974E+02 -0.15317624055E+02  0.43400724751E+02  0.00000000000E+00 0.  1.
         11    1    3    3    0    0 -0.13868715987E+02 -0.12732931152E+02  0.13368778831E+02  0.23090973703E+02  0.51100000000E-03 0. -1.
        -11    1    3    3    0    0 -0.86020847316E+01  0.33578416136E+00 -0.26492384660E+01  0.90070570912E+01  0.51100000000E-03 0.  1.
        -12    1    3    3    0    0 -0.13844551288E+02 -0.57739429836E+01  0.45980836904E+01  0.15689244455E+02  0.00000000000E+00 0.  1.
</event>
<event>
 7    1  0.2983653E-010  0.4778727E+02  0.7816164E-02  0.1312668E+00
        -11   -1    0    0    0    0  0.00000000000E+00  0.00000000000E+00  0.45593999997E+02  0.45594000000E+02  0.51100000000E-03 0.  1.
         11   -1    0    0    0    0 -0.00000000000E+00 -0.00000000000E+00 -0.45593999997E+02  0.45594000000E+02  0.51100000000E-03 0. -1.
    9900012    2    1    2    0    0 -0.14831824994E+02  0.12755978620E+02 -0.38741778118E+02  0.47787269650E+02  0.19999993640E+02 0.  0.
        -12    1    1    2    0    0  0.14831824994E+02 -0.12755978620E+02  0.38741778118E+02  0.43400730350E+02  0.00000000000E+00 0.  1.
         11    1    3    3    0    0 -0.14685085892E+02  0.10527211506E+02 -0.19804653026E+02  0.26808547358E+02  0.51100000000E-03 0. -1.
        -11    1    3    3    0    0  0.32708545646E+01 -0.18083347755E+01 -0.77428193006E+01  0.85976633585E+01  0.51100000000E-03 0.  1.
        -12    1    3    3    0    0 -0.34175936666E+01  0.40371018899E+01 -0.11194305792E+02  0.12381058933E+02  0.00000000000E+00 0.  1.
</event>
<event>
 7    1  0.2983653E-010  0.4778727E+02  0.7816164E-02  0.1312668E+00
        -11   -1    0    0    0    0  0.00000000000E+00  0.00000000000E+00  0.45593999997E+02  0.45594000000E+02  0.51100000000E-03 0. -1.
         11   -1    0    0    0    0 -0.00000000000E+00 -0.00000000000E+00 -0.45593999997E+02  0.45594000000E+02  0.51100000000E-03 0.  1.
    9900012    2    1    2    0    0 -0.12163791073E+02  0.19783946325E+02  0.36664167400E+02  0.47787268248E+02  0.19999987249E+02 0.  0.
        -12    1    1    2    0    0  0.12163791073E+02 -0.19783946325E+02 -0.36664167400E+02  0.43400731752E+02  0.00000000000E+00 0.  1.
         11    1    3    3    0    0  0.20456952995E+01  0.43009470365E+00  0.11973499644E+02  0.12154610018E+02  0.51100000000E-03 0. -1.
        -11    1    3    3    0    0 -0.10816984386E+02  0.16550099144E+02  0.14458496659E+02  0.24494102530E+02  0.51100000000E-03 0.  1.
        -12    1    3    3    0    0 -0.33925019870E+01  0.28037524778E+01  0.10232171098E+02  0.11138555699E+02  0.00000000000E+00 0.  1.
</event>
<event>
 7    1  0.2983653E-010  0.4778727E+02  0.7816164E-02  0.1312668E+00
        -11   -1    0    0    0    0  0.00000000000E+00  0.00000000000E+00  0.45593999997E+02  0.45594000000E+02  0.51100000000E-03 0.  1.
         11   -1    0    0    0    0 -0.00000000000E+00 -0.00000000000E+00 -0.45593999997E+02  0.45594000000E+02  0.51100000000E-03 0. -1.
    9900012    2    1    2    0    0  0.18300795467E+02 -0.71384032457E+01 -0.38700742148E+02  0.47787270070E+02  0.19999995559E+02 0.  0.
        -12    1    1    2    0    0 -0.18300795467E+02  0.71384032457E+01  0.38700742148E+02  0.43400729930E+02  0.00000000000E+00 0.  1.
         11    1    3    3    0    0  0.10563339382E+02 -0.11281731169E+02 -0.33648643471E+02  0.37028270345E+02  0.51100000000E-03 0. -1.
        -11    1    3    3    0    0  0.17592231251E+01  0.25879849546E+01 -0.71135218199E+00  0.32091360702E+01  0.51100000000E-03 0.  1.
         12    1    3    3    0    0  0.59782329598E+01  0.15553429688E+01 -0.43407464953E+01  0.75498636550E+01  0.00000000000E+00 0. -1.
</event>
<event>
 7    1  0.4151103E-010  0.4778727E+02  0.7816164E-02  0.1312668E+00
        -11   -1    0    0    0    0  0.00000000000E+00  0.00000000000E+00  0.45593999997E+02  0.45594000000E+02  0.51100000000E-03 0.  1.
         11   -1    0    0    0    0 -0.00000000000E+00 -0.00000000000E+00 -0.45593999997E+02  0.45594000000E+02  0.51100000000E-03 0. -1.
    9900012    2    1    2    0    0 -0.41032449634E+02 -0.41239654329E+01 -0.13526054701E+02  0.47787272245E+02  0.20000005473E+02 0.  0.
        -12    1    1    2    0    0  0.41032449634E+02  0.41239654329E+01  0.13526054701E+02  0.43400727755E+02  0.00000000000E+00 0.  1.
         11    1    3    3    0    0 -0.20786123097E+02 -0.14585472175E+01 -0.68998732288E+01  0.21949909436E+02  0.51100000000E-03 0. -1.
        -11    1    3    3    0    0 -0.10466718114E+02  0.13713550801E+01  0.35703711065E+01  0.11143623869E+02  0.51100000000E-03 0.  1.
        -12    1    3    3    0    0 -0.97796084235E+01 -0.40367732956E+01 -0.10196552579E+02  0.14693738941E+02  0.00000000000E+00 0.  1.
</event>
<event>
 7    1  0.2983653E-010  0.4778727E+02  0.7816164E-02  0.1312668E+00
        -11   -1    0    0    0    0  0.00000000000E+00  0.00000000000E+00  0.45593999997E+02  0.45594000000E+02  0.51100000000E-03 0. -1.
         11   -1    0    0    0    0 -0.00000000000E+00 -0.00000000000E+00 -0.45593999997E+02  0.45594000000E+02  0.51100000000E-03 0.  1.
    9900012    2    1    2    0    0  0.39271197796E+02  0.15555242897E+02 -0.99715076693E+01  0.47787268173E+02  0.19999986908E+02 0.  0.
        -12    1    1    2    0    0 -0.39271197796E+02 -0.15555242897E+02  0.99715076693E+01  0.43400731827E+02  0.00000000000E+00 0.  1.
         11    1    3    3    0    0  0.23212089199E+02  0.48655467168E+01 -0.13240922667E+02  0.27162412690E+02  0.51100000000E-03 0. -1.
        -11    1    3    3    0    0  0.62714131923E+01  0.80766830165E+01  0.19306491371E+01  0.10406288403E+02  0.51100000000E-03 0.  1.
         12    1    3    3    0    0  0.97876954052E+01  0.26130131633E+01  0.13387658604E+01  0.10218567080E+02  0.00000000000E+00 0. -1.
</event>
<event>
 7    1  0.2983653E-010  0.4778729E+02  0.7816164E-02  0.1312668E+00
        -11   -1    0    0    0    0  0.00000000000E+00  0.00000000000E+00  0.45593999997E+02  0.45594000000E+02  0.51100000000E-03 0. -1.
         11   -1    0    0    0    0 -0.00000000000E+00 -0.00000000000E+00 -0.45593999997E+02  0.45594000000E+02  0.51100000000E-03 0.  1.
    9900012    2    1    2    0    0 -0.43959998506E+01  0.23952273801E+02  0.35924720624E+02  0.47787288176E+02  0.20000078110E+02 0.  0.
        -12    1    1    2    0    0  0.43959998506E+01 -0.23952273801E+02 -0.35924720624E+02  0.43400711824E+02  0.00000000000E+00 0.  1.
         11    1    3    3    0    0 -0.22865982186E+01  0.12231386027E+02  0.15457036338E+02  0.19843268586E+02  0.51100000000E-03 0. -1.
        -11    1    3    3    0    0  0.22955677945E+01 -0.28837099515E+01  0.50827070801E+01  0.62784811943E+01  0.51100000000E-03 0.  1.
        -12    1    3    3    0    0 -0.44049694265E+01  0.14604597726E+02  0.15384977205E+02  0.21665538396E+02  0.00000000000E+00 0.  1.
</event>
<event>
 7    1  0.2983653E-010  0.4778726E+02  0.7816164E-02  0.1312668E+00
        -11   -1    0    0    0    0  0.00000000000E+00  0.00000000000E+00  0.45593999997E+02  0.45594000000E+02  0.51100000000E-03 0. -1.
         11   -1    0    0    0    0 -0.00000000000E+00 -0.00000000000E+00 -0.45593999997E+02  0.45594000000E+02  0.51100000000E-03 0.  1.
    9900012    2    1    2    0    0  0.10417323155E+00 -0.39628202091E+02  0.17697998233E+02  0.47787258134E+02  0.19999941138E+02 0.  0.
        -12    1    1    2    0    0 -0.10417323155E+00  0.39628202091E+02 -0.17697998233E+02  0.43400741866E+02  0.00000000000E+00 0.  1.
         11    1    3    3    0    0 -0.56834050361E+00 -0.19602315922E+01  0.34990213711E+01  0.40507616123E+01  0.51100000000E-03 0. -1.
        -11    1    3    3    0    0 -0.40110629214E+01 -0.24808284909E+02  0.16207955751E+02  0.29903803367E+02  0.51100000000E-03 0.  1.
        -12    1    3    3    0    0  0.46835766565E+01 -0.12859685589E+02 -0.20089788889E+01  0.13832693155E+02  0.00000000000E+00 0.  1.
</event>
<event>
 7    1  0.2983653E-010  0.4778727E+02  0.7816164E-02  0.1312668E+00
        -11   -1    0    0    0    0  0.00000000000E+00  0.00000000000E+00  0.45593999997E+02  0.45594000000E+02  0.51100000000E-03 0. -1.
         11   -1    0    0    0    0 -0.00000000000E+00 -0.00000000000E+00 -0.45593999997E+02  0.45594000000E+02  0.51100000000E-03 0.  1.
    9900012    2    1    2    0    0 -0.14017931844E+01  0.29693225255E+02  0.31622311119E+02  0.47787271772E+02  0.20000003319E+02 0.  0.
        -12    1    1    2    0    0  0.14017931844E+01 -0.29693225255E+02 -0.31622311119E+02  0.43400728228E+02  0.00000000000E+00 0.  1.
         11    1    3    3    0    0 -0.59344546987E+01  0.97367254519E+01  0.65908211415E+01  0.13170440337E+02  0.51100000000E-03 0. -1.
        -11    1    3    3    0    0  0.30674901903E+01  0.18410549760E+02  0.26214742034E+02  0.32180281831E+02  0.51100000000E-03 0.  1.
        -12    1    3    3    0    0  0.14651713240E+01  0.15459500430E+01 -0.11832520568E+01  0.24365496043E+01  0.00000000000E+00 0.  1.
</event>
<event>
 7    1  0.2983653E-010  0.4778727E+02  0.7816164E-02  0.1312668E+00
        -11   -1    0    0    0    0  0.00000000000E+00  0.00000000000E+00  0.45593999997E+02  0.45594000000E+02  0.51100000000E-03 0. -1.
         11   -1    0    0    0    0 -0.00000000000E+00 -0.00000000000E+00 -0.45593999997E+02  0.45594000000E+02  0.51100000000E-03 0.  1.
    9900012    2    1    2    0    0 -0.14480983672E+02  0.11740751172E+02  0.39192848140E+02  0.47787268767E+02  0.19999989616E+02 0.  0.
        -12    1    1    2    0    0  0.14480983672E+02 -0.11740751172E+02 -0.39192848140E+02  0.43400731233E+02  0.00000000000E+00 0.  1.
         11    1    3    3    0    0 -0.16516358997E+02  0.69308228436E+01  0.22127248766E+02  0.28468255268E+02  0.51100000000E-03 0. -1.
        -11    1    3    3    0    0 -0.22833170493E+01 -0.32791889376E+00  0.36439548909E+01  0.43127108710E+01  0.51100000000E-03 0.  1.
         12    1    3    3    0    0  0.43186923742E+01  0.51378472224E+01  0.13421644484E+02  0.15006302628E+02  0.00000000000E+00 0. -1.
</event>
<event>
 7    1  0.2983653E-010  0.4778726E+02  0.7816164E-02  0.1312668E+00
        -11   -1    0    0    0    0  0.00000000000E+00  0.00000000000E+00  0.45593999997E+02  0.45594000000E+02  0.51100000000E-03 0.  1.
         11   -1    0    0    0    0 -0.00000000000E+00 -0.00000000000E+00 -0.45593999997E+02  0.45594000000E+02  0.51100000000E-03 0. -1.
    9900012    2    1    2    0    0  0.34946369554E+02  0.13517501194E+02 -0.21900968555E+02  0.47787262596E+02  0.19999961481E+02 0.  0.
        -12    1    1    2    0    0 -0.34946369554E+02 -0.13517501194E+02  0.21900968555E+02  0.43400737404E+02  0.00000000000E+00 0.  1.
         11    1    3    3    0    0  0.13299181318E+02  0.98618075631E+01 -0.15395473692E+02  0.22608495806E+02  0.51100000000E-03 0. -1.
        -11    1    3    3    0    0  0.82860975624E+00 -0.12493850836E+01  0.17032169323E+01  0.22690318188E+01  0.51100000000E-03 0.  1.
         12    1    3    3    0    0  0.20818578480E+02  0.49050787146E+01 -0.82087117954E+01  0.22909734972E+02  0.00000000000E+00 0. -1.
</event>
<event>
 7    1  0.2983653E-010  0.4778727E+02  0.7816164E-02  0.1312668E+00
        -11   -1    0    0    0    0  0.00000000000E+00  0.00000000000E+00  0.45593999997E+02  0.45594000000E+02  0.51100000000E-03 0.  1.
         11   -1    0    0    0    0 -0.00000000000E+00 -0.00000000000E+00 -0.45593999997E+02  0.45594000000E+02  0.51100000000E-03 0. -1.
    9900012    2    1    2    0    0 -0.20437021703E+02  0.32227126700E+02 -0.20672776064E+02  0.47787271646E+02  0.20000002742E+02 0.  0.
        -12    1    1    2    0    0  0.20437021703E+02 -0.32227126700E+02  0.20672776064E+02  0.43400728354E+02  0.00000000000E+00 0.  1.
         11    1    3    3    0    0 -0.30933881901E+01  0.88687543287E+01  0.33803261920E+01  0.99825076640E+01  0.51100000000E-03 0. -1.
        -11    1    3    3    0    0 -0.91152410389E+01  0.13615785210E+02 -0.14347286900E+02  0.21778931740E+02  0.51100000000E-03 0.  1.
         12    1    3    3    0    0 -0.82283924744E+01  0.97425871614E+01 -0.97058153559E+01  0.16025832241E+02  0.00000000000E+00 0. -1.
</event>
<event>
 7    1  0.2983653E-010  0.4778727E+02  0.7816164E-02  0.1312668E+00
        -11   -1    0    0    0    0  0.00000000000E+00  0.00000000000E+00  0.45593999997E+02  0.45594000000E+02  0.51100000000E-03 0. -1.
         11   -1    0    0    0    0 -0.00000000000E+00 -0.00000000000E+00 -0.45593999997E+02  0.45594000000E+02  0.51100000000E-03 0.  1.
    9900012    2    1    2    0    0  0.16151641240E+02  0.24843243848E+01  0.40206665620E+02  0.47787270251E+02  0.19999996384E+02 0.  0.
        -12    1    1    2    0    0 -0.16151641240E+02 -0.24843243848E+01 -0.40206665620E+02  0.43400729749E+02  0.00000000000E+00 0.  1.
         11    1    3    3    0    0  0.44390888205E+01  0.43498297687E+01  0.29589300338E+02  0.30234966898E+02  0.51100000000E-03 0. -1.
        -11    1    3    3    0    0  0.10270236190E+02 -0.30828095001E+01  0.54037378418E+01  0.12007574640E+02  0.51100000000E-03 0.  1.
        -12    1    3    3    0    0  0.14423162302E+01  0.12173041162E+01  0.52136274408E+01  0.55447287139E+01  0.00000000000E+00 0.  1.
</event>
<event>
 7    1  0.2983653E-010  0.4778727E+02  0.7816164E-02  0.1312668E+00
        -11   -1    0    0    0    0  0.00000000000E+00  0.00000000000E+00  0.45593999997E+02  0.45594000000E+02  0.51100000000E-03 0.  1.
         11   -1    0    0    0    0 -0.00000000000E+00 -0.00000000000E+00 -0.45593999997E+02  0.45594000000E+02  0.51100000000E-03 0. -1.
    9900012    2    1    2    0    0  0.13390490375E+02 -0.88477079939E+01 -0.40324143395E+02  0.47787266022E+02  0.19999977102E+02 0.  0.
        -12    1    1    2    0    0 -0.13390490375E+02  0.88477079939E+01  0.40324143395E+02  0.43400733978E+02  0.00000000000E+00 0.  1.
         11    1    3    3    0    0  0.42265879278E+00  0.73792760362E+00 -0.72486438341E+01  0.72983570273E+01  0.51100000000E-03 0. -1.
        -11    1    3    3    0    0 -0.17657184041E+01 -0.34125542278E+00  0.11237576626E+01  0.21206245051E+01  0.51100000000E-03 0.  1.
        -12    1    3    3    0    0  0.14733549987E+02 -0.92443801748E+01 -0.34199257224E+02  0.38368284490E+02  0.00000000000E+00 0.  1.
</event>
<event>
 7    1  0.2983653E-010  0.4778727E+02  0.7816164E-02  0.1312668E+00
        -11   -1    0    0    0    0  0.00000000000E+00  0.00000000000E+00  0.45593999997E+02  0.45594000000E+02  0.51100000000E-03 0. -1.
         11   -1    0    0    0    0 -0.00000000000E+00 -0.00000000000E+00 -0.45593999997E+02  0.45594000000E+02  0.51100000000E-03 0.  1.
    9900012    2    1    2    0    0  0.27516425388E+02  0.13554986549E+02  0.30703944060E+02  0.47787268355E+02  0.19999987737E+02 0.  0.
        -12    1    1    2    0    0 -0.27516425388E+02 -0.13554986549E+02 -0.30703944060E+02  0.43400731645E+02  0.00000000000E+00 0.  1.
         11    1    3    3    0    0  0.16918794239E+02  0.31975932566E+01  0.63427078092E+01  0.18349390828E+02  0.51100000000E-03 0. -1.
        -11    1    3    3    0    0  0.55594556863E+01  0.98954567775E+01  0.15169384385E+02  0.18945654786E+02  0.51100000000E-03 0.  1.
        -12    1    3    3    0    0  0.50381754626E+01  0.46193651481E+00  0.91918518659E+01  0.10492222742E+02  0.00000000000E+00 0.  1.
</event>
<event>
 7    1  0.3051874E-010  0.4778731E+02  0.7816164E-02  0.1312668E+00
        -11   -1    0    0    0    0  0.00000000000E+00  0.00000000000E+00  0.45593999997E+02  0.45594000000E+02  0.51100000000E-03 0.  1.
         11   -1    0    0    0    0 -0.00000000000E+00 -0.00000000000E+00 -0.45593999997E+02  0.45594000000E+02  0.51100000000E-03 0. -1.
    9900012    2    1    2    0    0  0.36094437302E+02 -0.14262237206E+00 -0.24099602499E+02  0.47787313532E+02  0.20000193716E+02 0.  0.
        -12    1    1    2    0    0 -0.36094437302E+02  0.14262237206E+00  0.24099602499E+02  0.43400686468E+02  0.00000000000E+00 0.  1.
         11    1    3    3    0    0  0.21036866676E+02 -0.19260454482E+01 -0.22035844703E+02  0.30526019436E+02  0.51100000000E-03 0.  1.
        -11    1    3    3    0    0  0.11954495025E+02 -0.20226012014E+01 -0.60910584836E+00  0.12139681920E+02  0.51100000000E-03 0. -1.
        -12    1    3    3    0    0  0.31030756012E+01  0.38060242775E+01 -0.14546519482E+01  0.51216121757E+01  0.00000000000E+00 0.  1.
</event>
<event>
 7    1  0.2983653E-010  0.4778723E+02  0.7816164E-02  0.1312668E+00
        -11   -1    0    0    0    0  0.00000000000E+00  0.00000000000E+00  0.45593999997E+02  0.45594000000E+02  0.51100000000E-03 0. -1.
         11   -1    0    0    0    0 -0.00000000000E+00 -0.00000000000E+00 -0.45593999997E+02  0.45594000000E+02  0.51100000000E-03 0.  1.
    9900012    2    1    2    0    0 -0.27922651839E+02 -0.36064065816E+01  0.33029469792E+02  0.47787233545E+02  0.19999829024E+02 0.  0.
        -12    1    1    2    0    0  0.27922651839E+02  0.36064065816E+01 -0.33029469792E+02  0.43400766455E+02  0.00000000000E+00 0.  1.
         11    1    3    3    0    0 -0.42477217277E+01  0.13508180015E+01  0.17701929092E+02  0.18254482819E+02  0.51100000000E-03 0. -1.
        -11    1    3    3    0    0 -0.14844946315E+02 -0.61572705644E+01  0.77824293911E+01  0.17856388755E+02  0.51100000000E-03 0.  1.
        -12    1    3    3    0    0 -0.88299837965E+01  0.12000459814E+01  0.75451113090E+01  0.11676361971E+02  0.00000000000E+00 0.  1.
</event>
<event>
 7    1  0.2983653E-010  0.4778727E+02  0.7816164E-02  0.1312668E+00
        -11   -1    0    0    0    0  0.00000000000E+00  0.00000000000E+00  0.45593999997E+02  0.45594000000E+02  0.51100000000E-03 0.  1.
         11   -1    0    0    0    0 -0.00000000000E+00 -0.00000000000E+00 -0.45593999997E+02  0.45594000000E+02  0.51100000000E-03 0. -1.
    9900012    2    1    2    0    0  0.36374004727E+02  0.21262067345E+02 -0.10415354036E+02  0.47787270429E+02  0.19999997193E+02 0.  0.
        -12    1    1    2    0    0 -0.36374004727E+02 -0.21262067345E+02  0.10415354036E+02  0.43400729571E+02  0.00000000000E+00 0.  1.
         11    1    3    3    0    0  0.23020220986E+02  0.63155832348E+01 -0.81176092485E+01  0.25213344602E+02  0.51100000000E-03 0. -1.
        -11    1    3    3    0    0 -0.15187612574E+01  0.33951024511E+00 -0.56649535604E+00  0.16561461931E+01  0.51100000000E-03 0.  1.
         12    1    3    3    0    0  0.14872544998E+02  0.14606973865E+02 -0.17312494312E+01  0.20917779634E+02  0.00000000000E+00 0. -1.
</event>
<event>
 7    1  0.2983653E-010  0.4778728E+02  0.7816164E-02  0.1312668E+00
        -11   -1    0    0    0    0  0.00000000000E+00  0.00000000000E+00  0.45593999997E+02  0.45594000000E+02  0.51100000000E-03 0.  1.
         11   -1    0    0    0    0 -0.00000000000E+00 -0.00000000000E+00 -0.45593999997E+02  0.45594000000E+02  0.51100000000E-03 0. -1.
    9900012    2    1    2    0    0  0.34383705423E+02  0.11586402344E+02 -0.23814679492E+02  0.47787275614E+02  0.20000020834E+02 0.  0.
        -12    1    1    2    0    0 -0.34383705423E+02 -0.11586402344E+02  0.23814679492E+02  0.43400724386E+02  0.00000000000E+00 0.  1.
         11    1    3    3    0    0  0.10580230386E+02 -0.28751734738E+01 -0.12450287699E+02  0.16589682383E+02  0.51100000000E-03 0. -1.
        -11    1    3    3    0    0  0.15633562877E+02  0.12379268491E+02 -0.47960680978E+01  0.20509920674E+02  0.51100000000E-03 0.  1.
        -12    1    3    3    0    0  0.81699121602E+01  0.20823073268E+01 -0.65683236951E+01  0.10687672556E+02  0.00000000000E+00 0.  1.
</event>
<event>
 7    1  0.2983653E-010  0.4778727E+02  0.7816164E-02  0.1312668E+00
        -11   -1    0    0    0    0  0.00000000000E+00  0.00000000000E+00  0.45593999997E+02  0.45594000000E+02  0.51100000000E-03 0.  1.
         11   -1    0    0    0    0 -0.00000000000E+00 -0.00000000000E+00 -0.45593999997E+02  0.45594000000E+02  0.51100000000E-03 0. -1.
    9900012    2    1    2    0    0  0.58552978069E+01  0.34336339334E+02 -0.25891209222E+02  0.47787269289E+02  0.19999991996E+02 0.  0.
        -12    1    1    2    0    0 -0.58552978069E+01 -0.34336339334E+02  0.25891209222E+02  0.43400730711E+02  0.00000000000E+00 0.  1.
         11    1    3    3    0    0  0.10130509230E+01  0.56526120438E+01 -0.14169734786E+02  0.15289201394E+02  0.51100000000E-03 0. -1.
        -11    1    3    3    0    0  0.79232734936E+00  0.10764131622E+02 -0.16596303658E+00  0.10794528994E+02  0.51100000000E-03 0.  1.
         12    1    3    3    0    0  0.40499195345E+01  0.17919595668E+02 -0.11555511400E+02  0.21703538901E+02  0.00000000000E+00 0. -1.
</event>
<event>
 7    1  0.2983653E-010  0.4778727E+02  0.7816164E-02  0.1312668E+00
        -11   -1    0    0    0    0  0.00000000000E+00  0.00000000000E+00  0.45593999997E+02  0.45594000000E+02  0.51100000000E-03 0. -1.
         11   -1    0    0    0    0 -0.00000000000E+00 -0.00000000000E+00 -0.45593999997E+02  0.45594000000E+02  0.51100000000E-03 0.  1.
    9900012    2    1    2    0    0 -0.29963732105E+02  0.28453683037E+02  0.13273508107E+02  0.47787270312E+02  0.19999996660E+02 0.  0.
        -12    1    1    2    0    0  0.29963732105E+02 -0.28453683037E+02 -0.13273508107E+02  0.43400729688E+02  0.00000000000E+00 0.  1.
         11    1    3    3    0    0 -0.12255052190E+02  0.50315772173E+01 -0.26467031957E+01  0.13509556304E+02  0.51100000000E-03 0. -1.
        -11    1    3    3    0    0 -0.22924075273E+01  0.66010496456E+01  0.11092935661E+01  0.70752753424E+01  0.51100000000E-03 0.  1.
         12    1    3    3    0    0 -0.15416272387E+02  0.16821056174E+02  0.14810917736E+02  0.27202438665E+02  0.00000000000E+00 0. -1.
</event>
<event>
 7    1  0.2983653E-010  0.4778727E+02  0.7816164E-02  0.1312668E+00
        -11   -1    0    0    0    0  0.00000000000E+00  0.00000000000E+00  0.45593999997E+02  0.45594000000E+02  0.51100000000E-03 0.  1.
         11   -1    0    0    0    0 -0.00000000000E+00 -0.00000000000E+00 -0.45593999997E+02  0.45594000000E+02  0.51100000000E-03 0. -1.
    9900012    2    1    2    0    0  0.11628763524E+02 -0.12244341559E+02 -0.39980884102E+02  0.47787272646E+02  0.20000007301E+02 0.  0.
        -12    1    1    2    0    0 -0.11628763524E+02  0.12244341559E+02  0.39980884102E+02  0.43400727354E+02  0.00000000000E+00 0.  1.
         11    1    3    3    0    0  0.43919829120E+01 -0.32910430655E+01 -0.20931751763E+01  0.58738284736E+01  0.51100000000E-03 0. -1.
        -11    1    3    3    0    0  0.33128922745E+01 -0.11226519741E+02 -0.33937686432E+02  0.35899534277E+02  0.51100000000E-03 0.  1.
        -12    1    3    3    0    0  0.39238883372E+01  0.22732212474E+01 -0.39500224935E+01  0.60139098947E+01  0.00000000000E+00 0.  1.
</event>
<event>
 7    1  0.2983653E-010  0.4778730E+02  0.7816164E-02  0.1312668E+00
        -11   -1    0    0    0    0  0.00000000000E+00  0.00000000000E+00  0.45593999997E+02  0.45594000000E+02  0.51100000000E-03 0.  1.
         11   -1    0    0    0    0 -0.00000000000E+00 -0.00000000000E+00 -0.45593999997E+02  0.45594000000E+02  0.51100000000E-03 0. -1.
    9900012    2    1    2    0    0  0.20376717295E+02  0.30197911951E+02 -0.23590173208E+02  0.47787299937E+02  0.20000131733E+02 0.  0.
        -12    1    1    2    0    0 -0.20376717295E+02 -0.30197911951E+02  0.23590173208E+02  0.43400700063E+02  0.00000000000E+00 0.  1.
         11    1    3    3    0    0  0.94736766394E+01  0.15708051001E+01 -0.64700203308E+01  0.11579254772E+02  0.51100000000E-03 0.  1.
        -11    1    3    3    0    0  0.10457375780E+02  0.21569532538E+02 -0.94253441594E+01  0.25757301002E+02  0.51100000000E-03 0. -1.
        -12    1    3    3    0    0  0.44566487640E+00  0.70575743128E+01 -0.76948087177E+01  0.10450744163E+02  0.00000000000E+00 0.  1.
</event>
<event>
 7    1  0.2983653E-010  0.4778728E+02  0.7816164E-02  0.1312668E+00
        -11   -1    0    0    0    0  0.00000000000E+00  0.00000000000E+00  0.45593999997E+02  0.45594000000E+02  0.51100000000E-03 0. -1.
         11   -1    0    0    0    0 -0.00000000000E+00 -0.00000000000E+00 -0.45593999997E+02  0.45594000000E+02  0.51100000000E-03 0.  1.
    9900012    2    1    2    0    0 -0.14343690529E+02  0.14145608896E+02  0.38441944488E+02  0.47787276445E+02  0.20000024625E+02 0.  0.
        -12    1    1    2    0    0  0.14343690529E+02 -0.14145608896E+02 -0.38441944488E+02  0.43400723555E+02  0.00000000000E+00 0.  1.
         11    1    3    3    0    0 -0.52478901252E+01  0.50071041829E+01  0.27179987396E+02  0.28131177689E+02  0.51100000000E-03 0. -1.
        -11    1    3    3    0    0 -0.56692717155E-01  0.34320996926E+00 -0.16029811538E+01  0.16402914338E+01  0.51100000000E-03 0.  1.
         12    1    3    3    0    0 -0.90391076871E+01  0.87952947442E+01  0.12864938246E+02  0.18015807323E+02  0.00000000000E+00 0. -1.
</event>
<event>
 7    1  0.2983653E-010  0.4778727E+02  0.7816164E-02  0.1312668E+00
        -11   -1    0    0    0    0  0.00000000000E+00  0.00000000000E+00  0.45593999997E+02  0.45594000000E+02  0.51100000000E-03 0.  1.
         11   -1    0    0    0    0 -0.00000000000E+00 -0.00000000000E+00 -0.45593999997E+02  0.45594000000E+02  0.51100000000E-03 0. -1.
    9900012    2    1    2    0    0  0.30822189060E+02 -0.15644076546E+02 -0.26246498326E+02  0.47787272543E+02  0.20000006832E+02 0.  0.
        -12    1    1    2    0    0 -0.30822189060E+02  0.15644076546E+02  0.26246498326E+02  0.43400727457E+02  0.00000000000E+00 0.  1.
         11    1    3    3    0    0  0.75025397539E+01  0.12565602837E-01 -0.90761223504E+01  0.11775578875E+02  0.51100000000E-03 0. -1.
        -11    1    3    3    0    0  0.20666085638E+02 -0.14020243871E+02 -0.78408267632E+01  0.26175043427E+02  0.51100000000E-03 0.  1.
        -12    1    3    3    0    0  0.26535636683E+01 -0.16363982779E+01 -0.93295492126E+01  0.98366502416E+01  0.00000000000E+00 0.  1.
</event>
<event>
 7    1  0.2983653E-010  0.4778727E+02  0.7816164E-02  0.1312668E+00
        -11   -1    0    0    0    0  0.00000000000E+00  0.00000000000E+00  0.45593999997E+02  0.45594000000E+02  0.51100000000E-03 0.  1.
         11   -1    0    0    0    0 -0.00000000000E+00 -0.00000000000E+00 -0.45593999997E+02  0.45594000000E+02  0.51100000000E-03 0. -1.
    9900012    2    1    2    0    0 -0.32029431509E+02  0.28942334384E+02 -0.44811197603E+01  0.47787266865E+02  0.19999980944E+02 0.  0.
        -12    1    1    2    0    0  0.32029431509E+02 -0.28942334384E+02  0.44811197603E+01  0.43400733135E+02  0.00000000000E+00 0.  1.
         11    1    3    3    0    0 -0.14901300611E+02  0.15173000273E+02 -0.22561139116E+01  0.21385947429E+02  0.51100000000E-03 0. -1.
        -11    1    3    3    0    0 -0.18282300835E+02  0.76753608714E+01 -0.48362973179E-01  0.19828162486E+02  0.51100000000E-03 0.  1.
        -12    1    3    3    0    0  0.11541699376E+01  0.60939732388E+01 -0.21766428755E+01  0.65731569499E+01  0.00000000000E+00 0.  1.
</event>
<event>
 7    1  0.2983653E-010  0.4778727E+02  0.7816164E-02  0.1312668E+00
        -11   -1    0    0    0    0  0.00000000000E+00  0.00000000000E+00  0.45593999997E+02  0.45594000000E+02  0.51100000000E-03 0. -1.
         11   -1    0    0    0    0 -0.00000000000E+00 -0.00000000000E+00 -0.45593999997E+02  0.45594000000E+02  0.51100000000E-03 0.  1.
    9900012    2    1    2    0    0 -0.26188963998E+02  0.34405212037E+02 -0.37473603335E+01  0.47787272355E+02  0.20000005977E+02 0.  0.
        -12    1    1    2    0    0  0.26188963998E+02 -0.34405212037E+02  0.37473603335E+01  0.43400727645E+02  0.00000000000E+00 0.  1.
         11    1    3    3    0    0 -0.11533352768E+01  0.70848094112E+01  0.99055955433E+00  0.72460965455E+01  0.51100000000E-03 0. -1.
        -11    1    3    3    0    0 -0.60416148891E-01 -0.16410875794E+01 -0.13907008971E+01  0.21519451203E+01  0.51100000000E-03 0.  1.
        -12    1    3    3    0    0 -0.24975212573E+02  0.28961490205E+02 -0.33472189908E+01  0.38389230690E+02  0.00000000000E+00 0.  1.
</event>
<event>
 7    1  0.2983653E-010  0.4778725E+02  0.7816164E-02  0.1312668E+00
        -11   -1    0    0    0    0  0.00000000000E+00  0.00000000000E+00  0.45593999997E+02  0.45594000000E+02  0.51100000000E-03 0.  1.
         11   -1    0    0    0    0 -0.00000000000E+00 -0.00000000000E+00 -0.45593999997E+02  0.45594000000E+02  0.51100000000E-03 0. -1.
    9900012    2    1    2    0    0  0.25468972155E+02  0.22787903296E+02 -0.26751978012E+02  0.47787246472E+02  0.19999887966E+02 0.  0.
        -12    1    1    2    0    0 -0.25468972155E+02 -0.22787903296E+02  0.26751978012E+02  0.43400753528E+02  0.00000000000E+00 0.  1.
         11    1    3    3    0    0  0.13627770682E+02  0.10083698123E+01 -0.11594516830E+02  0.17921098298E+02  0.51100000000E-03 0. -1.
        -11    1    3    3    0    0  0.94918947715E+01  0.17243147164E+02 -0.15013751436E+02  0.24755502882E+02  0.51100000000E-03 0.  1.
         12    1    3    3    0    0  0.23493067011E+01  0.45363863191E+01 -0.14370974538E+00  0.51106452922E+01  0.00000000000E+00 0. -1.
</event>
<event>
 7    1  0.2983653E-010  0.4778727E+02  0.7816164E-02  0.1312668E+00
        -11   -1    0    0    0    0  0.00000000000E+00  0.00000000000E+00  0.45593999997E+02  0.45594000000E+02  0.51100000000E-03 0.  1.
         11   -1    0    0    0    0 -0.00000000000E+00 -0.00000000000E+00 -0.45593999997E+02  0.45594000000E+02  0.51100000000E-03 0. -1.
    9900012    2    1    2    0    0 -0.42038198407E+02 -0.95975198233E+01 -0.49296131392E+01  0.47787267313E+02  0.19999982987E+02 0.  0.
        -12    1    1    2    0    0  0.42038198407E+02  0.95975198233E+01  0.49296131392E+01  0.43400732687E+02  0.00000000000E+00 0.  1.
         11    1    3    3    0    0 -0.12192697990E+02 -0.48388865885E+01  0.18509335792E+00  0.13119106963E+02  0.51100000000E-03 0. -1.
        -11    1    3    3    0    0 -0.23203966616E+02  0.40419780066E+00  0.24738294439E+01  0.23338964736E+02  0.51100000000E-03 0.  1.
        -12    1    3    3    0    0 -0.66415338005E+01 -0.51628310355E+01 -0.75885359410E+01  0.11329195614E+02  0.00000000000E+00 0.  1.
</event>
<event>
 7    1  0.2983653E-010  0.4778727E+02  0.7816164E-02  0.1312668E+00
        -11   -1    0    0    0    0  0.00000000000E+00  0.00000000000E+00  0.45593999997E+02  0.45594000000E+02  0.51100000000E-03 0.  1.
         11   -1    0    0    0    0 -0.00000000000E+00 -0.00000000000E+00 -0.45593999997E+02  0.45594000000E+02  0.51100000000E-03 0. -1.
    9900012    2    1    2    0    0  0.35919447018E+02  0.18993846256E+02 -0.15252880188E+02  0.47787271622E+02  0.20000002634E+02 0.  0.
        -12    1    1    2    0    0 -0.35919447018E+02 -0.18993846256E+02  0.15252880188E+02  0.43400728378E+02  0.00000000000E+00 0.  1.
         11    1    3    3    0    0  0.17485335161E+02 -0.20541520167E-01 -0.50261926541E+01  0.18193404863E+02  0.51100000000E-03 0. -1.
        -11    1    3    3    0    0  0.42488704145E+01  0.12225119985E+01  0.47807564345E+00  0.44470205719E+01  0.51100000000E-03 0.  1.
         12    1    3    3    0    0  0.14185241443E+02  0.17791875778E+02 -0.10704763177E+02  0.25146846187E+02  0.00000000000E+00 0. -1.
</event>
<event>
 7    1  0.2983653E-010  0.4778727E+02  0.7816164E-02  0.1312668E+00
        -11   -1    0    0    0    0  0.00000000000E+00  0.00000000000E+00  0.45593999997E+02  0.45594000000E+02  0.51100000000E-03 0. -1.
         11   -1    0    0    0    0 -0.00000000000E+00 -0.00000000000E+00 -0.45593999997E+02  0.45594000000E+02  0.51100000000E-03 0.  1.
    9900012    2    1    2    0    0 -0.41915932393E+02  0.11246579043E+02 -0.43879063746E+00  0.47787268834E+02  0.19999989920E+02 0.  0.
        -12    1    1    2    0    0  0.41915932393E+02 -0.11246579043E+02  0.43879063746E+00  0.43400731166E+02  0.00000000000E+00 0.  1.
         11    1    3    3    0    0 -0.14991577661E+02  0.51493646480E+01  0.67379448456E+01  0.17223915294E+02  0.51100000000E-03 0. -1.
        -11    1    3    3    0    0 -0.52187596983E+01  0.52758634998E+01 -0.44979683647E+01  0.86776672054E+01  0.51100000000E-03 0.  1.
         12    1    3    3    0    0 -0.21705595034E+02  0.82135089546E+00 -0.26787671184E+01  0.21885686334E+02  0.00000000000E+00 0. -1.
</event>
<event>
 7    1  0.2983653E-010  0.4778727E+02  0.7816164E-02  0.1312668E+00
        -11   -1    0    0    0    0  0.00000000000E+00  0.00000000000E+00  0.45593999997E+02  0.45594000000E+02  0.51100000000E-03 0.  1.
         11   -1    0    0    0    0 -0.00000000000E+00 -0.00000000000E+00 -0.45593999997E+02  0.45594000000E+02  0.51100000000E-03 0. -1.
    9900012    2    1    2    0    0 -0.15732912236E+02 -0.13775569960E+02 -0.38030679280E+02  0.47787269342E+02  0.19999992236E+02 0.  0.
        -12    1    1    2    0    0  0.15732912236E+02  0.13775569960E+02  0.38030679280E+02  0.43400730658E+02  0.00000000000E+00 0.  1.
         11    1    3    3    0    0 -0.91826827606E+01 -0.50895226089E+01 -0.10110512705E+02  0.14575574448E+02  0.51100000000E-03 0. -1.
        -11    1    3    3    0    0  0.10737239556E+01 -0.10137718256E+02 -0.16799239768E+02  0.19650462376E+02  0.51100000000E-03 0.  1.
        -12    1    3    3    0    0 -0.76239534311E+01  0.14516709044E+01 -0.11120926808E+02  0.13561232518E+02  0.00000000000E+00 0.  1.
</event>
<event>
 7    1  0.2983653E-010  0.4778726E+02  0.7816164E-02  0.1312668E+00
        -11   -1    0    0    0    0  0.00000000000E+00  0.00000000000E+00  0.45593999997E+02  0.45594000000E+02  0.51100000000E-03 0.  1.
         11   -1    0    0    0    0 -0.00000000000E+00 -0.00000000000E+00 -0.45593999997E+02  0.45594000000E+02  0.51100000000E-03 0. -1.
    9900012    2    1    2    0    0 -0.15934358023E+02 -0.40188402943E+02 -0.38226546219E+01  0.47787260547E+02  0.19999952137E+02 0.  0.
        -12    1    1    2    0    0  0.15934358023E+02  0.40188402943E+02  0.38226546219E+01  0.43400739453E+02  0.00000000000E+00 0.  1.
         11    1    3    3    0    0 -0.82383346467E+01 -0.34673995244E+02  0.94741772657E+00  0.35651840128E+02  0.51100000000E-03 0. -1.
        -11    1    3    3    0    0 -0.74612345851E+01 -0.64877927786E+01 -0.50406825761E+01  0.11098196149E+02  0.51100000000E-03 0.  1.
        -12    1    3    3    0    0 -0.23478879086E+00  0.97338507948E+00  0.27061022762E+00  0.10372242692E+01  0.00000000000E+00 0.  1.
</event>
<event>
 7    1  0.2983653E-010  0.4778726E+02  0.7816164E-02  0.1312668E+00
        -11   -1    0    0    0    0  0.00000000000E+00  0.00000000000E+00  0.45593999997E+02  0.45594000000E+02  0.51100000000E-03 0.  1.
         11   -1    0    0    0    0 -0.00000000000E+00 -0.00000000000E+00 -0.45593999997E+02  0.45594000000E+02  0.51100000000E-03 0. -1.
    9900012    2    1    2    0    0  0.21060896325E+02 -0.14829080562E+02 -0.34930800858E+02  0.47787264604E+02  0.19999970636E+02 0.  0.
        -12    1    1    2    0    0 -0.21060896325E+02  0.14829080562E+02  0.34930800858E+02  0.43400735396E+02  0.00000000000E+00 0.  1.
         11    1    3    3    0    0  0.98949155503E+01 -0.93192771231E+01 -0.10591103659E+02  0.17231649857E+02  0.51100000000E-03 0.  1.
        -11    1    3    3    0    0  0.98915691645E+01  0.25279170021E+01 -0.11764509966E+02  0.15576816103E+02  0.51100000000E-03 0. -1.
        -12    1    3    3    0    0  0.12744116099E+01 -0.80377204411E+01 -0.12575187234E+02  0.14978798643E+02  0.00000000000E+00 0.  1.
</event>
<event>
 7    1  0.2983653E-010  0.4778727E+02  0.7816164E-02  0.1312668E+00
        -11   -1    0    0    0    0  0.00000000000E+00  0.00000000000E+00  0.45593999997E+02  0.45594000000E+02  0.51100000000E-03 0.  1.
         11   -1    0    0    0    0 -0.00000000000E+00 -0.00000000000E+00 -0.45593999997E+02  0.45594000000E+02  0.51100000000E-03 0. -1.
    9900012    2    1    2    0    0  0.34324143557E+02  0.17528959378E+02 -0.19955251325E+02  0.47787270707E+02  0.19999998459E+02 0.  0.
        -12    1    1    2    0    0 -0.34324143557E+02 -0.17528959378E+02  0.19955251325E+02  0.43400729293E+02  0.00000000000E+00 0.  1.
         11    1    3    3    0    0  0.78673361743E+01  0.83133703244E+01 -0.12970993642E+02  0.17298953175E+02  0.51100000000E-03 0. -1.
        -11    1    3    3    0    0  0.25068003638E+02  0.99433392452E+01 -0.85316559767E+01  0.28285401813E+02  0.51100000000E-03 0.  1.
        -12    1    3    3    0    0  0.13888037441E+01 -0.72775019177E+00  0.15473982941E+01  0.22029157183E+01  0.00000000000E+00 0.  1.
</event>
<event>
 7    1  0.2983653E-010  0.4778727E+02  0.7816164E-02  0.1312668E+00
        -11   -1    0    0    0    0  0.00000000000E+00  0.00000000000E+00  0.45593999997E+02  0.45594000000E+02  0.51100000000E-03 0. -1.
         11   -1    0    0    0    0 -0.00000000000E+00 -0.00000000000E+00 -0.45593999997E+02  0.45594000000E+02  0.51100000000E-03 0.  1.
    9900012    2    1    2    0    0 -0.16228465592E+02 -0.38128233610E+02 -0.12903413860E+02  0.47787269788E+02  0.19999994272E+02 0.  0.
        -12    1    1    2    0    0  0.16228465592E+02  0.38128233610E+02  0.12903413860E+02  0.43400730212E+02  0.00000000000E+00 0.  1.
         11    1    3    3    0    0 -0.85608511167E+00 -0.25083525641E+02 -0.11270781753E+02  0.27512663664E+02  0.51100000000E-03 0. -1.
        -11    1    3    3    0    0 -0.81317970268E+01 -0.63722195764E+01 -0.14010919010E+01  0.10425658924E+02  0.51100000000E-03 0.  1.
         12    1    3    3    0    0 -0.72405834535E+01 -0.66724883924E+01 -0.23154020596E+00  0.98489472006E+01  0.00000000000E+00 0. -1.
</event>
<event>
 7    1  0.2983653E-010  0.4778727E+02  0.7816164E-02  0.1312668E+00
        -11   -1    0    0    0    0  0.00000000000E+00  0.00000000000E+00  0.45593999997E+02  0.45594000000E+02  0.51100000000E-03 0.  1.
         11   -1    0    0    0    0 -0.00000000000E+00 -0.00000000000E+00 -0.45593999997E+02  0.45594000000E+02  0.51100000000E-03 0. -1.
    9900012    2    1    2    0    0 -0.38386948215E+02 -0.97650920974E+01 -0.17740026414E+02  0.47787270121E+02  0.19999995788E+02 0.  0.
        -12    1    1    2    0    0  0.38386948215E+02  0.97650920974E+01  0.17740026414E+02  0.43400729879E+02  0.00000000000E+00 0.  1.
         11    1    3    3    0    0 -0.77773700032E+01 -0.33223214644E+01 -0.13648924019E+02  0.16056725420E+02  0.51100000000E-03 0. -1.
        -11    1    3    3    0    0 -0.14212115091E+02 -0.13058980448E+01 -0.14490632766E+01  0.14345360564E+02  0.51100000000E-03 0.  1.
         12    1    3    3    0    0 -0.16397463120E+02 -0.51368725882E+01 -0.26420391187E+01  0.17385184137E+02  0.00000000000E+00 0. -1.
</event>
<event>
 7    1  0.2983653E-010  0.4778727E+02  0.7816164E-02  0.1312668E+00
        -11   -1    0    0    0    0  0.00000000000E+00  0.00000000000E+00  0.45593999997E+02  0.45594000000E+02  0.51100000000E-03 0. -1.
         11   -1    0    0    0    0 -0.00000000000E+00 -0.00000000000E+00 -0.45593999997E+02  0.45594000000E+02  0.51100000000E-03 0.  1.
    9900012    2    1    2    0    0  0.29680796175E+02  0.73425458334E+01  0.30801960571E+02  0.47787269408E+02  0.19999992539E+02 0.  0.
        -12    1    1    2    0    0 -0.29680796175E+02 -0.73425458334E+01 -0.30801960571E+02  0.43400730592E+02  0.00000000000E+00 0.  1.
         11    1    3    3    0    0  0.72530802641E+01 -0.14992733189E+01  0.15107399970E+02  0.16825234854E+02  0.51100000000E-03 0. -1.
        -11    1    3    3    0    0  0.66073149624E+01  0.50233713408E+01 -0.75169113948E-01  0.83003928399E+01  0.51100000000E-03 0.  1.
        -12    1    3    3    0    0  0.15820400949E+02  0.38184478115E+01  0.15769729715E+02  0.22661641714E+02  0.00000000000E+00 0.  1.
</event>
<event>
 7    1  0.2983653E-010  0.4778727E+02  0.7816164E-02  0.1312668E+00
        -11   -1    0    0    0    0  0.00000000000E+00  0.00000000000E+00  0.45593999997E+02  0.45594000000E+02  0.51100000000E-03 0.  1.
         11   -1    0    0    0    0 -0.00000000000E+00 -0.00000000000E+00 -0.45593999997E+02  0.45594000000E+02  0.51100000000E-03 0. -1.
    9900012    2    1    2    0    0  0.25884335076E+02 -0.26639469089E+02 -0.22449124352E+02  0.47787270746E+02  0.19999998637E+02 0.  0.
        -12    1    1    2    0    0 -0.25884335076E+02  0.26639469089E+02  0.22449124352E+02  0.43400729254E+02  0.00000000000E+00 0.  1.
         11    1    3    3    0    0  0.23735297246E+02 -0.24787309609E+02 -0.14286470668E+02  0.37173623679E+02  0.51100000000E-03 0. -1.
        -11    1    3    3    0    0  0.46275946333E+00  0.12621753330E+01 -0.66123702207E+01  0.67476420392E+01  0.51100000000E-03 0.  1.
        -12    1    3    3    0    0  0.16862783663E+01 -0.31143348130E+01 -0.15502834629E+01  0.38660050274E+01  0.00000000000E+00 0.  1.
</event>
<event>
 7    1  0.2983653E-010  0.4778727E+02  0.7816164E-02  0.1312668E+00
        -11   -1    0    0    0    0  0.00000000000E+00  0.00000000000E+00  0.45593999997E+02  0.45594000000E+02  0.51100000000E-03 0.  1.
         11   -1    0    0    0    0 -0.00000000000E+00 -0.00000000000E+00 -0.45593999997E+02  0.45594000000E+02  0.51100000000E-03 0. -1.
    9900012    2    1    2    0    0  0.33708593212E+02 -0.16084212984E+02 -0.22105478196E+02  0.47787270399E+02  0.19999997056E+02 0.  0.
        -12    1    1    2    0    0 -0.33708593212E+02  0.16084212984E+02  0.22105478196E+02  0.43400729601E+02  0.00000000000E+00 0.  1.
         11    1    3    3    0    0  0.11984228005E+02 -0.85144097046E+01 -0.27723174961E+01  0.14960034695E+02  0.51100000000E-03 0.  1.
        -11    1    3    3    0    0  0.15741520311E+02  0.48145421656E+00 -0.15476623946E+02  0.22080605719E+02  0.51100000000E-03 0. -1.
         12    1    3    3    0    0  0.59828448951E+01 -0.80512574963E+01 -0.38565367540E+01  0.10746629986E+02  0.00000000000E+00 0. -1.
</event>
<event>
 7    1  0.2983653E-010  0.4778727E+02  0.7816164E-02  0.1312668E+00
        -11   -1    0    0    0    0  0.00000000000E+00  0.00000000000E+00  0.45593999997E+02  0.45594000000E+02  0.51100000000E-03 0.  1.
         11   -1    0    0    0    0 -0.00000000000E+00 -0.00000000000E+00 -0.45593999997E+02  0.45594000000E+02  0.51100000000E-03 0. -1.
    9900012    2    1    2    0    0 -0.80977516061E+01 -0.42194827918E+02  0.61356523084E+01  0.47787270590E+02  0.19999997929E+02 0.  0.
        -12    1    1    2    0    0  0.80977516061E+01  0.42194827918E+02 -0.61356523084E+01  0.43400729410E+02  0.00000000000E+00 0.  1.
         11    1    3    3    0    0 -0.11671786107E+02 -0.15119075471E+02  0.45655342836E+01  0.19638256990E+02  0.51100000000E-03 0. -1.
        -11    1    3    3    0    0  0.53628561411E+01 -0.15727981843E+02  0.88407194208E+00  0.16640649696E+02  0.51100000000E-03 0.  1.
        -12    1    3    3    0    0 -0.17888216397E+01 -0.11347770603E+02  0.68604608268E+00  0.11508363904E+02  0.00000000000E+00 0.  1.
</event>
<event>
 7    1  0.2983653E-010  0.4778728E+02  0.7816164E-02  0.1312668E+00
        -11   -1    0    0    0    0  0.00000000000E+00  0.00000000000E+00  0.45593999997E+02  0.45594000000E+02  0.51100000000E-03 0. -1.
         11   -1    0    0    0    0 -0.00000000000E+00 -0.00000000000E+00 -0.45593999997E+02  0.45594000000E+02  0.51100000000E-03 0.  1.
    9900012    2    1    2    0    0  0.59813912988E+00  0.13351380814E+02  0.41291711286E+02  0.47787279258E+02  0.20000037447E+02 0.  0.
        -12    1    1    2    0    0 -0.59813912988E+00 -0.13351380814E+02 -0.41291711286E+02  0.43400720742E+02  0.00000000000E+00 0.  1.
         11    1    3    3    0    0  0.15296627086E+01  0.32023777468E+01  0.26828471017E+02  0.27062186693E+02  0.51100000000E-03 0. -1.
        -11    1    3    3    0    0  0.21842405570E+00  0.23622486025E+01 -0.15831970356E+01  0.28520940803E+01  0.51100000000E-03 0.  1.
         12    1    3    3    0    0 -0.11499476344E+01  0.77867544642E+01  0.16046437304E+02  0.17872998484E+02  0.00000000000E+00 0. -1.
</event>
<event>
 7    1  0.2983653E-010  0.4778726E+02  0.7816164E-02  0.1312668E+00
        -11   -1    0    0    0    0  0.00000000000E+00  0.00000000000E+00  0.45593999997E+02  0.45594000000E+02  0.51100000000E-03 0.  1.
         11   -1    0    0    0    0 -0.00000000000E+00 -0.00000000000E+00 -0.45593999997E+02  0.45594000000E+02  0.51100000000E-03 0. -1.
    9900012    2    1    2    0    0 -0.20391498520E+02 -0.38220227202E+02  0.26505163711E+01  0.47787260187E+02  0.19999950497E+02 0.  0.
        -12    1    1    2    0    0  0.20391498520E+02  0.38220227202E+02 -0.26505163711E+01  0.43400739813E+02  0.00000000000E+00 0.  1.
         11    1    3    3    0    0 -0.12416575587E+02 -0.10006468229E+02  0.40806529065E+01  0.16460634378E+02  0.51100000000E-03 0. -1.
        -11    1    3    3    0    0  0.27590830358E+01 -0.67744256110E+01 -0.15365949775E+00  0.73163510755E+01  0.51100000000E-03 0.  1.
        -12    1    3    3    0    0 -0.10734005969E+02 -0.21439333362E+02 -0.12764770377E+01  0.24010274734E+02  0.00000000000E+00 0.  1.
</event>
<event>
 7    1  0.2983653E-010  0.4778727E+02  0.7816164E-02  0.1312668E+00
        -11   -1    0    0    0    0  0.00000000000E+00  0.00000000000E+00  0.45593999997E+02  0.45594000000E+02  0.51100000000E-03 0. -1.
         11   -1    0    0    0    0 -0.00000000000E+00 -0.00000000000E+00 -0.45593999997E+02  0.45594000000E+02  0.51100000000E-03 0.  1.
    9900012    2    1    2    0    0  0.10661558810E+01  0.30314786131E+02  0.31040300666E+02  0.47787271758E+02  0.20000003252E+02 0.  0.
        -12    1    1    2    0    0 -0.10661558810E+01 -0.30314786131E+02 -0.31040300666E+02  0.43400728242E+02  0.00000000000E+00 0.  1.
         11    1    3    3    0    0  0.29607594314E+01  0.10428310710E+02  0.18167899700E+01  0.10991655323E+02  0.51100000000E-03 0. -1.
        -11    1    3    3    0    0 -0.27424813478E+01  0.96132453715E+00  0.16510456096E+01  0.33423495740E+01  0.51100000000E-03 0.  1.
         12    1    3    3    0    0  0.84787779729E+00  0.18925150884E+02  0.27572465086E+02  0.33453266861E+02  0.00000000000E+00 0. -1.
</event>
<event>
 7    1  0.2983653E-010  0.4778727E+02  0.7816164E-02  0.1312668E+00
        -11   -1    0    0    0    0  0.00000000000E+00  0.00000000000E+00  0.45593999997E+02  0.45594000000E+02  0.51100000000E-03 0. -1.
         11   -1    0    0    0    0 -0.00000000000E+00 -0.00000000000E+00 -0.45593999997E+02  0.45594000000E+02  0.51100000000E-03 0.  1.
    9900012    2    1    2    0    0  0.64181820068E+01  0.22377517305E+02  0.36628904286E+02  0.47787274543E+02  0.20000015951E+02 0.  0.
        -12    1    1    2    0    0 -0.64181820068E+01 -0.22377517305E+02 -0.36628904286E+02  0.43400725457E+02  0.00000000000E+00 0.  1.
         11    1    3    3    0    0  0.84295290295E+01  0.30085586027E+01  0.20840499855E+02  0.22681155592E+02  0.51100000000E-03 0. -1.
        -11    1    3    3    0    0 -0.12105430635E+01  0.81404430641E+01  0.73966128013E+01  0.11065356252E+02  0.51100000000E-03 0.  1.
         12    1    3    3    0    0 -0.80080395922E+00  0.11228515638E+02  0.83917916302E+01  0.14040762699E+02  0.00000000000E+00 0. -1.
</event>
<event>
 7    1  0.2983653E-010  0.4778727E+02  0.7816164E-02  0.1312668E+00
        -11   -1    0    0    0    0  0.00000000000E+00  0.00000000000E+00  0.45593999997E+02  0.45594000000E+02  0.51100000000E-03 0.  1.
         11   -1    0    0    0    0 -0.00000000000E+00 -0.00000000000E+00 -0.45593999997E+02  0.45594000000E+02  0.51100000000E-03 0. -1.
    9900012    2    1    2    0    0  0.27083187913E+02 -0.10783826376E+02 -0.32153280890E+02  0.47787269006E+02  0.19999990705E+02 0.  0.
        -12    1    1    2    0    0 -0.27083187913E+02  0.10783826376E+02  0.32153280890E+02  0.43400730994E+02  0.00000000000E+00 0.  1.
         11    1    3    3    0    0  0.11319431706E+00 -0.18588185653E+01 -0.40501848925E+01  0.44578040936E+01  0.51100000000E-03 0. -1.
        -11    1    3    3    0    0  0.13248332713E+02  0.42909903953E+01 -0.12136910406E+02  0.18472561076E+02  0.51100000000E-03 0.  1.
        -12    1    3    3    0    0  0.13721660883E+02 -0.13215998206E+02 -0.15966185591E+02  0.24856903836E+02  0.00000000000E+00 0.  1.
</event>
<event>
 7    1  0.2983653E-010  0.4778727E+02  0.7816164E-02  0.1312668E+00
        -11   -1    0    0    0    0  0.00000000000E+00  0.00000000000E+00  0.45593999997E+02  0.45594000000E+02  0.51100000000E-03 0.  1.
         11   -1    0    0    0    0 -0.00000000000E+00 -0.00000000000E+00 -0.45593999997E+02  0.45594000000E+02  0.51100000000E-03 0. -1.
    9900012    2    1    2    0    0  0.30918821897E+02 -0.67267445653E+01 -0.29705228597E+02  0.47787271367E+02  0.20000001469E+02 0.  0.
        -12    1    1    2    0    0 -0.30918821897E+02  0.67267445653E+01  0.29705228597E+02  0.43400728633E+02  0.00000000000E+00 0.  1.
         11    1    3    3    0    0  0.82478779383E+01  0.42360534331E+00 -0.49875642270E+01  0.96479391142E+01  0.51100000000E-03 0. -1.
        -11    1    3    3    0    0  0.18029169322E+02 -0.12167434125E+02 -0.15705059659E+02  0.26828087870E+02  0.51100000000E-03 0.  1.
        -12    1    3    3    0    0  0.46417746363E+01  0.50170842160E+01 -0.90126047108E+01  0.11311244382E+02  0.00000000000E+00 0.  1.
</event>
<event>
 7    1  0.2983653E-010  0.4778728E+02  0.7816164E-02  0.1312668E+00
        -11   -1    0    0    0    0  0.00000000000E+00  0.00000000000E+00  0.45593999997E+02  0.45594000000E+02  0.51100000000E-03 0.  1.
         11   -1    0    0    0    0 -0.00000000000E+00 -0.00000000000E+00 -0.45593999997E+02  0.45594000000E+02  0.51100000000E-03 0. -1.
    9900012    2    1    2    0    0 -0.36210115403E+02  0.10361268275E+02 -0.21566041596E+02  0.47787280100E+02  0.20000041286E+02 0.  0.
        -12    1    1    2    0    0  0.36210115403E+02 -0.10361268275E+02  0.21566041596E+02  0.43400719900E+02  0.00000000000E+00 0.  1.
         11    1    3    3    0    0 -0.18216272692E+02  0.21014444860E+01 -0.42869575708E+00  0.18342094756E+02  0.51100000000E-03 0.  1.
        -11    1    3    3    0    0 -0.12603721060E+02  0.43858724257E+01 -0.17043293751E+02  0.21646328179E+02  0.51100000000E-03 0. -1.
         12    1    3    3    0    0 -0.53901216509E+01  0.38739513632E+01 -0.40940520886E+01  0.77988571650E+01  0.00000000000E+00 0. -1.
</event>
<event>
 7    1  0.2983653E-010  0.4778727E+02  0.7816164E-02  0.1312668E+00
        -11   -1    0    0    0    0  0.00000000000E+00  0.00000000000E+00  0.45593999997E+02  0.45594000000E+02  0.51100000000E-03 0.  1.
         11   -1    0    0    0    0 -0.00000000000E+00 -0.00000000000E+00 -0.45593999997E+02  0.45594000000E+02  0.51100000000E-03 0. -1.
    9900012    2    1    2    0    0 -0.26611305051E+01  0.26683322295E+02 -0.34125385801E+02  0.47787271200E+02  0.20000000710E+02 0.  0.
        -12    1    1    2    0    0  0.26611305051E+01 -0.26683322295E+02  0.34125385801E+02  0.43400728800E+02  0.00000000000E+00 0.  1.
         11    1    3    3    0    0  0.29642464681E+01  0.16199891722E+02 -0.10089291788E+02  0.19313649525E+02  0.51100000000E-03 0. -1.
        -11    1    3    3    0    0 -0.30947457361E+01  0.55768559560E+01 -0.36400581067E+01  0.73436228666E+01  0.51100000000E-03 0.  1.
         12    1    3    3    0    0 -0.25306312371E+01  0.49065746169E+01 -0.20396035907E+02  0.21129998808E+02  0.00000000000E+00 0. -1.
</event>
<event>
 7    1  0.2983653E-010  0.4778727E+02  0.7816164E-02  0.1312668E+00
        -11   -1    0    0    0    0  0.00000000000E+00  0.00000000000E+00  0.45593999997E+02  0.45594000000E+02  0.51100000000E-03 0.  1.
         11   -1    0    0    0    0 -0.00000000000E+00 -0.00000000000E+00 -0.45593999997E+02  0.45594000000E+02  0.51100000000E-03 0. -1.
    9900012    2    1    2    0    0 -0.13777683463E+02  0.16684157997E+02 -0.37622300438E+02  0.47787272127E+02  0.20000004934E+02 0.  0.
        -12    1    1    2    0    0  0.13777683463E+02 -0.16684157997E+02  0.37622300438E+02  0.43400727873E+02  0.00000000000E+00 0.  1.
         11    1    3    3    0    0 -0.32763117759E-01  0.45717462541E+01 -0.14387582840E+02  0.15096505472E+02  0.51100000000E-03 0. -1.
        -11    1    3    3    0    0 -0.87630544616E+01  0.82398517495E+01 -0.43684417609E+01  0.12797248299E+02  0.51100000000E-03 0.  1.
        -12    1    3    3    0    0 -0.49818658836E+01  0.38725599939E+01 -0.18866275837E+02  0.19893518355E+02  0.00000000000E+00 0.  1.
</event>
<event>
 7    1  0.2983653E-010  0.4778727E+02  0.7816164E-02  0.1312668E+00
        -11   -1    0    0    0    0  0.00000000000E+00  0.00000000000E+00  0.45593999997E+02  0.45594000000E+02  0.51100000000E-03 0. -1.
         11   -1    0    0    0    0 -0.00000000000E+00 -0.00000000000E+00 -0.45593999997E+02  0.45594000000E+02  0.51100000000E-03 0.  1.
    9900012    2    1    2    0    0 -0.21869749787E+02  0.27167515752E+02  0.25831445301E+02  0.47787269198E+02  0.19999991580E+02 0.  0.
        -12    1    1    2    0    0  0.21869749787E+02 -0.27167515752E+02 -0.25831445301E+02  0.43400730802E+02  0.00000000000E+00 0.  1.
         11    1    3    3    0    0 -0.77290341048E+01  0.25228226911E+01  0.91100622461E+01  0.12210480618E+02  0.51100000000E-03 0. -1.
        -11    1    3    3    0    0 -0.52732011235E+01  0.18383226234E+02  0.53564602052E+01  0.19860546897E+02  0.51100000000E-03 0.  1.
        -12    1    3    3    0    0 -0.88675145587E+01  0.62614668267E+01  0.11364922849E+02  0.15716241683E+02  0.00000000000E+00 0.  1.
</event>
<event>
 7    1  0.2983653E-010  0.4778727E+02  0.7816164E-02  0.1312668E+00
        -11   -1    0    0    0    0  0.00000000000E+00  0.00000000000E+00  0.45593999997E+02  0.45594000000E+02  0.51100000000E-03 0. -1.
         11   -1    0    0    0    0 -0.00000000000E+00 -0.00000000000E+00 -0.45593999997E+02  0.45594000000E+02  0.51100000000E-03 0.  1.
    9900012    2    1    2    0    0 -0.26538463618E+02  0.29222153358E+02  0.18038820351E+02  0.47787270308E+02  0.19999996644E+02 0.  0.
        -12    1    1    2    0    0  0.26538463618E+02 -0.29222153358E+02 -0.18038820351E+02  0.43400729692E+02  0.00000000000E+00 0.  1.
         11    1    3    3    0    0 -0.14805476551E+02  0.18652914316E+02  0.15542023560E+02  0.28437437384E+02  0.51100000000E-03 0. -1.
        -11    1    3    3    0    0  0.40836788816E+00  0.51208945387E+01 -0.16752448889E+01  0.54034036410E+01  0.51100000000E-03 0.  1.
         12    1    3    3    0    0 -0.12141354955E+02  0.54483445040E+01  0.41720416807E+01  0.13946429284E+02  0.00000000000E+00 0. -1.
</event>
<event>
 7    1  0.2983653E-010  0.4778727E+02  0.7816164E-02  0.1312668E+00
        -11   -1    0    0    0    0  0.00000000000E+00  0.00000000000E+00  0.45593999997E+02  0.45594000000E+02  0.51100000000E-03 0.  1.
         11   -1    0    0    0    0 -0.00000000000E+00 -0.00000000000E+00 -0.45593999997E+02  0.45594000000E+02  0.51100000000E-03 0. -1.
    9900012    2    1    2    0    0  0.17065185396E+02  0.31255233821E+02 -0.24809536698E+02  0.47787270686E+02  0.19999998367E+02 0.  0.
        -12    1    1    2    0    0 -0.17065185396E+02 -0.31255233821E+02  0.24809536698E+02  0.43400729314E+02  0.00000000000E+00 0.  1.
         11    1    3    3    0    0  0.35500737471E+01  0.18474739106E+01 -0.11464784835E+02  0.12143206950E+02  0.51100000000E-03 0. -1.
        -11    1    3    3    0    0 -0.13373065200E+00 -0.10115074222E+00  0.33202704583E+00  0.37196448785E+00  0.51100000000E-03 0.  1.
         12    1    3    3    0    0  0.13648842301E+02  0.29508910653E+02 -0.13676778909E+02  0.35272099248E+02  0.00000000000E+00 0. -1.
</event>
<event>
 7    1  0.2983653E-010  0.4778722E+02  0.7816164E-02  0.1312668E+00
        -11   -1    0    0    0    0  0.00000000000E+00  0.00000000000E+00  0.45593999997E+02  0.45594000000E+02  0.51100000000E-03 0. -1.
         11   -1    0    0    0    0 -0.00000000000E+00 -0.00000000000E+00 -0.45593999997E+02  0.45594000000E+02  0.51100000000E-03 0.  1.
    9900012    2    1    2    0    0 -0.23586558002E+02 -0.18529754635E+02  0.31367985273E+02  0.47787216306E+02  0.19999750424E+02 0.  0.
        -12    1    1    2    0    0  0.23586558002E+02  0.18529754635E+02 -0.31367985273E+02  0.43400783694E+02  0.00000000000E+00 0.  1.
         11    1    3    3    0    0 -0.81667627754E+01 -0.15967662663E+02  0.14325022717E+02  0.22953617171E+02  0.51100000000E-03 0. -1.
        -11    1    3    3    0    0 -0.10791651936E+02 -0.88107857502E-01  0.54108694516E+01  0.12072490339E+02  0.51100000000E-03 0.  1.
         12    1    3    3    0    0 -0.46281432904E+01 -0.24739841142E+01  0.11632093104E+02  0.12761108796E+02  0.00000000000E+00 0. -1.
</event>
<event>
 7    1  0.2983653E-010  0.4778727E+02  0.7816164E-02  0.1312668E+00
        -11   -1    0    0    0    0  0.00000000000E+00  0.00000000000E+00  0.45593999997E+02  0.45594000000E+02  0.51100000000E-03 0. -1.
         11   -1    0    0    0    0 -0.00000000000E+00 -0.00000000000E+00 -0.45593999997E+02  0.45594000000E+02  0.51100000000E-03 0.  1.
    9900012    2    1    2    0    0 -0.20123369615E+02  0.38443413356E+02 -0.88161031295E+00  0.47787271068E+02  0.20000000108E+02 0.  0.
        -12    1    1    2    0    0  0.20123369615E+02 -0.38443413356E+02  0.88161031295E+00  0.43400728932E+02  0.00000000000E+00 0.  1.
         11    1    3    3    0    0 -0.70130182042E+01  0.18703600844E+02 -0.45409992107E+00  0.19980323218E+02  0.51100000000E-03 0. -1.
        -11    1    3    3    0    0 -0.86490735229E+01  0.62740969779E+01  0.59764581719E+01  0.12242908896E+02  0.51100000000E-03 0.  1.
        -12    1    3    3    0    0 -0.44612778876E+01  0.13465715533E+02 -0.64039685638E+01  0.15564038955E+02  0.00000000000E+00 0.  1.
</event>
<event>
 7    1  0.2983653E-010  0.4778727E+02  0.7816164E-02  0.1312668E+00
        -11   -1    0    0    0    0  0.00000000000E+00  0.00000000000E+00  0.45593999997E+02  0.45594000000E+02  0.51100000000E-03 0. -1.
         11   -1    0    0    0    0 -0.00000000000E+00 -0.00000000000E+00 -0.45593999997E+02  0.45594000000E+02  0.51100000000E-03 0.  1.
    9900012    2    1    2    0    0  0.43120738055E+02  0.63282816153E+00 -0.48810590238E+01  0.47787271215E+02  0.20000000779E+02 0.  0.
        -12    1    1    2    0    0 -0.43120738055E+02 -0.63282816153E+00  0.48810590238E+01  0.43400728785E+02  0.00000000000E+00 0.  1.
         11    1    3    3    0    0  0.83863466396E+01 -0.16137907226E+01 -0.41738105518E+01  0.95055681176E+01  0.51100000000E-03 0. -1.
        -11    1    3    3    0    0  0.92548350220E-04 -0.14856427004E+01  0.28021601376E+01  0.31716298554E+01  0.51100000000E-03 0.  1.
        -12    1    3    3    0    0  0.34734298867E+02  0.37322615845E+01 -0.35094086096E+01  0.35110073242E+02  0.00000000000E+00 0.  1.
</event>
<event>
 7    1  0.2983653E-010  0.4778727E+02  0.7816164E-02  0.1312668E+00
        -11   -1    0    0    0    0  0.00000000000E+00  0.00000000000E+00  0.45593999997E+02  0.45594000000E+02  0.51100000000E-03 0.  1.
         11   -1    0    0    0    0 -0.00000000000E+00 -0.00000000000E+00 -0.45593999997E+02  0.45594000000E+02  0.51100000000E-03 0. -1.
    9900012    2    1    2    0    0  0.15721471296E+01 -0.15023070234E+02 -0.40687332272E+02  0.47787270821E+02  0.19999998982E+02 0.  0.
        -12    1    1    2    0    0 -0.15721471296E+01  0.15023070234E+02  0.40687332272E+02  0.43400729179E+02  0.00000000000E+00 0.  1.
         11    1    3    3    0    0 -0.61182305811E+01 -0.15419637663E+02 -0.28568747194E+02  0.33035909063E+02  0.51100000000E-03 0. -1.
        -11    1    3    3    0    0  0.32459005917E+01  0.11368528827E+01 -0.29323133651E+01  0.45195981083E+01  0.51100000000E-03 0.  1.
         12    1    3    3    0    0  0.44444771190E+01 -0.74028545360E+00 -0.91862717128E+01  0.10231763650E+02  0.00000000000E+00 0. -1.
</event>
<event>
 7    1  0.2983653E-010  0.4778727E+02  0.7816164E-02  0.1312668E+00
        -11   -1    0    0    0    0  0.00000000000E+00  0.00000000000E+00  0.45593999997E+02  0.45594000000E+02  0.51100000000E-03 0. -1.
         11   -1    0    0    0    0 -0.00000000000E+00 -0.00000000000E+00 -0.45593999997E+02  0.45594000000E+02  0.51100000000E-03 0.  1.
    9900012    2    1    2    0    0  0.24149496476E+02  0.35248245569E+02  0.76148754643E+01  0.47787270466E+02  0.19999997363E+02 0.  0.
        -12    1    1    2    0    0 -0.24149496476E+02 -0.35248245569E+02 -0.76148754643E+01  0.43400729534E+02  0.00000000000E+00 0.  1.
         11    1    3    3    0    0  0.85690966960E+01  0.22297273184E+02  0.12409051623E+02  0.26918067762E+02  0.51100000000E-03 0. -1.
        -11    1    3    3    0    0  0.77108342352E+01  0.62579816681E+01 -0.30779416528E+01  0.10396779513E+02  0.51100000000E-03 0.  1.
         12    1    3    3    0    0  0.78695655451E+01  0.66929907173E+01 -0.17162345058E+01  0.10472423191E+02  0.00000000000E+00 0. -1.
</event>
<event>
 7    1  0.2983653E-010  0.4778726E+02  0.7816164E-02  0.1312668E+00
        -11   -1    0    0    0    0  0.00000000000E+00  0.00000000000E+00  0.45593999997E+02  0.45594000000E+02  0.51100000000E-03 0.  1.
         11   -1    0    0    0    0 -0.00000000000E+00 -0.00000000000E+00 -0.45593999997E+02  0.45594000000E+02  0.51100000000E-03 0. -1.
    9900012    2    1    2    0    0  0.39421835560E+02  0.87133570582E+01 -0.15925458675E+02  0.47787263323E+02  0.19999964793E+02 0.  0.
        -12    1    1    2    0    0 -0.39421835560E+02 -0.87133570582E+01  0.15925458675E+02  0.43400736677E+02  0.00000000000E+00 0.  1.
         11    1    3    3    0    0  0.15583607702E+02  0.93444501894E+01 -0.12763508008E+02  0.22205285751E+02  0.51100000000E-03 0. -1.
        -11    1    3    3    0    0  0.14098904048E+00  0.12246986514E+01 -0.12177198064E+01  0.17328030714E+01  0.51100000000E-03 0.  1.
         12    1    3    3    0    0  0.23697238817E+02 -0.18557917826E+01 -0.19442308608E+01  0.23849174500E+02  0.00000000000E+00 0. -1.
</event>
<event>
 7    1  0.2983653E-010  0.4778727E+02  0.7816164E-02  0.1312668E+00
        -11   -1    0    0    0    0  0.00000000000E+00  0.00000000000E+00  0.45593999997E+02  0.45594000000E+02  0.51100000000E-03 0. -1.
         11   -1    0    0    0    0 -0.00000000000E+00 -0.00000000000E+00 -0.45593999997E+02  0.45594000000E+02  0.51100000000E-03 0.  1.
    9900012    2    1    2    0    0  0.20991592504E+02 -0.27185656055E+02  0.26531422051E+02  0.47787271815E+02  0.20000003511E+02 0.  0.
        -12    1    1    2    0    0 -0.20991592504E+02  0.27185656055E+02 -0.26531422051E+02  0.43400728185E+02  0.00000000000E+00 0.  1.
         11    1    3    3    0    0  0.13703443564E+02 -0.22342949153E+02  0.14249969400E+02  0.29833762259E+02  0.51100000000E-03 0. -1.
        -11    1    3    3    0    0  0.95615756062E+01 -0.30537572706E+01  0.10640192038E+02  0.14627468968E+02  0.51100000000E-03 0.  1.
         12    1    3    3    0    0 -0.22734266665E+01 -0.17889496309E+01  0.16412606141E+01  0.33260405880E+01  0.00000000000E+00 0. -1.
</event>
<event>
 7    1  0.2983653E-010  0.4778727E+02  0.7816164E-02  0.1312668E+00
        -11   -1    0    0    0    0  0.00000000000E+00  0.00000000000E+00  0.45593999997E+02  0.45594000000E+02  0.51100000000E-03 0.  1.
         11   -1    0    0    0    0 -0.00000000000E+00 -0.00000000000E+00 -0.45593999997E+02  0.45594000000E+02  0.51100000000E-03 0. -1.
    9900012    2    1    2    0    0  0.10341560608E+02 -0.42080026214E+02 -0.24386592150E+01  0.47787267970E+02  0.19999985982E+02 0.  0.
        -12    1    1    2    0    0 -0.10341560608E+02  0.42080026214E+02  0.24386592150E+01  0.43400732030E+02  0.00000000000E+00 0.  1.
         11    1    3    3    0    0  0.12195002889E+02 -0.18974480489E+02  0.28446023133E+01  0.22734132222E+02  0.51100000000E-03 0. -1.
        -11    1    3    3    0    0  0.84094682299E+00 -0.31870323169E+01  0.17827925250E+01  0.37473612045E+01  0.51100000000E-03 0.  1.
         12    1    3    3    0    0 -0.26943891035E+01 -0.19918513408E+02 -0.70660540533E+01  0.21305774544E+02  0.00000000000E+00 0. -1.
</event>
<event>
 7    1  0.2983653E-010  0.4778727E+02  0.7816164E-02  0.1312668E+00
        -11   -1    0    0    0    0  0.00000000000E+00  0.00000000000E+00  0.45593999997E+02  0.45594000000E+02  0.51100000000E-03 0.  1.
         11   -1    0    0    0    0 -0.00000000000E+00 -0.00000000000E+00 -0.45593999997E+02  0.45594000000E+02  0.51100000000E-03 0. -1.
    9900012    2    1    2    0    0 -0.21675561072E+02  0.15496387459E+02 -0.34258657374E+02  0.47787267550E+02  0.19999984069E+02 0.  0.
        -12    1    1    2    0    0  0.21675561072E+02 -0.15496387459E+02  0.34258657374E+02  0.43400732450E+02  0.00000000000E+00 0.  1.
         11    1    3    3    0    0 -0.16288780677E+02  0.82791864246E+01 -0.11777395107E+02  0.21738821025E+02  0.51100000000E-03 0. -1.
        -11    1    3    3    0    0 -0.36214909831E+01  0.83879886728E+01 -0.22075818928E+02  0.23891741932E+02  0.51100000000E-03 0.  1.
        -12    1    3    3    0    0 -0.17652894125E+01 -0.11707876380E+01 -0.40544333902E+00  0.21567045936E+01  0.00000000000E+00 0.  1.
</event>
<event>
 7    1  0.2983653E-010  0.4778727E+02  0.7816164E-02  0.1312668E+00
        -11   -1    0    0    0    0  0.00000000000E+00  0.00000000000E+00  0.45593999997E+02  0.45594000000E+02  0.51100000000E-03 0.  1.
         11   -1    0    0    0    0 -0.00000000000E+00 -0.00000000000E+00 -0.45593999997E+02  0.45594000000E+02  0.51100000000E-03 0. -1.
    9900012    2    1    2    0    0 -0.19941815766E+02  0.36217947678E+02  0.13198780530E+02  0.47787267776E+02  0.19999985099E+02 0.  0.
        -12    1    1    2    0    0  0.19941815766E+02 -0.36217947678E+02 -0.13198780530E+02  0.43400732224E+02  0.00000000000E+00 0.  1.
         11    1    3    3    0    0 -0.15142543185E+02  0.16814923539E+02  0.51215563135E+01  0.23200616523E+02  0.51100000000E-03 0. -1.
        -11    1    3    3    0    0  0.36327583218E+01  0.48259892441E+01  0.40474496775E+01  0.72711040676E+01  0.51100000000E-03 0.  1.
        -12    1    3    3    0    0 -0.84320309024E+01  0.14577034895E+02  0.40297745395E+01  0.17315547185E+02  0.00000000000E+00 0.  1.
</event>
<event>
 7    1  0.2983653E-010  0.4778727E+02  0.7816164E-02  0.1312668E+00
        -11   -1    0    0    0    0  0.00000000000E+00  0.00000000000E+00  0.45593999997E+02  0.45594000000E+02  0.51100000000E-03 0.  1.
         11   -1    0    0    0    0 -0.00000000000E+00 -0.00000000000E+00 -0.45593999997E+02  0.45594000000E+02  0.51100000000E-03 0. -1.
    9900012    2    1    2    0    0 -0.17699783815E+02  0.34649026204E+02 -0.19229819535E+02  0.47787270474E+02  0.19999997401E+02 0.  0.
        -12    1    1    2    0    0  0.17699783815E+02 -0.34649026204E+02  0.19229819535E+02  0.43400729526E+02  0.00000000000E+00 0.  1.
         11    1    3    3    0    0 -0.87730088177E+01  0.13660370130E+02 -0.18946575125E+02  0.24950833754E+02  0.51100000000E-03 0. -1.
        -11    1    3    3    0    0 -0.47230337067E+01  0.11802784529E+02 -0.63145713809E+00  0.12728374146E+02  0.51100000000E-03 0.  1.
         12    1    3    3    0    0 -0.42037412905E+01  0.91858715458E+01  0.34821272831E+00  0.10108062574E+02  0.00000000000E+00 0. -1.
</event>
