<event>
 7    1  0.5897985E-013  0.5052886E+02  0.7816164E-02  0.1300439E+00
        -11   -1    0    0    0    0  0.00000000000E+00  0.00000000000E+00  0.45593999997E+02  0.45594000000E+02  0.51100000000E-03 0.  1.
         11   -1    0    0    0    0 -0.00000000000E+00 -0.00000000000E+00 -0.45593999997E+02  0.45594000000E+02  0.51100000000E-03 0. -1.
    9900012    2    1    2    0    0  0.35046249062E+02 -0.52382851129E+01  0.19937063665E+02  0.50528859431E+02  0.29999998726E+02 0.  0.
         12    1    1    2    0    0 -0.35046249062E+02  0.52382851129E+01 -0.19937063665E+02  0.40659140569E+02  0.00000000000E+00 0. -1.
         11    1    3    3    0    0  0.56301448691E+01 -0.79259047862E+01  0.72014573503E+01  0.12098739032E+02  0.51100000000E-03 0. -1.
        -11    1    3    3    0    0  0.13485484664E+02  0.11767591065E+02  0.69899881169E+01  0.19214432863E+02  0.51100000000E-03 0.  1.
        -12    1    3    3    0    0  0.15930619528E+02 -0.90799713915E+01  0.57456181976E+01  0.19215687537E+02  0.00000000000E+00 0.  1.
</event>
<event>
 7    1  0.5897985E-013  0.5052886E+02  0.7816164E-02  0.1300439E+00
        -11   -1    0    0    0    0  0.00000000000E+00  0.00000000000E+00  0.45593999997E+02  0.45594000000E+02  0.51100000000E-03 0. -1.
         11   -1    0    0    0    0 -0.00000000000E+00 -0.00000000000E+00 -0.45593999997E+02  0.45594000000E+02  0.51100000000E-03 0.  1.
    9900012    2    1    2    0    0 -0.26865187690E+01  0.27232453088E+02 -0.30072274481E+02  0.50528861092E+02  0.30000003776E+02 0.  0.
         12    1    1    2    0    0  0.26865187690E+01 -0.27232453088E+02  0.30072274481E+02  0.40659138908E+02  0.00000000000E+00 0. -1.
         11    1    3    3    0    0  0.88189841834E+01  0.30496876440E+01 -0.62241264863E+00  0.93521374305E+01  0.51100000000E-03 0. -1.
        -11    1    3    3    0    0 -0.12872267069E+02  0.24015408911E+02 -0.26958108146E+02  0.38329815024E+02  0.51100000000E-03 0.  1.
        -12    1    3    3    0    0  0.13667641168E+01  0.16735653215E+00 -0.24917536863E+01  0.28469086380E+01  0.00000000000E+00 0.  1.
</event>
<event>
 7    1  0.5897985E-013  0.5052885E+02  0.7816164E-02  0.1300439E+00
        -11   -1    0    0    0    0  0.00000000000E+00  0.00000000000E+00  0.45593999997E+02  0.45594000000E+02  0.51100000000E-03 0.  1.
         11   -1    0    0    0    0 -0.00000000000E+00 -0.00000000000E+00 -0.45593999997E+02  0.45594000000E+02  0.51100000000E-03 0. -1.
    9900012    2    1    2    0    0  0.26515803926E+01 -0.24588607961E+02  0.32272835989E+02  0.50528850196E+02  0.29999970655E+02 0.  0.
         12    1    1    2    0    0 -0.26515803926E+01  0.24588607961E+02 -0.32272835989E+02  0.40659149804E+02  0.00000000000E+00 0. -1.
         11    1    3    3    0    0  0.72843925299E+01 -0.15490684847E+02  0.72371524661E+01  0.18584941959E+02  0.51100000000E-03 0. -1.
        -11    1    3    3    0    0 -0.54532019011E+01 -0.12874823723E+02  0.24261555848E+02  0.28002171154E+02  0.51100000000E-03 0.  1.
         12    1    3    3    0    0  0.82038976379E+00  0.37769006087E+01  0.77412767435E+00  0.39417370826E+01  0.00000000000E+00 0. -1.
</event>
<event>
 7    1  0.5897985E-013  0.5052884E+02  0.7816164E-02  0.1300439E+00
        -11   -1    0    0    0    0  0.00000000000E+00  0.00000000000E+00  0.45593999997E+02  0.45594000000E+02  0.51100000000E-03 0.  1.
         11   -1    0    0    0    0 -0.00000000000E+00 -0.00000000000E+00 -0.45593999997E+02  0.45594000000E+02  0.51100000000E-03 0. -1.
    9900012    2    1    2    0    0  0.24156689949E+02 -0.79244072400E+01  0.31730507385E+02  0.50528843610E+02  0.29999950638E+02 0.  0.
         12    1    1    2    0    0 -0.24156689949E+02  0.79244072400E+01 -0.31730507385E+02  0.40659156390E+02  0.00000000000E+00 0. -1.
         11    1    3    3    0    0  0.14230800185E+02 -0.47014253415E+01  0.12652844949E+02  0.19614116338E+02  0.51100000000E-03 0.  1.
        -11    1    3    3    0    0  0.27720733424E+01  0.68008142268E+01  0.16875925731E+02  0.18404682401E+02  0.51100000000E-03 0. -1.
        -12    1    3    3    0    0  0.71538164210E+01 -0.10023796125E+02  0.22017367056E+01  0.12510044871E+02  0.00000000000E+00 0.  1.
</event>
<event>
 7    1  0.5897985E-013  0.5052886E+02  0.7816164E-02  0.1300439E+00
        -11   -1    0    0    0    0  0.00000000000E+00  0.00000000000E+00  0.45593999997E+02  0.45594000000E+02  0.51100000000E-03 0. -1.
         11   -1    0    0    0    0 -0.00000000000E+00 -0.00000000000E+00 -0.45593999997E+02  0.45594000000E+02  0.51100000000E-03 0.  1.
    9900012    2    1    2    0    0  0.38617733840E+02  0.60166052175E+01 -0.11208787929E+02  0.50528857952E+02  0.29999994230E+02 0.  0.
         12    1    1    2    0    0 -0.38617733840E+02 -0.60166052175E+01  0.11208787929E+02  0.40659142048E+02  0.00000000000E+00 0. -1.
         11    1    3    3    0    0  0.27778816949E+02 -0.38878939146E+01 -0.36229783880E+01  0.28282580555E+02  0.51100000000E-03 0.  1.
        -11    1    3    3    0    0  0.17645809064E+01  0.18005262560E+01 -0.95901842762E+01  0.99160110572E+01  0.51100000000E-03 0. -1.
         12    1    3    3    0    0  0.90743359845E+01  0.81039728761E+01  0.20043747352E+01  0.12330266340E+02  0.00000000000E+00 0. -1.
</event>
<event>
 7    1  0.5897985E-013  0.5052888E+02  0.7816164E-02  0.1300439E+00
        -11   -1    0    0    0    0  0.00000000000E+00  0.00000000000E+00  0.45593999997E+02  0.45594000000E+02  0.51100000000E-03 0. -1.
         11   -1    0    0    0    0 -0.00000000000E+00 -0.00000000000E+00 -0.45593999997E+02  0.45594000000E+02  0.51100000000E-03 0.  1.
    9900012    2    1    2    0    0 -0.37362126873E+02 -0.13905545938E+02 -0.79919397317E+01  0.50528882536E+02  0.30000068956E+02 0.  0.
         12    1    1    2    0    0  0.37362126873E+02  0.13905545938E+02  0.79919397317E+01  0.40659117464E+02  0.00000000000E+00 0. -1.
         11    1    3    3    0    0 -0.68083251950E+01  0.40479702525E+01  0.50238168804E+01  0.93796637165E+01  0.51100000000E-03 0. -1.
        -11    1    3    3    0    0 -0.12851541645E+02 -0.96959748979E+01 -0.14355618310E+02  0.21569836096E+02  0.51100000000E-03 0.  1.
        -12    1    3    3    0    0 -0.17702260033E+02 -0.82575412923E+01  0.13398616977E+01  0.19579382724E+02  0.00000000000E+00 0.  1.
</event>
<event>
 7    1  0.5897985E-013  0.5052886E+02  0.7816164E-02  0.1300439E+00
        -11   -1    0    0    0    0  0.00000000000E+00  0.00000000000E+00  0.45593999997E+02  0.45594000000E+02  0.51100000000E-03 0.  1.
         11   -1    0    0    0    0 -0.00000000000E+00 -0.00000000000E+00 -0.45593999997E+02  0.45594000000E+02  0.51100000000E-03 0. -1.
    9900012    2    1    2    0    0 -0.89038451020E+01 -0.95112219362E+01  0.38515240766E+02  0.50528861156E+02  0.30000003969E+02 0.  0.
         12    1    1    2    0    0  0.89038451020E+01  0.95112219362E+01 -0.38515240766E+02  0.40659138844E+02  0.00000000000E+00 0. -1.
         11    1    3    3    0    0 -0.91344191198E+00  0.68392046604E+01  0.10074910015E+02  0.12211179656E+02  0.51100000000E-03 0. -1.
        -11    1    3    3    0    0 -0.42557498648E+01 -0.11000164283E+02  0.31624933755E+01  0.12211322032E+02  0.51100000000E-03 0.  1.
        -12    1    3    3    0    0 -0.37346533252E+01 -0.53502623134E+01  0.25277837375E+02  0.26106359467E+02  0.00000000000E+00 0.  1.
</event>
<event>
 7    1  0.5897985E-013  0.5052886E+02  0.7816164E-02  0.1300439E+00
        -11   -1    0    0    0    0  0.00000000000E+00  0.00000000000E+00  0.45593999997E+02  0.45594000000E+02  0.51100000000E-03 0.  1.
         11   -1    0    0    0    0 -0.00000000000E+00 -0.00000000000E+00 -0.45593999997E+02  0.45594000000E+02  0.51100000000E-03 0. -1.
    9900012    2    1    2    0    0  0.26407567846E+02  0.29788582932E+02  0.82732372680E+01  0.50528858746E+02  0.29999996643E+02 0.  0.
         12    1    1    2    0    0 -0.26407567846E+02 -0.29788582932E+02 -0.82732372680E+01  0.40659141254E+02  0.00000000000E+00 0. -1.
         11    1    3    3    0    0  0.43241554419E+01 -0.27700481479E+01  0.79505273778E+01  0.94647965046E+01  0.51100000000E-03 0. -1.
        -11    1    3    3    0    0  0.62165992548E+01  0.13464038409E+02 -0.50436395056E+01  0.15664122583E+02  0.51100000000E-03 0.  1.
         12    1    3    3    0    0  0.15866813149E+02  0.19094592671E+02  0.53663493958E+01  0.25399939658E+02  0.00000000000E+00 0. -1.
</event>
<event>
 7    1  0.5897985E-013  0.5052885E+02  0.7816164E-02  0.1300439E+00
        -11   -1    0    0    0    0  0.00000000000E+00  0.00000000000E+00  0.45593999997E+02  0.45594000000E+02  0.51100000000E-03 0. -1.
         11   -1    0    0    0    0 -0.00000000000E+00 -0.00000000000E+00 -0.45593999997E+02  0.45594000000E+02  0.51100000000E-03 0.  1.
    9900012    2    1    2    0    0  0.20696417726E+01  0.40602242784E+02 -0.58360246472E+00  0.50528854313E+02  0.29999983169E+02 0.  0.
         12    1    1    2    0    0 -0.20696417726E+01 -0.40602242784E+02  0.58360246472E+00  0.40659145687E+02  0.00000000000E+00 0. -1.
         11    1    3    3    0    0 -0.38788017741E+01 -0.14688961599E+01  0.78623047472E-01  0.41483660610E+01  0.51100000000E-03 0. -1.
        -11    1    3    3    0    0  0.47134947077E+01  0.35195579967E+02  0.68040938293E+01  0.36155795866E+02  0.51100000000E-03 0.  1.
        -12    1    3    3    0    0  0.12349488391E+01  0.68755589766E+01 -0.74663193415E+01  0.10224692386E+02  0.00000000000E+00 0.  1.
</event>
<event>
 7    1  0.5897985E-013  0.5052885E+02  0.7816164E-02  0.1300439E+00
        -11   -1    0    0    0    0  0.00000000000E+00  0.00000000000E+00  0.45593999997E+02  0.45594000000E+02  0.51100000000E-03 0.  1.
         11   -1    0    0    0    0 -0.00000000000E+00 -0.00000000000E+00 -0.45593999997E+02  0.45594000000E+02  0.51100000000E-03 0. -1.
    9900012    2    1    2    0    0  0.24909185528E+02  0.31686678060E+01  0.31979027301E+02  0.50528853840E+02  0.29999981732E+02 0.  0.
         12    1    1    2    0    0 -0.24909185528E+02 -0.31686678060E+01 -0.31979027301E+02  0.40659146160E+02  0.00000000000E+00 0. -1.
         11    1    3    3    0    0  0.17032559149E+02  0.50152197037E+01  0.39439013539E+01  0.18188316525E+02  0.51100000000E-03 0. -1.
        -11    1    3    3    0    0  0.81675074235E+01 -0.65931755372E+01  0.23637705833E+02  0.25863473829E+02  0.51100000000E-03 0.  1.
        -12    1    3    3    0    0 -0.29088104427E+00  0.47466236394E+01  0.43974201138E+01  0.64770634869E+01  0.00000000000E+00 0.  1.
</event>
<event>
 7    1  0.5897985E-013  0.5052886E+02  0.7816164E-02  0.1300439E+00
        -11   -1    0    0    0    0  0.00000000000E+00  0.00000000000E+00  0.45593999997E+02  0.45594000000E+02  0.51100000000E-03 0.  1.
         11   -1    0    0    0    0 -0.00000000000E+00 -0.00000000000E+00 -0.45593999997E+02  0.45594000000E+02  0.51100000000E-03 0. -1.
    9900012    2    1    2    0    0 -0.54583718899E+01  0.13789236552E+01  0.40267486342E+02  0.50528859447E+02  0.29999998776E+02 0.  0.
         12    1    1    2    0    0  0.54583718899E+01 -0.13789236552E+01 -0.40267486342E+02  0.40659140553E+02  0.00000000000E+00 0. -1.
         11    1    3    3    0    0  0.56990767028E+01 -0.24629442318E+01  0.84458618596E+01  0.10482278014E+02  0.51100000000E-03 0. -1.
        -11    1    3    3    0    0 -0.60808581213E+01  0.12473439137E+02  0.14726288850E+02  0.20234305102E+02  0.51100000000E-03 0.  1.
        -12    1    3    3    0    0 -0.50765904714E+01 -0.86315712495E+01  0.17095335632E+02  0.19812276331E+02  0.00000000000E+00 0.  1.
</event>
<event>
 7    1  0.5897985E-013  0.5052886E+02  0.7816164E-02  0.1300439E+00
        -11   -1    0    0    0    0  0.00000000000E+00  0.00000000000E+00  0.45593999997E+02  0.45594000000E+02  0.51100000000E-03 0.  1.
         11   -1    0    0    0    0 -0.00000000000E+00 -0.00000000000E+00 -0.45593999997E+02  0.45594000000E+02  0.51100000000E-03 0. -1.
    9900012    2    1    2    0    0  0.11457012039E+02  0.23097505586E+02  0.31438952999E+02  0.50528860132E+02  0.30000000856E+02 0.  0.
         12    1    1    2    0    0 -0.11457012039E+02 -0.23097505586E+02 -0.31438952999E+02  0.40659139868E+02  0.00000000000E+00 0. -1.
         11    1    3    3    0    0  0.47735035812E+01  0.11509378369E+02 -0.88476806797E+00  0.12491394705E+02  0.51100000000E-03 0. -1.
        -11    1    3    3    0    0  0.26725509707E+01  0.19211731961E+01  0.25113365728E+02  0.25328137981E+02  0.51100000000E-03 0.  1.
        -12    1    3    3    0    0  0.40109574869E+01  0.96669540204E+01  0.72103553391E+01  0.12709327445E+02  0.00000000000E+00 0.  1.
</event>
<event>
 7    1  0.5897985E-013  0.5052887E+02  0.7816164E-02  0.1300439E+00
        -11   -1    0    0    0    0  0.00000000000E+00  0.00000000000E+00  0.45593999997E+02  0.45594000000E+02  0.51100000000E-03 0. -1.
         11   -1    0    0    0    0 -0.00000000000E+00 -0.00000000000E+00 -0.45593999997E+02  0.45594000000E+02  0.51100000000E-03 0.  1.
    9900012    2    1    2    0    0 -0.10443096229E+01 -0.34824099477E+02 -0.20960828869E+02  0.50528870228E+02  0.30000031545E+02 0.  0.
         12    1    1    2    0    0  0.10443096229E+01  0.34824099477E+02  0.20960828869E+02  0.40659129772E+02  0.00000000000E+00 0. -1.
         11    1    3    3    0    0  0.63578308986E+01 -0.34854459213E+01 -0.42007831579E+01  0.83795540696E+01  0.51100000000E-03 0. -1.
        -11    1    3    3    0    0 -0.35845295809E+01 -0.19181762389E+02  0.18431169151E+01  0.19600661746E+02  0.51100000000E-03 0.  1.
        -12    1    3    3    0    0 -0.38176109406E+01 -0.12156891167E+02 -0.18603162626E+02  0.22548654413E+02  0.00000000000E+00 0.  1.
</event>
<event>
 7    1  0.5897985E-013  0.5052887E+02  0.7816164E-02  0.1300439E+00
        -11   -1    0    0    0    0  0.00000000000E+00  0.00000000000E+00  0.45593999997E+02  0.45594000000E+02  0.51100000000E-03 0. -1.
         11   -1    0    0    0    0 -0.00000000000E+00 -0.00000000000E+00 -0.45593999997E+02  0.45594000000E+02  0.51100000000E-03 0.  1.
    9900012    2    1    2    0    0  0.23478622672E+02  0.27924781105E+01 -0.33077500103E+02  0.50528872247E+02  0.30000037682E+02 0.  0.
         12    1    1    2    0    0 -0.23478622672E+02 -0.27924781105E+01  0.33077500103E+02  0.40659127753E+02  0.00000000000E+00 0. -1.
         11    1    3    3    0    0  0.25003689907E+02 -0.23960027659E+01 -0.34041100979E+02  0.42305104826E+02  0.51100000000E-03 0. -1.
        -11    1    3    3    0    0 -0.17284674800E+01  0.59070933125E+01 -0.89612954210E+00  0.62196784200E+01  0.51100000000E-03 0.  1.
         12    1    3    3    0    0  0.20340024492E+00 -0.71861243608E+00  0.18597304183E+01  0.20040890004E+01  0.00000000000E+00 0. -1.
</event>
<event>
 7    1  0.5897985E-013  0.5052886E+02  0.7816164E-02  0.1300439E+00
        -11   -1    0    0    0    0  0.00000000000E+00  0.00000000000E+00  0.45593999997E+02  0.45594000000E+02  0.51100000000E-03 0.  1.
         11   -1    0    0    0    0 -0.00000000000E+00 -0.00000000000E+00 -0.45593999997E+02  0.45594000000E+02  0.51100000000E-03 0. -1.
    9900012    2    1    2    0    0  0.98706017323E+01  0.35312276820E+02  0.17572130321E+02  0.50528862813E+02  0.30000009006E+02 0.  0.
         12    1    1    2    0    0 -0.98706017323E+01 -0.35312276820E+02 -0.17572130321E+02  0.40659137187E+02  0.00000000000E+00 0. -1.
         11    1    3    3    0    0 -0.31406125042E+00  0.15369779994E+01 -0.59789353036E+01  0.61813108210E+01  0.51100000000E-03 0. -1.
        -11    1    3    3    0    0  0.12021107809E+02  0.25911124707E+02  0.22162212505E+02  0.36153244390E+02  0.51100000000E-03 0.  1.
         12    1    3    3    0    0 -0.18364448266E+01  0.78641741134E+01  0.13888531200E+01  0.81943076020E+01  0.00000000000E+00 0. -1.
</event>
<event>
 7    1  0.5897985E-013  0.5052885E+02  0.7816164E-02  0.1300439E+00
        -11   -1    0    0    0    0  0.00000000000E+00  0.00000000000E+00  0.45593999997E+02  0.45594000000E+02  0.51100000000E-03 0.  1.
         11   -1    0    0    0    0 -0.00000000000E+00 -0.00000000000E+00 -0.45593999997E+02  0.45594000000E+02  0.51100000000E-03 0. -1.
    9900012    2    1    2    0    0 -0.27444191224E+02  0.54633719828E+01  0.29498035369E+02  0.50528853969E+02  0.29999982124E+02 0.  0.
         12    1    1    2    0    0  0.27444191224E+02 -0.54633719828E+01 -0.29498035369E+02  0.40659146031E+02  0.00000000000E+00 0. -1.
         11    1    3    3    0    0 -0.14733168475E+02  0.69088781919E+01  0.76065899130E+01  0.17962713090E+02  0.51100000000E-03 0. -1.
        -11    1    3    3    0    0 -0.59616954927E+01  0.25686742920E+01  0.23644991282E+02  0.24519900361E+02  0.51100000000E-03 0.  1.
        -12    1    3    3    0    0 -0.67493272561E+01 -0.40141805011E+01 -0.17535458254E+01  0.80462405176E+01  0.00000000000E+00 0.  1.
</event>
<event>
 7    1  0.5897985E-013  0.5052886E+02  0.7816164E-02  0.1300439E+00
        -11   -1    0    0    0    0  0.00000000000E+00  0.00000000000E+00  0.45593999997E+02  0.45594000000E+02  0.51100000000E-03 0.  1.
         11   -1    0    0    0    0 -0.00000000000E+00 -0.00000000000E+00 -0.45593999997E+02  0.45594000000E+02  0.51100000000E-03 0. -1.
    9900012    2    1    2    0    0 -0.52354279782E+01  0.69150865836E+01  0.39723259410E+02  0.50528862445E+02  0.30000007887E+02 0.  0.
         12    1    1    2    0    0  0.52354279782E+01 -0.69150865836E+01 -0.39723259410E+02  0.40659137555E+02  0.00000000000E+00 0. -1.
         11    1    3    3    0    0  0.11259330576E+01 -0.82280953106E+00  0.72731467917E+00  0.15728088499E+01  0.51100000000E-03 0. -1.
        -11    1    3    3    0    0 -0.11960547743E+02 -0.64164308911E+01  0.24095614361E+02  0.27655450084E+02  0.51100000000E-03 0.  1.
        -12    1    3    3    0    0  0.55991867072E+01  0.14154327006E+02  0.14900330370E+02  0.21300603511E+02  0.00000000000E+00 0.  1.
</event>
<event>
 7    1  0.5897985E-013  0.5052885E+02  0.7816164E-02  0.1300439E+00
        -11   -1    0    0    0    0  0.00000000000E+00  0.00000000000E+00  0.45593999997E+02  0.45594000000E+02  0.51100000000E-03 0.  1.
         11   -1    0    0    0    0 -0.00000000000E+00 -0.00000000000E+00 -0.45593999997E+02  0.45594000000E+02  0.51100000000E-03 0. -1.
    9900012    2    1    2    0    0  0.33537287174E+02  0.94461275113E+01  0.20956791990E+02  0.50528854824E+02  0.29999984722E+02 0.  0.
         12    1    1    2    0    0 -0.33537287174E+02 -0.94461275113E+01 -0.20956791990E+02  0.40659145176E+02  0.00000000000E+00 0. -1.
         11    1    3    3    0    0  0.13528040866E+02 -0.33504716885E+01  0.10083294220E+02  0.17201929333E+02  0.51100000000E-03 0. -1.
        -11    1    3    3    0    0  0.77653456479E+01  0.16571437819E+02  0.37983292939E+01  0.18690651410E+02  0.51100000000E-03 0.  1.
        -12    1    3    3    0    0  0.12243900660E+02 -0.37748386196E+01  0.70751684765E+01  0.14636274080E+02  0.00000000000E+00 0.  1.
</event>
<event>
 7    1  0.5897985E-013  0.5052885E+02  0.7816164E-02  0.1300439E+00
        -11   -1    0    0    0    0  0.00000000000E+00  0.00000000000E+00  0.45593999997E+02  0.45594000000E+02  0.51100000000E-03 0.  1.
         11   -1    0    0    0    0 -0.00000000000E+00 -0.00000000000E+00 -0.45593999997E+02  0.45594000000E+02  0.51100000000E-03 0. -1.
    9900012    2    1    2    0    0  0.12503898033E+02  0.38641428207E+02 -0.19128744640E+01  0.50528849386E+02  0.29999968194E+02 0.  0.
         12    1    1    2    0    0 -0.12503898033E+02 -0.38641428207E+02  0.19128744640E+01  0.40659150614E+02  0.00000000000E+00 0. -1.
         11    1    3    3    0    0 -0.42846007625E+01  0.34660387897E+01  0.73780531048E+01  0.92090659931E+01  0.51100000000E-03 0.  1.
        -11    1    3    3    0    0  0.96589649631E+01  0.28724970255E+02 -0.93169057957E+01  0.31705271710E+02  0.51100000000E-03 0. -1.
        -12    1    3    3    0    0  0.71295338325E+01  0.64504191622E+01  0.25978226873E-01  0.96145116831E+01  0.00000000000E+00 0.  1.
</event>
<event>
 7    1  0.5897985E-013  0.5052886E+02  0.7816164E-02  0.1300439E+00
        -11   -1    0    0    0    0  0.00000000000E+00  0.00000000000E+00  0.45593999997E+02  0.45594000000E+02  0.51100000000E-03 0.  1.
         11   -1    0    0    0    0 -0.00000000000E+00 -0.00000000000E+00 -0.45593999997E+02  0.45594000000E+02  0.51100000000E-03 0. -1.
    9900012    2    1    2    0    0  0.37847215782E+02  0.93436755722E+01  0.11552038643E+02  0.50528860652E+02  0.30000002439E+02 0.  0.
         12    1    1    2    0    0 -0.37847215782E+02 -0.93436755722E+01 -0.11552038643E+02  0.40659139348E+02  0.00000000000E+00 0. -1.
         11    1    3    3    0    0  0.14915230962E+02  0.13954826168E+02  0.13170344075E+02  0.24303482288E+02  0.51100000000E-03 0. -1.
        -11    1    3    3    0    0  0.77878291245E+01 -0.72729741558E+01  0.68361467960E+00  0.10677722830E+02  0.51100000000E-03 0.  1.
         12    1    3    3    0    0  0.15144155696E+02  0.26618235604E+01 -0.23019201112E+01  0.15547655534E+02  0.00000000000E+00 0. -1.
</event>
<event>
 7    1  0.5897985E-013  0.5052886E+02  0.7816164E-02  0.1300439E+00
        -11   -1    0    0    0    0  0.00000000000E+00  0.00000000000E+00  0.45593999997E+02  0.45594000000E+02  0.51100000000E-03 0.  1.
         11   -1    0    0    0    0 -0.00000000000E+00 -0.00000000000E+00 -0.45593999997E+02  0.45594000000E+02  0.51100000000E-03 0. -1.
    9900012    2    1    2    0    0  0.17455400544E+02  0.44261035409E+00  0.36718916669E+02  0.50528858920E+02  0.29999997172E+02 0.  0.
         12    1    1    2    0    0 -0.17455400544E+02 -0.44261035409E+00 -0.36718916669E+02  0.40659141080E+02  0.00000000000E+00 0. -1.
         11    1    3    3    0    0  0.32164740008E+01 -0.10032760351E+02  0.59817424246E+01  0.12115412826E+02  0.51100000000E-03 0. -1.
        -11    1    3    3    0    0  0.59847283951E+01  0.13029102523E+02  0.20517115094E+02  0.25030511352E+02  0.51100000000E-03 0.  1.
        -12    1    3    3    0    0  0.82541981476E+01 -0.25537318182E+01  0.10220059150E+02  0.13382934742E+02  0.00000000000E+00 0.  1.
</event>
<event>
 7    1  0.5897985E-013  0.5052886E+02  0.7816164E-02  0.1300439E+00
        -11   -1    0    0    0    0  0.00000000000E+00  0.00000000000E+00  0.45593999997E+02  0.45594000000E+02  0.51100000000E-03 0.  1.
         11   -1    0    0    0    0 -0.00000000000E+00 -0.00000000000E+00 -0.45593999997E+02  0.45594000000E+02  0.51100000000E-03 0. -1.
    9900012    2    1    2    0    0  0.12737934938E+02 -0.34937626530E+02  0.16439985049E+02  0.50528857825E+02  0.29999993844E+02 0.  0.
         12    1    1    2    0    0 -0.12737934938E+02  0.34937626530E+02 -0.16439985049E+02  0.40659142175E+02  0.00000000000E+00 0. -1.
         11    1    3    3    0    0  0.40944923488E+01  0.44779475258E+01  0.60341780987E+01  0.85573469736E+01  0.51100000000E-03 0. -1.
        -11    1    3    3    0    0  0.93031342117E+01 -0.36020518431E+02  0.95421274551E+01  0.38406747465E+02  0.51100000000E-03 0.  1.
         12    1    3    3    0    0 -0.65969162210E+00 -0.33950556242E+01  0.86367949571E+00  0.35647633862E+01  0.00000000000E+00 0. -1.
</event>
<event>
 7    1  0.5897985E-013  0.5052885E+02  0.7816164E-02  0.1300439E+00
        -11   -1    0    0    0    0  0.00000000000E+00  0.00000000000E+00  0.45593999997E+02  0.45594000000E+02  0.51100000000E-03 0.  1.
         11   -1    0    0    0    0 -0.00000000000E+00 -0.00000000000E+00 -0.45593999997E+02  0.45594000000E+02  0.51100000000E-03 0. -1.
    9900012    2    1    2    0    0  0.13735187631E+02  0.26290009006E+02  0.27809102270E+02  0.50528854389E+02  0.29999983401E+02 0.  0.
         12    1    1    2    0    0 -0.13735187631E+02 -0.26290009006E+02 -0.27809102270E+02  0.40659145611E+02  0.00000000000E+00 0. -1.
         11    1    3    3    0    0 -0.41527737410E+01  0.60640426708E+01  0.45633459901E+00  0.73638566516E+01  0.51100000000E-03 0. -1.
        -11    1    3    3    0    0  0.20306613488E+02  0.15818369518E+02  0.14915087952E+02  0.29749608643E+02  0.51100000000E-03 0.  1.
        -12    1    3    3    0    0 -0.24186521162E+01  0.44075968168E+01  0.12437679719E+02  0.13415389094E+02  0.00000000000E+00 0.  1.
</event>
<event>
 7    1  0.5897985E-013  0.5052886E+02  0.7816164E-02  0.1300439E+00
        -11   -1    0    0    0    0  0.00000000000E+00  0.00000000000E+00  0.45593999997E+02  0.45594000000E+02  0.51100000000E-03 0.  1.
         11   -1    0    0    0    0 -0.00000000000E+00 -0.00000000000E+00 -0.45593999997E+02  0.45594000000E+02  0.51100000000E-03 0. -1.
    9900012    2    1    2    0    0  0.11648871131E+02 -0.51571922237E+01  0.38611818012E+02  0.50528864244E+02  0.30000013356E+02 0.  0.
         12    1    1    2    0    0 -0.11648871131E+02  0.51571922237E+01 -0.38611818012E+02  0.40659135756E+02  0.00000000000E+00 0. -1.
         11    1    3    3    0    0  0.53227093570E+01 -0.90602423397E+01  0.23507767127E+02  0.25749453232E+02  0.51100000000E-03 0.  1.
        -11    1    3    3    0    0  0.74015418983E+01  0.10460908054E+02  0.11507624824E+02  0.17223206704E+02  0.51100000000E-03 0. -1.
         12    1    3    3    0    0 -0.10753801240E+01 -0.65578579383E+01  0.35964260601E+01  0.75562043088E+01  0.00000000000E+00 0. -1.
</event>
<event>
 7    1  0.5897985E-013  0.5052886E+02  0.7816164E-02  0.1300439E+00
        -11   -1    0    0    0    0  0.00000000000E+00  0.00000000000E+00  0.45593999997E+02  0.45594000000E+02  0.51100000000E-03 0.  1.
         11   -1    0    0    0    0 -0.00000000000E+00 -0.00000000000E+00 -0.45593999997E+02  0.45594000000E+02  0.51100000000E-03 0. -1.
    9900012    2    1    2    0    0 -0.28226320488E+02 -0.78140900203E+01  0.28202488910E+02  0.50528861398E+02  0.30000004706E+02 0.  0.
         12    1    1    2    0    0  0.28226320488E+02  0.78140900203E+01 -0.28202488910E+02  0.40659138602E+02  0.00000000000E+00 0. -1.
         11    1    3    3    0    0 -0.83070797218E+00 -0.67847876529E+01  0.14465974999E+01  0.69868493484E+01  0.51100000000E-03 0. -1.
        -11    1    3    3    0    0 -0.10545310126E+02  0.89666218629E+01  0.16125554466E+02  0.21251761819E+02  0.51100000000E-03 0.  1.
        -12    1    3    3    0    0 -0.16850302389E+02 -0.99959242303E+01  0.10630336943E+02  0.22290250231E+02  0.00000000000E+00 0.  1.
</event>
<event>
 7    1  0.5897985E-013  0.5052885E+02  0.7816164E-02  0.1300439E+00
        -11   -1    0    0    0    0  0.00000000000E+00  0.00000000000E+00  0.45593999997E+02  0.45594000000E+02  0.51100000000E-03 0.  1.
         11   -1    0    0    0    0 -0.00000000000E+00 -0.00000000000E+00 -0.45593999997E+02  0.45594000000E+02  0.51100000000E-03 0. -1.
    9900012    2    1    2    0    0 -0.27017185188E+02 -0.23139906764E+02  0.19692200949E+02  0.50528851475E+02  0.29999974544E+02 0.  0.
         12    1    1    2    0    0  0.27017185188E+02  0.23139906764E+02 -0.19692200949E+02  0.40659148525E+02  0.00000000000E+00 0. -1.
         11    1    3    3    0    0 -0.77694173073E+01 -0.24024072899E+02  0.47036871769E+01  0.25683547209E+02  0.51100000000E-03 0. -1.
        -11    1    3    3    0    0 -0.74712122984E+01 -0.66703308849E+00  0.84020667145E+01  0.11263155494E+02  0.51100000000E-03 0.  1.
         12    1    3    3    0    0 -0.11776555582E+02  0.15511992231E+01  0.65864470579E+01  0.13582148772E+02  0.00000000000E+00 0. -1.
</event>
<event>
 7    1  0.5897985E-013  0.5052886E+02  0.7816164E-02  0.1300439E+00
        -11   -1    0    0    0    0  0.00000000000E+00  0.00000000000E+00  0.45593999997E+02  0.45594000000E+02  0.51100000000E-03 0.  1.
         11   -1    0    0    0    0 -0.00000000000E+00 -0.00000000000E+00 -0.45593999997E+02  0.45594000000E+02  0.51100000000E-03 0. -1.
    9900012    2    1    2    0    0 -0.20366141531E+02  0.21655560853E+02  0.27738467280E+02  0.50528860760E+02  0.30000002765E+02 0.  0.
         12    1    1    2    0    0  0.20366141531E+02 -0.21655560853E+02 -0.27738467280E+02  0.40659139240E+02  0.00000000000E+00 0. -1.
         11    1    3    3    0    0 -0.93980394555E+01  0.96371685795E+00  0.21216936341E+02  0.23225207938E+02  0.51100000000E-03 0. -1.
        -11    1    3    3    0    0 -0.70215777019E+00  0.10864374313E+02 -0.14914613420E+01  0.10988726585E+02  0.51100000000E-03 0.  1.
        -12    1    3    3    0    0 -0.10265944305E+02  0.98274696820E+01  0.80129922804E+01  0.16314926237E+02  0.00000000000E+00 0.  1.
</event>
<event>
 7    1  0.5897985E-013  0.5052886E+02  0.7816164E-02  0.1300439E+00
        -11   -1    0    0    0    0  0.00000000000E+00  0.00000000000E+00  0.45593999997E+02  0.45594000000E+02  0.51100000000E-03 0.  1.
         11   -1    0    0    0    0 -0.00000000000E+00 -0.00000000000E+00 -0.45593999997E+02  0.45594000000E+02  0.51100000000E-03 0. -1.
    9900012    2    1    2    0    0 -0.68658235131E+01  0.20757090352E+02  0.34280741665E+02  0.50528861034E+02  0.30000003598E+02 0.  0.
         12    1    1    2    0    0  0.68658235131E+01 -0.20757090352E+02 -0.34280741665E+02  0.40659138966E+02  0.00000000000E+00 0. -1.
         11    1    3    3    0    0  0.27346692984E+01  0.23452700534E+02  0.24046845218E+02  0.33701013986E+02  0.51100000000E-03 0. -1.
        -11    1    3    3    0    0 -0.46704179841E+01 -0.58286108603E+01  0.50310751886E+01  0.90053998535E+01  0.51100000000E-03 0.  1.
         12    1    3    3    0    0 -0.49300748273E+01  0.31330006779E+01  0.52028212587E+01  0.78224471938E+01  0.00000000000E+00 0. -1.
</event>
<event>
 7    1  0.5897985E-013  0.5052888E+02  0.7816164E-02  0.1300439E+00
        -11   -1    0    0    0    0  0.00000000000E+00  0.00000000000E+00  0.45593999997E+02  0.45594000000E+02  0.51100000000E-03 0.  1.
         11   -1    0    0    0    0 -0.00000000000E+00 -0.00000000000E+00 -0.45593999997E+02  0.45594000000E+02  0.51100000000E-03 0. -1.
    9900012    2    1    2    0    0 -0.19746912065E+02  0.56927533850E+01  0.35082990860E+02  0.50528877716E+02  0.30000054307E+02 0.  0.
         12    1    1    2    0    0  0.19746912065E+02 -0.56927533850E+01 -0.35082990860E+02  0.40659122284E+02  0.00000000000E+00 0. -1.
         11    1    3    3    0    0 -0.11514230352E+02 -0.31260133611E+01  0.83726966063E+00  0.11960371268E+02  0.51100000000E-03 0. -1.
        -11    1    3    3    0    0 -0.22448108816E+01  0.10456764073E+02  0.26917162843E+02  0.28964059566E+02  0.51100000000E-03 0.  1.
        -12    1    3    3    0    0 -0.59878708312E+01 -0.16379973264E+01  0.73285583558E+01  0.96044468819E+01  0.00000000000E+00 0.  1.
</event>
<event>
 7    1  0.5897985E-013  0.5052886E+02  0.7816164E-02  0.1300439E+00
        -11   -1    0    0    0    0  0.00000000000E+00  0.00000000000E+00  0.45593999997E+02  0.45594000000E+02  0.51100000000E-03 0.  1.
         11   -1    0    0    0    0 -0.00000000000E+00 -0.00000000000E+00 -0.45593999997E+02  0.45594000000E+02  0.51100000000E-03 0. -1.
    9900012    2    1    2    0    0  0.31190261938E+02 -0.15597339064E+02  0.20905895609E+02  0.50528857155E+02  0.29999991809E+02 0.  0.
         12    1    1    2    0    0 -0.31190261938E+02  0.15597339064E+02 -0.20905895609E+02  0.40659142845E+02  0.00000000000E+00 0. -1.
         11    1    3    3    0    0  0.70595860882E+01 -0.11545597251E+00 -0.51535730930E+01  0.87413043479E+01  0.51100000000E-03 0. -1.
        -11    1    3    3    0    0  0.22752808631E+02 -0.15792991579E+02  0.28002126480E+02  0.39385631534E+02  0.51100000000E-03 0.  1.
        -12    1    3    3    0    0  0.13778672185E+01  0.31110848739E+00 -0.19426577778E+01  0.24019212736E+01  0.00000000000E+00 0.  1.
</event>
<event>
 7    1  0.5897985E-013  0.5052887E+02  0.7816164E-02  0.1300439E+00
        -11   -1    0    0    0    0  0.00000000000E+00  0.00000000000E+00  0.45593999997E+02  0.45594000000E+02  0.51100000000E-03 0. -1.
         11   -1    0    0    0    0 -0.00000000000E+00 -0.00000000000E+00 -0.45593999997E+02  0.45594000000E+02  0.51100000000E-03 0.  1.
    9900012    2    1    2    0    0 -0.40179786677E+02  0.59944893902E+01 -0.16780444202E+01  0.50528868264E+02  0.30000025574E+02 0.  0.
         12    1    1    2    0    0  0.40179786677E+02 -0.59944893902E+01  0.16780444202E+01  0.40659131736E+02  0.00000000000E+00 0. -1.
         11    1    3    3    0    0 -0.12552085404E+02 -0.19148209637E+01  0.37005616222E+01  0.13225564029E+02  0.51100000000E-03 0. -1.
        -11    1    3    3    0    0 -0.14481589743E+02  0.14819361106E+02  0.18181624129E+01  0.20799894709E+02  0.51100000000E-03 0.  1.
        -12    1    3    3    0    0 -0.13146111531E+02 -0.69100507524E+01 -0.71967684554E+01  0.16503409526E+02  0.00000000000E+00 0.  1.
</event>
<event>
 7    1  0.5897985E-013  0.5052883E+02  0.7816164E-02  0.1300439E+00
        -11   -1    0    0    0    0  0.00000000000E+00  0.00000000000E+00  0.45593999997E+02  0.45594000000E+02  0.51100000000E-03 0.  1.
         11   -1    0    0    0    0 -0.00000000000E+00 -0.00000000000E+00 -0.45593999997E+02  0.45594000000E+02  0.51100000000E-03 0. -1.
    9900012    2    1    2    0    0 -0.13551626763E+02  0.28046654660E+02  0.26132475709E+02  0.50528834831E+02  0.29999923953E+02 0.  0.
         12    1    1    2    0    0  0.13551626763E+02 -0.28046654660E+02 -0.26132475709E+02  0.40659165169E+02  0.00000000000E+00 0. -1.
         11    1    3    3    0    0 -0.16639710292E+02  0.92864783219E+01  0.21350229017E+01  0.19174904466E+02  0.51100000000E-03 0. -1.
        -11    1    3    3    0    0 -0.45654728808E+00  0.11065480555E+02  0.96371674157E+01  0.14680881833E+02  0.51100000000E-03 0.  1.
         12    1    3    3    0    0  0.35446308172E+01  0.76946957823E+01  0.14360285392E+02  0.16673048532E+02  0.00000000000E+00 0. -1.
</event>
<event>
 7    1  0.5897985E-013  0.5052886E+02  0.7816164E-02  0.1300439E+00
        -11   -1    0    0    0    0  0.00000000000E+00  0.00000000000E+00  0.45593999997E+02  0.45594000000E+02  0.51100000000E-03 0.  1.
         11   -1    0    0    0    0 -0.00000000000E+00 -0.00000000000E+00 -0.45593999997E+02  0.45594000000E+02  0.51100000000E-03 0. -1.
    9900012    2    1    2    0    0 -0.33228183867E+02 -0.10415788861E+02  0.20989636002E+02  0.50528859820E+02  0.29999999909E+02 0.  0.
         12    1    1    2    0    0  0.33228183867E+02  0.10415788861E+02 -0.20989636002E+02  0.40659140180E+02  0.00000000000E+00 0. -1.
         11    1    3    3    0    0 -0.24832843662E+02 -0.92976873049E+01  0.21741609502E+02  0.34290154528E+02  0.51100000000E-03 0. -1.
        -11    1    3    3    0    0  0.12391678207E+01  0.24236843603E+01  0.40710029205E+01  0.48972285842E+01  0.51100000000E-03 0.  1.
         12    1    3    3    0    0 -0.96345080257E+01 -0.35417859160E+01 -0.48229764200E+01  0.11341476708E+02  0.00000000000E+00 0. -1.
</event>
<event>
 7    1  0.5897985E-013  0.5052886E+02  0.7816164E-02  0.1300439E+00
        -11   -1    0    0    0    0  0.00000000000E+00  0.00000000000E+00  0.45593999997E+02  0.45594000000E+02  0.51100000000E-03 0.  1.
         11   -1    0    0    0    0 -0.00000000000E+00 -0.00000000000E+00 -0.45593999997E+02  0.45594000000E+02  0.51100000000E-03 0. -1.
    9900012    2    1    2    0    0  0.10250042116E+02 -0.35379335634E+02  0.17216410540E+02  0.50528861480E+02  0.30000004955E+02 0.  0.
         12    1    1    2    0    0 -0.10250042116E+02  0.35379335634E+02 -0.17216410540E+02  0.40659138520E+02  0.00000000000E+00 0. -1.
         11    1    3    3    0    0  0.60773191884E+01  0.18415931118E+01  0.92923685448E+01  0.11254927238E+02  0.51100000000E-03 0. -1.
        -11    1    3    3    0    0 -0.22260988347E+01 -0.17559993905E+02  0.49924926715E+01  0.18391136052E+02  0.51100000000E-03 0.  1.
         12    1    3    3    0    0  0.63988217627E+01 -0.19660934841E+02  0.29315493238E+01  0.20882798189E+02  0.00000000000E+00 0. -1.
</event>
<event>
 7    1  0.5897985E-013  0.5052885E+02  0.7816164E-02  0.1300439E+00
        -11   -1    0    0    0    0  0.00000000000E+00  0.00000000000E+00  0.45593999997E+02  0.45594000000E+02  0.51100000000E-03 0.  1.
         11   -1    0    0    0    0 -0.00000000000E+00 -0.00000000000E+00 -0.45593999997E+02  0.45594000000E+02  0.51100000000E-03 0. -1.
    9900012    2    1    2    0    0  0.18767512787E+02 -0.27840355409E+02  0.22931667426E+02  0.50528852241E+02  0.29999976872E+02 0.  0.
         12    1    1    2    0    0 -0.18767512787E+02  0.27840355409E+02 -0.22931667426E+02  0.40659147759E+02  0.00000000000E+00 0. -1.
         11    1    3    3    0    0  0.10299209654E+01 -0.13085762635E+02  0.19865779766E+02  0.23810651543E+02  0.51100000000E-03 0. -1.
        -11    1    3    3    0    0  0.48533079296E+01 -0.88547613753E+01 -0.40274891784E+01  0.10871157538E+02  0.51100000000E-03 0.  1.
         12    1    3    3    0    0  0.12884283892E+02 -0.58998313992E+01  0.70933768385E+01  0.15847043160E+02  0.00000000000E+00 0. -1.
</event>
<event>
 7    1  0.5897985E-013  0.5052887E+02  0.7816164E-02  0.1300439E+00
        -11   -1    0    0    0    0  0.00000000000E+00  0.00000000000E+00  0.45593999997E+02  0.45594000000E+02  0.51100000000E-03 0. -1.
         11   -1    0    0    0    0 -0.00000000000E+00 -0.00000000000E+00 -0.45593999997E+02  0.45594000000E+02  0.51100000000E-03 0.  1.
    9900012    2    1    2    0    0  0.26203732832E+02 -0.31056327620E+02  0.14260174540E+01  0.50528872792E+02  0.30000039338E+02 0.  0.
         12    1    1    2    0    0 -0.26203732832E+02  0.31056327620E+02 -0.14260174540E+01  0.40659127208E+02  0.00000000000E+00 0. -1.
         11    1    3    3    0    0  0.40427466741E+01  0.89623962415E+00 -0.47325163927E+00  0.41678547852E+01  0.51100000000E-03 0. -1.
        -11    1    3    3    0    0 -0.18268795611E+00 -0.20908067717E+02  0.42146098030E+01  0.21329407085E+02  0.51100000000E-03 0.  1.
        -12    1    3    3    0    0  0.22343674114E+02 -0.11044499527E+02 -0.23153407097E+01  0.25031610921E+02  0.00000000000E+00 0.  1.
</event>
<event>
 7    1  0.5897985E-013  0.5052886E+02  0.7816164E-02  0.1300439E+00
        -11   -1    0    0    0    0  0.00000000000E+00  0.00000000000E+00  0.45593999997E+02  0.45594000000E+02  0.51100000000E-03 0.  1.
         11   -1    0    0    0    0 -0.00000000000E+00 -0.00000000000E+00 -0.45593999997E+02  0.45594000000E+02  0.51100000000E-03 0. -1.
    9900012    2    1    2    0    0 -0.33303199120E+02 -0.22902685567E+02  0.44192497954E+01  0.50528857774E+02  0.29999993689E+02 0.  0.
         12    1    1    2    0    0  0.33303199120E+02  0.22902685567E+02 -0.44192497954E+01  0.40659142226E+02  0.00000000000E+00 0. -1.
         11    1    3    3    0    0 -0.17032265338E+02 -0.21287000521E+02 -0.15503834413E+01  0.27306375497E+02  0.51100000000E-03 0. -1.
        -11    1    3    3    0    0 -0.12303058884E+02  0.60818180876E+01  0.28447211428E+01  0.14015926933E+02  0.51100000000E-03 0.  1.
        -12    1    3    3    0    0 -0.39678748988E+01 -0.76975031335E+01  0.31249120939E+01  0.92065553437E+01  0.00000000000E+00 0.  1.
</event>
<event>
 7    1  0.5897985E-013  0.5052886E+02  0.7816164E-02  0.1300439E+00
        -11   -1    0    0    0    0  0.00000000000E+00  0.00000000000E+00  0.45593999997E+02  0.45594000000E+02  0.51100000000E-03 0. -1.
         11   -1    0    0    0    0 -0.00000000000E+00 -0.00000000000E+00 -0.45593999997E+02  0.45594000000E+02  0.51100000000E-03 0.  1.
    9900012    2    1    2    0    0  0.29036261946E+02 -0.17818839158E+02 -0.22193461547E+02  0.50528864837E+02  0.30000015158E+02 0.  0.
         12    1    1    2    0    0 -0.29036261946E+02  0.17818839158E+02  0.22193461547E+02  0.40659135163E+02  0.00000000000E+00 0. -1.
         11    1    3    3    0    0  0.98833083843E+01 -0.16204623568E+01  0.62551308749E+01  0.11808147416E+02  0.51100000000E-03 0. -1.
        -11    1    3    3    0    0  0.58016918415E+00 -0.19730143253E+00 -0.41814833674E+01  0.42261480749E+01  0.51100000000E-03 0.  1.
         12    1    3    3    0    0  0.18572784378E+02 -0.16001075369E+02 -0.24267109055E+02  0.34494569346E+02  0.00000000000E+00 0. -1.
</event>
<event>
 7    1  0.5897985E-013  0.5052886E+02  0.7816164E-02  0.1300439E+00
        -11   -1    0    0    0    0  0.00000000000E+00  0.00000000000E+00  0.45593999997E+02  0.45594000000E+02  0.51100000000E-03 0.  1.
         11   -1    0    0    0    0 -0.00000000000E+00 -0.00000000000E+00 -0.45593999997E+02  0.45594000000E+02  0.51100000000E-03 0. -1.
    9900012    2    1    2    0    0 -0.71811947999E+01 -0.34990017633E+02  0.19424068330E+02  0.50528864210E+02  0.30000013253E+02 0.  0.
         12    1    1    2    0    0  0.71811947999E+01  0.34990017633E+02 -0.19424068330E+02  0.40659135790E+02  0.00000000000E+00 0. -1.
         11    1    3    3    0    0 -0.13967493029E+02 -0.21599142371E+02  0.21707584810E+01  0.25813291253E+02  0.51100000000E-03 0. -1.
        -11    1    3    3    0    0  0.50424186213E+01 -0.61214018796E+01  0.14898273736E+02  0.16877680739E+02  0.51100000000E-03 0.  1.
         12    1    3    3    0    0  0.17438796075E+01 -0.72694733820E+01  0.23550361126E+01  0.78378922185E+01  0.00000000000E+00 0. -1.
</event>
<event>
 7    1  0.5897985E-013  0.5052886E+02  0.7816164E-02  0.1300439E+00
        -11   -1    0    0    0    0  0.00000000000E+00  0.00000000000E+00  0.45593999997E+02  0.45594000000E+02  0.51100000000E-03 0.  1.
         11   -1    0    0    0    0 -0.00000000000E+00 -0.00000000000E+00 -0.45593999997E+02  0.45594000000E+02  0.51100000000E-03 0. -1.
    9900012    2    1    2    0    0 -0.79004258497E+01 -0.39811304911E+02  0.24102397892E+01  0.50528856094E+02  0.29999988582E+02 0.  0.
         12    1    1    2    0    0  0.79004258497E+01  0.39811304911E+02 -0.24102397892E+01  0.40659143906E+02  0.00000000000E+00 0. -1.
         11    1    3    3    0    0 -0.24324330482E+01 -0.28250905487E+01 -0.96557459245E+00  0.38510000905E+01  0.51100000000E-03 0. -1.
        -11    1    3    3    0    0 -0.83434627804E+01  0.21369170686E+00 -0.29145212975E+01  0.88404451228E+01  0.51100000000E-03 0.  1.
        -12    1    3    3    0    0  0.28754699789E+01 -0.37199906070E+02  0.62903356791E+01  0.37837410880E+02  0.00000000000E+00 0.  1.
</event>
<event>
 7    1  0.5897985E-013  0.5052886E+02  0.7816164E-02  0.1300439E+00
        -11   -1    0    0    0    0  0.00000000000E+00  0.00000000000E+00  0.45593999997E+02  0.45594000000E+02  0.51100000000E-03 0. -1.
         11   -1    0    0    0    0 -0.00000000000E+00 -0.00000000000E+00 -0.45593999997E+02  0.45594000000E+02  0.51100000000E-03 0.  1.
    9900012    2    1    2    0    0 -0.21652128185E+01 -0.33852401299E+02 -0.22416342744E+02  0.50528860286E+02  0.30000001325E+02 0.  0.
         12    1    1    2    0    0  0.21652128185E+01  0.33852401299E+02  0.22416342744E+02  0.40659139714E+02  0.00000000000E+00 0. -1.
         11    1    3    3    0    0  0.65264688607E+01 -0.93229310070E+00 -0.76586192288E+01  0.10105365652E+02  0.51100000000E-03 0. -1.
        -11    1    3    3    0    0 -0.12444951545E+02 -0.30491084337E+02 -0.11466981153E+02  0.34872262617E+02  0.51100000000E-03 0.  1.
        -12    1    3    3    0    0  0.37532698658E+01 -0.24290238615E+01 -0.32907423628E+01  0.55512320167E+01  0.00000000000E+00 0.  1.
</event>
<event>
 7    1  0.5897985E-013  0.5052886E+02  0.7816164E-02  0.1300439E+00
        -11   -1    0    0    0    0  0.00000000000E+00  0.00000000000E+00  0.45593999997E+02  0.45594000000E+02  0.51100000000E-03 0.  1.
         11   -1    0    0    0    0 -0.00000000000E+00 -0.00000000000E+00 -0.45593999997E+02  0.45594000000E+02  0.51100000000E-03 0. -1.
    9900012    2    1    2    0    0 -0.23248075260E+01 -0.33327062777E+02  0.23174719376E+02  0.50528862508E+02  0.30000008080E+02 0.  0.
         12    1    1    2    0    0  0.23248075260E+01  0.33327062777E+02 -0.23174719376E+02  0.40659137492E+02  0.00000000000E+00 0. -1.
         11    1    3    3    0    0 -0.13937624229E+02 -0.11147232276E+02  0.15263424909E+02  0.23483830539E+02  0.51100000000E-03 0.  1.
        -11    1    3    3    0    0  0.11882200163E+02 -0.18754534277E+02  0.55779749182E+01  0.22891767977E+02  0.51100000000E-03 0. -1.
        -12    1    3    3    0    0 -0.26938345980E+00 -0.34252962237E+01  0.23333195486E+01  0.41532639916E+01  0.00000000000E+00 0.  1.
</event>
<event>
 7    1  0.5897985E-013  0.5052886E+02  0.7816164E-02  0.1300439E+00
        -11   -1    0    0    0    0  0.00000000000E+00  0.00000000000E+00  0.45593999997E+02  0.45594000000E+02  0.51100000000E-03 0.  1.
         11   -1    0    0    0    0 -0.00000000000E+00 -0.00000000000E+00 -0.45593999997E+02  0.45594000000E+02  0.51100000000E-03 0. -1.
    9900012    2    1    2    0    0 -0.13147845226E+02  0.21628681597E+02  0.31819805111E+02  0.50528859588E+02  0.29999999204E+02 0.  0.
         12    1    1    2    0    0  0.13147845226E+02 -0.21628681597E+02 -0.31819805111E+02  0.40659140412E+02  0.00000000000E+00 0. -1.
         11    1    3    3    0    0 -0.29498500376E+01  0.20374381291E+02  0.46761253481E+01  0.21111209742E+02  0.51100000000E-03 0. -1.
        -11    1    3    3    0    0 -0.44249225619E+01 -0.10388224193E+01  0.16288584620E+02  0.16910856894E+02  0.51100000000E-03 0.  1.
         12    1    3    3    0    0 -0.57730726266E+01  0.22931227249E+01  0.10855095143E+02  0.12506792952E+02  0.00000000000E+00 0. -1.
</event>
<event>
 7    1  0.5897985E-013  0.5052886E+02  0.7816164E-02  0.1300439E+00
        -11   -1    0    0    0    0  0.00000000000E+00  0.00000000000E+00  0.45593999997E+02  0.45594000000E+02  0.51100000000E-03 0.  1.
         11   -1    0    0    0    0 -0.00000000000E+00 -0.00000000000E+00 -0.45593999997E+02  0.45594000000E+02  0.51100000000E-03 0. -1.
    9900012    2    1    2    0    0 -0.36734921471E+02 -0.59209619502E+01  0.16390660647E+02  0.50528855858E+02  0.29999987866E+02 0.  0.
         12    1    1    2    0    0  0.36734921471E+02  0.59209619502E+01 -0.16390660647E+02  0.40659144142E+02  0.00000000000E+00 0. -1.
         11    1    3    3    0    0 -0.23308541982E+02 -0.93739794395E+01  0.25715081448E+01  0.25254153604E+02  0.51100000000E-03 0.  1.
        -11    1    3    3    0    0  0.33675483469E+01  0.13164205178E+01  0.50446283119E+01  0.62065787609E+01  0.51100000000E-03 0. -1.
         12    1    3    3    0    0 -0.16793927837E+02  0.21365969715E+01  0.87745241899E+01  0.19068123493E+02  0.00000000000E+00 0. -1.
</event>
<event>
 7    1  0.5897985E-013  0.5052886E+02  0.7816164E-02  0.1300439E+00
        -11   -1    0    0    0    0  0.00000000000E+00  0.00000000000E+00  0.45593999997E+02  0.45594000000E+02  0.51100000000E-03 0.  1.
         11   -1    0    0    0    0 -0.00000000000E+00 -0.00000000000E+00 -0.45593999997E+02  0.45594000000E+02  0.51100000000E-03 0. -1.
    9900012    2    1    2    0    0  0.11436279491E+02 -0.17696464997E+02  0.34773728937E+02  0.50528860976E+02  0.30000003422E+02 0.  0.
         12    1    1    2    0    0 -0.11436279491E+02  0.17696464997E+02 -0.34773728937E+02  0.40659139024E+02  0.00000000000E+00 0. -1.
         11    1    3    3    0    0 -0.47537430700E+01 -0.46415011188E+01  0.53963276962E+01  0.85593199892E+01  0.51100000000E-03 0. -1.
        -11    1    3    3    0    0  0.16790878220E+02 -0.16294387507E+02  0.30542901322E+02  0.38474790150E+02  0.51100000000E-03 0.  1.
        -12    1    3    3    0    0 -0.60085565993E+00  0.32394236289E+01 -0.11655000808E+01  0.34947508366E+01  0.00000000000E+00 0.  1.
</event>
<event>
 7    1  0.5897985E-013  0.5052889E+02  0.7816164E-02  0.1300439E+00
        -11   -1    0    0    0    0  0.00000000000E+00  0.00000000000E+00  0.45593999997E+02  0.45594000000E+02  0.51100000000E-03 0.  1.
         11   -1    0    0    0    0 -0.00000000000E+00 -0.00000000000E+00 -0.45593999997E+02  0.45594000000E+02  0.51100000000E-03 0. -1.
    9900012    2    1    2    0    0  0.20493392247E+02  0.90018883337E+01  0.33943334268E+02  0.50528892033E+02  0.30000097825E+02 0.  0.
         12    1    1    2    0    0 -0.20493392247E+02 -0.90018883337E+01 -0.33943334268E+02  0.40659107967E+02  0.00000000000E+00 0. -1.
         11    1    3    3    0    0 -0.68960214918E+01 -0.24094475657E+01  0.44810043752E+01  0.85697112238E+01  0.51100000000E-03 0. -1.
        -11    1    3    3    0    0  0.75834485276E+01  0.16280261249E+01  0.84774147598E+01  0.11490244641E+02  0.51100000000E-03 0.  1.
         12    1    3    3    0    0  0.19805965212E+02  0.97833097745E+01  0.20984915133E+02  0.30468936169E+02  0.00000000000E+00 0. -1.
</event>
<event>
 7    1  0.6583880E-013  0.5052886E+02  0.7816164E-02  0.1300439E+00
        -11   -1    0    0    0    0  0.00000000000E+00  0.00000000000E+00  0.45593999997E+02  0.45594000000E+02  0.51100000000E-03 0.  1.
         11   -1    0    0    0    0 -0.00000000000E+00 -0.00000000000E+00 -0.45593999997E+02  0.45594000000E+02  0.51100000000E-03 0. -1.
    9900012    2    1    2    0    0  0.27657058306E+02  0.28717396204E+02  0.79727124585E+01  0.50528857574E+02  0.29999993083E+02 0.  0.
         12    1    1    2    0    0 -0.27657058306E+02 -0.28717396204E+02 -0.79727124585E+01  0.40659142426E+02  0.00000000000E+00 0. -1.
         11    1    3    3    0    0  0.83105758831E+01  0.40701107095E+01 -0.82193145217E+01  0.12376938400E+02  0.51100000000E-03 0. -1.
        -11    1    3    3    0    0  0.18967911855E+02  0.13390783294E+02  0.98024554695E+01  0.25202834977E+02  0.51100000000E-03 0.  1.
         12    1    3    3    0    0  0.37857056740E+00  0.11256502200E+02  0.63895715107E+01  0.12949084197E+02  0.00000000000E+00 0. -1.
</event>
<event>
 7    1  0.5897985E-013  0.5052886E+02  0.7816164E-02  0.1300439E+00
        -11   -1    0    0    0    0  0.00000000000E+00  0.00000000000E+00  0.45593999997E+02  0.45594000000E+02  0.51100000000E-03 0.  1.
         11   -1    0    0    0    0 -0.00000000000E+00 -0.00000000000E+00 -0.45593999997E+02  0.45594000000E+02  0.51100000000E-03 0. -1.
    9900012    2    1    2    0    0  0.10885022562E+02  0.33666693860E+02  0.20030869637E+02  0.50528859207E+02  0.29999998044E+02 0.  0.
         12    1    1    2    0    0 -0.10885022562E+02 -0.33666693860E+02 -0.20030869637E+02  0.40659140793E+02  0.00000000000E+00 0. -1.
         11    1    3    3    0    0  0.15552040499E+02  0.26492956477E+02  0.11778070245E+02  0.32900845666E+02  0.51100000000E-03 0.  1.
        -11    1    3    3    0    0 -0.41143008555E+01  0.41173253947E+01 -0.25740888817E+01  0.63644146446E+01  0.51100000000E-03 0. -1.
        -12    1    3    3    0    0 -0.55271708102E+00  0.30564119887E+01  0.10826888273E+02  0.11263598896E+02  0.00000000000E+00 0.  1.
</event>
<event>
 7    1  0.5897985E-013  0.5052887E+02  0.7816164E-02  0.1300439E+00
        -11   -1    0    0    0    0  0.00000000000E+00  0.00000000000E+00  0.45593999997E+02  0.45594000000E+02  0.51100000000E-03 0.  1.
         11   -1    0    0    0    0 -0.00000000000E+00 -0.00000000000E+00 -0.45593999997E+02  0.45594000000E+02  0.51100000000E-03 0. -1.
    9900012    2    1    2    0    0  0.14253351367E+02 -0.24965160924E+02  0.28753221825E+02  0.50528867564E+02  0.30000023449E+02 0.  0.
         12    1    1    2    0    0 -0.14253351367E+02  0.24965160924E+02 -0.28753221825E+02  0.40659132436E+02  0.00000000000E+00 0. -1.
         11    1    3    3    0    0  0.14161672179E+02 -0.15215647430E+02  0.31205768209E+02  0.37494917727E+02  0.51100000000E-03 0. -1.
        -11    1    3    3    0    0 -0.13397470746E+00 -0.35748114188E+00  0.24206080647E+01  0.24505276275E+01  0.51100000000E-03 0.  1.
         12    1    3    3    0    0  0.22565389557E+00 -0.93920323519E+01 -0.48731544491E+01  0.10583422210E+02  0.00000000000E+00 0. -1.
</event>
<event>
 7    1  0.5897985E-013  0.5052887E+02  0.7816164E-02  0.1300439E+00
        -11   -1    0    0    0    0  0.00000000000E+00  0.00000000000E+00  0.45593999997E+02  0.45594000000E+02  0.51100000000E-03 0.  1.
         11   -1    0    0    0    0 -0.00000000000E+00 -0.00000000000E+00 -0.45593999997E+02  0.45594000000E+02  0.51100000000E-03 0. -1.
    9900012    2    1    2    0    0  0.29474328988E+02 -0.27527931420E+02 -0.51615991614E+01  0.50528865928E+02  0.30000018475E+02 0.  0.
         12    1    1    2    0    0 -0.29474328988E+02  0.27527931420E+02  0.51615991614E+01  0.40659134072E+02  0.00000000000E+00 0. -1.
         11    1    3    3    0    0  0.12610073117E+02 -0.62974564710E+01 -0.27696491368E+01  0.14364639175E+02  0.51100000000E-03 0. -1.
        -11    1    3    3    0    0  0.61598017702E+01 -0.17837893015E+02  0.83392068771E+01  0.20631915971E+02  0.51100000000E-03 0.  1.
         12    1    3    3    0    0  0.10704454101E+02 -0.33925819344E+01 -0.10731156902E+02  0.15532310782E+02  0.00000000000E+00 0. -1.
</event>
<event>
 7    1  0.5897985E-013  0.5052886E+02  0.7816164E-02  0.1300439E+00
        -11   -1    0    0    0    0  0.00000000000E+00  0.00000000000E+00  0.45593999997E+02  0.45594000000E+02  0.51100000000E-03 0.  1.
         11   -1    0    0    0    0 -0.00000000000E+00 -0.00000000000E+00 -0.45593999997E+02  0.45594000000E+02  0.51100000000E-03 0. -1.
    9900012    2    1    2    0    0 -0.24787710693E+02  0.19149243826E+02  0.25923764612E+02  0.50528859427E+02  0.29999998714E+02 0.  0.
         12    1    1    2    0    0  0.24787710693E+02 -0.19149243826E+02 -0.25923764612E+02  0.40659140573E+02  0.00000000000E+00 0. -1.
         11    1    3    3    0    0  0.54777037015E+01  0.58171136806E+01  0.34997029769E+01  0.87230711680E+01  0.51100000000E-03 0. -1.
        -11    1    3    3    0    0 -0.20444236796E+02  0.14634961342E+02  0.18185298403E+02  0.31029888655E+02  0.51100000000E-03 0.  1.
        -12    1    3    3    0    0 -0.98211775983E+01 -0.13028311964E+01  0.42387632319E+01  0.10775899604E+02  0.00000000000E+00 0.  1.
</event>
<event>
 7    1  0.5897985E-013  0.5052886E+02  0.7816164E-02  0.1300439E+00
        -11   -1    0    0    0    0  0.00000000000E+00  0.00000000000E+00  0.45593999997E+02  0.45594000000E+02  0.51100000000E-03 0.  1.
         11   -1    0    0    0    0 -0.00000000000E+00 -0.00000000000E+00 -0.45593999997E+02  0.45594000000E+02  0.51100000000E-03 0. -1.
    9900012    2    1    2    0    0 -0.20962504013E+02 -0.34656901439E+02  0.35550723345E+01  0.50528856733E+02  0.29999990527E+02 0.  0.
         12    1    1    2    0    0  0.20962504013E+02  0.34656901439E+02 -0.35550723345E+01  0.40659143267E+02  0.00000000000E+00 0. -1.
         11    1    3    3    0    0  0.36629776623E+01 -0.19600855616E+01  0.34204587117E+00  0.41684933012E+01  0.51100000000E-03 0. -1.
        -11    1    3    3    0    0 -0.21286506976E+02 -0.18475830176E+02 -0.63604003533E+01  0.28895092539E+02  0.51100000000E-03 0.  1.
         12    1    3    3    0    0 -0.33389747000E+01 -0.14220985701E+02  0.95734268166E+01  0.17465270893E+02  0.00000000000E+00 0. -1.
</event>
<event>
 7    1  0.5897985E-013  0.5052886E+02  0.7816164E-02  0.1300439E+00
        -11   -1    0    0    0    0  0.00000000000E+00  0.00000000000E+00  0.45593999997E+02  0.45594000000E+02  0.51100000000E-03 0. -1.
         11   -1    0    0    0    0 -0.00000000000E+00 -0.00000000000E+00 -0.45593999997E+02  0.45594000000E+02  0.51100000000E-03 0.  1.
    9900012    2    1    2    0    0 -0.19783751897E+02 -0.34634466271E+02  0.78881465184E+01  0.50528856520E+02  0.29999989879E+02 0.  0.
         12    1    1    2    0    0  0.19783751897E+02  0.34634466271E+02 -0.78881465184E+01  0.40659143480E+02  0.00000000000E+00 0. -1.
         11    1    3    3    0    0 -0.15617488604E+02 -0.65394064330E+01 -0.66285162845E+01  0.18182601991E+02  0.51100000000E-03 0. -1.
        -11    1    3    3    0    0 -0.15785838330E+01 -0.15621409766E+01  0.76003639782E+00  0.23473105750E+01  0.51100000000E-03 0.  1.
         12    1    3    3    0    0 -0.25876794607E+01 -0.26532918861E+02  0.13756626405E+02  0.29998943954E+02  0.00000000000E+00 0. -1.
</event>
<event>
 7    1  0.5897985E-013  0.5052884E+02  0.7816164E-02  0.1300439E+00
        -11   -1    0    0    0    0  0.00000000000E+00  0.00000000000E+00  0.45593999997E+02  0.45594000000E+02  0.51100000000E-03 0. -1.
         11   -1    0    0    0    0 -0.00000000000E+00 -0.00000000000E+00 -0.45593999997E+02  0.45594000000E+02  0.51100000000E-03 0.  1.
    9900012    2    1    2    0    0 -0.14850295710E+01  0.31281861693E+02 -0.25930814770E+02  0.50528839428E+02  0.29999937926E+02 0.  0.
         12    1    1    2    0    0  0.14850295710E+01 -0.31281861693E+02  0.25930814770E+02  0.40659160572E+02  0.00000000000E+00 0. -1.
         11    1    3    3    0    0  0.10418979065E+02  0.15548848994E+02 -0.93006718885E+01  0.20900342763E+02  0.51100000000E-03 0. -1.
        -11    1    3    3    0    0 -0.11920676149E+02  0.66448416957E+01 -0.15201083506E+02  0.20428641194E+02  0.51100000000E-03 0.  1.
         12    1    3    3    0    0  0.16667513102E-01  0.90881710034E+01 -0.14290593750E+01  0.91998554712E+01  0.00000000000E+00 0. -1.
</event>
<event>
 7    1  0.5897985E-013  0.5052885E+02  0.7816164E-02  0.1300439E+00
        -11   -1    0    0    0    0  0.00000000000E+00  0.00000000000E+00  0.45593999997E+02  0.45594000000E+02  0.51100000000E-03 0.  1.
         11   -1    0    0    0    0 -0.00000000000E+00 -0.00000000000E+00 -0.45593999997E+02  0.45594000000E+02  0.51100000000E-03 0. -1.
    9900012    2    1    2    0    0  0.27562195923E+02  0.29579941661E+01  0.29744609466E+02  0.50528853847E+02  0.29999981754E+02 0.  0.
         12    1    1    2    0    0 -0.27562195923E+02 -0.29579941661E+01 -0.29744609466E+02  0.40659146153E+02  0.00000000000E+00 0. -1.
         11    1    3    3    0    0  0.17564271856E+01 -0.23586312521E+01 -0.18597140804E+01  0.34794704430E+01  0.51100000000E-03 0. -1.
        -11    1    3    3    0    0  0.13972975690E+02  0.13959187362E+02  0.14355491742E+02  0.24416861077E+02  0.51100000000E-03 0.  1.
        -12    1    3    3    0    0  0.11832793047E+02 -0.86425619442E+01  0.17248831804E+02  0.22632522327E+02  0.00000000000E+00 0.  1.
</event>
<event>
 7    1  0.5897985E-013  0.5052887E+02  0.7816164E-02  0.1300439E+00
        -11   -1    0    0    0    0  0.00000000000E+00  0.00000000000E+00  0.45593999997E+02  0.45594000000E+02  0.51100000000E-03 0.  1.
         11   -1    0    0    0    0 -0.00000000000E+00 -0.00000000000E+00 -0.45593999997E+02  0.45594000000E+02  0.51100000000E-03 0. -1.
    9900012    2    1    2    0    0 -0.40542449731E+02 -0.13099039544E+01 -0.27854743349E+01  0.50528868850E+02  0.30000027357E+02 0.  0.
         12    1    1    2    0    0  0.40542449731E+02  0.13099039544E+01  0.27854743349E+01  0.40659131150E+02  0.00000000000E+00 0. -1.
         11    1    3    3    0    0 -0.17513563363E+01  0.67119748030E+01  0.33796404936E+01  0.77162053433E+01  0.51100000000E-03 0. -1.
        -11    1    3    3    0    0 -0.23857956762E+02  0.23886738739E+00  0.19048854681E+01  0.23935073582E+02  0.51100000000E-03 0.  1.
         12    1    3    3    0    0 -0.14933136634E+02 -0.82607461448E+01 -0.80700002966E+01  0.18877589925E+02  0.00000000000E+00 0. -1.
</event>
<event>
 7    1  0.5897985E-013  0.5052887E+02  0.7816164E-02  0.1300439E+00
        -11   -1    0    0    0    0  0.00000000000E+00  0.00000000000E+00  0.45593999997E+02  0.45594000000E+02  0.51100000000E-03 0.  1.
         11   -1    0    0    0    0 -0.00000000000E+00 -0.00000000000E+00 -0.45593999997E+02  0.45594000000E+02  0.51100000000E-03 0. -1.
    9900012    2    1    2    0    0  0.37303652553E+02 -0.24923355572E+01  0.15980940938E+02  0.50528871829E+02  0.30000036412E+02 0.  0.
         12    1    1    2    0    0 -0.37303652553E+02  0.24923355572E+01 -0.15980940938E+02  0.40659128171E+02  0.00000000000E+00 0. -1.
         11    1    3    3    0    0  0.17521065369E+02 -0.13059745352E+02  0.51029651882E+00  0.21858753009E+02  0.51100000000E-03 0.  1.
        -11    1    3    3    0    0  0.51136799443E+01  0.64391230877E+01  0.23255627726E+01  0.85451899441E+01  0.51100000000E-03 0. -1.
         12    1    3    3    0    0  0.14668907240E+02  0.41282867076E+01  0.13145081646E+02  0.20124928876E+02  0.00000000000E+00 0. -1.
</event>
<event>
 7    1  0.5897985E-013  0.5052886E+02  0.7816164E-02  0.1300439E+00
        -11   -1    0    0    0    0  0.00000000000E+00  0.00000000000E+00  0.45593999997E+02  0.45594000000E+02  0.51100000000E-03 0.  1.
         11   -1    0    0    0    0 -0.00000000000E+00 -0.00000000000E+00 -0.45593999997E+02  0.45594000000E+02  0.51100000000E-03 0. -1.
    9900012    2    1    2    0    0 -0.17372375420E+02 -0.30640386380E+02  0.20310897680E+02  0.50528864867E+02  0.30000015248E+02 0.  0.
         12    1    1    2    0    0  0.17372375420E+02  0.30640386380E+02 -0.20310897680E+02  0.40659135133E+02  0.00000000000E+00 0. -1.
         11    1    3    3    0    0 -0.34690026847E+01 -0.10965183205E+01 -0.48415440778E+01  0.60561441010E+01  0.51100000000E-03 0. -1.
        -11    1    3    3    0    0 -0.11278160074E+02 -0.79645081714E+01  0.15290986811E+02  0.20602052397E+02  0.51100000000E-03 0.  1.
         12    1    3    3    0    0 -0.26252126615E+01 -0.21579359888E+02  0.98614549472E+01  0.23870668368E+02  0.00000000000E+00 0. -1.
</event>
<event>
 7    1  0.5897985E-013  0.5052886E+02  0.7816164E-02  0.1300439E+00
        -11   -1    0    0    0    0  0.00000000000E+00  0.00000000000E+00  0.45593999997E+02  0.45594000000E+02  0.51100000000E-03 0. -1.
         11   -1    0    0    0    0 -0.00000000000E+00 -0.00000000000E+00 -0.45593999997E+02  0.45594000000E+02  0.51100000000E-03 0.  1.
    9900012    2    1    2    0    0 -0.12830878299E+02  0.35999570168E+02 -0.13876783471E+02  0.50528860687E+02  0.30000002544E+02 0.  0.
         12    1    1    2    0    0  0.12830878299E+02 -0.35999570168E+02  0.13876783471E+02  0.40659139313E+02  0.00000000000E+00 0. -1.
         11    1    3    3    0    0 -0.96216220989E+01  0.53638617820E+01 -0.97208070118E+01  0.14691518446E+02  0.51100000000E-03 0.  1.
        -11    1    3    3    0    0 -0.79722811632E+01  0.23491052835E+02  0.25563497917E+01  0.24938359104E+02  0.51100000000E-03 0. -1.
        -12    1    3    3    0    0  0.47630249632E+01  0.71446555502E+01 -0.67123262509E+01  0.10898983137E+02  0.00000000000E+00 0.  1.
</event>
<event>
 7    1  0.5897985E-013  0.5052884E+02  0.7816164E-02  0.1300439E+00
        -11   -1    0    0    0    0  0.00000000000E+00  0.00000000000E+00  0.45593999997E+02  0.45594000000E+02  0.51100000000E-03 0. -1.
         11   -1    0    0    0    0 -0.00000000000E+00 -0.00000000000E+00 -0.45593999997E+02  0.45594000000E+02  0.51100000000E-03 0.  1.
    9900012    2    1    2    0    0 -0.30656758448E+02  0.26485216902E+02  0.34443303366E+01  0.50528844028E+02  0.29999951908E+02 0.  0.
         12    1    1    2    0    0  0.30656758448E+02 -0.26485216902E+02 -0.34443303366E+01  0.40659155972E+02  0.00000000000E+00 0. -1.
         11    1    3    3    0    0 -0.91275630484E+01  0.18549806563E+01 -0.53784216140E+01  0.10755499977E+02  0.51100000000E-03 0. -1.
        -11    1    3    3    0    0 -0.42817085786E+01  0.17895569460E+02 -0.16955155859E+01  0.18478614883E+02  0.51100000000E-03 0.  1.
        -12    1    3    3    0    0 -0.17247486821E+02  0.67346667860E+01  0.10518267537E+02  0.21294729168E+02  0.00000000000E+00 0.  1.
</event>
<event>
 7    1  0.5897985E-013  0.5052886E+02  0.7816164E-02  0.1300439E+00
        -11   -1    0    0    0    0  0.00000000000E+00  0.00000000000E+00  0.45593999997E+02  0.45594000000E+02  0.51100000000E-03 0. -1.
         11   -1    0    0    0    0 -0.00000000000E+00 -0.00000000000E+00 -0.45593999997E+02  0.45594000000E+02  0.51100000000E-03 0.  1.
    9900012    2    1    2    0    0 -0.19969285865E+02 -0.24094077013E+02 -0.25958987283E+02  0.50528856553E+02  0.29999989979E+02 0.  0.
         12    1    1    2    0    0  0.19969285865E+02  0.24094077013E+02  0.25958987283E+02  0.40659143447E+02  0.00000000000E+00 0. -1.
         11    1    3    3    0    0 -0.58941375870E+01 -0.13973735861E+02 -0.85599135599E+01  0.17414886512E+02  0.51100000000E-03 0. -1.
        -11    1    3    3    0    0 -0.83561245527E+01  0.15726112830E+01 -0.18183945979E+02  0.20073709558E+02  0.51100000000E-03 0.  1.
        -12    1    3    3    0    0 -0.57190237253E+01 -0.11692952435E+02  0.78487225543E+00  0.13040260483E+02  0.00000000000E+00 0.  1.
</event>
<event>
 7    1  0.5897985E-013  0.5052887E+02  0.7816164E-02  0.1300439E+00
        -11   -1    0    0    0    0  0.00000000000E+00  0.00000000000E+00  0.45593999997E+02  0.45594000000E+02  0.51100000000E-03 0.  1.
         11   -1    0    0    0    0 -0.00000000000E+00 -0.00000000000E+00 -0.45593999997E+02  0.45594000000E+02  0.51100000000E-03 0. -1.
    9900012    2    1    2    0    0 -0.30318718455E+02 -0.26009046072E+02 -0.75808949819E+01  0.50528866523E+02  0.30000020284E+02 0.  0.
         12    1    1    2    0    0  0.30318718455E+02  0.26009046072E+02  0.75808949819E+01  0.40659133477E+02  0.00000000000E+00 0. -1.
         11    1    3    3    0    0 -0.31163851906E+01  0.27411413917E+01 -0.81894342789E+01  0.91810972576E+01  0.51100000000E-03 0. -1.
        -11    1    3    3    0    0 -0.27214573311E+02 -0.24036418767E+02 -0.11206528952E+01  0.36326826049E+02  0.51100000000E-03 0.  1.
         12    1    3    3    0    0  0.12240046333E-01 -0.47137686967E+01  0.17291921922E+01  0.50209432164E+01  0.00000000000E+00 0. -1.
</event>
<event>
 7    1  0.5897985E-013  0.5052886E+02  0.7816164E-02  0.1300439E+00
        -11   -1    0    0    0    0  0.00000000000E+00  0.00000000000E+00  0.45593999997E+02  0.45594000000E+02  0.51100000000E-03 0.  1.
         11   -1    0    0    0    0 -0.00000000000E+00 -0.00000000000E+00 -0.45593999997E+02  0.45594000000E+02  0.51100000000E-03 0. -1.
    9900012    2    1    2    0    0 -0.32540643106E+02  0.22901988742E+02  0.83529107211E+01  0.50528860073E+02  0.30000000679E+02 0.  0.
         12    1    1    2    0    0  0.32540643106E+02 -0.22901988742E+02 -0.83529107211E+01  0.40659139927E+02  0.00000000000E+00 0. -1.
         11    1    3    3    0    0  0.17413090893E+01  0.15114803726E+01 -0.32163272115E+01  0.39574602024E+01  0.51100000000E-03 0. -1.
        -11    1    3    3    0    0 -0.34921092167E+02  0.17343140754E+02  0.14428801486E+02  0.41574722151E+02  0.51100000000E-03 0.  1.
        -12    1    3    3    0    0  0.63913997208E+00  0.40473676156E+01 -0.28595635534E+01  0.49966777198E+01  0.00000000000E+00 0.  1.
</event>
<event>
 7    1  0.5897985E-013  0.5052886E+02  0.7816164E-02  0.1300439E+00
        -11   -1    0    0    0    0  0.00000000000E+00  0.00000000000E+00  0.45593999997E+02  0.45594000000E+02  0.51100000000E-03 0.  1.
         11   -1    0    0    0    0 -0.00000000000E+00 -0.00000000000E+00 -0.45593999997E+02  0.45594000000E+02  0.51100000000E-03 0. -1.
    9900012    2    1    2    0    0  0.13195287220E+02 -0.36913310202E+02  0.10791548674E+02  0.50528860834E+02  0.30000002992E+02 0.  0.
         12    1    1    2    0    0 -0.13195287220E+02  0.36913310202E+02 -0.10791548674E+02  0.40659139166E+02  0.00000000000E+00 0. -1.
         11    1    3    3    0    0 -0.14641074869E+01 -0.96291514338E+01  0.98767415251E+01  0.13871344257E+02  0.51100000000E-03 0. -1.
        -11    1    3    3    0    0  0.99219571268E+01 -0.24021107808E+02 -0.69600196336E+01  0.26905403307E+02  0.51100000000E-03 0.  1.
         12    1    3    3    0    0  0.47374375804E+01 -0.32630509604E+01  0.78748267822E+01  0.97521132708E+01  0.00000000000E+00 0. -1.
</event>
<event>
 7    1  0.5897985E-013  0.5052887E+02  0.7816164E-02  0.1300439E+00
        -11   -1    0    0    0    0  0.00000000000E+00  0.00000000000E+00  0.45593999997E+02  0.45594000000E+02  0.51100000000E-03 0. -1.
         11   -1    0    0    0    0 -0.00000000000E+00 -0.00000000000E+00 -0.45593999997E+02  0.45594000000E+02  0.51100000000E-03 0.  1.
    9900012    2    1    2    0    0  0.30160788716E+01  0.34099023348E+02 -0.21939113344E+02  0.50528870406E+02  0.30000032085E+02 0.  0.
         12    1    1    2    0    0 -0.30160788716E+01 -0.34099023348E+02  0.21939113344E+02  0.40659129594E+02  0.00000000000E+00 0. -1.
         11    1    3    3    0    0 -0.58218550175E+00 -0.31361375419E+01  0.32547254736E+01  0.45571412980E+01  0.51100000000E-03 0. -1.
        -11    1    3    3    0    0 -0.11527232920E+01  0.17147518793E+02 -0.15595411459E+02  0.23207391723E+02  0.51100000000E-03 0.  1.
         12    1    3    3    0    0  0.47509876654E+01  0.20087642097E+02 -0.95984273586E+01  0.22764337385E+02  0.00000000000E+00 0. -1.
</event>
<event>
 7    1  0.5897985E-013  0.5052887E+02  0.7816164E-02  0.1300439E+00
        -11   -1    0    0    0    0  0.00000000000E+00  0.00000000000E+00  0.45593999997E+02  0.45594000000E+02  0.51100000000E-03 0.  1.
         11   -1    0    0    0    0 -0.00000000000E+00 -0.00000000000E+00 -0.45593999997E+02  0.45594000000E+02  0.51100000000E-03 0. -1.
    9900012    2    1    2    0    0  0.13855268293E+02 -0.18751306421E+02  0.33310435795E+02  0.50528867142E+02  0.30000022165E+02 0.  0.
         12    1    1    2    0    0 -0.13855268293E+02  0.18751306421E+02 -0.33310435795E+02  0.40659132858E+02  0.00000000000E+00 0. -1.
         11    1    3    3    0    0 -0.15741239680E+01 -0.36320461365E+01  0.18695363131E+01  0.43777610363E+01  0.51100000000E-03 0. -1.
        -11    1    3    3    0    0  0.15362115588E+02 -0.40349451985E+01  0.31261613131E+02  0.35065137016E+02  0.51100000000E-03 0.  1.
        -12    1    3    3    0    0  0.67276672422E-01 -0.11084315085E+02  0.17928635026E+00  0.11085969090E+02  0.00000000000E+00 0.  1.
</event>
<event>
 7    1  0.5897985E-013  0.5052887E+02  0.7816164E-02  0.1300439E+00
        -11   -1    0    0    0    0  0.00000000000E+00  0.00000000000E+00  0.45593999997E+02  0.45594000000E+02  0.51100000000E-03 0. -1.
         11   -1    0    0    0    0 -0.00000000000E+00 -0.00000000000E+00 -0.45593999997E+02  0.45594000000E+02  0.51100000000E-03 0.  1.
    9900012    2    1    2    0    0 -0.41731101448E+01 -0.37222776885E+02 -0.15818192939E+02  0.50528865784E+02  0.30000018038E+02 0.  0.
         12    1    1    2    0    0  0.41731101448E+01  0.37222776885E+02  0.15818192939E+02  0.40659134216E+02  0.00000000000E+00 0. -1.
         11    1    3    3    0    0  0.83445408838E+01 -0.80504854689E+01 -0.13816050629E+02  0.18036766176E+02  0.51100000000E-03 0. -1.
        -11    1    3    3    0    0 -0.95527569349E+01 -0.16731995623E+02 -0.36115428533E+01  0.19602501999E+02  0.51100000000E-03 0.  1.
         12    1    3    3    0    0 -0.29648940937E+01 -0.12440295794E+02  0.16094005438E+01  0.12889597609E+02  0.00000000000E+00 0. -1.
</event>
<event>
 7    1  0.5897985E-013  0.5052887E+02  0.7816164E-02  0.1300439E+00
        -11   -1    0    0    0    0  0.00000000000E+00  0.00000000000E+00  0.45593999997E+02  0.45594000000E+02  0.51100000000E-03 0.  1.
         11   -1    0    0    0    0 -0.00000000000E+00 -0.00000000000E+00 -0.45593999997E+02  0.45594000000E+02  0.51100000000E-03 0. -1.
    9900012    2    1    2    0    0  0.15163431342E+02  0.32774107656E+02  0.18684041710E+02  0.50528865758E+02  0.30000017957E+02 0.  0.
         12    1    1    2    0    0 -0.15163431342E+02 -0.32774107656E+02 -0.18684041710E+02  0.40659134242E+02  0.00000000000E+00 0. -1.
         11    1    3    3    0    0  0.58578090834E+01 -0.10168190532E+01  0.55600984529E+01  0.81401807911E+01  0.51100000000E-03 0. -1.
        -11    1    3    3    0    0  0.69714240961E+01  0.35865119091E+02  0.97996017249E+01  0.37827763819E+02  0.51100000000E-03 0.  1.
        -12    1    3    3    0    0  0.23341981622E+01 -0.20741923812E+01  0.33243415317E+01  0.45609211476E+01  0.00000000000E+00 0.  1.
</event>
<event>
 7    1  0.5897985E-013  0.5052886E+02  0.7816164E-02  0.1300439E+00
        -11   -1    0    0    0    0  0.00000000000E+00  0.00000000000E+00  0.45593999997E+02  0.45594000000E+02  0.51100000000E-03 0. -1.
         11   -1    0    0    0    0 -0.00000000000E+00 -0.00000000000E+00 -0.45593999997E+02  0.45594000000E+02  0.51100000000E-03 0.  1.
    9900012    2    1    2    0    0 -0.20885277809E+02 -0.25907468724E+02 -0.23361798693E+02  0.50528863229E+02  0.30000010269E+02 0.  0.
         12    1    1    2    0    0  0.20885277809E+02  0.25907468724E+02  0.23361798693E+02  0.40659136771E+02  0.00000000000E+00 0. -1.
         11    1    3    3    0    0 -0.10478145213E+02  0.24267663769E+01 -0.63601217196E+01  0.12495273935E+02  0.51100000000E-03 0. -1.
        -11    1    3    3    0    0 -0.11949135336E+02 -0.22526795477E+02 -0.18890907240E+02  0.31734913366E+02  0.51100000000E-03 0.  1.
         12    1    3    3    0    0  0.15420027405E+01 -0.58074396242E+01  0.18892302671E+01  0.62986759277E+01  0.00000000000E+00 0. -1.
</event>
<event>
 7    1  0.5897985E-013  0.5052886E+02  0.7816164E-02  0.1300439E+00
        -11   -1    0    0    0    0  0.00000000000E+00  0.00000000000E+00  0.45593999997E+02  0.45594000000E+02  0.51100000000E-03 0.  1.
         11   -1    0    0    0    0 -0.00000000000E+00 -0.00000000000E+00 -0.45593999997E+02  0.45594000000E+02  0.51100000000E-03 0. -1.
    9900012    2    1    2    0    0 -0.26328455082E+01  0.38414634607E+02  0.13059467576E+02  0.50528859320E+02  0.29999998389E+02 0.  0.
         12    1    1    2    0    0  0.26328455082E+01 -0.38414634607E+02 -0.13059467576E+02  0.40659140680E+02  0.00000000000E+00 0. -1.
         11    1    3    3    0    0 -0.58255296827E+00 -0.31833766251E+01 -0.35718590713E+01  0.48198996031E+01  0.51100000000E-03 0. -1.
        -11    1    3    3    0    0  0.96921677255E+00  0.33739289825E+01 -0.78281637622E+00  0.35966066884E+01  0.51100000000E-03 0.  1.
         12    1    3    3    0    0 -0.30195093125E+01  0.38224082250E+02  0.17414143024E+02  0.42112353028E+02  0.00000000000E+00 0. -1.
</event>
<event>
 7    1  0.5897985E-013  0.5052886E+02  0.7816164E-02  0.1300439E+00
        -11   -1    0    0    0    0  0.00000000000E+00  0.00000000000E+00  0.45593999997E+02  0.45594000000E+02  0.51100000000E-03 0.  1.
         11   -1    0    0    0    0 -0.00000000000E+00 -0.00000000000E+00 -0.45593999997E+02  0.45594000000E+02  0.51100000000E-03 0. -1.
    9900012    2    1    2    0    0  0.20111117216E+02  0.99593177534E+01  0.33904578326E+02  0.50528862316E+02  0.30000007495E+02 0.  0.
         12    1    1    2    0    0 -0.20111117216E+02 -0.99593177534E+01 -0.33904578326E+02  0.40659137684E+02  0.00000000000E+00 0. -1.
         11    1    3    3    0    0  0.20301380623E+02  0.10307117050E+02  0.34664108022E+02  0.41472678986E+02  0.51100000000E-03 0. -1.
        -11    1    3    3    0    0 -0.25764439480E+01 -0.31333955381E+01  0.19451927687E+01  0.44988894390E+01  0.51100000000E-03 0.  1.
         12    1    3    3    0    0  0.23861805414E+01  0.27855962412E+01 -0.27047224648E+01  0.45572938908E+01  0.00000000000E+00 0. -1.
</event>
<event>
 7    1  0.5897985E-013  0.5052888E+02  0.7816164E-02  0.1300439E+00
        -11   -1    0    0    0    0  0.00000000000E+00  0.00000000000E+00  0.45593999997E+02  0.45594000000E+02  0.51100000000E-03 0.  1.
         11   -1    0    0    0    0 -0.00000000000E+00 -0.00000000000E+00 -0.45593999997E+02  0.45594000000E+02  0.51100000000E-03 0. -1.
    9900012    2    1    2    0    0  0.20040502246E+02 -0.35098902947E+02  0.44282086399E+01  0.50528883555E+02  0.30000072054E+02 0.  0.
         12    1    1    2    0    0 -0.20040502246E+02  0.35098902947E+02 -0.44282086399E+01  0.40659116445E+02  0.00000000000E+00 0. -1.
         11    1    3    3    0    0  0.27478111924E+01  0.22533820629E+01  0.41566961045E+01  0.54686670987E+01  0.51100000000E-03 0. -1.
        -11    1    3    3    0    0  0.11459481446E+02 -0.34840315637E+02 -0.47245386729E+01  0.36979569692E+02  0.51100000000E-03 0.  1.
        -12    1    3    3    0    0  0.58332096070E+01 -0.25119693729E+01  0.49960512083E+01  0.80806467641E+01  0.00000000000E+00 0.  1.
</event>
<event>
 7    1  0.5897985E-013  0.5052886E+02  0.7816164E-02  0.1300439E+00
        -11   -1    0    0    0    0  0.00000000000E+00  0.00000000000E+00  0.45593999997E+02  0.45594000000E+02  0.51100000000E-03 0.  1.
         11   -1    0    0    0    0 -0.00000000000E+00 -0.00000000000E+00 -0.45593999997E+02  0.45594000000E+02  0.51100000000E-03 0. -1.
    9900012    2    1    2    0    0 -0.38129425723E+02 -0.14116818141E+02  0.16688734920E+00  0.50528861891E+02  0.30000006204E+02 0.  0.
         12    1    1    2    0    0  0.38129425723E+02  0.14116818141E+02 -0.16688734920E+00  0.40659138109E+02  0.00000000000E+00 0. -1.
         11    1    3    3    0    0 -0.38173457727E+01  0.62880546182E+01  0.19238558047E+01  0.76034847964E+01  0.51100000000E-03 0. -1.
        -11    1    3    3    0    0 -0.19759203515E+02 -0.20306182695E+02 -0.14030039418E+01  0.28367862089E+02  0.51100000000E-03 0.  1.
         12    1    3    3    0    0 -0.14552876435E+02 -0.98690064075E-01 -0.35396451368E+00  0.14557515005E+02  0.00000000000E+00 0. -1.
</event>
<event>
 7    1  0.5897985E-013  0.5052894E+02  0.7816164E-02  0.1300439E+00
        -11   -1    0    0    0    0  0.00000000000E+00  0.00000000000E+00  0.45593999997E+02  0.45594000000E+02  0.51100000000E-03 0. -1.
         11   -1    0    0    0    0 -0.00000000000E+00 -0.00000000000E+00 -0.45593999997E+02  0.45594000000E+02  0.51100000000E-03 0.  1.
    9900012    2    1    2    0    0  0.35726548889E+02 -0.17029310842E+02 -0.93153295323E+01  0.50528940891E+02  0.30000246332E+02 0.  0.
         12    1    1    2    0    0 -0.35726548889E+02  0.17029310842E+02  0.93153295323E+01  0.40659059109E+02  0.00000000000E+00 0. -1.
         11    1    3    3    0    0  0.38415407790E+01 -0.96234940434E+01 -0.70805213135E+01  0.12550014163E+02  0.51100000000E-03 0. -1.
        -11    1    3    3    0    0  0.25172033906E+02  0.25085651523E+01  0.17572764004E+01  0.25357685436E+02  0.51100000000E-03 0.  1.
        -12    1    3    3    0    0  0.67129742047E+01 -0.99143819511E+01 -0.39920846192E+01  0.12621241292E+02  0.00000000000E+00 0.  1.
</event>
<event>
 7    1  0.5897985E-013  0.5052885E+02  0.7816164E-02  0.1300439E+00
        -11   -1    0    0    0    0  0.00000000000E+00  0.00000000000E+00  0.45593999997E+02  0.45594000000E+02  0.51100000000E-03 0.  1.
         11   -1    0    0    0    0 -0.00000000000E+00 -0.00000000000E+00 -0.45593999997E+02  0.45594000000E+02  0.51100000000E-03 0. -1.
    9900012    2    1    2    0    0 -0.38274251036E+02  0.13463075531E+02 -0.26445606627E+01  0.50528851015E+02  0.29999973145E+02 0.  0.
         12    1    1    2    0    0  0.38274251036E+02 -0.13463075531E+02  0.26445606627E+01  0.40659148985E+02  0.00000000000E+00 0. -1.
         11    1    3    3    0    0 -0.64369177199E+01  0.13655909955E+01 -0.80032465607E+01  0.10361018496E+02  0.51100000000E-03 0. -1.
        -11    1    3    3    0    0 -0.28789832951E+02  0.17006475129E+02  0.69973807036E+01  0.34161938099E+02  0.51100000000E-03 0.  1.
        -12    1    3    3    0    0 -0.30475003645E+01 -0.49089905939E+01 -0.16386948056E+01  0.60058944203E+01  0.00000000000E+00 0.  1.
</event>
<event>
 7    1  0.5897985E-013  0.5052886E+02  0.7816164E-02  0.1300439E+00
        -11   -1    0    0    0    0  0.00000000000E+00  0.00000000000E+00  0.45593999997E+02  0.45594000000E+02  0.51100000000E-03 0.  1.
         11   -1    0    0    0    0 -0.00000000000E+00 -0.00000000000E+00 -0.45593999997E+02  0.45594000000E+02  0.51100000000E-03 0. -1.
    9900012    2    1    2    0    0 -0.43184077403E+01 -0.33079011503E+02  0.23244266867E+02  0.50528860934E+02  0.30000003294E+02 0.  0.
         12    1    1    2    0    0  0.43184077403E+01  0.33079011503E+02 -0.23244266867E+02  0.40659139066E+02  0.00000000000E+00 0. -1.
         11    1    3    3    0    0 -0.87819580409E+01 -0.19597162767E+02  0.12957762623E+01  0.21513963185E+02  0.51100000000E-03 0.  1.
        -11    1    3    3    0    0  0.74766175443E+01 -0.74601491112E+01  0.18839913174E+02  0.21598517619E+02  0.51100000000E-03 0. -1.
         12    1    3    3    0    0 -0.30130672437E+01 -0.60216996244E+01  0.31085774308E+01  0.74163801295E+01  0.00000000000E+00 0. -1.
</event>
<event>
 7    1  0.5897985E-013  0.5052886E+02  0.7816164E-02  0.1300439E+00
        -11   -1    0    0    0    0  0.00000000000E+00  0.00000000000E+00  0.45593999997E+02  0.45594000000E+02  0.51100000000E-03 0.  1.
         11   -1    0    0    0    0 -0.00000000000E+00 -0.00000000000E+00 -0.45593999997E+02  0.45594000000E+02  0.51100000000E-03 0. -1.
    9900012    2    1    2    0    0  0.25933228717E+02 -0.21050115379E+02  0.23184602530E+02  0.50528861991E+02  0.30000006507E+02 0.  0.
         12    1    1    2    0    0 -0.25933228717E+02  0.21050115379E+02 -0.23184602530E+02  0.40659138009E+02  0.00000000000E+00 0. -1.
         11    1    3    3    0    0  0.19046578509E+02 -0.16655833600E+02  0.98082500597E+01  0.27136519956E+02  0.51100000000E-03 0. -1.
        -11    1    3    3    0    0 -0.16771787678E+01 -0.56288258543E+01  0.13518002741E+02  0.14738826530E+02  0.51100000000E-03 0.  1.
         12    1    3    3    0    0  0.85638289757E+01  0.12345440747E+01 -0.14165027052E+00  0.86535155051E+01  0.00000000000E+00 0. -1.
</event>
<event>
 7    1  0.5897985E-013  0.5052886E+02  0.7816164E-02  0.1300439E+00
        -11   -1    0    0    0    0  0.00000000000E+00  0.00000000000E+00  0.45593999997E+02  0.45594000000E+02  0.51100000000E-03 0.  1.
         11   -1    0    0    0    0 -0.00000000000E+00 -0.00000000000E+00 -0.45593999997E+02  0.45594000000E+02  0.51100000000E-03 0. -1.
    9900012    2    1    2    0    0 -0.24537733806E+02  0.31670020624E+02 -0.69336019146E+01  0.50528862992E+02  0.30000009552E+02 0.  0.
         12    1    1    2    0    0  0.24537733806E+02 -0.31670020624E+02  0.69336019146E+01  0.40659137008E+02  0.00000000000E+00 0. -1.
         11    1    3    3    0    0 -0.14564452300E+02  0.34514322429E+02 -0.34806909852E+01  0.37622824635E+02  0.51100000000E-03 0. -1.
        -11    1    3    3    0    0 -0.10471557146E+02 -0.17053559165E+01 -0.42501967252E+01  0.11429169713E+02  0.51100000000E-03 0.  1.
         12    1    3    3    0    0  0.49827564028E+00 -0.11389458884E+01  0.79728579581E+00  0.14768686437E+01  0.00000000000E+00 0. -1.
</event>
<event>
 7    1  0.5897985E-013  0.5052897E+02  0.7816164E-02  0.1300438E+00
        -11   -1    0    0    0    0  0.00000000000E+00  0.00000000000E+00  0.45593999997E+02  0.45594000000E+02  0.51100000000E-03 0.  1.
         11   -1    0    0    0    0 -0.00000000000E+00 -0.00000000000E+00 -0.45593999997E+02  0.45594000000E+02  0.51100000000E-03 0. -1.
    9900012    2    1    2    0    0  0.23516283044E+02  0.12934727769E+02  0.30542328406E+02  0.50528971789E+02  0.30000340247E+02 0.  0.
         12    1    1    2    0    0 -0.23516283044E+02 -0.12934727769E+02 -0.30542328406E+02  0.40659028211E+02  0.00000000000E+00 0. -1.
         11    1    3    3    0    0 -0.62218365542E+00 -0.60835611541E+01  0.14310235420E+01  0.62804981853E+01  0.51100000000E-03 0. -1.
        -11    1    3    3    0    0  0.96489560604E+01  0.45922547156E+01  0.18116680620E+02  0.21033432277E+02  0.51100000000E-03 0.  1.
         12    1    3    3    0    0  0.14489510639E+02  0.14426034207E+02  0.10994624244E+02  0.23215041326E+02  0.00000000000E+00 0. -1.
</event>
<event>
 7    1  0.5897985E-013  0.5052887E+02  0.7816164E-02  0.1300439E+00
        -11   -1    0    0    0    0  0.00000000000E+00  0.00000000000E+00  0.45593999997E+02  0.45594000000E+02  0.51100000000E-03 0.  1.
         11   -1    0    0    0    0 -0.00000000000E+00 -0.00000000000E+00 -0.45593999997E+02  0.45594000000E+02  0.51100000000E-03 0. -1.
    9900012    2    1    2    0    0  0.29273540474E+02 -0.54694247862E+01  0.27682308689E+02  0.50528868262E+02  0.30000025568E+02 0.  0.
         12    1    1    2    0    0 -0.29273540474E+02  0.54694247862E+01 -0.27682308689E+02  0.40659131738E+02  0.00000000000E+00 0. -1.
         11    1    3    3    0    0  0.67555090598E+01  0.89085108253E+01  0.68762928028E+00  0.11201397327E+02  0.51100000000E-03 0. -1.
        -11    1    3    3    0    0  0.12054634328E+02 -0.17540779697E+01  0.12264369137E+02  0.17285998637E+02  0.51100000000E-03 0.  1.
         12    1    3    3    0    0  0.10463397086E+02 -0.12623857642E+02  0.14730310272E+02  0.22041472298E+02  0.00000000000E+00 0. -1.
</event>
<event>
 7    1  0.5897985E-013  0.5052885E+02  0.7816164E-02  0.1300439E+00
        -11   -1    0    0    0    0  0.00000000000E+00  0.00000000000E+00  0.45593999997E+02  0.45594000000E+02  0.51100000000E-03 0. -1.
         11   -1    0    0    0    0 -0.00000000000E+00 -0.00000000000E+00 -0.45593999997E+02  0.45594000000E+02  0.51100000000E-03 0.  1.
    9900012    2    1    2    0    0  0.18430495814E+02 -0.22229162363E+01 -0.36173772132E+02  0.50528851917E+02  0.29999975888E+02 0.  0.
         12    1    1    2    0    0 -0.18430495814E+02  0.22229162363E+01  0.36173772132E+02  0.40659148083E+02  0.00000000000E+00 0. -1.
         11    1    3    3    0    0  0.30014426918E+01  0.34900460906E+01  0.31601110649E+01  0.55834919316E+01  0.51100000000E-03 0. -1.
        -11    1    3    3    0    0  0.13171638765E+02 -0.10213417984E+02 -0.28950175398E+02  0.33405368289E+02  0.51100000000E-03 0.  1.
        -12    1    3    3    0    0  0.22574143572E+01  0.45004556574E+01 -0.10383707799E+02  0.11539991697E+02  0.00000000000E+00 0.  1.
</event>
<event>
 7    1  0.5897985E-013  0.5052885E+02  0.7816164E-02  0.1300439E+00
        -11   -1    0    0    0    0  0.00000000000E+00  0.00000000000E+00  0.45593999997E+02  0.45594000000E+02  0.51100000000E-03 0.  1.
         11   -1    0    0    0    0 -0.00000000000E+00 -0.00000000000E+00 -0.45593999997E+02  0.45594000000E+02  0.51100000000E-03 0. -1.
    9900012    2    1    2    0    0  0.11331381441E+02 -0.24554652082E+02  0.30361745562E+02  0.50528846814E+02  0.29999960376E+02 0.  0.
         12    1    1    2    0    0 -0.11331381441E+02  0.24554652082E+02 -0.30361745562E+02  0.40659153186E+02  0.00000000000E+00 0. -1.
         11    1    3    3    0    0  0.12085488044E+02 -0.13192741945E+02  0.32658537966E+02  0.37238254036E+02  0.51100000000E-03 0.  1.
        -11    1    3    3    0    0 -0.17375908146E+01 -0.78430262072E+01  0.13298765543E+01  0.81425336251E+01  0.51100000000E-03 0. -1.
         12    1    3    3    0    0  0.98348421141E+00 -0.35188839299E+01 -0.36266689586E+01  0.51480591529E+01  0.00000000000E+00 0. -1.
</event>
<event>
 7    1  0.5897985E-013  0.5052886E+02  0.7816164E-02  0.1300439E+00
        -11   -1    0    0    0    0  0.00000000000E+00  0.00000000000E+00  0.45593999997E+02  0.45594000000E+02  0.51100000000E-03 0.  1.
         11   -1    0    0    0    0 -0.00000000000E+00 -0.00000000000E+00 -0.45593999997E+02  0.45594000000E+02  0.51100000000E-03 0. -1.
    9900012    2    1    2    0    0 -0.65861700726E+01  0.18527921162E+02  0.35587976300E+02  0.50528861348E+02  0.30000004554E+02 0.  0.
         12    1    1    2    0    0  0.65861700726E+01 -0.18527921162E+02 -0.35587976300E+02  0.40659138652E+02  0.00000000000E+00 0. -1.
         11    1    3    3    0    0 -0.15546307785E+02  0.18923026484E+02  0.19010051200E+02  0.31002429968E+02  0.51100000000E-03 0. -1.
        -11    1    3    3    0    0  0.55034138243E+01  0.53916349376E+00  0.14171592006E+02  0.15212241164E+02  0.51100000000E-03 0.  1.
         12    1    3    3    0    0  0.34567238878E+01 -0.93426881605E+00  0.24063330937E+01  0.43141902154E+01  0.00000000000E+00 0. -1.
</event>
<event>
 7    1  0.5897985E-013  0.5052886E+02  0.7816164E-02  0.1300439E+00
        -11   -1    0    0    0    0  0.00000000000E+00  0.00000000000E+00  0.45593999997E+02  0.45594000000E+02  0.51100000000E-03 0.  1.
         11   -1    0    0    0    0 -0.00000000000E+00 -0.00000000000E+00 -0.45593999997E+02  0.45594000000E+02  0.51100000000E-03 0. -1.
    9900012    2    1    2    0    0  0.46776867719E+01  0.28935644698E+02  0.28178244465E+02  0.50528858977E+02  0.29999997346E+02 0.  0.
         12    1    1    2    0    0 -0.46776867719E+01 -0.28935644698E+02 -0.28178244465E+02  0.40659141023E+02  0.00000000000E+00 0. -1.
         11    1    3    3    0    0  0.76402692969E+01  0.19542603483E+02  0.41877063882E+01  0.21396821046E+02  0.51100000000E-03 0. -1.
        -11    1    3    3    0    0  0.22376232459E+01  0.10413033392E+02  0.19352422606E+02  0.22089691786E+02  0.51100000000E-03 0.  1.
         12    1    3    3    0    0 -0.52002057709E+01 -0.10199921772E+01  0.46381154708E+01  0.70423461448E+01  0.00000000000E+00 0. -1.
</event>
<event>
 7    1  0.5897985E-013  0.5052886E+02  0.7816164E-02  0.1300439E+00
        -11   -1    0    0    0    0  0.00000000000E+00  0.00000000000E+00  0.45593999997E+02  0.45594000000E+02  0.51100000000E-03 0. -1.
         11   -1    0    0    0    0 -0.00000000000E+00 -0.00000000000E+00 -0.45593999997E+02  0.45594000000E+02  0.51100000000E-03 0.  1.
    9900012    2    1    2    0    0  0.34090997387E+02  0.54127698480E+01 -0.21486545548E+02  0.50528858102E+02  0.29999994688E+02 0.  0.
         12    1    1    2    0    0 -0.34090997387E+02 -0.54127698480E+01  0.21486545548E+02  0.40659141898E+02  0.00000000000E+00 0. -1.
         11    1    3    3    0    0 -0.48511660419E+00  0.91772784114E+01  0.59793483395E+00  0.92095224354E+01  0.51100000000E-03 0. -1.
        -11    1    3    3    0    0  0.28818946361E+02 -0.29342904101E+01 -0.19705319043E+02  0.35034858762E+02  0.51100000000E-03 0.  1.
         12    1    3    3    0    0  0.57571676296E+01 -0.83021815332E+00 -0.23791613389E+01  0.62844769054E+01  0.00000000000E+00 0. -1.
</event>
<event>
 7    1  0.5897985E-013  0.5052889E+02  0.7816164E-02  0.1300439E+00
        -11   -1    0    0    0    0  0.00000000000E+00  0.00000000000E+00  0.45593999997E+02  0.45594000000E+02  0.51100000000E-03 0. -1.
         11   -1    0    0    0    0 -0.00000000000E+00 -0.00000000000E+00 -0.45593999997E+02  0.45594000000E+02  0.51100000000E-03 0.  1.
    9900012    2    1    2    0    0 -0.47344167351E+01  0.16302762980E+02 -0.36945473844E+02  0.50528894991E+02  0.30000106813E+02 0.  0.
         12    1    1    2    0    0  0.47344167351E+01 -0.16302762980E+02  0.36945473844E+02  0.40659105009E+02  0.00000000000E+00 0. -1.
         11    1    3    3    0    0  0.35836348825E+01  0.45673086676E+00  0.17616694846E+00  0.36169154138E+01  0.51100000000E-03 0. -1.
        -11    1    3    3    0    0 -0.26748305085E+01  0.34475903993E+01 -0.32097436015E+02  0.32392684310E+02  0.51100000000E-03 0.  1.
        -12    1    3    3    0    0 -0.56432211090E+01  0.12398441713E+02 -0.50242047781E+01  0.14519295267E+02  0.00000000000E+00 0.  1.
</event>
<event>
 7    1  0.5897985E-013  0.5052886E+02  0.7816164E-02  0.1300439E+00
        -11   -1    0    0    0    0  0.00000000000E+00  0.00000000000E+00  0.45593999997E+02  0.45594000000E+02  0.51100000000E-03 0.  1.
         11   -1    0    0    0    0 -0.00000000000E+00 -0.00000000000E+00 -0.45593999997E+02  0.45594000000E+02  0.51100000000E-03 0. -1.
    9900012    2    1    2    0    0  0.85896950627E+01 -0.30086023169E+02  0.25965634256E+02  0.50528858178E+02  0.29999994919E+02 0.  0.
         12    1    1    2    0    0 -0.85896950627E+01  0.30086023169E+02 -0.25965634256E+02  0.40659141822E+02  0.00000000000E+00 0. -1.
         11    1    3    3    0    0  0.15789735426E+01 -0.46699589752E+01  0.44541616148E+00  0.49497545491E+01  0.51100000000E-03 0. -1.
        -11    1    3    3    0    0  0.16870586411E+02 -0.10463676494E+02  0.13649694490E+02  0.24091894312E+02  0.51100000000E-03 0.  1.
        -12    1    3    3    0    0 -0.98598648912E+01 -0.14952387700E+02  0.11870523604E+02  0.21487209317E+02  0.00000000000E+00 0.  1.
</event>
<event>
 7    1  0.5897985E-013  0.5052886E+02  0.7816164E-02  0.1300439E+00
        -11   -1    0    0    0    0  0.00000000000E+00  0.00000000000E+00  0.45593999997E+02  0.45594000000E+02  0.51100000000E-03 0. -1.
         11   -1    0    0    0    0 -0.00000000000E+00 -0.00000000000E+00 -0.45593999997E+02  0.45594000000E+02  0.51100000000E-03 0.  1.
    9900012    2    1    2    0    0 -0.25794447786E+02 -0.18903775520E+02 -0.25108956820E+02  0.50528856157E+02  0.29999988774E+02 0.  0.
         12    1    1    2    0    0  0.25794447786E+02  0.18903775520E+02  0.25108956820E+02  0.40659143843E+02  0.00000000000E+00 0. -1.
         11    1    3    3    0    0 -0.14869973629E+02 -0.19136930291E+00 -0.26679914539E+01  0.15108637152E+02  0.51100000000E-03 0. -1.
        -11    1    3    3    0    0 -0.91647619538E+01 -0.15721275170E+02 -0.25132155214E+02  0.31028641295E+02  0.51100000000E-03 0.  1.
        -12    1    3    3    0    0 -0.17597122031E+01 -0.29911310465E+01  0.26911898484E+01  0.43915777091E+01  0.00000000000E+00 0.  1.
</event>
<event>
 7    1  0.5897985E-013  0.5052887E+02  0.7816164E-02  0.1300439E+00
        -11   -1    0    0    0    0  0.00000000000E+00  0.00000000000E+00  0.45593999997E+02  0.45594000000E+02  0.51100000000E-03 0. -1.
         11   -1    0    0    0    0 -0.00000000000E+00 -0.00000000000E+00 -0.45593999997E+02  0.45594000000E+02  0.51100000000E-03 0.  1.
    9900012    2    1    2    0    0  0.25603829851E+01  0.30034764088E+02 -0.27285931665E+02  0.50528872099E+02  0.30000037233E+02 0.  0.
         12    1    1    2    0    0 -0.25603829851E+01 -0.30034764088E+02  0.27285931665E+02  0.40659127901E+02  0.00000000000E+00 0. -1.
         11    1    3    3    0    0 -0.26005732462E+01  0.11563523697E+02 -0.15989034631E+02  0.19902946772E+02  0.51100000000E-03 0. -1.
        -11    1    3    3    0    0  0.15411522227E+01 -0.47041555123E+01 -0.12309195656E+01  0.51009207498E+01  0.51100000000E-03 0.  1.
        -12    1    3    3    0    0  0.36198040086E+01  0.23175395903E+02 -0.10065977468E+02  0.25525004578E+02  0.00000000000E+00 0.  1.
</event>
<event>
 7    1  0.5897985E-013  0.5052883E+02  0.7816164E-02  0.1300439E+00
        -11   -1    0    0    0    0  0.00000000000E+00  0.00000000000E+00  0.45593999997E+02  0.45594000000E+02  0.51100000000E-03 0.  1.
         11   -1    0    0    0    0 -0.00000000000E+00 -0.00000000000E+00 -0.45593999997E+02  0.45594000000E+02  0.51100000000E-03 0. -1.
    9900012    2    1    2    0    0  0.16918752295E+02  0.13525769370E+02  0.34408974051E+02  0.50528829921E+02  0.29999909028E+02 0.  0.
         12    1    1    2    0    0 -0.16918752295E+02 -0.13525769370E+02 -0.34408974051E+02  0.40659170079E+02  0.00000000000E+00 0. -1.
         11    1    3    3    0    0  0.13186390410E+02 -0.75985421201E+01  0.13909209745E+02  0.20617585950E+02  0.51100000000E-03 0. -1.
        -11    1    3    3    0    0  0.21693214677E+00  0.11902388128E+02  0.10801712687E+02  0.16074541982E+02  0.51100000000E-03 0.  1.
         12    1    3    3    0    0  0.35154297383E+01  0.92219233617E+01  0.96980516191E+01  0.13836701989E+02  0.00000000000E+00 0. -1.
</event>
<event>
 7    1  0.5897985E-013  0.5052886E+02  0.7816164E-02  0.1300439E+00
        -11   -1    0    0    0    0  0.00000000000E+00  0.00000000000E+00  0.45593999997E+02  0.45594000000E+02  0.51100000000E-03 0.  1.
         11   -1    0    0    0    0 -0.00000000000E+00 -0.00000000000E+00 -0.45593999997E+02  0.45594000000E+02  0.51100000000E-03 0. -1.
    9900012    2    1    2    0    0  0.29732537529E+02  0.11508999666E+02  0.25232611310E+02  0.50528861608E+02  0.30000005343E+02 0.  0.
         12    1    1    2    0    0 -0.29732537529E+02 -0.11508999666E+02 -0.25232611310E+02  0.40659138392E+02  0.00000000000E+00 0. -1.
         11    1    3    3    0    0  0.25754748942E+02 -0.35948733422E+01  0.13721465329E+02  0.29402530817E+02  0.51100000000E-03 0. -1.
        -11    1    3    3    0    0  0.59031255381E+01  0.13183806081E+02  0.74881039278E+01  0.16270566511E+02  0.51100000000E-03 0.  1.
         12    1    3    3    0    0 -0.19253369506E+01  0.19200669272E+01  0.40230420534E+01  0.48557642799E+01  0.00000000000E+00 0. -1.
</event>
<event>
 7    1  0.5897985E-013  0.5052889E+02  0.7816164E-02  0.1300439E+00
        -11   -1    0    0    0    0  0.00000000000E+00  0.00000000000E+00  0.45593999997E+02  0.45594000000E+02  0.51100000000E-03 0.  1.
         11   -1    0    0    0    0 -0.00000000000E+00 -0.00000000000E+00 -0.45593999997E+02  0.45594000000E+02  0.51100000000E-03 0. -1.
    9900012    2    1    2    0    0  0.11935376366E+02  0.37993310827E+02 -0.81986933726E+01  0.50528887250E+02  0.30000083285E+02 0.  0.
         12    1    1    2    0    0 -0.11935376366E+02 -0.37993310827E+02  0.81986933726E+01  0.40659112750E+02  0.00000000000E+00 0. -1.
         11    1    3    3    0    0  0.29338691979E+01  0.11720144579E+02 -0.15669249179E+02  0.19786226207E+02  0.51100000000E-03 0. -1.
        -11    1    3    3    0    0  0.43332616009E+01  0.19399264065E+02  0.97310285033E+01  0.22131459923E+02  0.51100000000E-03 0.  1.
        -12    1    3    3    0    0  0.46682455671E+01  0.68739021839E+01 -0.22604726969E+01  0.86112011196E+01  0.00000000000E+00 0.  1.
</event>
<event>
 7    1  0.5897985E-013  0.5052885E+02  0.7816164E-02  0.1300439E+00
        -11   -1    0    0    0    0  0.00000000000E+00  0.00000000000E+00  0.45593999997E+02  0.45594000000E+02  0.51100000000E-03 0.  1.
         11   -1    0    0    0    0 -0.00000000000E+00 -0.00000000000E+00 -0.45593999997E+02  0.45594000000E+02  0.51100000000E-03 0. -1.
    9900012    2    1    2    0    0  0.33173368001E+02  0.19518897996E+02 -0.13103678304E+02  0.50528854552E+02  0.29999983896E+02 0.  0.
         12    1    1    2    0    0 -0.33173368001E+02 -0.19518897996E+02  0.13103678304E+02  0.40659145448E+02  0.00000000000E+00 0. -1.
         11    1    3    3    0    0  0.12140274320E+02 -0.13638276408E+01 -0.86485989090E+01  0.14968117775E+02  0.51100000000E-03 0. -1.
        -11    1    3    3    0    0  0.19271944410E+02  0.24548226990E+02 -0.37580189146E+01  0.31434789583E+02  0.51100000000E-03 0.  1.
        -12    1    3    3    0    0  0.17611492710E+01 -0.36655013539E+01 -0.69706048031E+00  0.41259471935E+01  0.00000000000E+00 0.  1.
</event>
<event>
 7    1  0.5897985E-013  0.5052885E+02  0.7816164E-02  0.1300439E+00
        -11   -1    0    0    0    0  0.00000000000E+00  0.00000000000E+00  0.45593999997E+02  0.45594000000E+02  0.51100000000E-03 0.  1.
         11   -1    0    0    0    0 -0.00000000000E+00 -0.00000000000E+00 -0.45593999997E+02  0.45594000000E+02  0.51100000000E-03 0. -1.
    9900012    2    1    2    0    0 -0.10283084098E+02  0.15413584981E+02  0.36191797541E+02  0.50528848142E+02  0.29999964413E+02 0.  0.
         12    1    1    2    0    0  0.10283084098E+02 -0.15413584981E+02 -0.36191797541E+02  0.40659151858E+02  0.00000000000E+00 0. -1.
         11    1    3    3    0    0 -0.34762827165E+01 -0.53643994693E+01 -0.37535093817E-02  0.63922873482E+01  0.51100000000E-03 0. -1.
        -11    1    3    3    0    0  0.12225510452E+01  0.11114441668E+02  0.24674927307E+02  0.27090173172E+02  0.51100000000E-03 0.  1.
         12    1    3    3    0    0 -0.80293524266E+01  0.96635427823E+01  0.11520623744E+02  0.17046387622E+02  0.00000000000E+00 0. -1.
</event>
<event>
 7    1  0.5897985E-013  0.5052885E+02  0.7816164E-02  0.1300439E+00
        -11   -1    0    0    0    0  0.00000000000E+00  0.00000000000E+00  0.45593999997E+02  0.45594000000E+02  0.51100000000E-03 0. -1.
         11   -1    0    0    0    0 -0.00000000000E+00 -0.00000000000E+00 -0.45593999997E+02  0.45594000000E+02  0.51100000000E-03 0.  1.
    9900012    2    1    2    0    0  0.20968021336E+02  0.30580175087E+02 -0.16684169249E+02  0.50528849362E+02  0.29999968120E+02 0.  0.
         12    1    1    2    0    0 -0.20968021336E+02 -0.30580175087E+02  0.16684169249E+02  0.40659150638E+02  0.00000000000E+00 0. -1.
         11    1    3    3    0    0  0.43769154575E+01 -0.17631533864E+01  0.43806100712E+01  0.64386212533E+01  0.51100000000E-03 0. -1.
        -11    1    3    3    0    0  0.66616601982E+01  0.19979341009E+02 -0.52730467256E+01  0.21710753229E+02  0.51100000000E-03 0.  1.
         12    1    3    3    0    0  0.99294456799E+01  0.12363987465E+02 -0.15791732595E+02  0.22379474879E+02  0.00000000000E+00 0. -1.
</event>
<event>
 7    1  0.5897985E-013  0.5052885E+02  0.7816164E-02  0.1300439E+00
        -11   -1    0    0    0    0  0.00000000000E+00  0.00000000000E+00  0.45593999997E+02  0.45594000000E+02  0.51100000000E-03 0.  1.
         11   -1    0    0    0    0 -0.00000000000E+00 -0.00000000000E+00 -0.45593999997E+02  0.45594000000E+02  0.51100000000E-03 0. -1.
    9900012    2    1    2    0    0 -0.37546858608E+02 -0.12540763998E+02 -0.92805651373E+01  0.50528852908E+02  0.29999978898E+02 0.  0.
         12    1    1    2    0    0  0.37546858608E+02  0.12540763998E+02  0.92805651373E+01  0.40659147092E+02  0.00000000000E+00 0. -1.
         11    1    3    3    0    0 -0.10633905065E+02 -0.10786891742E+02 -0.32610762779E+01  0.15494243742E+02  0.51100000000E-03 0. -1.
        -11    1    3    3    0    0 -0.21964125543E+01  0.60746675782E+01 -0.64166131496E+01  0.91048744564E+01  0.51100000000E-03 0.  1.
        -12    1    3    3    0    0 -0.24716540989E+02 -0.78285398344E+01  0.39712429023E+00  0.25929734710E+02  0.00000000000E+00 0.  1.
</event>
<event>
 7    1  0.5897985E-013  0.5052889E+02  0.7816164E-02  0.1300439E+00
        -11   -1    0    0    0    0  0.00000000000E+00  0.00000000000E+00  0.45593999997E+02  0.45594000000E+02  0.51100000000E-03 0. -1.
         11   -1    0    0    0    0 -0.00000000000E+00 -0.00000000000E+00 -0.45593999997E+02  0.45594000000E+02  0.51100000000E-03 0.  1.
    9900012    2    1    2    0    0 -0.11964595984E+02 -0.22288695805E+01 -0.38794898813E+02  0.50528885517E+02  0.30000078016E+02 0.  0.
         12    1    1    2    0    0  0.11964595984E+02  0.22288695805E+01  0.38794898813E+02  0.40659114483E+02  0.00000000000E+00 0. -1.
         11    1    3    3    0    0  0.48381291546E+01 -0.81191547892E+01 -0.72346770706E+01  0.11902467004E+02  0.51100000000E-03 0. -1.
        -11    1    3    3    0    0 -0.57725069020E+01  0.77946289433E+01 -0.21458224470E+02  0.23548534434E+02  0.51100000000E-03 0.  1.
         12    1    3    3    0    0 -0.11030218236E+02 -0.19043437346E+01 -0.10101997272E+02  0.15077884079E+02  0.00000000000E+00 0. -1.
</event>
<event>
 7    1  0.5897985E-013  0.5052886E+02  0.7816164E-02  0.1300439E+00
        -11   -1    0    0    0    0  0.00000000000E+00  0.00000000000E+00  0.45593999997E+02  0.45594000000E+02  0.51100000000E-03 0.  1.
         11   -1    0    0    0    0 -0.00000000000E+00 -0.00000000000E+00 -0.45593999997E+02  0.45594000000E+02  0.51100000000E-03 0. -1.
    9900012    2    1    2    0    0  0.25627895046E+02  0.15486759180E+02  0.27505214623E+02  0.50528861472E+02  0.30000004931E+02 0.  0.
         12    1    1    2    0    0 -0.25627895046E+02 -0.15486759180E+02 -0.27505214623E+02  0.40659138528E+02  0.00000000000E+00 0. -1.
         11    1    3    3    0    0  0.82167072501E+01 -0.65328535984E+01  0.35783970488E+01  0.11090418381E+02  0.51100000000E-03 0.  1.
        -11    1    3    3    0    0  0.18430939841E+02  0.21565896869E+02  0.25056844839E+02  0.37850137711E+02  0.51100000000E-03 0. -1.
         12    1    3    3    0    0 -0.10197520452E+01  0.45371590943E+00 -0.11300272650E+01  0.15883053799E+01  0.00000000000E+00 0. -1.
</event>
<event>
 7    1  0.5897985E-013  0.5052886E+02  0.7816164E-02  0.1300439E+00
        -11   -1    0    0    0    0  0.00000000000E+00  0.00000000000E+00  0.45593999997E+02  0.45594000000E+02  0.51100000000E-03 0. -1.
         11   -1    0    0    0    0 -0.00000000000E+00 -0.00000000000E+00 -0.45593999997E+02  0.45594000000E+02  0.51100000000E-03 0.  1.
    9900012    2    1    2    0    0 -0.13518059283E+02 -0.11808571049E+02 -0.36482667543E+02  0.50528864396E+02  0.30000013819E+02 0.  0.
         12    1    1    2    0    0  0.13518059283E+02  0.11808571049E+02  0.36482667543E+02  0.40659135604E+02  0.00000000000E+00 0. -1.
         11    1    3    3    0    0 -0.93836029759E+01  0.84078755031E+01 -0.21756510414E+02  0.25141402525E+02  0.51100000000E-03 0. -1.
        -11    1    3    3    0    0 -0.13563772562E+01 -0.39184735621E+01 -0.28904373234E+01  0.50545843054E+01  0.51100000000E-03 0.  1.
         12    1    3    3    0    0 -0.27780790514E+01 -0.16297972990E+02 -0.11835719806E+02  0.20332877566E+02  0.00000000000E+00 0. -1.
</event>
<event>
 7    1  0.5897985E-013  0.5052885E+02  0.7816164E-02  0.1300439E+00
        -11   -1    0    0    0    0  0.00000000000E+00  0.00000000000E+00  0.45593999997E+02  0.45594000000E+02  0.51100000000E-03 0.  1.
         11   -1    0    0    0    0 -0.00000000000E+00 -0.00000000000E+00 -0.45593999997E+02  0.45594000000E+02  0.51100000000E-03 0. -1.
    9900012    2    1    2    0    0 -0.34960450839E+01  0.29225687296E+02  0.28050012120E+02  0.50528852086E+02  0.29999976401E+02 0.  0.
         12    1    1    2    0    0  0.34960450839E+01 -0.29225687296E+02 -0.28050012120E+02  0.40659147914E+02  0.00000000000E+00 0. -1.
         11    1    3    3    0    0 -0.54319518140E+01  0.26004914244E+02  0.12248178930E+02  0.29253710068E+02  0.51100000000E-03 0. -1.
        -11    1    3    3    0    0  0.43888782615E+01  0.62407346029E+01  0.15615916494E+02  0.17380042261E+02  0.51100000000E-03 0.  1.
         12    1    3    3    0    0 -0.24529715314E+01 -0.30199615507E+01  0.18591669545E+00  0.38950997573E+01  0.00000000000E+00 0. -1.
</event>
<event>
 7    1  0.5897985E-013  0.5052892E+02  0.7816164E-02  0.1300439E+00
        -11   -1    0    0    0    0  0.00000000000E+00  0.00000000000E+00  0.45593999997E+02  0.45594000000E+02  0.51100000000E-03 0. -1.
         11   -1    0    0    0    0 -0.00000000000E+00 -0.00000000000E+00 -0.45593999997E+02  0.45594000000E+02  0.51100000000E-03 0.  1.
    9900012    2    1    2    0    0  0.13606351099E+02 -0.32517350549E+02 -0.20264496497E+02  0.50528921122E+02  0.30000186241E+02 0.  0.
         12    1    1    2    0    0 -0.13606351099E+02  0.32517350549E+02  0.20264496497E+02  0.40659078878E+02  0.00000000000E+00 0. -1.
         11    1    3    3    0    0  0.25594878030E+01 -0.14021813011E+02 -0.22443194386E+02  0.26586823662E+02  0.51100000000E-03 0. -1.
        -11    1    3    3    0    0  0.47463410140E+01 -0.98082402316E+01 -0.39424348849E+01  0.11587584845E+02  0.51100000000E-03 0.  1.
         12    1    3    3    0    0  0.63005222817E+01 -0.86872973061E+01  0.61211327738E+01  0.12354512614E+02  0.00000000000E+00 0. -1.
</event>
<event>
 7    1  0.5897985E-013  0.5052886E+02  0.7816164E-02  0.1300439E+00
        -11   -1    0    0    0    0  0.00000000000E+00  0.00000000000E+00  0.45593999997E+02  0.45594000000E+02  0.51100000000E-03 0.  1.
         11   -1    0    0    0    0 -0.00000000000E+00 -0.00000000000E+00 -0.45593999997E+02  0.45594000000E+02  0.51100000000E-03 0. -1.
    9900012    2    1    2    0    0  0.22998973887E+02  0.18315787282E+02  0.28084600141E+02  0.50528860453E+02  0.30000001834E+02 0.  0.
         12    1    1    2    0    0 -0.22998973887E+02 -0.18315787282E+02 -0.28084600141E+02  0.40659139547E+02  0.00000000000E+00 0. -1.
         11    1    3    3    0    0  0.68145872620E+01  0.10852049119E+02 -0.25666560018E+00  0.12816842323E+02  0.51100000000E-03 0. -1.
        -11    1    3    3    0    0  0.87050456154E+01  0.84810007203E+01  0.27563390861E+02  0.30123839536E+02  0.51100000000E-03 0.  1.
        -12    1    3    3    0    0  0.74793410096E+01 -0.10172625574E+01  0.77787487981E+00  0.75881785942E+01  0.00000000000E+00 0.  1.
</event>
<event>
 7    1  0.5897985E-013  0.5052886E+02  0.7816164E-02  0.1300439E+00
        -11   -1    0    0    0    0  0.00000000000E+00  0.00000000000E+00  0.45593999997E+02  0.45594000000E+02  0.51100000000E-03 0. -1.
         11   -1    0    0    0    0 -0.00000000000E+00 -0.00000000000E+00 -0.45593999997E+02  0.45594000000E+02  0.51100000000E-03 0.  1.
    9900012    2    1    2    0    0  0.27518374157E+02  0.27693604294E+02 -0.11356452539E+02  0.50528860199E+02  0.30000001062E+02 0.  0.
         12    1    1    2    0    0 -0.27518374157E+02 -0.27693604294E+02  0.11356452539E+02  0.40659139801E+02  0.00000000000E+00 0. -1.
         11    1    3    3    0    0  0.21679138816E+02  0.20564125808E+02 -0.14769173226E+01  0.29917379816E+02  0.51100000000E-03 0.  1.
        -11    1    3    3    0    0 -0.30798894099E+01  0.77394459758E+01 -0.78461351624E+01  0.11443189242E+02  0.51100000000E-03 0. -1.
        -12    1    3    3    0    0  0.89191247508E+01 -0.60996748905E+00 -0.20334000542E+01  0.91682911406E+01  0.00000000000E+00 0.  1.
</event>
<event>
 7    1  0.5897985E-013  0.5052887E+02  0.7816164E-02  0.1300439E+00
        -11   -1    0    0    0    0  0.00000000000E+00  0.00000000000E+00  0.45593999997E+02  0.45594000000E+02  0.51100000000E-03 0.  1.
         11   -1    0    0    0    0 -0.00000000000E+00 -0.00000000000E+00 -0.45593999997E+02  0.45594000000E+02  0.51100000000E-03 0. -1.
    9900012    2    1    2    0    0  0.36774891539E+02 -0.66886829982E+01  0.16001063050E+02  0.50528866381E+02  0.30000019850E+02 0.  0.
         12    1    1    2    0    0 -0.36774891539E+02  0.66886829982E+01 -0.16001063050E+02  0.40659133619E+02  0.00000000000E+00 0. -1.
         11    1    3    3    0    0  0.15377639018E+02 -0.45924951008E+00 -0.23649782766E+01  0.15565211672E+02  0.51100000000E-03 0. -1.
        -11    1    3    3    0    0  0.74441051037E+01 -0.11846666001E+02  0.12683503407E+02  0.18884635424E+02  0.51100000000E-03 0.  1.
        -12    1    3    3    0    0  0.13953147417E+02  0.56172325133E+01  0.56825379187E+01  0.16079019284E+02  0.00000000000E+00 0.  1.
</event>
<event>
 7    1  0.5897985E-013  0.5052888E+02  0.7816164E-02  0.1300439E+00
        -11   -1    0    0    0    0  0.00000000000E+00  0.00000000000E+00  0.45593999997E+02  0.45594000000E+02  0.51100000000E-03 0. -1.
         11   -1    0    0    0    0 -0.00000000000E+00 -0.00000000000E+00 -0.45593999997E+02  0.45594000000E+02  0.51100000000E-03 0.  1.
    9900012    2    1    2    0    0  0.24997860034E+02 -0.16694926082E+02 -0.27377924260E+02  0.50528876793E+02  0.30000051500E+02 0.  0.
         12    1    1    2    0    0 -0.24997860034E+02  0.16694926082E+02  0.27377924260E+02  0.40659123207E+02  0.00000000000E+00 0. -1.
         11    1    3    3    0    0 -0.42322517078E+01 -0.49131697074E+01 -0.36956591228E+01  0.74638520688E+01  0.51100000000E-03 0. -1.
        -11    1    3    3    0    0  0.28544571045E+02 -0.14580500451E+02 -0.24167608336E+02  0.40142954830E+02  0.51100000000E-03 0.  1.
         12    1    3    3    0    0  0.68554069737E+00  0.27987440756E+01  0.48534319864E+00  0.29220698946E+01  0.00000000000E+00 0. -1.
</event>
<event>
 7    1  0.5897985E-013  0.5052886E+02  0.7816164E-02  0.1300439E+00
        -11   -1    0    0    0    0  0.00000000000E+00  0.00000000000E+00  0.45593999997E+02  0.45594000000E+02  0.51100000000E-03 0.  1.
         11   -1    0    0    0    0 -0.00000000000E+00 -0.00000000000E+00 -0.45593999997E+02  0.45594000000E+02  0.51100000000E-03 0. -1.
    9900012    2    1    2    0    0 -0.85269769851E+01 -0.37822134528E+02 -0.12245087350E+02  0.50528863745E+02  0.30000011841E+02 0.  0.
         12    1    1    2    0    0  0.85269769851E+01  0.37822134528E+02  0.12245087350E+02  0.40659136255E+02  0.00000000000E+00 0. -1.
         11    1    3    3    0    0 -0.15420234524E+02 -0.28146976907E+02 -0.63289335148E+01  0.32712250633E+02  0.51100000000E-03 0. -1.
        -11    1    3    3    0    0  0.62876655716E+01  0.69272996216E+00 -0.13324919465E+01  0.64645300053E+01  0.51100000000E-03 0.  1.
        -12    1    3    3    0    0  0.60559196684E+00 -0.10367887583E+02 -0.45836618889E+01  0.11352083107E+02  0.00000000000E+00 0.  1.
</event>
<event>
 7    1  0.5897985E-013  0.5052886E+02  0.7816164E-02  0.1300439E+00
        -11   -1    0    0    0    0  0.00000000000E+00  0.00000000000E+00  0.45593999997E+02  0.45594000000E+02  0.51100000000E-03 0. -1.
         11   -1    0    0    0    0 -0.00000000000E+00 -0.00000000000E+00 -0.45593999997E+02  0.45594000000E+02  0.51100000000E-03 0.  1.
    9900012    2    1    2    0    0 -0.35875791952E+02  0.17037483974E+02 -0.87073299842E+01  0.50528857070E+02  0.29999991550E+02 0.  0.
         12    1    1    2    0    0  0.35875791952E+02 -0.17037483974E+02  0.87073299842E+01  0.40659142930E+02  0.00000000000E+00 0. -1.
         11    1    3    3    0    0 -0.15296381618E+02  0.31763899149E+01  0.59849282343E+01  0.16729856835E+02  0.51100000000E-03 0. -1.
        -11    1    3    3    0    0 -0.21043311218E+02  0.10498142231E+02 -0.17564574962E+02  0.29352107780E+02  0.51100000000E-03 0.  1.
        -12    1    3    3    0    0  0.46390088360E+00  0.33629518284E+01  0.28723167433E+01  0.44468924547E+01  0.00000000000E+00 0.  1.
</event>
<event>
 7    1  0.5897985E-013  0.5052885E+02  0.7816164E-02  0.1300439E+00
        -11   -1    0    0    0    0  0.00000000000E+00  0.00000000000E+00  0.45593999997E+02  0.45594000000E+02  0.51100000000E-03 0.  1.
         11   -1    0    0    0    0 -0.00000000000E+00 -0.00000000000E+00 -0.45593999997E+02  0.45594000000E+02  0.51100000000E-03 0. -1.
    9900012    2    1    2    0    0 -0.19780128945E+02 -0.47262565878E+01  0.35207602167E+02  0.50528852779E+02  0.29999978507E+02 0.  0.
         12    1    1    2    0    0  0.19780128945E+02  0.47262565878E+01 -0.35207602167E+02  0.40659147221E+02  0.00000000000E+00 0. -1.
         11    1    3    3    0    0 -0.23649509035E+01  0.85987809209E+01  0.47100703362E+01  0.10085474155E+02  0.51100000000E-03 0. -1.
        -11    1    3    3    0    0 -0.12420637612E+02 -0.88886554145E+01  0.85545025794E+01  0.17505997498E+02  0.51100000000E-03 0.  1.
        -12    1    3    3    0    0 -0.49945404292E+01 -0.44363820942E+01  0.21943029251E+02  0.22937381126E+02  0.00000000000E+00 0.  1.
</event>
<event>
 7    1  0.5897985E-013  0.5052886E+02  0.7816164E-02  0.1300439E+00
        -11   -1    0    0    0    0  0.00000000000E+00  0.00000000000E+00  0.45593999997E+02  0.45594000000E+02  0.51100000000E-03 0.  1.
         11   -1    0    0    0    0 -0.00000000000E+00 -0.00000000000E+00 -0.45593999997E+02  0.45594000000E+02  0.51100000000E-03 0. -1.
    9900012    2    1    2    0    0  0.37629729240E+02  0.20017045614E+01  0.15269660112E+02  0.50528857562E+02  0.29999993047E+02 0.  0.
         12    1    1    2    0    0 -0.37629729240E+02 -0.20017045614E+01 -0.15269660112E+02  0.40659142438E+02  0.00000000000E+00 0. -1.
         11    1    3    3    0    0  0.47557958818E+01  0.83996116025E+01  0.51654952428E+01  0.10947758259E+02  0.51100000000E-03 0. -1.
        -11    1    3    3    0    0  0.32238258875E+02 -0.16115507910E+01  0.11939162642E+02  0.34415781788E+02  0.51100000000E-03 0.  1.
         12    1    3    3    0    0  0.63567448314E+00 -0.47863562502E+01 -0.18349977727E+01  0.51653175147E+01  0.00000000000E+00 0. -1.
</event>
<event>
 7    1  0.5897985E-013  0.5052886E+02  0.7816164E-02  0.1300439E+00
        -11   -1    0    0    0    0  0.00000000000E+00  0.00000000000E+00  0.45593999997E+02  0.45594000000E+02  0.51100000000E-03 0.  1.
         11   -1    0    0    0    0 -0.00000000000E+00 -0.00000000000E+00 -0.45593999997E+02  0.45594000000E+02  0.51100000000E-03 0. -1.
    9900012    2    1    2    0    0  0.23592784978E+02  0.17564292524E+02  0.28072086892E+02  0.50528856658E+02  0.29999990296E+02 0.  0.
         12    1    1    2    0    0 -0.23592784978E+02 -0.17564292524E+02 -0.28072086892E+02  0.40659143342E+02  0.00000000000E+00 0. -1.
         11    1    3    3    0    0 -0.29043074311E+01 -0.36209594568E+01 -0.34138172928E+00  0.46543410692E+01  0.51100000000E-03 0. -1.
        -11    1    3    3    0    0  0.10672131650E+02  0.23472546407E+01  0.54113946951E+01  0.12193735732E+02  0.51100000000E-03 0.  1.
         12    1    3    3    0    0  0.15824960759E+02  0.18837997340E+02  0.23002073926E+02  0.33680779856E+02  0.00000000000E+00 0. -1.
</event>
<event>
 7    1  0.5897985E-013  0.5052887E+02  0.7816164E-02  0.1300439E+00
        -11   -1    0    0    0    0  0.00000000000E+00  0.00000000000E+00  0.45593999997E+02  0.45594000000E+02  0.51100000000E-03 0.  1.
         11   -1    0    0    0    0 -0.00000000000E+00 -0.00000000000E+00 -0.45593999997E+02  0.45594000000E+02  0.51100000000E-03 0. -1.
    9900012    2    1    2    0    0 -0.13674164669E+02  0.37946402074E+02 -0.51237722125E+01  0.50528865092E+02  0.30000015934E+02 0.  0.
         12    1    1    2    0    0  0.13674164669E+02 -0.37946402074E+02  0.51237722125E+01  0.40659134908E+02  0.00000000000E+00 0. -1.
         11    1    3    3    0    0 -0.51356833980E+01 -0.23455144525E+01  0.54312921084E+01  0.78342591378E+01  0.51100000000E-03 0. -1.
        -11    1    3    3    0    0 -0.12043777697E+01  0.11095802800E+02 -0.15149743025E+01  0.11263326018E+02  0.51100000000E-03 0.  1.
         12    1    3    3    0    0 -0.73341035012E+01  0.29196113727E+02 -0.90400900184E+01  0.31431279937E+02  0.00000000000E+00 0. -1.
</event>
<event>
 7    1  0.5897985E-013  0.5052886E+02  0.7816164E-02  0.1300439E+00
        -11   -1    0    0    0    0  0.00000000000E+00  0.00000000000E+00  0.45593999997E+02  0.45594000000E+02  0.51100000000E-03 0. -1.
         11   -1    0    0    0    0 -0.00000000000E+00 -0.00000000000E+00 -0.45593999997E+02  0.45594000000E+02  0.51100000000E-03 0.  1.
    9900012    2    1    2    0    0 -0.36505993068E+02 -0.67652631670E+01 -0.16574353433E+02  0.50528861946E+02  0.30000006371E+02 0.  0.
         12    1    1    2    0    0  0.36505993068E+02  0.67652631670E+01  0.16574353433E+02  0.40659138054E+02  0.00000000000E+00 0. -1.
         11    1    3    3    0    0 -0.17980583549E+02  0.15904706600E+01  0.28487209667E+01  0.18274194732E+02  0.51100000000E-03 0. -1.
        -11    1    3    3    0    0 -0.11133666102E+02 -0.41501161416E+01 -0.20487657103E+02  0.23683878033E+02  0.51100000000E-03 0.  1.
         12    1    3    3    0    0 -0.73917434166E+01 -0.42056176855E+01  0.10645827037E+01  0.85707891811E+01  0.00000000000E+00 0. -1.
</event>
<event>
 7    1  0.5897985E-013  0.5052886E+02  0.7816164E-02  0.1300439E+00
        -11   -1    0    0    0    0  0.00000000000E+00  0.00000000000E+00  0.45593999997E+02  0.45594000000E+02  0.51100000000E-03 0. -1.
         11   -1    0    0    0    0 -0.00000000000E+00 -0.00000000000E+00 -0.45593999997E+02  0.45594000000E+02  0.51100000000E-03 0.  1.
    9900012    2    1    2    0    0 -0.35318669709E+02 -0.16794898259E+02 -0.11121527025E+02  0.50528863254E+02  0.30000010348E+02 0.  0.
         12    1    1    2    0    0  0.35318669709E+02  0.16794898259E+02  0.11121527025E+02  0.40659136746E+02  0.00000000000E+00 0. -1.
         11    1    3    3    0    0 -0.29186467680E+02 -0.19086967300E+02 -0.58343730659E+01  0.35358197433E+02  0.51100000000E-03 0. -1.
        -11    1    3    3    0    0 -0.94655691827E+01  0.36826228679E+01 -0.55043820854E+01  0.11552356190E+02  0.51100000000E-03 0.  1.
         12    1    3    3    0    0  0.33333671542E+01 -0.13905538270E+01  0.21722812607E+00  0.36183096315E+01  0.00000000000E+00 0. -1.
</event>
<event>
 7    1  0.5897985E-013  0.5052886E+02  0.7816164E-02  0.1300439E+00
        -11   -1    0    0    0    0  0.00000000000E+00  0.00000000000E+00  0.45593999997E+02  0.45594000000E+02  0.51100000000E-03 0.  1.
         11   -1    0    0    0    0 -0.00000000000E+00 -0.00000000000E+00 -0.45593999997E+02  0.45594000000E+02  0.51100000000E-03 0. -1.
    9900012    2    1    2    0    0  0.26737298770E+02  0.12744931504E+02  0.27854069764E+02  0.50528860474E+02  0.30000001898E+02 0.  0.
         12    1    1    2    0    0 -0.26737298770E+02 -0.12744931504E+02 -0.27854069764E+02  0.40659139526E+02  0.00000000000E+00 0. -1.
         11    1    3    3    0    0  0.17485688990E+02  0.91626859797E+01  0.50231688804E+01  0.20369986737E+02  0.51100000000E-03 0. -1.
        -11    1    3    3    0    0 -0.14191845053E+01  0.56767134735E+01  0.16655234543E+02  0.17653214961E+02  0.51100000000E-03 0.  1.
         12    1    3    3    0    0  0.10670794285E+02 -0.20944679490E+01  0.61756663406E+01  0.12505658776E+02  0.00000000000E+00 0. -1.
</event>
<event>
 7    1  0.5897985E-013  0.5052886E+02  0.7816164E-02  0.1300439E+00
        -11   -1    0    0    0    0  0.00000000000E+00  0.00000000000E+00  0.45593999997E+02  0.45594000000E+02  0.51100000000E-03 0. -1.
         11   -1    0    0    0    0 -0.00000000000E+00 -0.00000000000E+00 -0.45593999997E+02  0.45594000000E+02  0.51100000000E-03 0.  1.
    9900012    2    1    2    0    0 -0.21063570008E+02 -0.26245241755E+02 -0.22818392082E+02  0.50528859410E+02  0.29999998664E+02 0.  0.
         12    1    1    2    0    0  0.21063570008E+02  0.26245241755E+02  0.22818392082E+02  0.40659140590E+02  0.00000000000E+00 0. -1.
         11    1    3    3    0    0 -0.59159764791E+01 -0.19071397419E+02 -0.57386722171E+00  0.19976143298E+02  0.51100000000E-03 0. -1.
        -11    1    3    3    0    0 -0.93101859483E+01  0.24458076694E+01 -0.11466173144E+02  0.14971127692E+02  0.51100000000E-03 0.  1.
         12    1    3    3    0    0 -0.58374075808E+01 -0.96196520051E+01 -0.10778351716E+02  0.15581588420E+02  0.00000000000E+00 0. -1.
</event>
<event>
 7    1  0.5897985E-013  0.5052885E+02  0.7816164E-02  0.1300439E+00
        -11   -1    0    0    0    0  0.00000000000E+00  0.00000000000E+00  0.45593999997E+02  0.45594000000E+02  0.51100000000E-03 0.  1.
         11   -1    0    0    0    0 -0.00000000000E+00 -0.00000000000E+00 -0.45593999997E+02  0.45594000000E+02  0.51100000000E-03 0. -1.
    9900012    2    1    2    0    0 -0.27082553951E+02 -0.29581591072E+02  0.66806587766E+01  0.50528850223E+02  0.29999970739E+02 0.  0.
         12    1    1    2    0    0  0.27082553951E+02  0.29581591072E+02 -0.66806587766E+01  0.40659149777E+02  0.00000000000E+00 0. -1.
         11    1    3    3    0    0 -0.13476088717E+02 -0.28485448572E+02 -0.21623222092E+01  0.31586411399E+02  0.51100000000E-03 0. -1.
        -11    1    3    3    0    0 -0.13275413148E+01  0.28401937494E+01  0.41923292012E+01  0.52349489844E+01  0.51100000000E-03 0.  1.
         12    1    3    3    0    0 -0.12278923920E+02 -0.39363362492E+01  0.46506517845E+01  0.13707489840E+02  0.00000000000E+00 0. -1.
</event>
<event>
 7    1  0.5897985E-013  0.5052886E+02  0.7816164E-02  0.1300439E+00
        -11   -1    0    0    0    0  0.00000000000E+00  0.00000000000E+00  0.45593999997E+02  0.45594000000E+02  0.51100000000E-03 0. -1.
         11   -1    0    0    0    0 -0.00000000000E+00 -0.00000000000E+00 -0.45593999997E+02  0.45594000000E+02  0.51100000000E-03 0.  1.
    9900012    2    1    2    0    0 -0.95132981019E+01  0.27315742470E+02 -0.28574694715E+02  0.50528858279E+02  0.29999995226E+02 0.  0.
         12    1    1    2    0    0  0.95132981019E+01 -0.27315742470E+02  0.28574694715E+02  0.40659141721E+02  0.00000000000E+00 0. -1.
         11    1    3    3    0    0  0.98805802742E+01  0.13528467962E+02 -0.98815788540E+01  0.19449702128E+02  0.51100000000E-03 0. -1.
        -11    1    3    3    0    0 -0.13012435199E+02  0.12407387795E+02 -0.11393108762E+02  0.21285433264E+02  0.51100000000E-03 0.  1.
         12    1    3    3    0    0 -0.63814431771E+01  0.13798867127E+01 -0.73000070983E+01  0.97937228875E+01  0.00000000000E+00 0. -1.
</event>
<event>
 7    1  0.5897985E-013  0.5052885E+02  0.7816164E-02  0.1300439E+00
        -11   -1    0    0    0    0  0.00000000000E+00  0.00000000000E+00  0.45593999997E+02  0.45594000000E+02  0.51100000000E-03 0. -1.
         11   -1    0    0    0    0 -0.00000000000E+00 -0.00000000000E+00 -0.45593999997E+02  0.45594000000E+02  0.51100000000E-03 0.  1.
    9900012    2    1    2    0    0  0.10019086829E+02  0.27836530729E+02 -0.27891075882E+02  0.50528847798E+02  0.29999963368E+02 0.  0.
         12    1    1    2    0    0 -0.10019086829E+02 -0.27836530729E+02  0.27891075882E+02  0.40659152202E+02  0.00000000000E+00 0. -1.
         11    1    3    3    0    0  0.14001412703E+00 -0.37104641310E+00  0.43200871397E+01  0.43382522463E+01  0.51100000000E-03 0. -1.
        -11    1    3    3    0    0  0.70459723091E+01  0.22946613687E+02 -0.32265422403E+02  0.40215050523E+02  0.51100000000E-03 0.  1.
         12    1    3    3    0    0  0.28331003928E+01  0.52609634555E+01  0.54259381403E-01  0.59755450292E+01  0.00000000000E+00 0. -1.
</event>
<event>
 7    1  0.5897985E-013  0.5052886E+02  0.7816164E-02  0.1300439E+00
        -11   -1    0    0    0    0  0.00000000000E+00  0.00000000000E+00  0.45593999997E+02  0.45594000000E+02  0.51100000000E-03 0. -1.
         11   -1    0    0    0    0 -0.00000000000E+00 -0.00000000000E+00 -0.45593999997E+02  0.45594000000E+02  0.51100000000E-03 0.  1.
    9900012    2    1    2    0    0 -0.38632285303E+02  0.93488132734E+01 -0.85622214141E+01  0.50528863106E+02  0.30000009898E+02 0.  0.
         12    1    1    2    0    0  0.38632285303E+02 -0.93488132734E+01  0.85622214141E+01  0.40659136894E+02  0.00000000000E+00 0. -1.
         11    1    3    3    0    0 -0.32525528803E+02  0.15528884974E+02  0.22371992742E+00  0.36043117835E+02  0.51100000000E-03 0. -1.
        -11    1    3    3    0    0 -0.73672856833E+01 -0.30274769350E+01 -0.72055495504E+01  0.10740691761E+02  0.51100000000E-03 0.  1.
         12    1    3    3    0    0  0.12605291825E+01 -0.31525947656E+01 -0.15803917911E+01  0.37450535096E+01  0.00000000000E+00 0. -1.
</event>
<event>
 7    1  0.5897985E-013  0.5052886E+02  0.7816164E-02  0.1300439E+00
        -11   -1    0    0    0    0  0.00000000000E+00  0.00000000000E+00  0.45593999997E+02  0.45594000000E+02  0.51100000000E-03 0.  1.
         11   -1    0    0    0    0 -0.00000000000E+00 -0.00000000000E+00 -0.45593999997E+02  0.45594000000E+02  0.51100000000E-03 0. -1.
    9900012    2    1    2    0    0 -0.26375603962E+02 -0.21593532799E+02  0.22163318570E+02  0.50528857939E+02  0.29999994192E+02 0.  0.
         12    1    1    2    0    0  0.26375603962E+02  0.21593532799E+02 -0.22163318570E+02  0.40659142061E+02  0.00000000000E+00 0. -1.
         11    1    3    3    0    0  0.44757162396E+01 -0.32552115228E+01  0.54335187143E+01  0.77557439228E+01  0.51100000000E-03 0. -1.
        -11    1    3    3    0    0 -0.23935377077E+02 -0.57430642930E+01  0.76518841523E+01  0.25776663761E+02  0.51100000000E-03 0.  1.
        -12    1    3    3    0    0 -0.69159431246E+01 -0.12595256983E+02  0.90779157035E+01  0.16996450255E+02  0.00000000000E+00 0.  1.
</event>
<event>
 7    1  0.5897985E-013  0.5052886E+02  0.7816164E-02  0.1300439E+00
        -11   -1    0    0    0    0  0.00000000000E+00  0.00000000000E+00  0.45593999997E+02  0.45594000000E+02  0.51100000000E-03 0. -1.
         11   -1    0    0    0    0 -0.00000000000E+00 -0.00000000000E+00 -0.45593999997E+02  0.45594000000E+02  0.51100000000E-03 0.  1.
    9900012    2    1    2    0    0  0.89721899103E+01  0.10778612793E+02 -0.38163951252E+02  0.50528857600E+02  0.29999993160E+02 0.  0.
         12    1    1    2    0    0 -0.89721899103E+01 -0.10778612793E+02  0.38163951252E+02  0.40659142400E+02  0.00000000000E+00 0. -1.
         11    1    3    3    0    0  0.19471844796E+01  0.86121361176E+01 -0.36247304234E+01  0.95445841611E+01  0.51100000000E-03 0. -1.
        -11    1    3    3    0    0  0.89990176186E+01 -0.71639174269E+01 -0.12593002505E+02  0.17055431491E+02  0.51100000000E-03 0.  1.
        -12    1    3    3    0    0 -0.19740121880E+01  0.93303941025E+01 -0.21946218324E+02  0.23928841948E+02  0.00000000000E+00 0.  1.
</event>
<event>
 7    1  0.5897985E-013  0.5052886E+02  0.7816164E-02  0.1300439E+00
        -11   -1    0    0    0    0  0.00000000000E+00  0.00000000000E+00  0.45593999997E+02  0.45594000000E+02  0.51100000000E-03 0.  1.
         11   -1    0    0    0    0 -0.00000000000E+00 -0.00000000000E+00 -0.45593999997E+02  0.45594000000E+02  0.51100000000E-03 0. -1.
    9900012    2    1    2    0    0  0.33979709431E+02 -0.22036196316E+02  0.35987273356E+01  0.50528862780E+02  0.30000008905E+02 0.  0.
         12    1    1    2    0    0 -0.33979709431E+02  0.22036196316E+02 -0.35987273356E+01  0.40659137220E+02  0.00000000000E+00 0. -1.
         11    1    3    3    0    0  0.17392401415E+02  0.38773540339E+01 -0.30077495530E+01  0.18071415520E+02  0.51100000000E-03 0. -1.
        -11    1    3    3    0    0  0.14496749384E+02 -0.17380445134E+02  0.69184661332E+01  0.23666448606E+02  0.51100000000E-03 0.  1.
         12    1    3    3    0    0  0.20905586322E+01 -0.85331052162E+01 -0.31198924459E+00  0.87909986528E+01  0.00000000000E+00 0. -1.
</event>
<event>
 7    1  0.5897985E-013  0.5052891E+02  0.7816164E-02  0.1300439E+00
        -11   -1    0    0    0    0  0.00000000000E+00  0.00000000000E+00  0.45593999997E+02  0.45594000000E+02  0.51100000000E-03 0.  1.
         11   -1    0    0    0    0 -0.00000000000E+00 -0.00000000000E+00 -0.45593999997E+02  0.45594000000E+02  0.51100000000E-03 0. -1.
    9900012    2    1    2    0    0 -0.28093599496E+02  0.46664418281E+01  0.29019567656E+02  0.50528913452E+02  0.30000162929E+02 0.  0.
         12    1    1    2    0    0  0.28093599496E+02 -0.46664418281E+01 -0.29019567656E+02  0.40659086548E+02  0.00000000000E+00 0. -1.
         11    1    3    3    0    0  0.34353531821E+01 -0.10899452544E+01  0.69462836676E+01  0.78256302747E+01  0.51100000000E-03 0. -1.
        -11    1    3    3    0    0 -0.31846913550E+02  0.14425912665E+01  0.17336101935E+02  0.36288392122E+02  0.51100000000E-03 0.  1.
        -12    1    3    3    0    0  0.31796087180E+00  0.43137958160E+01  0.47371820529E+01  0.64148910560E+01  0.00000000000E+00 0.  1.
</event>
<event>
 7    1  0.5897985E-013  0.5052886E+02  0.7816164E-02  0.1300439E+00
        -11   -1    0    0    0    0  0.00000000000E+00  0.00000000000E+00  0.45593999997E+02  0.45594000000E+02  0.51100000000E-03 0.  1.
         11   -1    0    0    0    0 -0.00000000000E+00 -0.00000000000E+00 -0.45593999997E+02  0.45594000000E+02  0.51100000000E-03 0. -1.
    9900012    2    1    2    0    0  0.18226829416E+02  0.64902133439E+01  0.35760668090E+02  0.50528861273E+02  0.30000004325E+02 0.  0.
         12    1    1    2    0    0 -0.18226829416E+02 -0.64902133439E+01 -0.35760668090E+02  0.40659138727E+02  0.00000000000E+00 0. -1.
         11    1    3    3    0    0  0.68769308164E+01  0.50855898531E+01  0.22371005869E+01  0.88408156244E+01  0.51100000000E-03 0. -1.
        -11    1    3    3    0    0 -0.66332850207E+01 -0.28170340579E+00  0.10535360810E+02  0.12452857288E+02  0.51100000000E-03 0.  1.
        -12    1    3    3    0    0  0.17983183620E+02  0.16863268965E+01  0.22988206693E+02  0.29235188360E+02  0.00000000000E+00 0.  1.
</event>
<event>
 7    1  0.5897985E-013  0.5052887E+02  0.7816164E-02  0.1300439E+00
        -11   -1    0    0    0    0  0.00000000000E+00  0.00000000000E+00  0.45593999997E+02  0.45594000000E+02  0.51100000000E-03 0. -1.
         11   -1    0    0    0    0 -0.00000000000E+00 -0.00000000000E+00 -0.45593999997E+02  0.45594000000E+02  0.51100000000E-03 0.  1.
    9900012    2    1    2    0    0 -0.25133856848E+02 -0.21053119304E+02 -0.24046211845E+02  0.50528869456E+02  0.30000029199E+02 0.  0.
         12    1    1    2    0    0  0.25133856848E+02  0.21053119304E+02  0.24046211845E+02  0.40659130544E+02  0.00000000000E+00 0. -1.
         11    1    3    3    0    0 -0.17826250065E+02 -0.56863336431E+01 -0.22322715119E+01  0.18843901349E+02  0.51100000000E-03 0. -1.
        -11    1    3    3    0    0 -0.20473353288E+01 -0.17141895922E+02 -0.14796653687E+02  0.22737131269E+02  0.51100000000E-03 0.  1.
         12    1    3    3    0    0 -0.52602714541E+01  0.17751102613E+01 -0.70172866460E+01  0.89478368382E+01  0.00000000000E+00 0. -1.
</event>
<event>
 7    1  0.5897985E-013  0.5052887E+02  0.7816164E-02  0.1300439E+00
        -11   -1    0    0    0    0  0.00000000000E+00  0.00000000000E+00  0.45593999997E+02  0.45594000000E+02  0.51100000000E-03 0. -1.
         11   -1    0    0    0    0 -0.00000000000E+00 -0.00000000000E+00 -0.45593999997E+02  0.45594000000E+02  0.51100000000E-03 0.  1.
    9900012    2    1    2    0    0  0.95957610196E+00  0.33609811097E+00 -0.40646414592E+02  0.50528871045E+02  0.30000034028E+02 0.  0.
         12    1    1    2    0    0 -0.95957610196E+00 -0.33609811097E+00  0.40646414592E+02  0.40659128955E+02  0.00000000000E+00 0. -1.
         11    1    3    3    0    0 -0.95250342361E+00  0.12892117032E+02 -0.13474731961E+02  0.18673037943E+02  0.51100000000E-03 0. -1.
        -11    1    3    3    0    0 -0.42078029059E+01 -0.66623127990E+01 -0.10329908286E+02  0.12992267800E+02  0.51100000000E-03 0.  1.
         12    1    3    3    0    0  0.61198824315E+01 -0.58937061219E+01 -0.16841774345E+02  0.18863565302E+02  0.00000000000E+00 0. -1.
</event>
<event>
 7    1  0.5897985E-013  0.5052885E+02  0.7816164E-02  0.1300439E+00
        -11   -1    0    0    0    0  0.00000000000E+00  0.00000000000E+00  0.45593999997E+02  0.45594000000E+02  0.51100000000E-03 0.  1.
         11   -1    0    0    0    0 -0.00000000000E+00 -0.00000000000E+00 -0.45593999997E+02  0.45594000000E+02  0.51100000000E-03 0. -1.
    9900012    2    1    2    0    0 -0.96476417109E+01  0.13389851787E+01  0.39475261207E+02  0.50528854421E+02  0.29999983497E+02 0.  0.
         12    1    1    2    0    0  0.96476417109E+01 -0.13389851787E+01 -0.39475261207E+02  0.40659145579E+02  0.00000000000E+00 0. -1.
         11    1    3    3    0    0 -0.25202744835E+01  0.11228022225E+02  0.46529388034E+01  0.12412497989E+02  0.51100000000E-03 0. -1.
        -11    1    3    3    0    0 -0.16161666794E+01 -0.42557073883E+01  0.32966659079E+01  0.56205912927E+01  0.51100000000E-03 0.  1.
         12    1    3    3    0    0 -0.55112005479E+01 -0.56333296576E+01  0.31525656496E+02  0.32495765139E+02  0.00000000000E+00 0. -1.
</event>
<event>
 7    1  0.5897985E-013  0.5052890E+02  0.7816164E-02  0.1300439E+00
        -11   -1    0    0    0    0  0.00000000000E+00  0.00000000000E+00  0.45593999997E+02  0.45594000000E+02  0.51100000000E-03 0. -1.
         11   -1    0    0    0    0 -0.00000000000E+00 -0.00000000000E+00 -0.45593999997E+02  0.45594000000E+02  0.51100000000E-03 0.  1.
    9900012    2    1    2    0    0 -0.34440385659E+02 -0.21221668573E+02 -0.40820200136E+01  0.50528901772E+02  0.30000127425E+02 0.  0.
         12    1    1    2    0    0  0.34440385659E+02  0.21221668573E+02  0.40820200136E+01  0.40659098228E+02  0.00000000000E+00 0. -1.
         11    1    3    3    0    0 -0.11052886770E+02  0.64270676263E+01  0.14240844231E+01  0.12864739443E+02  0.51100000000E-03 0. -1.
        -11    1    3    3    0    0 -0.15939794600E+01 -0.49087196266E+00 -0.20929342527E+01  0.26762099787E+01  0.51100000000E-03 0.  1.
         12    1    3    3    0    0 -0.21793519429E+02 -0.27157864236E+02 -0.34131701839E+01  0.34987952350E+02  0.00000000000E+00 0. -1.
</event>
<event>
 7    1  0.5897985E-013  0.5052885E+02  0.7816164E-02  0.1300439E+00
        -11   -1    0    0    0    0  0.00000000000E+00  0.00000000000E+00  0.45593999997E+02  0.45594000000E+02  0.51100000000E-03 0.  1.
         11   -1    0    0    0    0 -0.00000000000E+00 -0.00000000000E+00 -0.45593999997E+02  0.45594000000E+02  0.51100000000E-03 0. -1.
    9900012    2    1    2    0    0 -0.22564592814E+02  0.18705449664E+02  0.28179989745E+02  0.50528849517E+02  0.29999968593E+02 0.  0.
         12    1    1    2    0    0  0.22564592814E+02 -0.18705449664E+02 -0.28179989745E+02  0.40659150483E+02  0.00000000000E+00 0. -1.
         11    1    3    3    0    0 -0.99126692886E+00 -0.15444891261E+01 -0.30993702787E+01  0.36019651817E+01  0.51100000000E-03 0. -1.
        -11    1    3    3    0    0 -0.12140879925E+02  0.17032361930E+02  0.94944900148E+01  0.22970582473E+02  0.51100000000E-03 0.  1.
        -12    1    3    3    0    0 -0.94324459595E+01  0.32175768604E+01  0.21784870008E+02  0.23956301862E+02  0.00000000000E+00 0.  1.
</event>
<event>
 7    1  0.5897985E-013  0.5052886E+02  0.7816164E-02  0.1300439E+00
        -11   -1    0    0    0    0  0.00000000000E+00  0.00000000000E+00  0.45593999997E+02  0.45594000000E+02  0.51100000000E-03 0.  1.
         11   -1    0    0    0    0 -0.00000000000E+00 -0.00000000000E+00 -0.45593999997E+02  0.45594000000E+02  0.51100000000E-03 0. -1.
    9900012    2    1    2    0    0 -0.25812983062E+02  0.23793109791E+01  0.31324026970E+02  0.50528857351E+02  0.29999992404E+02 0.  0.
         12    1    1    2    0    0  0.25812983062E+02 -0.23793109791E+01 -0.31324026970E+02  0.40659142649E+02  0.00000000000E+00 0. -1.
         11    1    3    3    0    0 -0.81040909095E+01 -0.10139951271E+02  0.16840996553E+02  0.21262974073E+02  0.51100000000E-03 0.  1.
        -11    1    3    3    0    0 -0.76424018872E+01  0.75031224063E+01 -0.27158906275E+00  0.10713398776E+02  0.51100000000E-03 0. -1.
        -12    1    3    3    0    0 -0.10066490266E+02  0.50161398443E+01  0.14754619480E+02  0.18552484502E+02  0.00000000000E+00 0.  1.
</event>
<event>
 7    1  0.5897985E-013  0.5052887E+02  0.7816164E-02  0.1300439E+00
        -11   -1    0    0    0    0  0.00000000000E+00  0.00000000000E+00  0.45593999997E+02  0.45594000000E+02  0.51100000000E-03 0. -1.
         11   -1    0    0    0    0 -0.00000000000E+00 -0.00000000000E+00 -0.45593999997E+02  0.45594000000E+02  0.51100000000E-03 0.  1.
    9900012    2    1    2    0    0  0.65824752372E+01  0.37360146643E+02 -0.14630637479E+02  0.50528867072E+02  0.30000021952E+02 0.  0.
         12    1    1    2    0    0 -0.65824752372E+01 -0.37360146643E+02  0.14630637479E+02  0.40659132928E+02  0.00000000000E+00 0. -1.
         11    1    3    3    0    0 -0.20888675653E+01 -0.25688985429E+01  0.31202002967E+01  0.45495337763E+01  0.51100000000E-03 0. -1.
        -11    1    3    3    0    0 -0.15935223435E+01  0.18149629481E+02 -0.59552934248E+01  0.19168043296E+02  0.51100000000E-03 0.  1.
         12    1    3    3    0    0  0.10264865146E+02  0.21779415704E+02 -0.11795544351E+02  0.26811289999E+02  0.00000000000E+00 0. -1.
</event>
<event>
 7    1  0.5897985E-013  0.5052890E+02  0.7816164E-02  0.1300439E+00
        -11   -1    0    0    0    0  0.00000000000E+00  0.00000000000E+00  0.45593999997E+02  0.45594000000E+02  0.51100000000E-03 0. -1.
         11   -1    0    0    0    0 -0.00000000000E+00 -0.00000000000E+00 -0.45593999997E+02  0.45594000000E+02  0.51100000000E-03 0.  1.
    9900012    2    1    2    0    0  0.33577910613E+02 -0.21323337082E+02 -0.84262674343E+01  0.50528895628E+02  0.30000108751E+02 0.  0.
         12    1    1    2    0    0 -0.33577910613E+02  0.21323337082E+02  0.84262674343E+01  0.40659104372E+02  0.00000000000E+00 0. -1.
         11    1    3    3    0    0  0.14217776098E+02 -0.21176071053E+02 -0.46433858051E+01  0.25925512038E+02  0.51100000000E-03 0. -1.
        -11    1    3    3    0    0  0.90257190770E+01  0.40707587907E+01 -0.79406720404E+01  0.12692082363E+02  0.51100000000E-03 0.  1.
         12    1    3    3    0    0  0.10334415438E+02 -0.42180248194E+01  0.41577904112E+01  0.11911301227E+02  0.00000000000E+00 0. -1.
</event>
<event>
 7    1  0.5897985E-013  0.5052887E+02  0.7816164E-02  0.1300439E+00
        -11   -1    0    0    0    0  0.00000000000E+00  0.00000000000E+00  0.45593999997E+02  0.45594000000E+02  0.51100000000E-03 0.  1.
         11   -1    0    0    0    0 -0.00000000000E+00 -0.00000000000E+00 -0.45593999997E+02  0.45594000000E+02  0.51100000000E-03 0. -1.
    9900012    2    1    2    0    0  0.10200468472E+01 -0.17157134575E+02  0.36847757937E+02  0.50528867848E+02  0.30000024310E+02 0.  0.
         12    1    1    2    0    0 -0.10200468472E+01  0.17157134575E+02 -0.36847757937E+02  0.40659132152E+02  0.00000000000E+00 0. -1.
         11    1    3    3    0    0  0.36988629463E+01  0.31392211406E+01 -0.11840137729E+01  0.49938147083E+01  0.51100000000E-03 0. -1.
        -11    1    3    3    0    0 -0.32875430842E+01 -0.16411793921E+02  0.15999499018E+02  0.23154673142E+02  0.51100000000E-03 0.  1.
         12    1    3    3    0    0  0.60872698503E+00 -0.38845617952E+01  0.22032272692E+02  0.22380379998E+02  0.00000000000E+00 0. -1.
</event>
<event>
 7    1  0.5897985E-013  0.5052886E+02  0.7816164E-02  0.1300439E+00
        -11   -1    0    0    0    0  0.00000000000E+00  0.00000000000E+00  0.45593999997E+02  0.45594000000E+02  0.51100000000E-03 0.  1.
         11   -1    0    0    0    0 -0.00000000000E+00 -0.00000000000E+00 -0.45593999997E+02  0.45594000000E+02  0.51100000000E-03 0. -1.
    9900012    2    1    2    0    0  0.33010873386E+02 -0.17794687861E+02  0.15709773198E+02  0.50528860170E+02  0.30000000973E+02 0.  0.
         12    1    1    2    0    0 -0.33010873386E+02  0.17794687861E+02 -0.15709773198E+02  0.40659139830E+02  0.00000000000E+00 0. -1.
         11    1    3    3    0    0  0.10738881418E+02  0.34443589732E+01 -0.29044154275E+01  0.11645720763E+02  0.51100000000E-03 0. -1.
        -11    1    3    3    0    0  0.18816387337E+02 -0.19542201260E+02  0.90908976968E+01  0.28611160125E+02  0.51100000000E-03 0.  1.
        -12    1    3    3    0    0  0.34556046303E+01 -0.16968455748E+01  0.95232909288E+01  0.10271979282E+02  0.00000000000E+00 0.  1.
</event>
<event>
 7    1  0.5897985E-013  0.5052886E+02  0.7816164E-02  0.1300439E+00
        -11   -1    0    0    0    0  0.00000000000E+00  0.00000000000E+00  0.45593999997E+02  0.45594000000E+02  0.51100000000E-03 0.  1.
         11   -1    0    0    0    0 -0.00000000000E+00 -0.00000000000E+00 -0.45593999997E+02  0.45594000000E+02  0.51100000000E-03 0. -1.
    9900012    2    1    2    0    0 -0.23924513999E+02 -0.10351812125E+02  0.31202935063E+02  0.50528861533E+02  0.30000005114E+02 0.  0.
         12    1    1    2    0    0  0.23924513999E+02  0.10351812125E+02 -0.31202935063E+02  0.40659138467E+02  0.00000000000E+00 0. -1.
         11    1    3    3    0    0 -0.15208572079E+02 -0.14099791546E+01  0.23506020479E+00  0.15275600134E+02  0.51100000000E-03 0. -1.
        -11    1    3    3    0    0 -0.11332318635E+02 -0.84777537992E+01  0.26870678766E+02  0.30369839196E+02  0.51100000000E-03 0.  1.
        -12    1    3    3    0    0  0.26163767154E+01 -0.46407917092E+00  0.40971960922E+01  0.48834222029E+01  0.00000000000E+00 0.  1.
</event>
<event>
 7    1  0.5897985E-013  0.5052887E+02  0.7816164E-02  0.1300439E+00
        -11   -1    0    0    0    0  0.00000000000E+00  0.00000000000E+00  0.45593999997E+02  0.45594000000E+02  0.51100000000E-03 0.  1.
         11   -1    0    0    0    0 -0.00000000000E+00 -0.00000000000E+00 -0.45593999997E+02  0.45594000000E+02  0.51100000000E-03 0. -1.
    9900012    2    1    2    0    0 -0.33926716383E+02  0.65400438027E+01  0.21432941127E+02  0.50528865444E+02  0.30000017003E+02 0.  0.
         12    1    1    2    0    0  0.33926716383E+02 -0.65400438027E+01 -0.21432941127E+02  0.40659134556E+02  0.00000000000E+00 0. -1.
         11    1    3    3    0    0 -0.13873326687E+02  0.64068892891E+01  0.49174445858E+01  0.16052996146E+02  0.51100000000E-03 0. -1.
        -11    1    3    3    0    0 -0.13132213237E+02 -0.10994705189E+02  0.85836219197E+01  0.19157691203E+02  0.51100000000E-03 0.  1.
        -12    1    3    3    0    0 -0.69211764588E+01  0.11127859703E+02  0.79318746217E+01  0.15318178095E+02  0.00000000000E+00 0.  1.
</event>
<event>
 7    1  0.5897985E-013  0.5052888E+02  0.7816164E-02  0.1300439E+00
        -11   -1    0    0    0    0  0.00000000000E+00  0.00000000000E+00  0.45593999997E+02  0.45594000000E+02  0.51100000000E-03 0.  1.
         11   -1    0    0    0    0 -0.00000000000E+00 -0.00000000000E+00 -0.45593999997E+02  0.45594000000E+02  0.51100000000E-03 0. -1.
    9900012    2    1    2    0    0 -0.81078901914E+01 -0.39145931371E+02  0.74176939622E+01  0.50528880359E+02  0.30000062339E+02 0.  0.
         12    1    1    2    0    0  0.81078901914E+01  0.39145931371E+02 -0.74176939622E+01  0.40659119641E+02  0.00000000000E+00 0. -1.
         11    1    3    3    0    0  0.73087847639E+00 -0.19003467166E+01 -0.30352157978E+01  0.36548647295E+01  0.51100000000E-03 0. -1.
        -11    1    3    3    0    0 -0.10419638613E+02 -0.12194712046E+02  0.14289440096E+02  0.21481805539E+02  0.51100000000E-03 0.  1.
        -12    1    3    3    0    0  0.15808699453E+01 -0.25050872609E+02 -0.38365303361E+01  0.25392210090E+02  0.00000000000E+00 0.  1.
</event>
<event>
 7    1  0.5897985E-013  0.5052885E+02  0.7816164E-02  0.1300439E+00
        -11   -1    0    0    0    0  0.00000000000E+00  0.00000000000E+00  0.45593999997E+02  0.45594000000E+02  0.51100000000E-03 0.  1.
         11   -1    0    0    0    0 -0.00000000000E+00 -0.00000000000E+00 -0.45593999997E+02  0.45594000000E+02  0.51100000000E-03 0. -1.
    9900012    2    1    2    0    0  0.36086090480E+02  0.18677288013E+02 -0.14558035106E+01  0.50528851245E+02  0.29999973843E+02 0.  0.
         12    1    1    2    0    0 -0.36086090480E+02 -0.18677288013E+02  0.14558035106E+01  0.40659148755E+02  0.00000000000E+00 0. -1.
         11    1    3    3    0    0  0.34060587258E+02  0.15524777586E+02 -0.75617718973E+01  0.38187991803E+02  0.51100000000E-03 0. -1.
        -11    1    3    3    0    0 -0.12118846701E+01  0.61398085792E+01  0.42254718354E+01  0.75511937027E+01  0.51100000000E-03 0.  1.
        -12    1    3    3    0    0  0.32373878923E+01 -0.29872981521E+01  0.18804965513E+01  0.47896657393E+01  0.00000000000E+00 0.  1.
</event>
<event>
 7    1  0.5897985E-013  0.5052883E+02  0.7816164E-02  0.1300439E+00
        -11   -1    0    0    0    0  0.00000000000E+00  0.00000000000E+00  0.45593999997E+02  0.45594000000E+02  0.51100000000E-03 0.  1.
         11   -1    0    0    0    0 -0.00000000000E+00 -0.00000000000E+00 -0.45593999997E+02  0.45594000000E+02  0.51100000000E-03 0. -1.
    9900012    2    1    2    0    0  0.12504294584E+02  0.18823311219E+02  0.33800798607E+02  0.50528826192E+02  0.29999897693E+02 0.  0.
         12    1    1    2    0    0 -0.12504294584E+02 -0.18823311219E+02 -0.33800798607E+02  0.40659173808E+02  0.00000000000E+00 0. -1.
         11    1    3    3    0    0  0.10286884361E+02  0.10339433167E+02  0.29264252251E+01  0.14875746466E+02  0.51100000000E-03 0. -1.
        -11    1    3    3    0    0 -0.64223689358E+01  0.59299179131E+01  0.16887447112E+02  0.19015694029E+02  0.51100000000E-03 0.  1.
        -12    1    3    3    0    0  0.86397791595E+01  0.25539601382E+01  0.13986926270E+02  0.16637385696E+02  0.00000000000E+00 0.  1.
</event>
<event>
 7    1  0.5897985E-013  0.5052888E+02  0.7816164E-02  0.1300439E+00
        -11   -1    0    0    0    0  0.00000000000E+00  0.00000000000E+00  0.45593999997E+02  0.45594000000E+02  0.51100000000E-03 0.  1.
         11   -1    0    0    0    0 -0.00000000000E+00 -0.00000000000E+00 -0.45593999997E+02  0.45594000000E+02  0.51100000000E-03 0. -1.
    9900012    2    1    2    0    0  0.12382417829E+02  0.28768779433E+01  0.38620763800E+02  0.50528879320E+02  0.30000059180E+02 0.  0.
         12    1    1    2    0    0 -0.12382417829E+02 -0.28768779433E+01 -0.38620763800E+02  0.40659120680E+02  0.00000000000E+00 0. -1.
         11    1    3    3    0    0  0.67536807833E+01  0.30791972918E+01 -0.27747524920E+01  0.79241978608E+01  0.51100000000E-03 0. -1.
        -11    1    3    3    0    0  0.42142908090E+00  0.24328729103E+01  0.26373248440E+02  0.26488576908E+02  0.51100000000E-03 0.  1.
        -12    1    3    3    0    0  0.52073079649E+01 -0.26351922588E+01  0.15022267852E+02  0.16116104551E+02  0.00000000000E+00 0.  1.
</event>
<event>
 7    1  0.5897985E-013  0.5052886E+02  0.7816164E-02  0.1300439E+00
        -11   -1    0    0    0    0  0.00000000000E+00  0.00000000000E+00  0.45593999997E+02  0.45594000000E+02  0.51100000000E-03 0.  1.
         11   -1    0    0    0    0 -0.00000000000E+00 -0.00000000000E+00 -0.45593999997E+02  0.45594000000E+02  0.51100000000E-03 0. -1.
    9900012    2    1    2    0    0 -0.22623267442E+02 -0.75535852938E+01  0.32928661032E+02  0.50528860831E+02  0.30000002982E+02 0.  0.
         12    1    1    2    0    0  0.22623267442E+02  0.75535852938E+01 -0.32928661032E+02  0.40659139169E+02  0.00000000000E+00 0. -1.
         11    1    3    3    0    0 -0.43747449784E+01  0.40047640658E+01  0.55463067487E-02  0.59309830442E+01  0.51100000000E-03 0. -1.
        -11    1    3    3    0    0 -0.23568067423E+01 -0.13648574102E+02  0.17868044952E+02  0.22607634634E+02  0.51100000000E-03 0.  1.
        -12    1    3    3    0    0 -0.15891715722E+02  0.20902247428E+01  0.15055069773E+02  0.21990243153E+02  0.00000000000E+00 0.  1.
</event>
<event>
 7    1  0.5897985E-013  0.5052885E+02  0.7816164E-02  0.1300439E+00
        -11   -1    0    0    0    0  0.00000000000E+00  0.00000000000E+00  0.45593999997E+02  0.45594000000E+02  0.51100000000E-03 0.  1.
         11   -1    0    0    0    0 -0.00000000000E+00 -0.00000000000E+00 -0.45593999997E+02  0.45594000000E+02  0.51100000000E-03 0. -1.
    9900012    2    1    2    0    0  0.25101493259E+01 -0.39765714091E+02  0.80965391132E+01  0.50528845896E+02  0.29999957586E+02 0.  0.
         12    1    1    2    0    0 -0.25101493259E+01  0.39765714091E+02 -0.80965391132E+01  0.40659154104E+02  0.00000000000E+00 0. -1.
         11    1    3    3    0    0  0.63941246146E+01 -0.25898237698E+02 -0.71965200504E+01  0.27629575577E+02  0.51100000000E-03 0. -1.
        -11    1    3    3    0    0 -0.61985365821E+01 -0.12942455340E+02  0.14163597587E+02  0.20162750379E+02  0.51100000000E-03 0.  1.
        -12    1    3    3    0    0  0.23145612934E+01 -0.92502105315E+00  0.11294615766E+01  0.27365199402E+01  0.00000000000E+00 0.  1.
</event>
<event>
 7    1  0.5897985E-013  0.5052886E+02  0.7816164E-02  0.1300439E+00
        -11   -1    0    0    0    0  0.00000000000E+00  0.00000000000E+00  0.45593999997E+02  0.45594000000E+02  0.51100000000E-03 0.  1.
         11   -1    0    0    0    0 -0.00000000000E+00 -0.00000000000E+00 -0.45593999997E+02  0.45594000000E+02  0.51100000000E-03 0. -1.
    9900012    2    1    2    0    0  0.25745756886E+02 -0.18182493601E+02  0.25684994971E+02  0.50528855422E+02  0.29999986540E+02 0.  0.
         12    1    1    2    0    0 -0.25745756886E+02  0.18182493601E+02 -0.25684994971E+02  0.40659144578E+02  0.00000000000E+00 0. -1.
         11    1    3    3    0    0  0.11698885986E+02 -0.42750421986E+01 -0.11983588931E+01  0.12513032543E+02  0.51100000000E-03 0. -1.
        -11    1    3    3    0    0  0.21373846738E+01  0.43462256612E+01  0.70092958692E+01  0.85198779090E+01  0.51100000000E-03 0.  1.
        -12    1    3    3    0    0  0.11909486226E+02 -0.18253677063E+02  0.19874057995E+02  0.29495944970E+02  0.00000000000E+00 0.  1.
</event>
<event>
 7    1  0.5897985E-013  0.5052883E+02  0.7816164E-02  0.1300439E+00
        -11   -1    0    0    0    0  0.00000000000E+00  0.00000000000E+00  0.45593999997E+02  0.45594000000E+02  0.51100000000E-03 0.  1.
         11   -1    0    0    0    0 -0.00000000000E+00 -0.00000000000E+00 -0.45593999997E+02  0.45594000000E+02  0.51100000000E-03 0. -1.
    9900012    2    1    2    0    0  0.33755789399E+02  0.17263520613E+02 -0.14686236662E+02  0.50528831179E+02  0.29999912852E+02 0.  0.
         12    1    1    2    0    0 -0.33755789399E+02 -0.17263520613E+02  0.14686236662E+02  0.40659168821E+02  0.00000000000E+00 0. -1.
         11    1    3    3    0    0  0.34057173177E+02  0.90773197144E+01 -0.74721048793E+01  0.36029448089E+02  0.51100000000E-03 0. -1.
        -11    1    3    3    0    0 -0.23122429186E+01  0.12146731616E+01  0.16154054235E+01  0.30710638461E+01  0.51100000000E-03 0.  1.
         12    1    3    3    0    0  0.20108591409E+01  0.69715277374E+01 -0.88295372057E+01  0.11428319244E+02  0.00000000000E+00 0. -1.
</event>
<event>
 7    1  0.5897985E-013  0.5052886E+02  0.7816164E-02  0.1300439E+00
        -11   -1    0    0    0    0  0.00000000000E+00  0.00000000000E+00  0.45593999997E+02  0.45594000000E+02  0.51100000000E-03 0.  1.
         11   -1    0    0    0    0 -0.00000000000E+00 -0.00000000000E+00 -0.45593999997E+02  0.45594000000E+02  0.51100000000E-03 0. -1.
    9900012    2    1    2    0    0  0.63273901176E+01  0.62968822122E+01  0.39667104911E+02  0.50528858306E+02  0.29999995306E+02 0.  0.
         12    1    1    2    0    0 -0.63273901176E+01 -0.62968822122E+01 -0.39667104911E+02  0.40659141694E+02  0.00000000000E+00 0. -1.
         11    1    3    3    0    0  0.15633769817E+02 -0.36870099829E+01  0.21509130552E+02  0.26844952946E+02  0.51100000000E-03 0. -1.
        -11    1    3    3    0    0 -0.42024454192E+01  0.77646788663E+01  0.14650948568E+02  0.17105586210E+02  0.51100000000E-03 0.  1.
         12    1    3    3    0    0 -0.51039342801E+01  0.22192133288E+01  0.35070257915E+01  0.65783191498E+01  0.00000000000E+00 0. -1.
</event>
<event>
 7    1  0.5897985E-013  0.5052886E+02  0.7816164E-02  0.1300439E+00
        -11   -1    0    0    0    0  0.00000000000E+00  0.00000000000E+00  0.45593999997E+02  0.45594000000E+02  0.51100000000E-03 0.  1.
         11   -1    0    0    0    0 -0.00000000000E+00 -0.00000000000E+00 -0.45593999997E+02  0.45594000000E+02  0.51100000000E-03 0. -1.
    9900012    2    1    2    0    0  0.36109598842E+02 -0.33716598454E+01  0.18381900183E+02  0.50528862368E+02  0.30000007655E+02 0.  0.
         12    1    1    2    0    0 -0.36109598842E+02  0.33716598454E+01 -0.18381900183E+02  0.40659137632E+02  0.00000000000E+00 0. -1.
         11    1    3    3    0    0  0.43749566813E+00 -0.91318103404E+01  0.53800542982E+01  0.10607843658E+02  0.51100000000E-03 0. -1.
        -11    1    3    3    0    0  0.15684839690E+02  0.18268691705E+00  0.10820102323E+02  0.19055765142E+02  0.51100000000E-03 0.  1.
         12    1    3    3    0    0  0.19987263484E+02  0.55774635780E+01  0.21817435617E+01  0.20865253569E+02  0.00000000000E+00 0. -1.
</event>
<event>
 7    1  0.5897985E-013  0.5052887E+02  0.7816164E-02  0.1300439E+00
        -11   -1    0    0    0    0  0.00000000000E+00  0.00000000000E+00  0.45593999997E+02  0.45594000000E+02  0.51100000000E-03 0.  1.
         11   -1    0    0    0    0 -0.00000000000E+00 -0.00000000000E+00 -0.45593999997E+02  0.45594000000E+02  0.51100000000E-03 0. -1.
    9900012    2    1    2    0    0  0.13332290186E+02 -0.35556716617E+02  0.14530473757E+02  0.50528871556E+02  0.30000035582E+02 0.  0.
         12    1    1    2    0    0 -0.13332290186E+02  0.35556716617E+02 -0.14530473757E+02  0.40659128444E+02  0.00000000000E+00 0. -1.
         11    1    3    3    0    0  0.68268754352E+01 -0.79527452066E+00  0.96067762956E+01  0.11812232677E+02  0.51100000000E-03 0. -1.
        -11    1    3    3    0    0  0.37815837160E+01 -0.34085691411E+02  0.15521480732E+01  0.34329927152E+02  0.51100000000E-03 0.  1.
        -12    1    3    3    0    0  0.27238310351E+01 -0.67575068541E+00  0.33715493881E+01  0.43867117267E+01  0.00000000000E+00 0.  1.
</event>
<event>
 7    1  0.5897985E-013  0.5052886E+02  0.7816164E-02  0.1300439E+00
        -11   -1    0    0    0    0  0.00000000000E+00  0.00000000000E+00  0.45593999997E+02  0.45594000000E+02  0.51100000000E-03 0.  1.
         11   -1    0    0    0    0 -0.00000000000E+00 -0.00000000000E+00 -0.45593999997E+02  0.45594000000E+02  0.51100000000E-03 0. -1.
    9900012    2    1    2    0    0  0.37851821282E+02 -0.13215754550E+02  0.67638254409E+01  0.50528857396E+02  0.29999992541E+02 0.  0.
         12    1    1    2    0    0 -0.37851821282E+02  0.13215754550E+02 -0.67638254409E+01  0.40659142604E+02  0.00000000000E+00 0. -1.
         11    1    3    3    0    0  0.15004888793E+02 -0.99546176734E+01  0.13069966214E+02  0.22250058828E+02  0.51100000000E-03 0.  1.
        -11    1    3    3    0    0  0.90334303371E+01  0.58042572373E+01 -0.44214252838E+00  0.10746522973E+02  0.51100000000E-03 0. -1.
         12    1    3    3    0    0  0.13813502152E+02 -0.90653941137E+01 -0.58639982451E+01  0.17532275595E+02  0.00000000000E+00 0. -1.
</event>
<event>
 7    1  0.5897985E-013  0.5052896E+02  0.7816164E-02  0.1300438E+00
        -11   -1    0    0    0    0  0.00000000000E+00  0.00000000000E+00  0.45593999997E+02  0.45594000000E+02  0.51100000000E-03 0.  1.
         11   -1    0    0    0    0 -0.00000000000E+00 -0.00000000000E+00 -0.45593999997E+02  0.45594000000E+02  0.51100000000E-03 0. -1.
    9900012    2    1    2    0    0  0.15474512126E+02 -0.34718125573E+02  0.14434288887E+02  0.50528960851E+02  0.30000307000E+02 0.  0.
         12    1    1    2    0    0 -0.15474512126E+02  0.34718125573E+02 -0.14434288887E+02  0.40659039149E+02  0.00000000000E+00 0. -1.
         11    1    3    3    0    0  0.66239410775E+01  0.16756455327E+01  0.88523834443E+01  0.11182534429E+02  0.51100000000E-03 0. -1.
        -11    1    3    3    0    0  0.29664781283E+01 -0.29574258328E+02  0.60299842979E+01  0.30328162804E+02  0.51100000000E-03 0.  1.
         12    1    3    3    0    0  0.58840929205E+01 -0.68195127779E+01 -0.44807885545E+00  0.90182636181E+01  0.00000000000E+00 0. -1.
</event>
<event>
 7    1  0.5897985E-013  0.5052885E+02  0.7816164E-02  0.1300439E+00
        -11   -1    0    0    0    0  0.00000000000E+00  0.00000000000E+00  0.45593999997E+02  0.45594000000E+02  0.51100000000E-03 0.  1.
         11   -1    0    0    0    0 -0.00000000000E+00 -0.00000000000E+00 -0.45593999997E+02  0.45594000000E+02  0.51100000000E-03 0. -1.
    9900012    2    1    2    0    0  0.54042697798E+01 -0.12053525548E+02  0.38453512905E+02  0.50528852631E+02  0.29999978058E+02 0.  0.
         12    1    1    2    0    0 -0.54042697798E+01  0.12053525548E+02 -0.38453512905E+02  0.40659147369E+02  0.00000000000E+00 0. -1.
         11    1    3    3    0    0  0.46218394632E+01  0.27411298033E+01  0.23811586811E+01  0.58775087876E+01  0.51100000000E-03 0. -1.
        -11    1    3    3    0    0 -0.89578226394E+01 -0.96614729654E+01  0.10629679933E+02  0.16928577674E+02  0.51100000000E-03 0.  1.
        -12    1    3    3    0    0  0.97402529560E+01 -0.51331823856E+01  0.25442674291E+02  0.27722766170E+02  0.00000000000E+00 0.  1.
</event>
<event>
 7    1  0.5897985E-013  0.5052885E+02  0.7816164E-02  0.1300439E+00
        -11   -1    0    0    0    0  0.00000000000E+00  0.00000000000E+00  0.45593999997E+02  0.45594000000E+02  0.51100000000E-03 0. -1.
         11   -1    0    0    0    0 -0.00000000000E+00 -0.00000000000E+00 -0.45593999997E+02  0.45594000000E+02  0.51100000000E-03 0.  1.
    9900012    2    1    2    0    0 -0.14505911737E+02 -0.64789533937E+01 -0.37426833976E+02  0.50528853257E+02  0.29999979959E+02 0.  0.
         12    1    1    2    0    0  0.14505911737E+02  0.64789533937E+01  0.37426833976E+02  0.40659146743E+02  0.00000000000E+00 0. -1.
         11    1    3    3    0    0 -0.81980061245E+01 -0.70944431392E+01  0.11449958902E+01  0.10901809195E+02  0.51100000000E-03 0. -1.
        -11    1    3    3    0    0 -0.71265629409E+01 -0.95861461696E+00 -0.28070570569E+02  0.28976952456E+02  0.51100000000E-03 0.  1.
        -12    1    3    3    0    0  0.81865732823E+00  0.15741043624E+01 -0.10501259298E+02  0.10650091606E+02  0.00000000000E+00 0.  1.
</event>
<event>
 7    1  0.5897985E-013  0.5052886E+02  0.7816164E-02  0.1300439E+00
        -11   -1    0    0    0    0  0.00000000000E+00  0.00000000000E+00  0.45593999997E+02  0.45594000000E+02  0.51100000000E-03 0.  1.
         11   -1    0    0    0    0 -0.00000000000E+00 -0.00000000000E+00 -0.45593999997E+02  0.45594000000E+02  0.51100000000E-03 0. -1.
    9900012    2    1    2    0    0  0.38835707032E+02 -0.42387033035E+01  0.11268845508E+02  0.50528860493E+02  0.30000001953E+02 0.  0.
         12    1    1    2    0    0 -0.38835707032E+02  0.42387033035E+01 -0.11268845508E+02  0.40659139507E+02  0.00000000000E+00 0. -1.
         11    1    3    3    0    0  0.24052082330E+01  0.54235836380E+01  0.92821735986E+01  0.11016307598E+02  0.51100000000E-03 0. -1.
        -11    1    3    3    0    0  0.21208434691E+02 -0.37066573893E+01  0.66168402802E+01  0.22523756050E+02  0.51100000000E-03 0.  1.
         12    1    3    3    0    0  0.15222064108E+02 -0.59556295522E+01 -0.46301683707E+01  0.16988796844E+02  0.00000000000E+00 0. -1.
</event>
<event>
 7    1  0.5897985E-013  0.5052884E+02  0.7816164E-02  0.1300439E+00
        -11   -1    0    0    0    0  0.00000000000E+00  0.00000000000E+00  0.45593999997E+02  0.45594000000E+02  0.51100000000E-03 0.  1.
         11   -1    0    0    0    0 -0.00000000000E+00 -0.00000000000E+00 -0.45593999997E+02  0.45594000000E+02  0.51100000000E-03 0. -1.
    9900012    2    1    2    0    0  0.29285751659E+02  0.24908593740E+02  0.13231558895E+02  0.50528838140E+02  0.29999934010E+02 0.  0.
         12    1    1    2    0    0 -0.29285751659E+02 -0.24908593740E+02 -0.13231558895E+02  0.40659161860E+02  0.00000000000E+00 0. -1.
         11    1    3    3    0    0  0.72237167954E+00  0.34276986372E+01  0.19067482710E+01  0.39883114247E+01  0.51100000000E-03 0. -1.
        -11    1    3    3    0    0  0.39473083072E+01 -0.49257917858E+01  0.81383981882E+01  0.10299426825E+02  0.51100000000E-03 0.  1.
        -12    1    3    3    0    0  0.24616071673E+02  0.26406686889E+02  0.31864124359E+01  0.36241099890E+02  0.00000000000E+00 0.  1.
</event>
<event>
 7    1  0.5897985E-013  0.5052886E+02  0.7816164E-02  0.1300439E+00
        -11   -1    0    0    0    0  0.00000000000E+00  0.00000000000E+00  0.45593999997E+02  0.45594000000E+02  0.51100000000E-03 0.  1.
         11   -1    0    0    0    0 -0.00000000000E+00 -0.00000000000E+00 -0.45593999997E+02  0.45594000000E+02  0.51100000000E-03 0. -1.
    9900012    2    1    2    0    0 -0.33105090204E+02 -0.23111678674E+02  0.48030042940E+01  0.50528861559E+02  0.30000005194E+02 0.  0.
         12    1    1    2    0    0  0.33105090204E+02  0.23111678674E+02 -0.48030042940E+01  0.40659138441E+02  0.00000000000E+00 0. -1.
         11    1    3    3    0    0  0.52156767044E+01 -0.33163081118E+01  0.13154567281E+01  0.63191462748E+01  0.51100000000E-03 0. -1.
        -11    1    3    3    0    0 -0.18762622585E+02 -0.14734149355E+02  0.24247665517E+01  0.23979379820E+02  0.51100000000E-03 0.  1.
         12    1    3    3    0    0 -0.19558144323E+02 -0.50612212079E+01  0.10627810142E+01  0.20230335464E+02  0.00000000000E+00 0. -1.
</event>
<event>
 7    1  0.5897985E-013  0.5052886E+02  0.7816164E-02  0.1300439E+00
        -11   -1    0    0    0    0  0.00000000000E+00  0.00000000000E+00  0.45593999997E+02  0.45594000000E+02  0.51100000000E-03 0.  1.
         11   -1    0    0    0    0 -0.00000000000E+00 -0.00000000000E+00 -0.45593999997E+02  0.45594000000E+02  0.51100000000E-03 0. -1.
    9900012    2    1    2    0    0  0.20329178474E+02 -0.34660808268E+02  0.62063116980E+01  0.50528862870E+02  0.30000009181E+02 0.  0.
         12    1    1    2    0    0 -0.20329178474E+02  0.34660808268E+02 -0.62063116980E+01  0.40659137130E+02  0.00000000000E+00 0. -1.
         11    1    3    3    0    0  0.12899547021E+02 -0.38850983210E+02  0.32187131686E+01  0.41062846035E+02  0.51100000000E-03 0.  1.
        -11    1    3    3    0    0  0.60422768048E+01  0.22110991223E+01  0.28728658676E+01  0.70463768611E+01  0.51100000000E-03 0. -1.
        -12    1    3    3    0    0  0.13873546485E+01  0.19790758202E+01  0.11473266177E+00  0.24196399746E+01  0.00000000000E+00 0.  1.
</event>
<event>
 7    1  0.5897985E-013  0.5052887E+02  0.7816164E-02  0.1300439E+00
        -11   -1    0    0    0    0  0.00000000000E+00  0.00000000000E+00  0.45593999997E+02  0.45594000000E+02  0.51100000000E-03 0. -1.
         11   -1    0    0    0    0 -0.00000000000E+00 -0.00000000000E+00 -0.45593999997E+02  0.45594000000E+02  0.51100000000E-03 0.  1.
    9900012    2    1    2    0    0 -0.36572532122E+02 -0.51293474332E-01 -0.17765486639E+02  0.50528865081E+02  0.30000015900E+02 0.  0.
         12    1    1    2    0    0  0.36572532122E+02  0.51293474332E-01  0.17765486639E+02  0.40659134919E+02  0.00000000000E+00 0. -1.
         11    1    3    3    0    0  0.85433210011E+00 -0.49986068292E+01 -0.81238145960E+01  0.95766548137E+01  0.51100000000E-03 0. -1.
        -11    1    3    3    0    0 -0.37442879467E+02  0.37406837571E+01 -0.73185402486E+01  0.38334357558E+02  0.51100000000E-03 0.  1.
        -12    1    3    3    0    0  0.16015244269E-01  0.12066295978E+01 -0.23231317945E+01  0.26178527095E+01  0.00000000000E+00 0.  1.
</event>
<event>
 7    1  0.5897985E-013  0.5052886E+02  0.7816164E-02  0.1300439E+00
        -11   -1    0    0    0    0  0.00000000000E+00  0.00000000000E+00  0.45593999997E+02  0.45594000000E+02  0.51100000000E-03 0.  1.
         11   -1    0    0    0    0 -0.00000000000E+00 -0.00000000000E+00 -0.45593999997E+02  0.45594000000E+02  0.51100000000E-03 0. -1.
    9900012    2    1    2    0    0 -0.13532439405E+02 -0.24199635950E-01  0.38341075833E+02  0.50528860831E+02  0.30000002983E+02 0.  0.
         12    1    1    2    0    0  0.13532439405E+02  0.24199635950E-01 -0.38341075833E+02  0.40659139169E+02  0.00000000000E+00 0. -1.
         11    1    3    3    0    0  0.29458359841E+01 -0.70669674863E+01  0.62254857758E+00  0.76816369408E+01  0.51100000000E-03 0. -1.
        -11    1    3    3    0    0 -0.16435567606E+02  0.35281883583E+01  0.30942790838E+02  0.35214092360E+02  0.51100000000E-03 0.  1.
         12    1    3    3    0    0 -0.42707783006E-01  0.35145794921E+01  0.67757364173E+01  0.76331315302E+01  0.00000000000E+00 0. -1.
</event>
<event>
 7    1  0.5897985E-013  0.5052886E+02  0.7816164E-02  0.1300439E+00
        -11   -1    0    0    0    0  0.00000000000E+00  0.00000000000E+00  0.45593999997E+02  0.45594000000E+02  0.51100000000E-03 0.  1.
         11   -1    0    0    0    0 -0.00000000000E+00 -0.00000000000E+00 -0.45593999997E+02  0.45594000000E+02  0.51100000000E-03 0. -1.
    9900012    2    1    2    0    0 -0.35066880826E+02  0.18373530759E+02  0.92678527159E+01  0.50528857641E+02  0.29999993284E+02 0.  0.
         12    1    1    2    0    0  0.35066880826E+02 -0.18373530759E+02 -0.92678527159E+01  0.40659142359E+02  0.00000000000E+00 0. -1.
         11    1    3    3    0    0 -0.14439662157E+02  0.29803775016E+01 -0.60615063630E+01  0.15941403731E+02  0.51100000000E-03 0. -1.
        -11    1    3    3    0    0 -0.21285655692E+02  0.13001037981E+02  0.18138070069E+02  0.30839839703E+02  0.51100000000E-03 0.  1.
        -12    1    3    3    0    0  0.65843702355E+00  0.23921152767E+01 -0.28087109902E+01  0.37476142061E+01  0.00000000000E+00 0.  1.
</event>
<event>
 7    1  0.5897985E-013  0.5052890E+02  0.7816164E-02  0.1300439E+00
        -11   -1    0    0    0    0  0.00000000000E+00  0.00000000000E+00  0.45593999997E+02  0.45594000000E+02  0.51100000000E-03 0.  1.
         11   -1    0    0    0    0 -0.00000000000E+00 -0.00000000000E+00 -0.45593999997E+02  0.45594000000E+02  0.51100000000E-03 0. -1.
    9900012    2    1    2    0    0 -0.11034348762E+02 -0.17039283065E+02  0.35228796353E+02  0.50528903693E+02  0.30000133266E+02 0.  0.
         12    1    1    2    0    0  0.11034348762E+02  0.17039283065E+02 -0.35228796353E+02  0.40659096307E+02  0.00000000000E+00 0. -1.
         11    1    3    3    0    0 -0.38824709070E+01 -0.51859298598E+01  0.10554504319E+01  0.65636441653E+01  0.51100000000E-03 0. -1.
        -11    1    3    3    0    0  0.25398073795E+01  0.14680258344E+01  0.24877052293E+02  0.25049420201E+02  0.51100000000E-03 0.  1.
        -12    1    3    3    0    0 -0.96916852347E+01 -0.13321379040E+02  0.92962936284E+01  0.18915839327E+02  0.00000000000E+00 0.  1.
</event>
<event>
 7    1  0.5897985E-013  0.5052888E+02  0.7816164E-02  0.1300439E+00
        -11   -1    0    0    0    0  0.00000000000E+00  0.00000000000E+00  0.45593999997E+02  0.45594000000E+02  0.51100000000E-03 0.  1.
         11   -1    0    0    0    0 -0.00000000000E+00 -0.00000000000E+00 -0.45593999997E+02  0.45594000000E+02  0.51100000000E-03 0. -1.
    9900012    2    1    2    0    0  0.27527636843E+02  0.87826645042E+01  0.28605209368E+02  0.50528880618E+02  0.30000063126E+02 0.  0.
         12    1    1    2    0    0 -0.27527636843E+02 -0.87826645042E+01 -0.28605209368E+02  0.40659119382E+02  0.00000000000E+00 0. -1.
         11    1    3    3    0    0  0.67274737034E+01 -0.58242429960E+01 -0.25286414540E+01  0.92506614234E+01  0.51100000000E-03 0. -1.
        -11    1    3    3    0    0  0.18688136095E+02  0.94271962491E+01  0.20692797729E+02  0.29433150323E+02  0.51100000000E-03 0.  1.
        -12    1    3    3    0    0  0.21120270443E+01  0.51797112512E+01  0.10441053093E+02  0.11845068872E+02  0.00000000000E+00 0.  1.
</event>
<event>
 7    1  0.5897985E-013  0.5052885E+02  0.7816164E-02  0.1300439E+00
        -11   -1    0    0    0    0  0.00000000000E+00  0.00000000000E+00  0.45593999997E+02  0.45594000000E+02  0.51100000000E-03 0.  1.
         11   -1    0    0    0    0 -0.00000000000E+00 -0.00000000000E+00 -0.45593999997E+02  0.45594000000E+02  0.51100000000E-03 0. -1.
    9900012    2    1    2    0    0 -0.53083328614E+01  0.69381107807E+01  0.39709574640E+02  0.50528854694E+02  0.29999984327E+02 0.  0.
         12    1    1    2    0    0  0.53083328614E+01 -0.69381107807E+01 -0.39709574640E+02  0.40659145306E+02  0.00000000000E+00 0. -1.
         11    1    3    3    0    0 -0.43995986210E+01 -0.45488691539E+01  0.19775576544E+01  0.66301895254E+01  0.51100000000E-03 0. -1.
        -11    1    3    3    0    0 -0.56081200925E+01  0.37580797578E+01  0.33013143881E+02  0.33696317953E+02  0.51100000000E-03 0.  1.
        -12    1    3    3    0    0  0.46993858521E+01  0.77289001768E+01  0.47188731047E+01  0.10202347216E+02  0.00000000000E+00 0.  1.
</event>
<event>
 7    1  0.5897985E-013  0.5052894E+02  0.7816164E-02  0.1300439E+00
        -11   -1    0    0    0    0  0.00000000000E+00  0.00000000000E+00  0.45593999997E+02  0.45594000000E+02  0.51100000000E-03 0. -1.
         11   -1    0    0    0    0 -0.00000000000E+00 -0.00000000000E+00 -0.45593999997E+02  0.45594000000E+02  0.51100000000E-03 0.  1.
    9900012    2    1    2    0    0 -0.25232311179E+01  0.22563969684E+02 -0.33729216670E+02  0.50528936062E+02  0.30000231653E+02 0.  0.
         12    1    1    2    0    0  0.25232311179E+01 -0.22563969684E+02  0.33729216670E+02  0.40659063938E+02  0.00000000000E+00 0. -1.
         11    1    3    3    0    0 -0.10270504122E+02  0.16977914792E+02 -0.77841418640E+01  0.21314917556E+02  0.51100000000E-03 0. -1.
        -11    1    3    3    0    0  0.19902530560E+01 -0.20695450859E+01 -0.22235838304E+01  0.36315904782E+01  0.51100000000E-03 0.  1.
         12    1    3    3    0    0  0.57570199481E+01  0.76555999782E+01 -0.23721490975E+02  0.25582428028E+02  0.00000000000E+00 0. -1.
</event>
<event>
 7    1  0.5897985E-013  0.5052886E+02  0.7816164E-02  0.1300439E+00
        -11   -1    0    0    0    0  0.00000000000E+00  0.00000000000E+00  0.45593999997E+02  0.45594000000E+02  0.51100000000E-03 0.  1.
         11   -1    0    0    0    0 -0.00000000000E+00 -0.00000000000E+00 -0.45593999997E+02  0.45594000000E+02  0.51100000000E-03 0. -1.
    9900012    2    1    2    0    0  0.43706547207E+01 -0.18026027661E+02  0.36181832409E+02  0.50528864589E+02  0.30000014404E+02 0.  0.
         12    1    1    2    0    0 -0.43706547207E+01  0.18026027661E+02 -0.36181832409E+02  0.40659135411E+02  0.00000000000E+00 0. -1.
         11    1    3    3    0    0  0.72413300878E+01 -0.59259809053E+00  0.21679881640E+02  0.22864936084E+02  0.51100000000E-03 0. -1.
        -11    1    3    3    0    0  0.79289635592E+00 -0.18272385630E+02  0.15272113286E+02  0.23827425495E+02  0.51100000000E-03 0.  1.
         12    1    3    3    0    0 -0.36635717230E+01  0.83895605919E+00 -0.77016251767E+00  0.38365030096E+01  0.00000000000E+00 0. -1.
</event>
<event>
 7    1  0.5897985E-013  0.5052886E+02  0.7816164E-02  0.1300439E+00
        -11   -1    0    0    0    0  0.00000000000E+00  0.00000000000E+00  0.45593999997E+02  0.45594000000E+02  0.51100000000E-03 0.  1.
         11   -1    0    0    0    0 -0.00000000000E+00 -0.00000000000E+00 -0.45593999997E+02  0.45594000000E+02  0.51100000000E-03 0. -1.
    9900012    2    1    2    0    0 -0.24021728619E+02 -0.30167812789E+02  0.12885090647E+02  0.50528856683E+02  0.29999990372E+02 0.  0.
         12    1    1    2    0    0  0.24021728619E+02  0.30167812789E+02 -0.12885090647E+02  0.40659143317E+02  0.00000000000E+00 0. -1.
         11    1    3    3    0    0  0.30707833800E+01 -0.76539909724E+00  0.58738145705E+01  0.66721244154E+01  0.51100000000E-03 0. -1.
        -11    1    3    3    0    0 -0.23917344639E+02 -0.19883335997E+02  0.11095600593E+02  0.33022700945E+02  0.51100000000E-03 0.  1.
         12    1    3    3    0    0 -0.31751673600E+01 -0.95190776952E+01 -0.40843245163E+01  0.10834031322E+02  0.00000000000E+00 0. -1.
</event>
<event>
 7    1  0.5897985E-013  0.5052884E+02  0.7816164E-02  0.1300439E+00
        -11   -1    0    0    0    0  0.00000000000E+00  0.00000000000E+00  0.45593999997E+02  0.45594000000E+02  0.51100000000E-03 0.  1.
         11   -1    0    0    0    0 -0.00000000000E+00 -0.00000000000E+00 -0.45593999997E+02  0.45594000000E+02  0.51100000000E-03 0. -1.
    9900012    2    1    2    0    0  0.26751585955E+01 -0.16972641646E+02  0.36850235574E+02  0.50528844821E+02  0.29999954319E+02 0.  0.
         12    1    1    2    0    0 -0.26751585955E+01  0.16972641646E+02 -0.36850235574E+02  0.40659155179E+02  0.00000000000E+00 0. -1.
         11    1    3    3    0    0  0.80839442754E+00  0.39903248835E+01 -0.26326302801E+01  0.48483952685E+01  0.51100000000E-03 0. -1.
        -11    1    3    3    0    0  0.52537249847E+01 -0.16489631016E+02  0.31147921388E+02  0.35632885995E+02  0.51100000000E-03 0.  1.
        -12    1    3    3    0    0 -0.33869608167E+01 -0.44733355136E+01  0.83349444660E+01  0.10047563557E+02  0.00000000000E+00 0.  1.
</event>
<event>
 7    1  0.5897985E-013  0.5052886E+02  0.7816164E-02  0.1300439E+00
        -11   -1    0    0    0    0  0.00000000000E+00  0.00000000000E+00  0.45593999997E+02  0.45594000000E+02  0.51100000000E-03 0.  1.
         11   -1    0    0    0    0 -0.00000000000E+00 -0.00000000000E+00 -0.45593999997E+02  0.45594000000E+02  0.51100000000E-03 0. -1.
    9900012    2    1    2    0    0 -0.26382974915E+02 -0.21484219438E+02  0.22260558514E+02  0.50528861844E+02  0.30000006060E+02 0.  0.
         12    1    1    2    0    0  0.26382974915E+02  0.21484219438E+02 -0.22260558514E+02  0.40659138156E+02  0.00000000000E+00 0. -1.
         11    1    3    3    0    0  0.26701851620E+01  0.20588522397E+01  0.79771321431E+01  0.86604502674E+01  0.51100000000E-03 0. -1.
        -11    1    3    3    0    0 -0.13823238076E+02 -0.36480653834E+01  0.55101209366E+01  0.15321609738E+02  0.51100000000E-03 0.  1.
         12    1    3    3    0    0 -0.15229922001E+02 -0.19895006295E+02  0.87733054340E+01  0.26546801839E+02  0.00000000000E+00 0. -1.
</event>
<event>
 7    1  0.5897985E-013  0.5052886E+02  0.7816164E-02  0.1300439E+00
        -11   -1    0    0    0    0  0.00000000000E+00  0.00000000000E+00  0.45593999997E+02  0.45594000000E+02  0.51100000000E-03 0. -1.
         11   -1    0    0    0    0 -0.00000000000E+00 -0.00000000000E+00 -0.45593999997E+02  0.45594000000E+02  0.51100000000E-03 0.  1.
    9900012    2    1    2    0    0  0.33334241234E+02  0.21420066320E+02 -0.91200022245E+01  0.50528864245E+02  0.30000013359E+02 0.  0.
         12    1    1    2    0    0 -0.33334241234E+02 -0.21420066320E+02  0.91200022245E+01  0.40659135755E+02  0.00000000000E+00 0. -1.
         11    1    3    3    0    0  0.29796920752E+02  0.42448980602E+01 -0.97660894384E+01  0.31642568622E+02  0.51100000000E-03 0. -1.
        -11    1    3    3    0    0  0.23530185401E+01  0.12766634469E+02 -0.26582240124E+01  0.13251030416E+02  0.51100000000E-03 0.  1.
        -12    1    3    3    0    0  0.11843019419E+01  0.44085337907E+01  0.33043112263E+01  0.56352652071E+01  0.00000000000E+00 0.  1.
</event>
<event>
 7    1  0.5897985E-013  0.5052886E+02  0.7816164E-02  0.1300439E+00
        -11   -1    0    0    0    0  0.00000000000E+00  0.00000000000E+00  0.45593999997E+02  0.45594000000E+02  0.51100000000E-03 0.  1.
         11   -1    0    0    0    0 -0.00000000000E+00 -0.00000000000E+00 -0.45593999997E+02  0.45594000000E+02  0.51100000000E-03 0. -1.
    9900012    2    1    2    0    0  0.31223644944E+02  0.94426816051E+01 -0.24271087864E+02  0.50528856556E+02  0.29999989987E+02 0.  0.
         12    1    1    2    0    0 -0.31223644944E+02 -0.94426816051E+01  0.24271087864E+02  0.40659143444E+02  0.00000000000E+00 0. -1.
         11    1    3    3    0    0  0.47963173775E+01 -0.25646703128E+01 -0.90305558754E+01  0.10541970114E+02  0.51100000000E-03 0. -1.
        -11    1    3    3    0    0  0.92470412633E+01  0.14953703394E+02 -0.12330432540E+01  0.17625022361E+02  0.51100000000E-03 0.  1.
        -12    1    3    3    0    0  0.17180286304E+02 -0.29463514759E+01 -0.14007488735E+02  0.22361864080E+02  0.00000000000E+00 0.  1.
</event>
<event>
 7    1  0.5897985E-013  0.5052887E+02  0.7816164E-02  0.1300439E+00
        -11   -1    0    0    0    0  0.00000000000E+00  0.00000000000E+00  0.45593999997E+02  0.45594000000E+02  0.51100000000E-03 0.  1.
         11   -1    0    0    0    0 -0.00000000000E+00 -0.00000000000E+00 -0.45593999997E+02  0.45594000000E+02  0.51100000000E-03 0. -1.
    9900012    2    1    2    0    0 -0.33311577117E+02 -0.35651126578E+01  0.23038958022E+02  0.50528870828E+02  0.30000033370E+02 0.  0.
         12    1    1    2    0    0  0.33311577117E+02  0.35651126578E+01 -0.23038958022E+02  0.40659129172E+02  0.00000000000E+00 0. -1.
         11    1    3    3    0    0 -0.52021269215E+01 -0.21782129289E+01 -0.17848389897E+01  0.59154362943E+01  0.51100000000E-03 0. -1.
        -11    1    3    3    0    0 -0.30685244894E+02 -0.41192309413E+01  0.26255832721E+02  0.40594594097E+02  0.51100000000E-03 0.  1.
        -12    1    3    3    0    0  0.25757946994E+01  0.27323312124E+01 -0.14320357088E+01  0.40188404371E+01  0.00000000000E+00 0.  1.
</event>
<event>
 7    1  0.5897985E-013  0.5052886E+02  0.7816164E-02  0.1300439E+00
        -11   -1    0    0    0    0  0.00000000000E+00  0.00000000000E+00  0.45593999997E+02  0.45594000000E+02  0.51100000000E-03 0.  1.
         11   -1    0    0    0    0 -0.00000000000E+00 -0.00000000000E+00 -0.45593999997E+02  0.45594000000E+02  0.51100000000E-03 0. -1.
    9900012    2    1    2    0    0 -0.94319468501E+01 -0.78330302015E+01  0.38766582769E+02  0.50528856832E+02  0.29999990828E+02 0.  0.
         12    1    1    2    0    0  0.94319468501E+01  0.78330302015E+01 -0.38766582769E+02  0.40659143168E+02  0.00000000000E+00 0. -1.
         11    1    3    3    0    0 -0.16063382269E+02  0.11787436676E+01  0.20373640047E+02  0.25971270581E+02  0.51100000000E-03 0. -1.
        -11    1    3    3    0    0  0.82662505108E+01 -0.10891431833E+02  0.16498809674E+02  0.21428133512E+02  0.51100000000E-03 0.  1.
        -12    1    3    3    0    0 -0.16348150920E+01  0.18796579641E+01  0.18941330480E+01  0.31294527398E+01  0.00000000000E+00 0.  1.
</event>
<event>
 7    1  0.5897985E-013  0.5052886E+02  0.7816164E-02  0.1300439E+00
        -11   -1    0    0    0    0  0.00000000000E+00  0.00000000000E+00  0.45593999997E+02  0.45594000000E+02  0.51100000000E-03 0. -1.
         11   -1    0    0    0    0 -0.00000000000E+00 -0.00000000000E+00 -0.45593999997E+02  0.45594000000E+02  0.51100000000E-03 0.  1.
    9900012    2    1    2    0    0  0.29152834800E+02 -0.28065477937E+02  0.39505387199E+01  0.50528860992E+02  0.30000003471E+02 0.  0.
         12    1    1    2    0    0 -0.29152834800E+02  0.28065477937E+02 -0.39505387199E+01  0.40659139008E+02  0.00000000000E+00 0. -1.
         11    1    3    3    0    0  0.82614769708E+01  0.36377017888E+01 -0.59700240370E+01  0.10822479536E+02  0.51100000000E-03 0. -1.
        -11    1    3    3    0    0  0.12279622849E+02 -0.13352202760E+02  0.38324599558E+01  0.18540717500E+02  0.51100000000E-03 0.  1.
         12    1    3    3    0    0  0.86117349799E+01 -0.18350976966E+02  0.60881028011E+01  0.21165663956E+02  0.00000000000E+00 0. -1.
</event>
<event>
 7    1  0.5897985E-013  0.5052885E+02  0.7816164E-02  0.1300439E+00
        -11   -1    0    0    0    0  0.00000000000E+00  0.00000000000E+00  0.45593999997E+02  0.45594000000E+02  0.51100000000E-03 0.  1.
         11   -1    0    0    0    0 -0.00000000000E+00 -0.00000000000E+00 -0.45593999997E+02  0.45594000000E+02  0.51100000000E-03 0. -1.
    9900012    2    1    2    0    0 -0.38844160969E+02 -0.11186986386E+02 -0.43759884257E+01  0.50528846289E+02  0.29999958779E+02 0.  0.
         12    1    1    2    0    0  0.38844160969E+02  0.11186986386E+02  0.43759884257E+01  0.40659153711E+02  0.00000000000E+00 0. -1.
         11    1    3    3    0    0 -0.21221538685E+02 -0.16129800689E+02  0.77536898348E+01  0.27760473353E+02  0.51100000000E-03 0. -1.
        -11    1    3    3    0    0 -0.12646384753E+02  0.25343453809E+01 -0.52073885491E+01  0.13909379914E+02  0.51100000000E-03 0.  1.
         12    1    3    3    0    0 -0.49762375303E+01  0.24084689221E+01 -0.69222897114E+01  0.88589930215E+01  0.00000000000E+00 0. -1.
</event>
<event>
 7    1  0.5897985E-013  0.5052889E+02  0.7816164E-02  0.1300439E+00
        -11   -1    0    0    0    0  0.00000000000E+00  0.00000000000E+00  0.45593999997E+02  0.45594000000E+02  0.51100000000E-03 0.  1.
         11   -1    0    0    0    0 -0.00000000000E+00 -0.00000000000E+00 -0.45593999997E+02  0.45594000000E+02  0.51100000000E-03 0. -1.
    9900012    2    1    2    0    0  0.88240939330E+01 -0.38974498055E+02  0.75024695883E+01  0.50528890537E+02  0.30000093278E+02 0.  0.
         12    1    1    2    0    0 -0.88240939330E+01  0.38974498055E+02 -0.75024695883E+01  0.40659109463E+02  0.00000000000E+00 0. -1.
         11    1    3    3    0    0  0.43079121192E+01  0.42737078268E+00  0.42839831796E+01  0.60904240212E+01  0.51100000000E-03 0. -1.
        -11    1    3    3    0    0  0.16217232388E+01 -0.40640245705E+02  0.11835452025E+01  0.40689806300E+02  0.51100000000E-03 0.  1.
        -12    1    3    3    0    0  0.28944585750E+01  0.12383768672E+01  0.20349412062E+01  0.37486602167E+01  0.00000000000E+00 0.  1.
</event>
<event>
 7    1  0.5897985E-013  0.5052886E+02  0.7816164E-02  0.1300439E+00
        -11   -1    0    0    0    0  0.00000000000E+00  0.00000000000E+00  0.45593999997E+02  0.45594000000E+02  0.51100000000E-03 0. -1.
         11   -1    0    0    0    0 -0.00000000000E+00 -0.00000000000E+00 -0.45593999997E+02  0.45594000000E+02  0.51100000000E-03 0.  1.
    9900012    2    1    2    0    0 -0.32459927980E+02  0.22730299075E+02 -0.91023277901E+01  0.50528858448E+02  0.29999995740E+02 0.  0.
         12    1    1    2    0    0  0.32459927980E+02 -0.22730299075E+02  0.91023277901E+01  0.40659141552E+02  0.00000000000E+00 0. -1.
         11    1    3    3    0    0 -0.13690078582E+02  0.18525191342E+02 -0.48252094796E+01  0.23534732049E+02  0.51100000000E-03 0. -1.
        -11    1    3    3    0    0 -0.17802652873E+02 -0.22497730828E+01  0.18532170882E+01  0.18039687971E+02  0.51100000000E-03 0.  1.
        -12    1    3    3    0    0 -0.96719652471E+00  0.64548808160E+01 -0.61303353987E+01  0.89544384283E+01  0.00000000000E+00 0.  1.
</event>
<event>
 7    1  0.5897985E-013  0.5052886E+02  0.7816164E-02  0.1300439E+00
        -11   -1    0    0    0    0  0.00000000000E+00  0.00000000000E+00  0.45593999997E+02  0.45594000000E+02  0.51100000000E-03 0.  1.
         11   -1    0    0    0    0 -0.00000000000E+00 -0.00000000000E+00 -0.45593999997E+02  0.45594000000E+02  0.51100000000E-03 0. -1.
    9900012    2    1    2    0    0 -0.14651446726E+02  0.34664742344E+02 -0.15390146831E+02  0.50528857456E+02  0.29999992723E+02 0.  0.
         12    1    1    2    0    0  0.14651446726E+02 -0.34664742344E+02  0.15390146831E+02  0.40659142544E+02  0.00000000000E+00 0. -1.
         11    1    3    3    0    0  0.54286839019E+01  0.18568956389E+02 -0.11522083956E+02  0.22517441445E+02  0.51100000000E-03 0. -1.
        -11    1    3    3    0    0 -0.17820858465E+02  0.11200985005E+02 -0.64764874563E+01  0.22022487406E+02  0.51100000000E-03 0.  1.
        -12    1    3    3    0    0 -0.22592721631E+01  0.48948009492E+01  0.26084245810E+01  0.59889286048E+01  0.00000000000E+00 0.  1.
</event>
<event>
 7    1  0.5897985E-013  0.5052885E+02  0.7816164E-02  0.1300439E+00
        -11   -1    0    0    0    0  0.00000000000E+00  0.00000000000E+00  0.45593999997E+02  0.45594000000E+02  0.51100000000E-03 0. -1.
         11   -1    0    0    0    0 -0.00000000000E+00 -0.00000000000E+00 -0.45593999997E+02  0.45594000000E+02  0.51100000000E-03 0.  1.
    9900012    2    1    2    0    0  0.29210982677E+02 -0.21641737999E+02 -0.18207695251E+02  0.50528849752E+02  0.29999969305E+02 0.  0.
         12    1    1    2    0    0 -0.29210982677E+02  0.21641737999E+02  0.18207695251E+02  0.40659150248E+02  0.00000000000E+00 0. -1.
         11    1    3    3    0    0 -0.10367026694E+01 -0.93510122093E+01 -0.61742787631E+01  0.11253350624E+02  0.51100000000E-03 0. -1.
        -11    1    3    3    0    0  0.27343544713E+02 -0.71140944320E+01 -0.29264862790E+01  0.28405001308E+02  0.51100000000E-03 0.  1.
        -12    1    3    3    0    0  0.29041406328E+01 -0.51766313579E+01 -0.91069302086E+01  0.10870497820E+02  0.00000000000E+00 0.  1.
</event>
<event>
 7    1  0.5897985E-013  0.5052886E+02  0.7816164E-02  0.1300439E+00
        -11   -1    0    0    0    0  0.00000000000E+00  0.00000000000E+00  0.45593999997E+02  0.45594000000E+02  0.51100000000E-03 0.  1.
         11   -1    0    0    0    0 -0.00000000000E+00 -0.00000000000E+00 -0.45593999997E+02  0.45594000000E+02  0.51100000000E-03 0. -1.
    9900012    2    1    2    0    0 -0.96849612819E+01 -0.86150849238E+01  0.38537607706E+02  0.50528863623E+02  0.30000011467E+02 0.  0.
         12    1    1    2    0    0  0.96849612819E+01  0.86150849238E+01 -0.38537607706E+02  0.40659136377E+02  0.00000000000E+00 0. -1.
         11    1    3    3    0    0 -0.23230078946E+01  0.39369499682E+01  0.14662600105E+02  0.15358638704E+02  0.51100000000E-03 0. -1.
        -11    1    3    3    0    0 -0.12752268620E+02 -0.15163335133E+02  0.17699841419E+02  0.26567489039E+02  0.51100000000E-03 0.  1.
        -12    1    3    3    0    0  0.53903152326E+01  0.26113002407E+01  0.61751661812E+01  0.86027358799E+01  0.00000000000E+00 0.  1.
</event>
<event>
 7    1  0.5897985E-013  0.5052886E+02  0.7816164E-02  0.1300439E+00
        -11   -1    0    0    0    0  0.00000000000E+00  0.00000000000E+00  0.45593999997E+02  0.45594000000E+02  0.51100000000E-03 0. -1.
         11   -1    0    0    0    0 -0.00000000000E+00 -0.00000000000E+00 -0.45593999997E+02  0.45594000000E+02  0.51100000000E-03 0.  1.
    9900012    2    1    2    0    0  0.15163003230E+02 -0.15916432913E+01 -0.37692385645E+02  0.50528856736E+02  0.29999990536E+02 0.  0.
         12    1    1    2    0    0 -0.15163003230E+02  0.15916432913E+01  0.37692385645E+02  0.40659143264E+02  0.00000000000E+00 0. -1.
         11    1    3    3    0    0  0.17403715329E+02 -0.87196695478E+01 -0.19152597161E+02  0.27308312334E+02  0.51100000000E-03 0. -1.
        -11    1    3    3    0    0 -0.14521547721E+01  0.10458315684E+02 -0.14021987084E+02  0.17552812950E+02  0.51100000000E-03 0.  1.
        -12    1    3    3    0    0 -0.78855732608E+00 -0.33302894272E+01 -0.45178014003E+01  0.56677314525E+01  0.00000000000E+00 0.  1.
</event>
<event>
 7    1  0.5897985E-013  0.5052885E+02  0.7816164E-02  0.1300439E+00
        -11   -1    0    0    0    0  0.00000000000E+00  0.00000000000E+00  0.45593999997E+02  0.45594000000E+02  0.51100000000E-03 0.  1.
         11   -1    0    0    0    0 -0.00000000000E+00 -0.00000000000E+00 -0.45593999997E+02  0.45594000000E+02  0.51100000000E-03 0. -1.
    9900012    2    1    2    0    0 -0.16759441335E+02 -0.36483993869E+02 -0.64191510440E+01  0.50528853641E+02  0.29999981128E+02 0.  0.
         12    1    1    2    0    0  0.16759441335E+02  0.36483993869E+02  0.64191510440E+01  0.40659146359E+02  0.00000000000E+00 0. -1.
         11    1    3    3    0    0 -0.33863974874E+01 -0.32271273480E+02  0.12100380814E+01  0.32471017421E+02  0.51100000000E-03 0. -1.
        -11    1    3    3    0    0 -0.91942893852E+01 -0.36274502952E+01 -0.65391982250E+00  0.99056026742E+01  0.51100000000E-03 0.  1.
         12    1    3    3    0    0 -0.41787544625E+01 -0.58527009435E+00 -0.69752693029E+01  0.81522335460E+01  0.00000000000E+00 0. -1.
</event>
<event>
 7    1  0.5897985E-013  0.5052886E+02  0.7816164E-02  0.1300439E+00
        -11   -1    0    0    0    0  0.00000000000E+00  0.00000000000E+00  0.45593999997E+02  0.45594000000E+02  0.51100000000E-03 0. -1.
         11   -1    0    0    0    0 -0.00000000000E+00 -0.00000000000E+00 -0.45593999997E+02  0.45594000000E+02  0.51100000000E-03 0.  1.
    9900012    2    1    2    0    0  0.23896060733E+02 -0.29536577398E+02 -0.14482209239E+02  0.50528861944E+02  0.30000006366E+02 0.  0.
         12    1    1    2    0    0 -0.23896060733E+02  0.29536577398E+02  0.14482209239E+02  0.40659138056E+02  0.00000000000E+00 0. -1.
         11    1    3    3    0    0  0.35389421641E+01  0.21837848255E+01 -0.33683472392E+00  0.41721080640E+01  0.51100000000E-03 0. -1.
        -11    1    3    3    0    0  0.97322076643E+01 -0.28594437585E+02 -0.25354445985E+01  0.30311486377E+02  0.51100000000E-03 0.  1.
        -12    1    3    3    0    0  0.10624910905E+02 -0.31259246391E+01 -0.11609929917E+02  0.16045267504E+02  0.00000000000E+00 0.  1.
</event>
<event>
 7    1  0.5897985E-013  0.5052886E+02  0.7816164E-02  0.1300439E+00
        -11   -1    0    0    0    0  0.00000000000E+00  0.00000000000E+00  0.45593999997E+02  0.45594000000E+02  0.51100000000E-03 0.  1.
         11   -1    0    0    0    0 -0.00000000000E+00 -0.00000000000E+00 -0.45593999997E+02  0.45594000000E+02  0.51100000000E-03 0. -1.
    9900012    2    1    2    0    0 -0.34180811894E+02 -0.21770239908E+02 -0.33006400803E+01  0.50528862376E+02  0.30000007677E+02 0.  0.
         12    1    1    2    0    0  0.34180811894E+02  0.21770239908E+02  0.33006400803E+01  0.40659137624E+02  0.00000000000E+00 0. -1.
         11    1    3    3    0    0  0.28580485454E+01 -0.60809523949E+01  0.10263155213E+01  0.67970396002E+01  0.51100000000E-03 0. -1.
        -11    1    3    3    0    0 -0.30512061997E+02 -0.49165778371E+01 -0.25365026769E+01  0.31009555157E+02  0.51100000000E-03 0.  1.
         12    1    3    3    0    0 -0.65267984427E+01 -0.10772709676E+02 -0.17904529247E+01  0.12722267619E+02  0.00000000000E+00 0. -1.
</event>
<event>
 7    1  0.6219077E-013  0.5052887E+02  0.7816164E-02  0.1300439E+00
        -11   -1    0    0    0    0  0.00000000000E+00  0.00000000000E+00  0.45593999997E+02  0.45594000000E+02  0.51100000000E-03 0.  1.
         11   -1    0    0    0    0 -0.00000000000E+00 -0.00000000000E+00 -0.45593999997E+02  0.45594000000E+02  0.51100000000E-03 0. -1.
    9900012    2    1    2    0    0  0.36852254489E+02  0.16208651870E+02 -0.56882408914E+01  0.50528866453E+02  0.30000020069E+02 0.  0.
         12    1    1    2    0    0 -0.36852254489E+02 -0.16208651870E+02  0.56882408914E+01  0.40659133547E+02  0.00000000000E+00 0. -1.
         11    1    3    3    0    0 -0.81033516682E+00  0.11524185225E+01  0.27423295196E+01  0.30830314608E+01  0.51100000000E-03 0. -1.
        -11    1    3    3    0    0  0.16693893377E+02  0.12852438942E+02 -0.14416315017E+02  0.25528442995E+02  0.51100000000E-03 0.  1.
        -12    1    3    3    0    0  0.20968696279E+02  0.22037944056E+01  0.59857446061E+01  0.21917391996E+02  0.00000000000E+00 0.  1.
</event>
<event>
 7    1  0.5897985E-013  0.5052890E+02  0.7816164E-02  0.1300439E+00
        -11   -1    0    0    0    0  0.00000000000E+00  0.00000000000E+00  0.45593999997E+02  0.45594000000E+02  0.51100000000E-03 0.  1.
         11   -1    0    0    0    0 -0.00000000000E+00 -0.00000000000E+00 -0.45593999997E+02  0.45594000000E+02  0.51100000000E-03 0. -1.
    9900012    2    1    2    0    0 -0.18586715107E+02 -0.13912069076E+02  0.33378899900E+02  0.50528897662E+02  0.30000114933E+02 0.  0.
         12    1    1    2    0    0  0.18586715107E+02  0.13912069076E+02 -0.33378899900E+02  0.40659102338E+02  0.00000000000E+00 0. -1.
         11    1    3    3    0    0 -0.19551380681E+02 -0.61868474035E+01  0.30141022748E+02  0.36455655526E+02  0.51100000000E-03 0.  1.
        -11    1    3    3    0    0  0.40493299959E+01 -0.88630615430E+00 -0.23072233189E+01  0.47440374913E+01  0.51100000000E-03 0. -1.
        -12    1    3    3    0    0 -0.30846644221E+01 -0.68389155181E+01  0.55451004709E+01  0.93292046442E+01  0.00000000000E+00 0.  1.
</event>
<event>
 7    1  0.5897985E-013  0.5052886E+02  0.7816164E-02  0.1300439E+00
        -11   -1    0    0    0    0  0.00000000000E+00  0.00000000000E+00  0.45593999997E+02  0.45594000000E+02  0.51100000000E-03 0.  1.
         11   -1    0    0    0    0 -0.00000000000E+00 -0.00000000000E+00 -0.45593999997E+02  0.45594000000E+02  0.51100000000E-03 0. -1.
    9900012    2    1    2    0    0 -0.70046475285E+01 -0.26784779926E+02  0.29777101172E+02  0.50528864780E+02  0.30000014984E+02 0.  0.
         12    1    1    2    0    0  0.70046475285E+01  0.26784779926E+02 -0.29777101172E+02  0.40659135220E+02  0.00000000000E+00 0. -1.
         11    1    3    3    0    0  0.56193568669E+01 -0.18935139627E+01 -0.36572497503E+01  0.69669249115E+01  0.51100000000E-03 0. -1.
        -11    1    3    3    0    0 -0.11105627186E+02 -0.22322395133E+02  0.29526104817E+02  0.38644729855E+02  0.51100000000E-03 0.  1.
         12    1    3    3    0    0 -0.15183772097E+01 -0.25688708295E+01  0.39082461054E+01  0.49172100129E+01  0.00000000000E+00 0. -1.
</event>
<event>
 7    1  0.5897985E-013  0.5052886E+02  0.7816164E-02  0.1300439E+00
        -11   -1    0    0    0    0  0.00000000000E+00  0.00000000000E+00  0.45593999997E+02  0.45594000000E+02  0.51100000000E-03 0.  1.
         11   -1    0    0    0    0 -0.00000000000E+00 -0.00000000000E+00 -0.45593999997E+02  0.45594000000E+02  0.51100000000E-03 0. -1.
    9900012    2    1    2    0    0 -0.18742191436E+02  0.32001113518E+02  0.16668075019E+02  0.50528859194E+02  0.29999998007E+02 0.  0.
         12    1    1    2    0    0  0.18742191436E+02 -0.32001113518E+02 -0.16668075019E+02  0.40659140806E+02  0.00000000000E+00 0. -1.
         11    1    3    3    0    0 -0.13058021987E+02  0.28883330060E+02  0.20511047268E+01  0.31764220822E+02  0.51100000000E-03 0. -1.
        -11    1    3    3    0    0 -0.77713026939E+01  0.21422716183E+00  0.75122288745E+01  0.10810764162E+02  0.51100000000E-03 0.  1.
         12    1    3    3    0    0  0.20871332446E+01  0.29035562961E+01  0.71047414175E+01  0.79538742104E+01  0.00000000000E+00 0. -1.
</event>
<event>
 7    1  0.5897985E-013  0.5052885E+02  0.7816164E-02  0.1300439E+00
        -11   -1    0    0    0    0  0.00000000000E+00  0.00000000000E+00  0.45593999997E+02  0.45594000000E+02  0.51100000000E-03 0.  1.
         11   -1    0    0    0    0 -0.00000000000E+00 -0.00000000000E+00 -0.45593999997E+02  0.45594000000E+02  0.51100000000E-03 0. -1.
    9900012    2    1    2    0    0 -0.30599087357E+02 -0.24781302058E+02  0.10136534805E+02  0.50528850764E+02  0.29999972381E+02 0.  0.
         12    1    1    2    0    0  0.30599087357E+02  0.24781302058E+02 -0.10136534805E+02  0.40659149236E+02  0.00000000000E+00 0. -1.
         11    1    3    3    0    0 -0.10056322961E+02 -0.21021057323E+02  0.45148926279E+00  0.23307044542E+02  0.51100000000E-03 0. -1.
        -11    1    3    3    0    0 -0.43487990686E+01  0.46527379515E+01  0.56909942418E+01  0.85409273212E+01  0.51100000000E-03 0.  1.
        -12    1    3    3    0    0 -0.16193965327E+02 -0.84129826871E+01  0.39940513007E+01  0.18680878900E+02  0.00000000000E+00 0.  1.
</event>
<event>
 7    1  0.5897985E-013  0.5052887E+02  0.7816164E-02  0.1300439E+00
        -11   -1    0    0    0    0  0.00000000000E+00  0.00000000000E+00  0.45593999997E+02  0.45594000000E+02  0.51100000000E-03 0.  1.
         11   -1    0    0    0    0 -0.00000000000E+00 -0.00000000000E+00 -0.45593999997E+02  0.45594000000E+02  0.51100000000E-03 0. -1.
    9900012    2    1    2    0    0 -0.34290689696E+02  0.19205651266E+02  0.10414240436E+02  0.50528870100E+02  0.30000031156E+02 0.  0.
         12    1    1    2    0    0  0.34290689696E+02 -0.19205651266E+02 -0.10414240436E+02  0.40659129900E+02  0.00000000000E+00 0. -1.
         11    1    3    3    0    0  0.14817809325E+01 -0.42926457427E+01  0.18479764976E+01  0.49028052787E+01  0.51100000000E-03 0. -1.
        -11    1    3    3    0    0 -0.27946139745E+02  0.11988494201E+02  0.27231782818E+01  0.30530745488E+02  0.51100000000E-03 0.  1.
         12    1    3    3    0    0 -0.78263308829E+01  0.11509802808E+02  0.58430856571E+01  0.15095319333E+02  0.00000000000E+00 0. -1.
</event>
<event>
 7    1  0.5897985E-013  0.5052886E+02  0.7816164E-02  0.1300439E+00
        -11   -1    0    0    0    0  0.00000000000E+00  0.00000000000E+00  0.45593999997E+02  0.45594000000E+02  0.51100000000E-03 0. -1.
         11   -1    0    0    0    0 -0.00000000000E+00 -0.00000000000E+00 -0.45593999997E+02  0.45594000000E+02  0.51100000000E-03 0.  1.
    9900012    2    1    2    0    0  0.14259144927E+02 -0.85038343913E+01 -0.37115050895E+02  0.50528863065E+02  0.30000009771E+02 0.  0.
         12    1    1    2    0    0 -0.14259144927E+02  0.85038343913E+01  0.37115050895E+02  0.40659136935E+02  0.00000000000E+00 0. -1.
         11    1    3    3    0    0  0.19972993904E+01 -0.15102721217E+02 -0.20873713308E+02  0.25841696936E+02  0.51100000000E-03 0. -1.
        -11    1    3    3    0    0  0.10033122425E+02  0.83476312491E+01 -0.17292869429E+02  0.21665406214E+02  0.51100000000E-03 0.  1.
        -12    1    3    3    0    0  0.22287231116E+01 -0.17487444236E+01  0.10515318419E+01  0.30217599147E+01  0.00000000000E+00 0.  1.
</event>
<event>
 7    1  0.5897985E-013  0.5052886E+02  0.7816164E-02  0.1300439E+00
        -11   -1    0    0    0    0  0.00000000000E+00  0.00000000000E+00  0.45593999997E+02  0.45594000000E+02  0.51100000000E-03 0.  1.
         11   -1    0    0    0    0 -0.00000000000E+00 -0.00000000000E+00 -0.45593999997E+02  0.45594000000E+02  0.51100000000E-03 0. -1.
    9900012    2    1    2    0    0  0.33518414615E+02 -0.17440127256E+02  0.15017443388E+02  0.50528858803E+02  0.29999996816E+02 0.  0.
         12    1    1    2    0    0 -0.33518414615E+02  0.17440127256E+02 -0.15017443388E+02  0.40659141197E+02  0.00000000000E+00 0. -1.
         11    1    3    3    0    0  0.19162697479E+02  0.20689392387E+01 -0.13255329270E+00  0.19274518279E+02  0.51100000000E-03 0. -1.
        -11    1    3    3    0    0  0.14156381265E+02 -0.16125795913E+02  0.17015583668E+02  0.27385662530E+02  0.51100000000E-03 0.  1.
         12    1    3    3    0    0  0.19933587075E+00 -0.33832705817E+01 -0.18655869873E+01  0.38686779946E+01  0.00000000000E+00 0. -1.
</event>
<event>
 7    1  0.5897985E-013  0.5052886E+02  0.7816164E-02  0.1300439E+00
        -11   -1    0    0    0    0  0.00000000000E+00  0.00000000000E+00  0.45593999997E+02  0.45594000000E+02  0.51100000000E-03 0.  1.
         11   -1    0    0    0    0 -0.00000000000E+00 -0.00000000000E+00 -0.45593999997E+02  0.45594000000E+02  0.51100000000E-03 0. -1.
    9900012    2    1    2    0    0 -0.21744103411E+02 -0.28434101445E+02  0.19283716450E+02  0.50528857384E+02  0.29999992505E+02 0.  0.
         12    1    1    2    0    0  0.21744103411E+02  0.28434101445E+02 -0.19283716450E+02  0.40659142616E+02  0.00000000000E+00 0. -1.
         11    1    3    3    0    0  0.59975511127E+01 -0.60046750010E+01 -0.11872856664E+01  0.85695034122E+01  0.51100000000E-03 0. -1.
        -11    1    3    3    0    0 -0.19222889882E+02 -0.10322220366E+02  0.11890597933E+02  0.24848622662E+02  0.51100000000E-03 0.  1.
         12    1    3    3    0    0 -0.85187646410E+01 -0.12107206078E+02  0.85804041827E+01  0.17110731310E+02  0.00000000000E+00 0. -1.
</event>
<event>
 7    1  0.5897985E-013  0.5052885E+02  0.7816164E-02  0.1300439E+00
        -11   -1    0    0    0    0  0.00000000000E+00  0.00000000000E+00  0.45593999997E+02  0.45594000000E+02  0.51100000000E-03 0. -1.
         11   -1    0    0    0    0 -0.00000000000E+00 -0.00000000000E+00 -0.45593999997E+02  0.45594000000E+02  0.51100000000E-03 0.  1.
    9900012    2    1    2    0    0  0.40298197354E+00 -0.40149169219E+02 -0.64068649100E+01  0.50528854640E+02  0.29999984163E+02 0.  0.
         12    1    1    2    0    0 -0.40298197354E+00  0.40149169219E+02  0.64068649100E+01  0.40659145360E+02  0.00000000000E+00 0. -1.
         11    1    3    3    0    0  0.88213380716E+00 -0.68154772935E+01  0.50217315849E+01  0.85115614998E+01  0.51100000000E-03 0. -1.
        -11    1    3    3    0    0  0.57943102199E+01 -0.31833130089E+02 -0.13757241865E+02  0.35159407079E+02  0.51100000000E-03 0.  1.
        -12    1    3    3    0    0 -0.62734620535E+01 -0.15005618365E+01  0.23286453698E+01  0.68578860606E+01  0.00000000000E+00 0.  1.
</event>
<event>
 7    1  0.5897985E-013  0.5052886E+02  0.7816164E-02  0.1300439E+00
        -11   -1    0    0    0    0  0.00000000000E+00  0.00000000000E+00  0.45593999997E+02  0.45594000000E+02  0.51100000000E-03 0.  1.
         11   -1    0    0    0    0 -0.00000000000E+00 -0.00000000000E+00 -0.45593999997E+02  0.45594000000E+02  0.51100000000E-03 0. -1.
    9900012    2    1    2    0    0  0.13773272469E+02  0.37814026382E+02  0.57932985612E+01  0.50528856700E+02  0.29999990424E+02 0.  0.
         12    1    1    2    0    0 -0.13773272469E+02 -0.37814026382E+02 -0.57932985612E+01  0.40659143300E+02  0.00000000000E+00 0. -1.
         11    1    3    3    0    0  0.24927450737E+01 -0.20525672822E+01 -0.56515752765E+01  0.65090025210E+01  0.51100000000E-03 0. -1.
        -11    1    3    3    0    0  0.11098383107E+02  0.29041588025E+02  0.52015096871E+01  0.31522113601E+02  0.51100000000E-03 0.  1.
         12    1    3    3    0    0  0.18214428828E+00  0.10825005639E+02  0.62433641506E+01  0.12497740577E+02  0.00000000000E+00 0. -1.
</event>
<event>
 7    1  0.5897985E-013  0.5052886E+02  0.7816164E-02  0.1300439E+00
        -11   -1    0    0    0    0  0.00000000000E+00  0.00000000000E+00  0.45593999997E+02  0.45594000000E+02  0.51100000000E-03 0.  1.
         11   -1    0    0    0    0 -0.00000000000E+00 -0.00000000000E+00 -0.45593999997E+02  0.45594000000E+02  0.51100000000E-03 0. -1.
    9900012    2    1    2    0    0  0.40050444610E+02 -0.43136479908E+00  0.69958191074E+01  0.50528859895E+02  0.30000000138E+02 0.  0.
         12    1    1    2    0    0 -0.40050444610E+02  0.43136479908E+00 -0.69958191074E+01  0.40659140105E+02  0.00000000000E+00 0. -1.
         11    1    3    3    0    0  0.28431560568E+02 -0.60524374596E+01 -0.49182451918E+01  0.29481770156E+02  0.51100000000E-03 0. -1.
        -11    1    3    3    0    0  0.11234174064E+02  0.20647041266E+01  0.13003435678E+02  0.17307773101E+02  0.51100000000E-03 0.  1.
        -12    1    3    3    0    0  0.38470997869E+00  0.35563685339E+01 -0.10893713789E+01  0.37393166378E+01  0.00000000000E+00 0.  1.
</event>
<event>
 7    1  0.5897985E-013  0.5052886E+02  0.7816164E-02  0.1300439E+00
        -11   -1    0    0    0    0  0.00000000000E+00  0.00000000000E+00  0.45593999997E+02  0.45594000000E+02  0.51100000000E-03 0.  1.
         11   -1    0    0    0    0 -0.00000000000E+00 -0.00000000000E+00 -0.45593999997E+02  0.45594000000E+02  0.51100000000E-03 0. -1.
    9900012    2    1    2    0    0 -0.15133384462E+02 -0.26037798938E+02  0.27316286459E+02  0.50528858289E+02  0.29999995254E+02 0.  0.
         12    1    1    2    0    0  0.15133384462E+02  0.26037798938E+02 -0.27316286459E+02  0.40659141711E+02  0.00000000000E+00 0. -1.
         11    1    3    3    0    0 -0.39983343830E+01  0.34849832561E+01  0.50109443125E+01  0.72966669992E+01  0.51100000000E-03 0. -1.
        -11    1    3    3    0    0 -0.15964242617E+02 -0.23772087111E+02  0.13494855981E+02  0.31655652041E+02  0.51100000000E-03 0.  1.
        -12    1    3    3    0    0  0.48291925376E+01 -0.57506950831E+01  0.88104861652E+01  0.11576539248E+02  0.00000000000E+00 0.  1.
</event>
<event>
 7    1  0.5897985E-013  0.5052886E+02  0.7816164E-02  0.1300439E+00
        -11   -1    0    0    0    0  0.00000000000E+00  0.00000000000E+00  0.45593999997E+02  0.45594000000E+02  0.51100000000E-03 0.  1.
         11   -1    0    0    0    0 -0.00000000000E+00 -0.00000000000E+00 -0.45593999997E+02  0.45594000000E+02  0.51100000000E-03 0. -1.
    9900012    2    1    2    0    0  0.72525880334E+01 -0.53551733912E+01  0.39647040713E+02  0.50528858931E+02  0.29999997206E+02 0.  0.
         12    1    1    2    0    0 -0.72525880334E+01  0.53551733912E+01 -0.39647040713E+02  0.40659141069E+02  0.00000000000E+00 0. -1.
         11    1    3    3    0    0  0.62738806799E+01 -0.75806207151E+01  0.42544129507E+02  0.43667268577E+02  0.51100000000E-03 0.  1.
        -11    1    3    3    0    0  0.88077906111E-01 -0.40507903441E+00  0.15577544598E+01  0.16119695902E+01  0.51100000000E-03 0. -1.
         12    1    3    3    0    0  0.89062944740E+00  0.26305263584E+01 -0.44548432544E+01  0.52496207631E+01  0.00000000000E+00 0. -1.
</event>
<event>
 7    1  0.5897985E-013  0.5052886E+02  0.7816164E-02  0.1300439E+00
        -11   -1    0    0    0    0  0.00000000000E+00  0.00000000000E+00  0.45593999997E+02  0.45594000000E+02  0.51100000000E-03 0. -1.
         11   -1    0    0    0    0 -0.00000000000E+00 -0.00000000000E+00 -0.45593999997E+02  0.45594000000E+02  0.51100000000E-03 0.  1.
    9900012    2    1    2    0    0  0.20740592090E+02  0.34554220072E+02 -0.53851404588E+01  0.50528855607E+02  0.29999987102E+02 0.  0.
         12    1    1    2    0    0 -0.20740592090E+02 -0.34554220072E+02  0.53851404588E+01  0.40659144393E+02  0.00000000000E+00 0. -1.
         11    1    3    3    0    0 -0.64682782830E+01  0.12929912047E+02  0.40034106229E+00  0.14463109027E+02  0.51100000000E-03 0. -1.
        -11    1    3    3    0    0  0.19344682959E+02  0.14776683718E+02 -0.75569578289E+01  0.25488718139E+02  0.51100000000E-03 0.  1.
         12    1    3    3    0    0  0.78641874140E+01  0.68476243064E+01  0.17714763079E+01  0.10577028441E+02  0.00000000000E+00 0. -1.
</event>
<event>
 7    1  0.5897985E-013  0.5052886E+02  0.7816164E-02  0.1300439E+00
        -11   -1    0    0    0    0  0.00000000000E+00  0.00000000000E+00  0.45593999997E+02  0.45594000000E+02  0.51100000000E-03 0.  1.
         11   -1    0    0    0    0 -0.00000000000E+00 -0.00000000000E+00 -0.45593999997E+02  0.45594000000E+02  0.51100000000E-03 0. -1.
    9900012    2    1    2    0    0 -0.24746152093E+02  0.53539715566E+01  0.31813969414E+02  0.50528859518E+02  0.29999998991E+02 0.  0.
         12    1    1    2    0    0  0.24746152093E+02 -0.53539715566E+01 -0.31813969414E+02  0.40659140482E+02  0.00000000000E+00 0. -1.
         11    1    3    3    0    0 -0.58011348152E+01  0.98609233225E+01  0.66270111038E+01  0.13221507113E+02  0.51100000000E-03 0. -1.
        -11    1    3    3    0    0 -0.14262433279E+02 -0.10436984039E+02  0.99056261456E+01  0.20260036241E+02  0.51100000000E-03 0.  1.
        -12    1    3    3    0    0 -0.46825839985E+01  0.59300322733E+01  0.15281332165E+02  0.17047316164E+02  0.00000000000E+00 0.  1.
</event>
<event>
 7    1  0.5897985E-013  0.5052885E+02  0.7816164E-02  0.1300439E+00
        -11   -1    0    0    0    0  0.00000000000E+00  0.00000000000E+00  0.45593999997E+02  0.45594000000E+02  0.51100000000E-03 0.  1.
         11   -1    0    0    0    0 -0.00000000000E+00 -0.00000000000E+00 -0.45593999997E+02  0.45594000000E+02  0.51100000000E-03 0. -1.
    9900012    2    1    2    0    0  0.10442133805E+02  0.12241823573E+02  0.37339869386E+02  0.50528852831E+02  0.29999978664E+02 0.  0.
         12    1    1    2    0    0 -0.10442133805E+02 -0.12241823573E+02 -0.37339869386E+02  0.40659147169E+02  0.00000000000E+00 0. -1.
         11    1    3    3    0    0 -0.49062921937E+01  0.94471923472E+01  0.33520112331E+01  0.11160516382E+02  0.51100000000E-03 0. -1.
        -11    1    3    3    0    0  0.43237220380E+01 -0.40720495874E+01  0.56578352474E+01  0.82028812044E+01  0.51100000000E-03 0.  1.
         12    1    3    3    0    0  0.11024703960E+02  0.68666808137E+01  0.28330022905E+02  0.31165455245E+02  0.00000000000E+00 0. -1.
</event>
<event>
 7    1  0.5897985E-013  0.5052890E+02  0.7816164E-02  0.1300439E+00
        -11   -1    0    0    0    0  0.00000000000E+00  0.00000000000E+00  0.45593999997E+02  0.45594000000E+02  0.51100000000E-03 0. -1.
         11   -1    0    0    0    0 -0.00000000000E+00 -0.00000000000E+00 -0.45593999997E+02  0.45594000000E+02  0.51100000000E-03 0.  1.
    9900012    2    1    2    0    0  0.11653669223E+02  0.29908122495E+02 -0.24957127613E+02  0.50528904877E+02  0.30000136864E+02 0.  0.
         12    1    1    2    0    0 -0.11653669223E+02 -0.29908122495E+02  0.24957127613E+02  0.40659095123E+02  0.00000000000E+00 0. -1.
         11    1    3    3    0    0 -0.33824015729E+01  0.39025690116E+01  0.21778627235E-01  0.51644128283E+01  0.51100000000E-03 0. -1.
        -11    1    3    3    0    0  0.15632468335E+02  0.19396146740E+02 -0.65225056257E+01  0.25751265105E+02  0.51100000000E-03 0.  1.
        -12    1    3    3    0    0 -0.59639753942E+00  0.66094067434E+01 -0.18456400614E+02  0.19613226944E+02  0.00000000000E+00 0.  1.
</event>
<event>
 7    1  0.5897985E-013  0.5052890E+02  0.7816164E-02  0.1300439E+00
        -11   -1    0    0    0    0  0.00000000000E+00  0.00000000000E+00  0.45593999997E+02  0.45594000000E+02  0.51100000000E-03 0. -1.
         11   -1    0    0    0    0 -0.00000000000E+00 -0.00000000000E+00 -0.45593999997E+02  0.45594000000E+02  0.51100000000E-03 0.  1.
    9900012    2    1    2    0    0 -0.37842938002E+02 -0.14031207258E+02 -0.49193385733E+01  0.50528897381E+02  0.30000114079E+02 0.  0.
         12    1    1    2    0    0  0.37842938002E+02  0.14031207258E+02  0.49193385733E+01  0.40659102619E+02  0.00000000000E+00 0. -1.
         11    1    3    3    0    0 -0.11521670241E+02 -0.10357050982E+02  0.62301518192E+01  0.16698268836E+02  0.51100000000E-03 0. -1.
        -11    1    3    3    0    0 -0.15831665909E+02 -0.10312562540E+02 -0.99637832336E+01  0.21360420599E+02  0.51100000000E-03 0.  1.
         12    1    3    3    0    0 -0.10489601853E+02  0.66384062632E+01 -0.11857071589E+01  0.12470207946E+02  0.00000000000E+00 0. -1.
</event>
<event>
 7    1  0.5897985E-013  0.5052886E+02  0.7816164E-02  0.1300439E+00
        -11   -1    0    0    0    0  0.00000000000E+00  0.00000000000E+00  0.45593999997E+02  0.45594000000E+02  0.51100000000E-03 0.  1.
         11   -1    0    0    0    0 -0.00000000000E+00 -0.00000000000E+00 -0.45593999997E+02  0.45594000000E+02  0.51100000000E-03 0. -1.
    9900012    2    1    2    0    0  0.28936218904E+02 -0.25510235327E+02  0.12848690895E+02  0.50528859225E+02  0.29999998099E+02 0.  0.
         12    1    1    2    0    0 -0.28936218904E+02  0.25510235327E+02 -0.12848690895E+02  0.40659140775E+02  0.00000000000E+00 0. -1.
         11    1    3    3    0    0  0.10913753372E+01 -0.73667316186E-01  0.64183401735E+01  0.65108845669E+01  0.51100000000E-03 0. -1.
        -11    1    3    3    0    0  0.28361248634E+02 -0.13308170633E+02  0.34476052116E+01  0.31517515949E+02  0.51100000000E-03 0.  1.
        -12    1    3    3    0    0 -0.51640506669E+00 -0.12128397378E+02  0.29827455098E+01  0.12500458709E+02  0.00000000000E+00 0.  1.
</event>
<event>
 7    1  0.5897985E-013  0.5052888E+02  0.7816164E-02  0.1300439E+00
        -11   -1    0    0    0    0  0.00000000000E+00  0.00000000000E+00  0.45593999997E+02  0.45594000000E+02  0.51100000000E-03 0. -1.
         11   -1    0    0    0    0 -0.00000000000E+00 -0.00000000000E+00 -0.45593999997E+02  0.45594000000E+02  0.51100000000E-03 0.  1.
    9900012    2    1    2    0    0  0.33166824183E+02 -0.93947102797E+01 -0.21560725611E+02  0.50528884214E+02  0.30000074057E+02 0.  0.
         12    1    1    2    0    0 -0.33166824183E+02  0.93947102797E+01  0.21560725611E+02  0.40659115786E+02  0.00000000000E+00 0. -1.
         11    1    3    3    0    0  0.26788388492E+01  0.50234820989E+01  0.69658837578E+00  0.57355719509E+01  0.51100000000E-03 0. -1.
        -11    1    3    3    0    0  0.97405574529E+01 -0.14405265794E+02 -0.14505314902E+02  0.22644961973E+02  0.51100000000E-03 0.  1.
         12    1    3    3    0    0  0.20747427881E+02 -0.12926584584E-01 -0.77519990840E+01  0.22148350290E+02  0.00000000000E+00 0. -1.
</event>
<event>
 7    1  0.5897985E-013  0.5052886E+02  0.7816164E-02  0.1300439E+00
        -11   -1    0    0    0    0  0.00000000000E+00  0.00000000000E+00  0.45593999997E+02  0.45594000000E+02  0.51100000000E-03 0. -1.
         11   -1    0    0    0    0 -0.00000000000E+00 -0.00000000000E+00 -0.45593999997E+02  0.45594000000E+02  0.51100000000E-03 0.  1.
    9900012    2    1    2    0    0  0.27774977149E+02 -0.26002379952E+02  0.14338507769E+02  0.50528856823E+02  0.29999990800E+02 0.  0.
         12    1    1    2    0    0 -0.27774977149E+02  0.26002379952E+02 -0.14338507769E+02  0.40659143177E+02  0.00000000000E+00 0. -1.
         11    1    3    3    0    0  0.70411123746E+01  0.30381964678E+01 -0.36447731435E+01  0.84907168589E+01  0.51100000000E-03 0. -1.
        -11    1    3    3    0    0  0.58214901915E+01 -0.13223597670E+02  0.13641022751E+02  0.19870349401E+02  0.51100000000E-03 0.  1.
        -12    1    3    3    0    0  0.14912374583E+02 -0.15816978751E+02  0.43422581618E+01  0.22167790563E+02  0.00000000000E+00 0.  1.
</event>
<event>
 7    1  0.5897985E-013  0.5052887E+02  0.7816164E-02  0.1300439E+00
        -11   -1    0    0    0    0  0.00000000000E+00  0.00000000000E+00  0.45593999997E+02  0.45594000000E+02  0.51100000000E-03 0.  1.
         11   -1    0    0    0    0 -0.00000000000E+00 -0.00000000000E+00 -0.45593999997E+02  0.45594000000E+02  0.51100000000E-03 0. -1.
    9900012    2    1    2    0    0  0.70364111938E+01 -0.39226924510E+02  0.80561761809E+01  0.50528872320E+02  0.30000037904E+02 0.  0.
         12    1    1    2    0    0 -0.70364111938E+01  0.39226924510E+02 -0.80561761809E+01  0.40659127680E+02  0.00000000000E+00 0. -1.
         11    1    3    3    0    0  0.12872497818E+02 -0.23045822100E+02 -0.36362364816E+01  0.26646450652E+02  0.51100000000E-03 0. -1.
        -11    1    3    3    0    0 -0.24371791874E+01 -0.25569104357E+01  0.88868182083E+01  0.95631151565E+01  0.51100000000E-03 0.  1.
         12    1    3    3    0    0 -0.33989074370E+01 -0.13624191975E+02  0.28055944541E+01  0.14319306511E+02  0.00000000000E+00 0. -1.
</event>
<event>
 7    1  0.5897985E-013  0.5052887E+02  0.7816164E-02  0.1300439E+00
        -11   -1    0    0    0    0  0.00000000000E+00  0.00000000000E+00  0.45593999997E+02  0.45594000000E+02  0.51100000000E-03 0.  1.
         11   -1    0    0    0    0 -0.00000000000E+00 -0.00000000000E+00 -0.45593999997E+02  0.45594000000E+02  0.51100000000E-03 0. -1.
    9900012    2    1    2    0    0 -0.36890396875E+02  0.16255963731E+02 -0.52921940211E+01  0.50528867496E+02  0.30000023242E+02 0.  0.
         12    1    1    2    0    0  0.36890396875E+02 -0.16255963731E+02  0.52921940211E+01  0.40659132504E+02  0.00000000000E+00 0. -1.
         11    1    3    3    0    0 -0.17202690619E+02  0.72294810805E+01  0.41119869048E+01  0.19107757530E+02  0.51100000000E-03 0. -1.
        -11    1    3    3    0    0  0.16693411723E+01  0.71473144813E+01 -0.64651270581E+01  0.97810363655E+01  0.51100000000E-03 0.  1.
        -12    1    3    3    0    0 -0.21357047427E+02  0.18791681694E+01 -0.29390538679E+01  0.21640073601E+02  0.00000000000E+00 0.  1.
</event>
<event>
 7    1  0.5897985E-013  0.5052885E+02  0.7816164E-02  0.1300439E+00
        -11   -1    0    0    0    0  0.00000000000E+00  0.00000000000E+00  0.45593999997E+02  0.45594000000E+02  0.51100000000E-03 0.  1.
         11   -1    0    0    0    0 -0.00000000000E+00 -0.00000000000E+00 -0.45593999997E+02  0.45594000000E+02  0.51100000000E-03 0. -1.
    9900012    2    1    2    0    0  0.90223760144E+01 -0.10681263657E+02  0.38179489422E+02  0.50528854968E+02  0.29999985160E+02 0.  0.
         12    1    1    2    0    0 -0.90223760144E+01  0.10681263657E+02 -0.38179489422E+02  0.40659145032E+02  0.00000000000E+00 0. -1.
         11    1    3    3    0    0 -0.20480338856E+01  0.54887201235E+01  0.17870816100E+02  0.18806556296E+02  0.51100000000E-03 0. -1.
        -11    1    3    3    0    0  0.11707393194E+02 -0.13654593264E+02  0.89861677269E+01  0.20106272237E+02  0.51100000000E-03 0.  1.
        -12    1    3    3    0    0 -0.63698329421E+00 -0.25153905172E+01  0.11322505595E+02  0.11616026434E+02  0.00000000000E+00 0.  1.
</event>
<event>
 7    1  0.5897985E-013  0.5052886E+02  0.7816164E-02  0.1300439E+00
        -11   -1    0    0    0    0  0.00000000000E+00  0.00000000000E+00  0.45593999997E+02  0.45594000000E+02  0.51100000000E-03 0.  1.
         11   -1    0    0    0    0 -0.00000000000E+00 -0.00000000000E+00 -0.45593999997E+02  0.45594000000E+02  0.51100000000E-03 0. -1.
    9900012    2    1    2    0    0  0.27332081359E+02 -0.40433507731E+01  0.29829083923E+02  0.50528860750E+02  0.30000002735E+02 0.  0.
         12    1    1    2    0    0 -0.27332081359E+02  0.40433507731E+01 -0.29829083923E+02  0.40659139250E+02  0.00000000000E+00 0. -1.
         11    1    3    3    0    0 -0.31889329435E+01  0.23330512461E+01 -0.16762476008E+01  0.42921122674E+01  0.51100000000E-03 0. -1.
        -11    1    3    3    0    0  0.14295155569E+02 -0.96546177512E+01  0.14983802893E+02  0.22849014553E+02  0.51100000000E-03 0.  1.
        -12    1    3    3    0    0  0.16225858734E+02  0.32782157319E+01  0.16521528631E+02  0.23387733929E+02  0.00000000000E+00 0.  1.
</event>
<event>
 7    1  0.5897985E-013  0.5052886E+02  0.7816164E-02  0.1300439E+00
        -11   -1    0    0    0    0  0.00000000000E+00  0.00000000000E+00  0.45593999997E+02  0.45594000000E+02  0.51100000000E-03 0. -1.
         11   -1    0    0    0    0 -0.00000000000E+00 -0.00000000000E+00 -0.45593999997E+02  0.45594000000E+02  0.51100000000E-03 0.  1.
    9900012    2    1    2    0    0  0.17262548954E+02  0.36655004060E+02  0.34030955115E+01  0.50528856157E+02  0.29999988775E+02 0.  0.
         12    1    1    2    0    0 -0.17262548954E+02 -0.36655004060E+02 -0.34030955115E+01  0.40659143843E+02  0.00000000000E+00 0. -1.
         11    1    3    3    0    0  0.14506469110E+02  0.35546343106E+01  0.48413170841E+01  0.15700682230E+02  0.51100000000E-03 0. -1.
        -11    1    3    3    0    0 -0.32592311652E+01  0.17607385814E+02  0.14268908114E+01  0.17963258074E+02  0.51100000000E-03 0.  1.
        -12    1    3    3    0    0  0.60153110087E+01  0.15492983935E+02 -0.28651123840E+01  0.16864915853E+02  0.00000000000E+00 0.  1.
</event>
<event>
 7    1  0.5897985E-013  0.5052886E+02  0.7816164E-02  0.1300439E+00
        -11   -1    0    0    0    0  0.00000000000E+00  0.00000000000E+00  0.45593999997E+02  0.45594000000E+02  0.51100000000E-03 0.  1.
         11   -1    0    0    0    0 -0.00000000000E+00 -0.00000000000E+00 -0.45593999997E+02  0.45594000000E+02  0.51100000000E-03 0. -1.
    9900012    2    1    2    0    0 -0.20224792997E+02 -0.84134392492E+01  0.34254018161E+02  0.50528856232E+02  0.29999989002E+02 0.  0.
         12    1    1    2    0    0  0.20224792997E+02  0.84134392492E+01 -0.34254018161E+02  0.40659143768E+02  0.00000000000E+00 0. -1.
         11    1    3    3    0    0 -0.61987490243E+01 -0.50844472432E+00 -0.37169918978E+01  0.72456217493E+01  0.51100000000E-03 0. -1.
        -11    1    3    3    0    0  0.33890272716E+00  0.18544498569E+01  0.11302200623E+02  0.11458341002E+02  0.51100000000E-03 0.  1.
         12    1    3    3    0    0 -0.14364946700E+02 -0.97594443818E+01  0.26668809436E+02  0.31824893481E+02  0.00000000000E+00 0. -1.
</event>
<event>
 7    1  0.5897985E-013  0.5052886E+02  0.7816164E-02  0.1300439E+00
        -11   -1    0    0    0    0  0.00000000000E+00  0.00000000000E+00  0.45593999997E+02  0.45594000000E+02  0.51100000000E-03 0.  1.
         11   -1    0    0    0    0 -0.00000000000E+00 -0.00000000000E+00 -0.45593999997E+02  0.45594000000E+02  0.51100000000E-03 0. -1.
    9900012    2    1    2    0    0  0.14862373306E+02  0.27224537462E+02 -0.26288779510E+02  0.50528861933E+02  0.30000006330E+02 0.  0.
         12    1    1    2    0    0 -0.14862373306E+02 -0.27224537462E+02  0.26288779510E+02  0.40659138067E+02  0.00000000000E+00 0. -1.
         11    1    3    3    0    0  0.90921914343E+01  0.77766051652E+01 -0.19422874750E+02  0.22812093214E+02  0.51100000000E-03 0. -1.
        -11    1    3    3    0    0  0.10067255955E+02  0.20108934042E+02 -0.53860597104E+01  0.23124197505E+02  0.51100000000E-03 0.  1.
         12    1    3    3    0    0 -0.42970740835E+01 -0.66100174571E+00 -0.14798450493E+01  0.45925712141E+01  0.00000000000E+00 0. -1.
</event>
<event>
 7    1  0.5897985E-013  0.5052886E+02  0.7816164E-02  0.1300439E+00
        -11   -1    0    0    0    0  0.00000000000E+00  0.00000000000E+00  0.45593999997E+02  0.45594000000E+02  0.51100000000E-03 0.  1.
         11   -1    0    0    0    0 -0.00000000000E+00 -0.00000000000E+00 -0.45593999997E+02  0.45594000000E+02  0.51100000000E-03 0. -1.
    9900012    2    1    2    0    0  0.62391015667E+01 -0.90159385384E+01  0.39152929573E+02  0.50528862893E+02  0.30000009250E+02 0.  0.
         12    1    1    2    0    0 -0.62391015667E+01  0.90159385384E+01 -0.39152929573E+02  0.40659137107E+02  0.00000000000E+00 0. -1.
         11    1    3    3    0    0 -0.73677944684E+01 -0.11010698906E+01  0.29670120796E+00  0.74555202435E+01  0.51100000000E-03 0. -1.
        -11    1    3    3    0    0  0.12576241340E+02 -0.61838414904E+01  0.21915760861E+02  0.26013502574E+02  0.51100000000E-03 0.  1.
         12    1    3    3    0    0  0.10306546955E+01 -0.17310271573E+01  0.16940467505E+02  0.17059840076E+02  0.00000000000E+00 0. -1.
</event>
<event>
 7    1  0.5897985E-013  0.5052886E+02  0.7816164E-02  0.1300439E+00
        -11   -1    0    0    0    0  0.00000000000E+00  0.00000000000E+00  0.45593999997E+02  0.45594000000E+02  0.51100000000E-03 0. -1.
         11   -1    0    0    0    0 -0.00000000000E+00 -0.00000000000E+00 -0.45593999997E+02  0.45594000000E+02  0.51100000000E-03 0.  1.
    9900012    2    1    2    0    0 -0.37812771668E+02 -0.75690591250E+01 -0.12886792989E+02  0.50528858460E+02  0.29999995775E+02 0.  0.
         12    1    1    2    0    0  0.37812771668E+02  0.75690591250E+01  0.12886792989E+02  0.40659141540E+02  0.00000000000E+00 0. -1.
         11    1    3    3    0    0 -0.36133135359E+02 -0.64525606030E+01 -0.21014713756E+01  0.36764863544E+02  0.51100000000E-03 0. -1.
        -11    1    3    3    0    0  0.83675316992E+00 -0.33036973948E+01 -0.96625465635E+01  0.10245944500E+02  0.51100000000E-03 0.  1.
        -12    1    3    3    0    0 -0.25163894788E+01  0.21871988728E+01 -0.11227750496E+01  0.35180504161E+01  0.00000000000E+00 0.  1.
</event>
<event>
 7    1  0.5897985E-013  0.5052884E+02  0.7816164E-02  0.1300439E+00
        -11   -1    0    0    0    0  0.00000000000E+00  0.00000000000E+00  0.45593999997E+02  0.45594000000E+02  0.51100000000E-03 0.  1.
         11   -1    0    0    0    0 -0.00000000000E+00 -0.00000000000E+00 -0.45593999997E+02  0.45594000000E+02  0.51100000000E-03 0. -1.
    9900012    2    1    2    0    0 -0.18741720100E+02  0.30329506270E+02  0.19545749059E+02  0.50528839542E+02  0.29999938270E+02 0.  0.
         12    1    1    2    0    0  0.18741720100E+02 -0.30329506270E+02 -0.19545749059E+02  0.40659160458E+02  0.00000000000E+00 0. -1.
         11    1    3    3    0    0  0.56448365582E+00  0.15365794467E+02  0.49225802602E+01  0.16144908736E+02  0.51100000000E-03 0. -1.
        -11    1    3    3    0    0 -0.15512224227E+02  0.15955160442E+02  0.18448490630E+02  0.28905761570E+02  0.51100000000E-03 0.  1.
        -12    1    3    3    0    0 -0.37939795286E+01 -0.99144863861E+00 -0.38253218304E+01  0.54781692355E+01  0.00000000000E+00 0.  1.
</event>
<event>
 7    1  0.5897985E-013  0.5052886E+02  0.7816164E-02  0.1300439E+00
        -11   -1    0    0    0    0  0.00000000000E+00  0.00000000000E+00  0.45593999997E+02  0.45594000000E+02  0.51100000000E-03 0.  1.
         11   -1    0    0    0    0 -0.00000000000E+00 -0.00000000000E+00 -0.45593999997E+02  0.45594000000E+02  0.51100000000E-03 0. -1.
    9900012    2    1    2    0    0 -0.12971710003E+01  0.40241265581E+02  0.56677764723E+01  0.50528858368E+02  0.29999995495E+02 0.  0.
         12    1    1    2    0    0  0.12971710003E+01 -0.40241265581E+02 -0.56677764723E+01  0.40659141632E+02  0.00000000000E+00 0. -1.
         11    1    3    3    0    0 -0.92233296569E+01  0.21125737762E+02 -0.42676448397E+01  0.23443109834E+02  0.51100000000E-03 0. -1.
        -11    1    3    3    0    0  0.93560919556E+01  0.75098746794E+01  0.96370202958E+01  0.15388529326E+02  0.51100000000E-03 0.  1.
        -12    1    3    3    0    0 -0.14299332989E+01  0.11605653140E+02  0.29840101621E+00  0.11697219208E+02  0.00000000000E+00 0.  1.
</event>
<event>
 7    1  0.5897985E-013  0.5052885E+02  0.7816164E-02  0.1300439E+00
        -11   -1    0    0    0    0  0.00000000000E+00  0.00000000000E+00  0.45593999997E+02  0.45594000000E+02  0.51100000000E-03 0.  1.
         11   -1    0    0    0    0 -0.00000000000E+00 -0.00000000000E+00 -0.45593999997E+02  0.45594000000E+02  0.51100000000E-03 0. -1.
    9900012    2    1    2    0    0  0.82496654527E+01 -0.22370702907E+02  0.32934197096E+02  0.50528847685E+02  0.29999963022E+02 0.  0.
         12    1    1    2    0    0 -0.82496654527E+01  0.22370702907E+02 -0.32934197096E+02  0.40659152315E+02  0.00000000000E+00 0. -1.
         11    1    3    3    0    0  0.82013751967E+01 -0.31611341085E+01 -0.87940758912E+00  0.88333845120E+01  0.51100000000E-03 0. -1.
        -11    1    3    3    0    0  0.26557298577E+01 -0.12460263875E+02  0.31689623798E+02  0.34154697095E+02  0.51100000000E-03 0.  1.
        -12    1    3    3    0    0 -0.26074396016E+01 -0.67493049237E+01  0.21239808867E+01  0.75407660776E+01  0.00000000000E+00 0.  1.
</event>
<event>
 7    1  0.5897985E-013  0.5052888E+02  0.7816164E-02  0.1300439E+00
        -11   -1    0    0    0    0  0.00000000000E+00  0.00000000000E+00  0.45593999997E+02  0.45594000000E+02  0.51100000000E-03 0.  1.
         11   -1    0    0    0    0 -0.00000000000E+00 -0.00000000000E+00 -0.45593999997E+02  0.45594000000E+02  0.51100000000E-03 0. -1.
    9900012    2    1    2    0    0  0.37532905422E+02  0.15520256480E+02  0.18885438022E+01  0.50528881117E+02  0.30000064643E+02 0.  0.
         12    1    1    2    0    0 -0.37532905422E+02 -0.15520256480E+02 -0.18885438022E+01  0.40659118883E+02  0.00000000000E+00 0. -1.
         11    1    3    3    0    0  0.92503699024E+01  0.13662006956E+02  0.17904387991E+01  0.16595946756E+02  0.51100000000E-03 0. -1.
        -11    1    3    3    0    0  0.16423143431E+02 -0.65821874343E+01  0.53083738520E+01  0.18472240384E+02  0.51100000000E-03 0.  1.
        -12    1    3    3    0    0  0.11859392088E+02  0.84404369591E+01 -0.52102688489E+01  0.15460693977E+02  0.00000000000E+00 0.  1.
</event>
<event>
 7    1  0.5897985E-013  0.5052884E+02  0.7816164E-02  0.1300439E+00
        -11   -1    0    0    0    0  0.00000000000E+00  0.00000000000E+00  0.45593999997E+02  0.45594000000E+02  0.51100000000E-03 0.  1.
         11   -1    0    0    0    0 -0.00000000000E+00 -0.00000000000E+00 -0.45593999997E+02  0.45594000000E+02  0.51100000000E-03 0. -1.
    9900012    2    1    2    0    0  0.30114683722E+02  0.65653876051E+01  0.26517330627E+02  0.50528839733E+02  0.29999938851E+02 0.  0.
         12    1    1    2    0    0 -0.30114683722E+02 -0.65653876051E+01 -0.26517330627E+02  0.40659160267E+02  0.00000000000E+00 0. -1.
         11    1    3    3    0    0  0.86319429217E+01  0.14993442442E+02  0.49935281206E+01  0.18006917510E+02  0.51100000000E-03 0. -1.
        -11    1    3    3    0    0  0.19181249975E+02 -0.43722069086E+01  0.16608231995E+02  0.25746260197E+02  0.51100000000E-03 0.  1.
        -12    1    3    3    0    0  0.23014908248E+01 -0.40558479283E+01  0.49155705111E+01  0.67756620255E+01  0.00000000000E+00 0.  1.
</event>
<event>
 7    1  0.5897985E-013  0.5052887E+02  0.7816164E-02  0.1300439E+00
        -11   -1    0    0    0    0  0.00000000000E+00  0.00000000000E+00  0.45593999997E+02  0.45594000000E+02  0.51100000000E-03 0.  1.
         11   -1    0    0    0    0 -0.00000000000E+00 -0.00000000000E+00 -0.45593999997E+02  0.45594000000E+02  0.51100000000E-03 0. -1.
    9900012    2    1    2    0    0 -0.15260471883E+02 -0.33362782715E+02  0.17527338721E+02  0.50528869719E+02  0.30000029998E+02 0.  0.
         12    1    1    2    0    0  0.15260471883E+02  0.33362782715E+02 -0.17527338721E+02  0.40659130281E+02  0.00000000000E+00 0. -1.
         11    1    3    3    0    0 -0.59552303779E+01 -0.77904188144E+01 -0.45766143569E+01  0.10821311999E+02  0.51100000000E-03 0. -1.
        -11    1    3    3    0    0  0.26851508790E+01 -0.14246156509E+02  0.17211362430E+02  0.22503199939E+02  0.51100000000E-03 0.  1.
        -12    1    3    3    0    0 -0.11990392384E+02 -0.11326207391E+02  0.48925906479E+01  0.17204357780E+02  0.00000000000E+00 0.  1.
</event>
<event>
 7    1  0.5897985E-013  0.5052885E+02  0.7816164E-02  0.1300439E+00
        -11   -1    0    0    0    0  0.00000000000E+00  0.00000000000E+00  0.45593999997E+02  0.45594000000E+02  0.51100000000E-03 0.  1.
         11   -1    0    0    0    0 -0.00000000000E+00 -0.00000000000E+00 -0.45593999997E+02  0.45594000000E+02  0.51100000000E-03 0. -1.
    9900012    2    1    2    0    0  0.91898461724E+01  0.16980671854E+01  0.39570565139E+02  0.50528851826E+02  0.29999975610E+02 0.  0.
         12    1    1    2    0    0 -0.91898461724E+01 -0.16980671854E+01 -0.39570565139E+02  0.40659148174E+02  0.00000000000E+00 0. -1.
         11    1    3    3    0    0  0.11999618715E+02  0.12050240448E+01  0.30042060183E+01  0.12428523094E+02  0.51100000000E-03 0. -1.
        -11    1    3    3    0    0  0.68659028722E+00 -0.39158465071E+01  0.24062079905E+02  0.24388295342E+02  0.51100000000E-03 0.  1.
         12    1    3    3    0    0 -0.34963628295E+01  0.44088896477E+01  0.12504279216E+02  0.13712033389E+02  0.00000000000E+00 0. -1.
</event>
<event>
 7    1  0.5897985E-013  0.5052891E+02  0.7816164E-02  0.1300439E+00
        -11   -1    0    0    0    0  0.00000000000E+00  0.00000000000E+00  0.45593999997E+02  0.45594000000E+02  0.51100000000E-03 0.  1.
         11   -1    0    0    0    0 -0.00000000000E+00 -0.00000000000E+00 -0.45593999997E+02  0.45594000000E+02  0.51100000000E-03 0. -1.
    9900012    2    1    2    0    0 -0.22449370514E+02  0.21289022715E+02  0.26381140951E+02  0.50528913408E+02  0.30000162793E+02 0.  0.
         12    1    1    2    0    0  0.22449370514E+02 -0.21289022715E+02 -0.26381140951E+02  0.40659086592E+02  0.00000000000E+00 0. -1.
         11    1    3    3    0    0 -0.67450626395E+01 -0.62315740476E+01  0.17669339682E+01  0.93514940534E+01  0.51100000000E-03 0. -1.
        -11    1    3    3    0    0 -0.10269964743E+02  0.15517053698E+02  0.19741510172E+02  0.27128921015E+02  0.51100000000E-03 0.  1.
        -12    1    3    3    0    0 -0.54343431320E+01  0.12003543065E+02  0.48726968105E+01  0.14048498339E+02  0.00000000000E+00 0.  1.
</event>
<event>
 7    1  0.5897985E-013  0.5052886E+02  0.7816164E-02  0.1300439E+00
        -11   -1    0    0    0    0  0.00000000000E+00  0.00000000000E+00  0.45593999997E+02  0.45594000000E+02  0.51100000000E-03 0.  1.
         11   -1    0    0    0    0 -0.00000000000E+00 -0.00000000000E+00 -0.45593999997E+02  0.45594000000E+02  0.51100000000E-03 0. -1.
    9900012    2    1    2    0    0 -0.29365058616E+00 -0.31175861408E+02  0.26098757081E+02  0.50528859744E+02  0.29999999676E+02 0.  0.
         12    1    1    2    0    0  0.29365058616E+00  0.31175861408E+02 -0.26098757081E+02  0.40659140256E+02  0.00000000000E+00 0. -1.
         11    1    3    3    0    0 -0.11091023603E+02 -0.10855445278E+02  0.11540326454E+02  0.19339871552E+02  0.51100000000E-03 0. -1.
        -11    1    3    3    0    0  0.39352809394E+01 -0.52886368091E+01  0.13019759874E+02  0.14593500704E+02  0.51100000000E-03 0.  1.
         12    1    3    3    0    0  0.68620920775E+01 -0.15031779321E+02  0.15386707539E+01  0.16595487487E+02  0.00000000000E+00 0. -1.
</event>
<event>
 7    1  0.5897985E-013  0.5052886E+02  0.7816164E-02  0.1300439E+00
        -11   -1    0    0    0    0  0.00000000000E+00  0.00000000000E+00  0.45593999997E+02  0.45594000000E+02  0.51100000000E-03 0.  1.
         11   -1    0    0    0    0 -0.00000000000E+00 -0.00000000000E+00 -0.45593999997E+02  0.45594000000E+02  0.51100000000E-03 0. -1.
    9900012    2    1    2    0    0 -0.11747436732E+02  0.31248301762E+02  0.23210062678E+02  0.50528860286E+02  0.30000001327E+02 0.  0.
         12    1    1    2    0    0  0.11747436732E+02 -0.31248301762E+02 -0.23210062678E+02  0.40659139714E+02  0.00000000000E+00 0. -1.
         11    1    3    3    0    0  0.69422325896E+01  0.14409837569E+01 -0.36898663467E+00  0.70998013291E+01  0.51100000000E-03 0. -1.
        -11    1    3    3    0    0 -0.34772396203E+01  0.12287967939E+02  0.50368430534E+01  0.13727896403E+02  0.51100000000E-03 0.  1.
         12    1    3    3    0    0 -0.15212429701E+02  0.17519350066E+02  0.18542206259E+02  0.29701162554E+02  0.00000000000E+00 0. -1.
</event>
<event>
 7    1  0.5897985E-013  0.5052887E+02  0.7816164E-02  0.1300439E+00
        -11   -1    0    0    0    0  0.00000000000E+00  0.00000000000E+00  0.45593999997E+02  0.45594000000E+02  0.51100000000E-03 0.  1.
         11   -1    0    0    0    0 -0.00000000000E+00 -0.00000000000E+00 -0.45593999997E+02  0.45594000000E+02  0.51100000000E-03 0. -1.
    9900012    2    1    2    0    0 -0.11927162128E+02 -0.37924272027E+02  0.85239270072E+01  0.50528868961E+02  0.30000027695E+02 0.  0.
         12    1    1    2    0    0  0.11927162128E+02  0.37924272027E+02 -0.85239270072E+01  0.40659131039E+02  0.00000000000E+00 0. -1.
         11    1    3    3    0    0  0.42161854967E+01 -0.10009497331E+01  0.31373841455E+01  0.53498878538E+01  0.51100000000E-03 0. -1.
        -11    1    3    3    0    0 -0.11508832917E+02 -0.37453778018E+02  0.77630032419E+01  0.39943747227E+02  0.51100000000E-03 0.  1.
         12    1    3    3    0    0 -0.46345147077E+01  0.53045572400E+00 -0.23764603802E+01  0.52352338811E+01  0.00000000000E+00 0. -1.
</event>
<event>
 7    1  0.5897985E-013  0.5052894E+02  0.7816164E-02  0.1300439E+00
        -11   -1    0    0    0    0  0.00000000000E+00  0.00000000000E+00  0.45593999997E+02  0.45594000000E+02  0.51100000000E-03 0. -1.
         11   -1    0    0    0    0 -0.00000000000E+00 -0.00000000000E+00 -0.45593999997E+02  0.45594000000E+02  0.51100000000E-03 0.  1.
    9900012    2    1    2    0    0 -0.10823517578E+02 -0.29344085583E+02 -0.25979512177E+02  0.50528942652E+02  0.30000251685E+02 0.  0.
         12    1    1    2    0    0  0.10823517578E+02  0.29344085583E+02  0.25979512177E+02  0.40659057348E+02  0.00000000000E+00 0. -1.
         11    1    3    3    0    0 -0.93109851706E+01  0.23917715165E+00 -0.76791347575E+00  0.93456589882E+01  0.51100000000E-03 0. -1.
        -11    1    3    3    0    0 -0.49762334906E+01 -0.18549282783E+02 -0.21953200298E+02  0.29168164068E+02  0.51100000000E-03 0.  1.
         12    1    3    3    0    0  0.34637010829E+01 -0.11033979952E+02 -0.32583984033E+01  0.12015119597E+02  0.00000000000E+00 0. -1.
</event>
<event>
 7    1  0.5897985E-013  0.5052885E+02  0.7816164E-02  0.1300439E+00
        -11   -1    0    0    0    0  0.00000000000E+00  0.00000000000E+00  0.45593999997E+02  0.45594000000E+02  0.51100000000E-03 0. -1.
         11   -1    0    0    0    0 -0.00000000000E+00 -0.00000000000E+00 -0.45593999997E+02  0.45594000000E+02  0.51100000000E-03 0.  1.
    9900012    2    1    2    0    0  0.35093887405E+02 -0.51401424984E+01 -0.19878739575E+02  0.50528852380E+02  0.29999977294E+02 0.  0.
         12    1    1    2    0    0 -0.35093887405E+02  0.51401424984E+01  0.19878739575E+02  0.40659147620E+02  0.00000000000E+00 0. -1.
         11    1    3    3    0    0  0.14569351919E+02 -0.13214933196E+02 -0.15250188660E+02  0.24889128734E+02  0.51100000000E-03 0. -1.
        -11    1    3    3    0    0  0.18581883642E+02  0.61158618218E+01 -0.81277665174E+01  0.21183737969E+02  0.51100000000E-03 0.  1.
         12    1    3    3    0    0  0.19426518441E+01  0.19589288754E+01  0.34992156020E+01  0.44559856772E+01  0.00000000000E+00 0. -1.
</event>
<event>
 7    1  0.5897985E-013  0.5052886E+02  0.7816164E-02  0.1300439E+00
        -11   -1    0    0    0    0  0.00000000000E+00  0.00000000000E+00  0.45593999997E+02  0.45594000000E+02  0.51100000000E-03 0.  1.
         11   -1    0    0    0    0 -0.00000000000E+00 -0.00000000000E+00 -0.45593999997E+02  0.45594000000E+02  0.51100000000E-03 0. -1.
    9900012    2    1    2    0    0 -0.21142568616E+02 -0.33182100663E+02  0.10252085207E+02  0.50528864948E+02  0.30000015496E+02 0.  0.
         12    1    1    2    0    0  0.21142568616E+02  0.33182100663E+02 -0.10252085207E+02  0.40659135052E+02  0.00000000000E+00 0. -1.
         11    1    3    3    0    0  0.37523618798E+01 -0.99941727640E+00 -0.15828965076E+01  0.41934015053E+01  0.51100000000E-03 0. -1.
        -11    1    3    3    0    0 -0.25709286391E+02 -0.20043263412E+02  0.78262326702E+01  0.33525359551E+02  0.51100000000E-03 0.  1.
         12    1    3    3    0    0  0.81435589468E+00 -0.12139419974E+02  0.40087490443E+01  0.12810103892E+02  0.00000000000E+00 0. -1.
</event>
<event>
 7    1  0.5897985E-013  0.5052886E+02  0.7816164E-02  0.1300439E+00
        -11   -1    0    0    0    0  0.00000000000E+00  0.00000000000E+00  0.45593999997E+02  0.45594000000E+02  0.51100000000E-03 0. -1.
         11   -1    0    0    0    0 -0.00000000000E+00 -0.00000000000E+00 -0.45593999997E+02  0.45594000000E+02  0.51100000000E-03 0.  1.
    9900012    2    1    2    0    0 -0.30182103416E+01  0.38458936526E+02 -0.12843913335E+02  0.50528862009E+02  0.30000006563E+02 0.  0.
         12    1    1    2    0    0  0.30182103416E+01 -0.38458936526E+02  0.12843913335E+02  0.40659137991E+02  0.00000000000E+00 0. -1.
         11    1    3    3    0    0  0.29076064695E+00 -0.84492088937E+00  0.11763258739E+01  0.14772189702E+01  0.51100000000E-03 0. -1.
        -11    1    3    3    0    0 -0.80527652896E+01  0.39761725852E+02 -0.79609898742E+01  0.41342704696E+02  0.51100000000E-03 0.  1.
        -12    1    3    3    0    0  0.47437943011E+01 -0.45786843639E+00 -0.60592493349E+01  0.77089383431E+01  0.00000000000E+00 0.  1.
</event>
<event>
 7    1  0.5897985E-013  0.5052885E+02  0.7816164E-02  0.1300439E+00
        -11   -1    0    0    0    0  0.00000000000E+00  0.00000000000E+00  0.45593999997E+02  0.45594000000E+02  0.51100000000E-03 0. -1.
         11   -1    0    0    0    0 -0.00000000000E+00 -0.00000000000E+00 -0.45593999997E+02  0.45594000000E+02  0.51100000000E-03 0.  1.
    9900012    2    1    2    0    0 -0.21204667334E+02  0.13990564853E+02 -0.31745754983E+02  0.50528846282E+02  0.29999958758E+02 0.  0.
         12    1    1    2    0    0  0.21204667334E+02 -0.13990564853E+02  0.31745754983E+02  0.40659153718E+02  0.00000000000E+00 0. -1.
         11    1    3    3    0    0 -0.12574424867E+01  0.68262413963E+01  0.24647350583E+01  0.73657078666E+01  0.51100000000E-03 0. -1.
        -11    1    3    3    0    0 -0.22264201751E+02  0.64875689485E+01 -0.33308772635E+02  0.40586420946E+02  0.51100000000E-03 0.  1.
        -12    1    3    3    0    0  0.23169769039E+01  0.67675450780E+00 -0.90171740604E+00  0.25767174694E+01  0.00000000000E+00 0.  1.
</event>
<event>
 7    1  0.5897985E-013  0.5052885E+02  0.7816164E-02  0.1300439E+00
        -11   -1    0    0    0    0  0.00000000000E+00  0.00000000000E+00  0.45593999997E+02  0.45594000000E+02  0.51100000000E-03 0.  1.
         11   -1    0    0    0    0 -0.00000000000E+00 -0.00000000000E+00 -0.45593999997E+02  0.45594000000E+02  0.51100000000E-03 0. -1.
    9900012    2    1    2    0    0  0.26073312459E+02 -0.60718089868E+01  0.30601994214E+02  0.50528849285E+02  0.29999967887E+02 0.  0.
         12    1    1    2    0    0 -0.26073312459E+02  0.60718089868E+01 -0.30601994214E+02  0.40659150715E+02  0.00000000000E+00 0. -1.
         11    1    3    3    0    0  0.14881899134E+01 -0.76530471691E+01  0.62510871640E+01  0.99929941051E+01  0.51100000000E-03 0. -1.
        -11    1    3    3    0    0  0.20641325351E+02  0.75087626306E+01  0.25127269484E+02  0.33374024337E+02  0.51100000000E-03 0.  1.
        -12    1    3    3    0    0  0.39437971949E+01 -0.59275244483E+01 -0.77636243345E+00  0.71618308433E+01  0.00000000000E+00 0.  1.
</event>
<event>
 7    1  0.5897985E-013  0.5052885E+02  0.7816164E-02  0.1300439E+00
        -11   -1    0    0    0    0  0.00000000000E+00  0.00000000000E+00  0.45593999997E+02  0.45594000000E+02  0.51100000000E-03 0. -1.
         11   -1    0    0    0    0 -0.00000000000E+00 -0.00000000000E+00 -0.45593999997E+02  0.45594000000E+02  0.51100000000E-03 0.  1.
    9900012    2    1    2    0    0  0.35647124738E+02 -0.19064128566E+02  0.43597871928E+01  0.50528852881E+02  0.29999978818E+02 0.  0.
         12    1    1    2    0    0 -0.35647124738E+02  0.19064128566E+02 -0.43597871928E+01  0.40659147119E+02  0.00000000000E+00 0. -1.
         11    1    3    3    0    0  0.12651201606E+02 -0.16529341755E+02  0.89245535749E+01  0.22647730520E+02  0.51100000000E-03 0. -1.
        -11    1    3    3    0    0  0.12158290799E+02  0.49494528636E+01  0.18055572892E+01  0.13250703989E+02  0.51100000000E-03 0.  1.
         12    1    3    3    0    0  0.10837632333E+02 -0.74842396748E+01 -0.63703236713E+01  0.14630418373E+02  0.00000000000E+00 0. -1.
</event>
<event>
 7    1  0.5897985E-013  0.5052886E+02  0.7816164E-02  0.1300439E+00
        -11   -1    0    0    0    0  0.00000000000E+00  0.00000000000E+00  0.45593999997E+02  0.45594000000E+02  0.51100000000E-03 0. -1.
         11   -1    0    0    0    0 -0.00000000000E+00 -0.00000000000E+00 -0.45593999997E+02  0.45594000000E+02  0.51100000000E-03 0.  1.
    9900012    2    1    2    0    0  0.27001920458E+02 -0.22794828692E+02 -0.20111137658E+02  0.50528858575E+02  0.29999996123E+02 0.  0.
         12    1    1    2    0    0 -0.27001920458E+02  0.22794828692E+02  0.20111137658E+02  0.40659141425E+02  0.00000000000E+00 0. -1.
         11    1    3    3    0    0  0.22558708790E+01  0.26162636592E+00  0.25991848266E+01  0.34515451326E+01  0.51100000000E-03 0. -1.
        -11    1    3    3    0    0  0.18213895227E+02 -0.21128112384E+02 -0.27166727698E+02  0.38938081698E+02  0.51100000000E-03 0.  1.
        -12    1    3    3    0    0  0.65321543521E+01 -0.19283426745E+01  0.44564052137E+01  0.81392317437E+01  0.00000000000E+00 0.  1.
</event>
<event>
 7    1  0.5897985E-013  0.5052888E+02  0.7816164E-02  0.1300439E+00
        -11   -1    0    0    0    0  0.00000000000E+00  0.00000000000E+00  0.45593999997E+02  0.45594000000E+02  0.51100000000E-03 0. -1.
         11   -1    0    0    0    0 -0.00000000000E+00 -0.00000000000E+00 -0.45593999997E+02  0.45594000000E+02  0.51100000000E-03 0.  1.
    9900012    2    1    2    0    0  0.83215738273E+01 -0.17341765192E+01 -0.39760638033E+02  0.50528876842E+02  0.30000051649E+02 0.  0.
         12    1    1    2    0    0 -0.83215738273E+01  0.17341765192E+01  0.39760638033E+02  0.40659123158E+02  0.00000000000E+00 0. -1.
         11    1    3    3    0    0  0.16225012983E+01  0.67063134689E+01 -0.27117275019E+02  0.27981310826E+02  0.51100000000E-03 0. -1.
        -11    1    3    3    0    0  0.19487971410E+01 -0.10327054945E+02 -0.13761554944E+02  0.17315492164E+02  0.51100000000E-03 0.  1.
         12    1    3    3    0    0  0.47502753881E+01  0.18865649573E+01  0.11181919301E+01  0.52320738520E+01  0.00000000000E+00 0. -1.
</event>
<event>
 7    1  0.5897985E-013  0.5052884E+02  0.7816164E-02  0.1300439E+00
        -11   -1    0    0    0    0  0.00000000000E+00  0.00000000000E+00  0.45593999997E+02  0.45594000000E+02  0.51100000000E-03 0. -1.
         11   -1    0    0    0    0 -0.00000000000E+00 -0.00000000000E+00 -0.45593999997E+02  0.45594000000E+02  0.51100000000E-03 0.  1.
    9900012    2    1    2    0    0  0.20922001347E+02  0.19525694972E+02 -0.28882244288E+02  0.50528844333E+02  0.29999952833E+02 0.  0.
         12    1    1    2    0    0 -0.20922001347E+02 -0.19525694972E+02  0.28882244288E+02  0.40659155667E+02  0.00000000000E+00 0. -1.
         11    1    3    3    0    0  0.12328692646E+02 -0.26045290107E+01 -0.10264571169E+02  0.16252435364E+02  0.51100000000E-03 0. -1.
        -11    1    3    3    0    0  0.11519372842E+02  0.21410111762E+02 -0.12233223691E+02  0.27216550084E+02  0.51100000000E-03 0.  1.
         12    1    3    3    0    0 -0.29260641410E+01  0.72011221992E+00 -0.63844494279E+01  0.70598588841E+01  0.00000000000E+00 0. -1.
</event>
<event>
 7    1  0.5897985E-013  0.5052887E+02  0.7816164E-02  0.1300439E+00
        -11   -1    0    0    0    0  0.00000000000E+00  0.00000000000E+00  0.45593999997E+02  0.45594000000E+02  0.51100000000E-03 0. -1.
         11   -1    0    0    0    0 -0.00000000000E+00 -0.00000000000E+00 -0.45593999997E+02  0.45594000000E+02  0.51100000000E-03 0.  1.
    9900012    2    1    2    0    0  0.40315941634E+02  0.29348296402E+01  0.43791096182E+01  0.50528868480E+02  0.30000026233E+02 0.  0.
         12    1    1    2    0    0 -0.40315941634E+02 -0.29348296402E+01 -0.43791096182E+01  0.40659131520E+02  0.00000000000E+00 0. -1.
         11    1    3    3    0    0 -0.33883531258E+01 -0.14719456945E+01  0.34916201161E+01  0.50832049269E+01  0.51100000000E-03 0. -1.
        -11    1    3    3    0    0  0.15254241091E+02  0.63433807413E+01 -0.25759187501E+01  0.16720218544E+02  0.51100000000E-03 0.  1.
         12    1    3    3    0    0  0.28450053669E+02 -0.19366054065E+01  0.34634082522E+01  0.28725445010E+02  0.00000000000E+00 0. -1.
</event>
<event>
 7    1  0.5897985E-013  0.5052885E+02  0.7816164E-02  0.1300439E+00
        -11   -1    0    0    0    0  0.00000000000E+00  0.00000000000E+00  0.45593999997E+02  0.45594000000E+02  0.51100000000E-03 0.  1.
         11   -1    0    0    0    0 -0.00000000000E+00 -0.00000000000E+00 -0.45593999997E+02  0.45594000000E+02  0.51100000000E-03 0. -1.
    9900012    2    1    2    0    0  0.49219900393E+01 -0.35422283181E+02  0.19344306999E+02  0.50528851645E+02  0.29999975060E+02 0.  0.
         12    1    1    2    0    0 -0.49219900393E+01  0.35422283181E+02 -0.19344306999E+02  0.40659148355E+02  0.00000000000E+00 0. -1.
         11    1    3    3    0    0 -0.70186055027E+01 -0.20595994092E+02  0.11422176054E+02  0.24574822521E+02  0.51100000000E-03 0. -1.
        -11    1    3    3    0    0  0.10337191912E+02 -0.18084306241E+02  0.53566337712E+01  0.21507979786E+02  0.51100000000E-03 0.  1.
         12    1    3    3    0    0  0.16034036300E+01  0.32580171529E+01  0.25654971742E+01  0.44460493385E+01  0.00000000000E+00 0. -1.
</event>
<event>
 7    1  0.5897985E-013  0.5052887E+02  0.7816164E-02  0.1300439E+00
        -11   -1    0    0    0    0  0.00000000000E+00  0.00000000000E+00  0.45593999997E+02  0.45594000000E+02  0.51100000000E-03 0.  1.
         11   -1    0    0    0    0 -0.00000000000E+00 -0.00000000000E+00 -0.45593999997E+02  0.45594000000E+02  0.51100000000E-03 0. -1.
    9900012    2    1    2    0    0 -0.22093130524E+02 -0.12512613032E+02  0.31756780841E+02  0.50528867808E+02  0.30000024189E+02 0.  0.
         12    1    1    2    0    0  0.22093130524E+02  0.12512613032E+02 -0.31756780841E+02  0.40659132192E+02  0.00000000000E+00 0. -1.
         11    1    3    3    0    0  0.37538728801E+01  0.97270676445E+00  0.23429760783E+01  0.45307016249E+01  0.51100000000E-03 0. -1.
        -11    1    3    3    0    0 -0.14208081116E+02 -0.16012508083E+02  0.25856231906E+02  0.33568060902E+02  0.51100000000E-03 0.  1.
        -12    1    3    3    0    0 -0.11638922288E+02  0.25271882863E+01  0.35575728567E+01  0.12430105281E+02  0.00000000000E+00 0.  1.
</event>
<event>
 7    1  0.5897985E-013  0.5052886E+02  0.7816164E-02  0.1300439E+00
        -11   -1    0    0    0    0  0.00000000000E+00  0.00000000000E+00  0.45593999997E+02  0.45594000000E+02  0.51100000000E-03 0.  1.
         11   -1    0    0    0    0 -0.00000000000E+00 -0.00000000000E+00 -0.45593999997E+02  0.45594000000E+02  0.51100000000E-03 0. -1.
    9900012    2    1    2    0    0 -0.26325937261E+02 -0.30663845018E+02  0.44541346711E+01  0.50528859827E+02  0.29999999930E+02 0.  0.
         12    1    1    2    0    0  0.26325937261E+02  0.30663845018E+02 -0.44541346711E+01  0.40659140173E+02  0.00000000000E+00 0. -1.
         11    1    3    3    0    0 -0.14915376921E+02 -0.35817014123E+01 -0.35359146989E+01  0.15741656416E+02  0.51100000000E-03 0. -1.
        -11    1    3    3    0    0 -0.12120738671E+02 -0.25894307723E+02  0.11650919457E+02  0.30873474097E+02  0.51100000000E-03 0.  1.
        -12    1    3    3    0    0  0.71017833125E+00 -0.11878358830E+01 -0.36608700872E+01  0.39137293139E+01  0.00000000000E+00 0.  1.
</event>
<event>
 7    1  0.5897985E-013  0.5052886E+02  0.7816164E-02  0.1300439E+00
        -11   -1    0    0    0    0  0.00000000000E+00  0.00000000000E+00  0.45593999997E+02  0.45594000000E+02  0.51100000000E-03 0.  1.
         11   -1    0    0    0    0 -0.00000000000E+00 -0.00000000000E+00 -0.45593999997E+02  0.45594000000E+02  0.51100000000E-03 0. -1.
    9900012    2    1    2    0    0 -0.52309987397E+01  0.39573464421E+02 -0.77293590159E+01  0.50528862960E+02  0.30000009452E+02 0.  0.
         12    1    1    2    0    0  0.52309987397E+01 -0.39573464421E+02  0.77293590159E+01  0.40659137040E+02  0.00000000000E+00 0. -1.
         11    1    3    3    0    0  0.47640834200E+01 -0.11021836556E+01 -0.53546747942E+01  0.72514717166E+01  0.51100000000E-03 0. -1.
        -11    1    3    3    0    0  0.84128744370E+00  0.13481155255E+02  0.20793263944E+01  0.13666488580E+02  0.51100000000E-03 0.  1.
         12    1    3    3    0    0 -0.10836369603E+02  0.27194492821E+02 -0.44540106160E+01  0.29610902664E+02  0.00000000000E+00 0. -1.
</event>
<event>
 7    1  0.5897985E-013  0.5052885E+02  0.7816164E-02  0.1300439E+00
        -11   -1    0    0    0    0  0.00000000000E+00  0.00000000000E+00  0.45593999997E+02  0.45594000000E+02  0.51100000000E-03 0. -1.
         11   -1    0    0    0    0 -0.00000000000E+00 -0.00000000000E+00 -0.45593999997E+02  0.45594000000E+02  0.51100000000E-03 0.  1.
    9900012    2    1    2    0    0  0.78915510025E+01  0.26626660626E+02  0.29696982724E+02  0.50528850768E+02  0.29999972395E+02 0.  0.
         12    1    1    2    0    0 -0.78915510025E+01 -0.26626660626E+02 -0.29696982724E+02  0.40659149232E+02  0.00000000000E+00 0. -1.
         11    1    3    3    0    0  0.49046567806E+01  0.36559666295E+01  0.17029149238E+02  0.18094575821E+02  0.51100000000E-03 0. -1.
        -11    1    3    3    0    0  0.92711622776E+01  0.14145143653E+02  0.16679991609E+01  0.16994756851E+02  0.51100000000E-03 0.  1.
        -12    1    3    3    0    0 -0.62842680558E+01  0.88255503433E+01  0.10999834325E+02  0.15439518096E+02  0.00000000000E+00 0.  1.
</event>
<event>
 7    1  0.5897985E-013  0.5052885E+02  0.7816164E-02  0.1300439E+00
        -11   -1    0    0    0    0  0.00000000000E+00  0.00000000000E+00  0.45593999997E+02  0.45594000000E+02  0.51100000000E-03 0.  1.
         11   -1    0    0    0    0 -0.00000000000E+00 -0.00000000000E+00 -0.45593999997E+02  0.45594000000E+02  0.51100000000E-03 0. -1.
    9900012    2    1    2    0    0  0.15347030930E+00 -0.11518571495E+02  0.38993141562E+02  0.50528854272E+02  0.29999983046E+02 0.  0.
         12    1    1    2    0    0 -0.15347030930E+00  0.11518571495E+02 -0.38993141562E+02  0.40659145728E+02  0.00000000000E+00 0. -1.
         11    1    3    3    0    0  0.52780388329E+01 -0.10121229890E+00  0.37696801740E+01  0.64867886297E+01  0.51100000000E-03 0. -1.
        -11    1    3    3    0    0 -0.54013896314E+01 -0.90312183468E+00  0.32792861830E+02  0.33246991236E+02  0.51100000000E-03 0.  1.
        -12    1    3    3    0    0  0.27682110778E+00 -0.10514237362E+02  0.24305995577E+01  0.10795074406E+02  0.00000000000E+00 0.  1.
</event>
<event>
 7    1  0.5897985E-013  0.5052886E+02  0.7816164E-02  0.1300439E+00
        -11   -1    0    0    0    0  0.00000000000E+00  0.00000000000E+00  0.45593999997E+02  0.45594000000E+02  0.51100000000E-03 0. -1.
         11   -1    0    0    0    0 -0.00000000000E+00 -0.00000000000E+00 -0.45593999997E+02  0.45594000000E+02  0.51100000000E-03 0.  1.
    9900012    2    1    2    0    0  0.19619946363E+02  0.17372179245E+02  0.31087472559E+02  0.50528857645E+02  0.29999993297E+02 0.  0.
         12    1    1    2    0    0 -0.19619946363E+02 -0.17372179245E+02 -0.31087472559E+02  0.40659142355E+02  0.00000000000E+00 0. -1.
         11    1    3    3    0    0  0.54302487248E+01  0.22754363662E+02  0.19360865462E+02  0.30365964147E+02  0.51100000000E-03 0. -1.
        -11    1    3    3    0    0  0.13302175247E+02 -0.27097488690E+01  0.94311539655E+01  0.16529890218E+02  0.51100000000E-03 0.  1.
         12    1    3    3    0    0  0.88752239123E+00 -0.26724355484E+01  0.22954531312E+01  0.36330032800E+01  0.00000000000E+00 0. -1.
</event>
<event>
 7    1  0.5897985E-013  0.5052885E+02  0.7816164E-02  0.1300439E+00
        -11   -1    0    0    0    0  0.00000000000E+00  0.00000000000E+00  0.45593999997E+02  0.45594000000E+02  0.51100000000E-03 0.  1.
         11   -1    0    0    0    0 -0.00000000000E+00 -0.00000000000E+00 -0.45593999997E+02  0.45594000000E+02  0.51100000000E-03 0. -1.
    9900012    2    1    2    0    0 -0.18449206351E+02  0.34070990858E+02  0.12327227298E+02  0.50528853847E+02  0.29999981754E+02 0.  0.
         12    1    1    2    0    0  0.18449206351E+02 -0.34070990858E+02 -0.12327227298E+02  0.40659146153E+02  0.00000000000E+00 0. -1.
         11    1    3    3    0    0  0.42601784832E+00 -0.10829106937E+01 -0.40856103283E+01  0.42481053181E+01  0.51100000000E-03 0. -1.
        -11    1    3    3    0    0 -0.17208170941E+02  0.29529566547E+02  0.19808065272E+02  0.39502859361E+02  0.51100000000E-03 0.  1.
         12    1    3    3    0    0 -0.16670532583E+01  0.56243350050E+01 -0.33952276458E+01  0.67778891685E+01  0.00000000000E+00 0. -1.
</event>
<event>
 7    1  0.5897985E-013  0.5052890E+02  0.7816164E-02  0.1300439E+00
        -11   -1    0    0    0    0  0.00000000000E+00  0.00000000000E+00  0.45593999997E+02  0.45594000000E+02  0.51100000000E-03 0.  1.
         11   -1    0    0    0    0 -0.00000000000E+00 -0.00000000000E+00 -0.45593999997E+02  0.45594000000E+02  0.51100000000E-03 0. -1.
    9900012    2    1    2    0    0  0.18291320053E+02 -0.35217094140E+02 -0.88513489434E+01  0.50528899087E+02  0.30000119264E+02 0.  0.
         12    1    1    2    0    0 -0.18291320053E+02  0.35217094140E+02  0.88513489434E+01  0.40659100913E+02  0.00000000000E+00 0. -1.
         11    1    3    3    0    0 -0.51317632911E+01 -0.72764295314E+01 -0.19234665802E+01  0.91093987259E+01  0.51100000000E-03 0. -1.
        -11    1    3    3    0    0  0.23744520822E+02 -0.28109190952E+02 -0.10155536299E+02  0.38171505116E+02  0.51100000000E-03 0.  1.
        -12    1    3    3    0    0 -0.32143747800E+00  0.16852634321E+00  0.32276539360E+01  0.32479952450E+01  0.00000000000E+00 0.  1.
</event>
<event>
 7    1  0.5897985E-013  0.5052886E+02  0.7816164E-02  0.1300439E+00
        -11   -1    0    0    0    0  0.00000000000E+00  0.00000000000E+00  0.45593999997E+02  0.45594000000E+02  0.51100000000E-03 0.  1.
         11   -1    0    0    0    0 -0.00000000000E+00 -0.00000000000E+00 -0.45593999997E+02  0.45594000000E+02  0.51100000000E-03 0. -1.
    9900012    2    1    2    0    0 -0.34371966625E+02  0.17626292299E+02  0.12690449083E+02  0.50528858742E+02  0.29999996633E+02 0.  0.
         12    1    1    2    0    0  0.34371966625E+02 -0.17626292299E+02 -0.12690449083E+02  0.40659141258E+02  0.00000000000E+00 0. -1.
         11    1    3    3    0    0 -0.69804866217E+01  0.16973750729E+02  0.40932031380E+01  0.18803981479E+02  0.51100000000E-03 0. -1.
        -11    1    3    3    0    0 -0.12064086621E+02  0.54678286307E+00  0.10847312738E+02  0.16232847914E+02  0.51100000000E-03 0.  1.
         12    1    3    3    0    0 -0.15327393382E+02  0.10575870740E+00 -0.22500667931E+01  0.15492029349E+02  0.00000000000E+00 0. -1.
</event>
<event>
 7    1  0.5897985E-013  0.5052885E+02  0.7816164E-02  0.1300439E+00
        -11   -1    0    0    0    0  0.00000000000E+00  0.00000000000E+00  0.45593999997E+02  0.45594000000E+02  0.51100000000E-03 0.  1.
         11   -1    0    0    0    0 -0.00000000000E+00 -0.00000000000E+00 -0.45593999997E+02  0.45594000000E+02  0.51100000000E-03 0. -1.
    9900012    2    1    2    0    0 -0.17900855136E+02 -0.35601234676E+02  0.80794865464E+01  0.50528848166E+02  0.29999964484E+02 0.  0.
         12    1    1    2    0    0  0.17900855136E+02  0.35601234676E+02 -0.80794865464E+01  0.40659151834E+02  0.00000000000E+00 0. -1.
         11    1    3    3    0    0 -0.68331509767E+01 -0.13548747813E+01 -0.78703320553E+01  0.10510459784E+02  0.51100000000E-03 0. -1.
        -11    1    3    3    0    0 -0.11298330130E+02 -0.27051978047E+02  0.14369821447E+02  0.32648944066E+02  0.51100000000E-03 0.  1.
        -12    1    3    3    0    0  0.23062597058E+00 -0.71943818480E+01  0.15799971552E+01  0.73694443158E+01  0.00000000000E+00 0.  1.
</event>
<event>
 7    1  0.5897985E-013  0.5052886E+02  0.7816164E-02  0.1300439E+00
        -11   -1    0    0    0    0  0.00000000000E+00  0.00000000000E+00  0.45593999997E+02  0.45594000000E+02  0.51100000000E-03 0.  1.
         11   -1    0    0    0    0 -0.00000000000E+00 -0.00000000000E+00 -0.45593999997E+02  0.45594000000E+02  0.51100000000E-03 0. -1.
    9900012    2    1    2    0    0  0.18131833582E+02 -0.23769061719E+02  0.27557828144E+02  0.50528861101E+02  0.30000003802E+02 0.  0.
         12    1    1    2    0    0 -0.18131833582E+02  0.23769061719E+02 -0.27557828144E+02  0.40659138899E+02  0.00000000000E+00 0. -1.
         11    1    3    3    0    0 -0.50049813313E+01 -0.47957501613E+01 -0.88391384541E+00  0.69878724719E+01  0.51100000000E-03 0. -1.
        -11    1    3    3    0    0  0.12527136782E+02 -0.17060094125E+02  0.23665579013E+02  0.31749576341E+02  0.51100000000E-03 0.  1.
        -12    1    3    3    0    0  0.10609678131E+02 -0.19132174320E+01  0.47761629761E+01  0.11791412288E+02  0.00000000000E+00 0.  1.
</event>
<event>
 7    1  0.5897985E-013  0.5052884E+02  0.7816164E-02  0.1300439E+00
        -11   -1    0    0    0    0  0.00000000000E+00  0.00000000000E+00  0.45593999997E+02  0.45594000000E+02  0.51100000000E-03 0. -1.
         11   -1    0    0    0    0 -0.00000000000E+00 -0.00000000000E+00 -0.45593999997E+02  0.45594000000E+02  0.51100000000E-03 0.  1.
    9900012    2    1    2    0    0 -0.10052719790E+02 -0.36310210912E+02  0.15286542352E+02  0.50528843974E+02  0.29999951743E+02 0.  0.
         12    1    1    2    0    0  0.10052719790E+02  0.36310210912E+02 -0.15286542352E+02  0.40659156026E+02  0.00000000000E+00 0. -1.
         11    1    3    3    0    0  0.80328716635E+01 -0.87043014917E+01  0.57254866157E+01  0.13155724566E+02  0.51100000000E-03 0. -1.
        -11    1    3    3    0    0 -0.16039011163E+02 -0.11646734157E+02  0.73098537999E+01  0.21126529730E+02  0.51100000000E-03 0.  1.
         12    1    3    3    0    0 -0.20465802910E+01 -0.15959175263E+02  0.22512019366E+01  0.16246589677E+02  0.00000000000E+00 0. -1.
</event>
<event>
 7    1  0.5897985E-013  0.5052886E+02  0.7816164E-02  0.1300439E+00
        -11   -1    0    0    0    0  0.00000000000E+00  0.00000000000E+00  0.45593999997E+02  0.45594000000E+02  0.51100000000E-03 0. -1.
         11   -1    0    0    0    0 -0.00000000000E+00 -0.00000000000E+00 -0.45593999997E+02  0.45594000000E+02  0.51100000000E-03 0.  1.
    9900012    2    1    2    0    0 -0.37546214561E+02  0.15336059948E+02  0.28726994540E+01  0.50528863699E+02  0.30000011699E+02 0.  0.
         12    1    1    2    0    0  0.37546214561E+02 -0.15336059948E+02 -0.28726994540E+01  0.40659136301E+02  0.00000000000E+00 0. -1.
         11    1    3    3    0    0  0.56026051191E+00 -0.73820845588E+00  0.45814067548E+01  0.46741985067E+01  0.51100000000E-03 0. -1.
        -11    1    3    3    0    0 -0.29513904522E+02  0.12789742139E+02 -0.97767223574E+01  0.33618928662E+02  0.51100000000E-03 0.  1.
        -12    1    3    3    0    0 -0.85925705514E+01  0.32845262652E+01  0.80680150565E+01  0.12235736530E+02  0.00000000000E+00 0.  1.
</event>
<event>
 7    1  0.5897985E-013  0.5052887E+02  0.7816164E-02  0.1300439E+00
        -11   -1    0    0    0    0  0.00000000000E+00  0.00000000000E+00  0.45593999997E+02  0.45594000000E+02  0.51100000000E-03 0. -1.
         11   -1    0    0    0    0 -0.00000000000E+00 -0.00000000000E+00 -0.45593999997E+02  0.45594000000E+02  0.51100000000E-03 0.  1.
    9900012    2    1    2    0    0 -0.17741062459E+02 -0.19788695885E+02 -0.30770561587E+02  0.50528865204E+02  0.30000016273E+02 0.  0.
         12    1    1    2    0    0  0.17741062459E+02  0.19788695885E+02  0.30770561587E+02  0.40659134796E+02  0.00000000000E+00 0. -1.
         11    1    3    3    0    0 -0.60045696850E+01  0.43532526338E+01 -0.11119562617E+01  0.74994741538E+01  0.51100000000E-03 0. -1.
        -11    1    3    3    0    0 -0.15246975987E+02 -0.22699906068E+02 -0.26686603922E+02  0.38209041357E+02  0.51100000000E-03 0.  1.
        -12    1    3    3    0    0  0.35104832132E+01 -0.14420424508E+01 -0.29720014034E+01  0.48203496929E+01  0.00000000000E+00 0.  1.
</event>
<event>
 7    1  0.5897985E-013  0.5052886E+02  0.7816164E-02  0.1300439E+00
        -11   -1    0    0    0    0  0.00000000000E+00  0.00000000000E+00  0.45593999997E+02  0.45594000000E+02  0.51100000000E-03 0.  1.
         11   -1    0    0    0    0 -0.00000000000E+00 -0.00000000000E+00 -0.45593999997E+02  0.45594000000E+02  0.51100000000E-03 0. -1.
    9900012    2    1    2    0    0 -0.36803692315E+02 -0.16101525232E+02 -0.62765180135E+01  0.50528861283E+02  0.30000004357E+02 0.  0.
         12    1    1    2    0    0  0.36803692315E+02  0.16101525232E+02  0.62765180135E+01  0.40659138717E+02  0.00000000000E+00 0. -1.
         11    1    3    3    0    0 -0.28339771070E+02 -0.91370527334E+01 -0.82153910494E+01  0.30888849239E+02  0.51100000000E-03 0. -1.
        -11    1    3    3    0    0 -0.10921005146E+02 -0.30965183062E+01  0.65776505254E+01  0.13119537557E+02  0.51100000000E-03 0.  1.
         12    1    3    3    0    0  0.24570839015E+01 -0.38679541923E+01 -0.46387774896E+01  0.65204744866E+01  0.00000000000E+00 0. -1.
</event>
<event>
 7    1  0.5897985E-013  0.5052886E+02  0.7816164E-02  0.1300439E+00
        -11   -1    0    0    0    0  0.00000000000E+00  0.00000000000E+00  0.45593999997E+02  0.45594000000E+02  0.51100000000E-03 0.  1.
         11   -1    0    0    0    0 -0.00000000000E+00 -0.00000000000E+00 -0.45593999997E+02  0.45594000000E+02  0.51100000000E-03 0. -1.
    9900012    2    1    2    0    0 -0.97782211933E+01  0.57298902292E+01  0.39047669531E+02  0.50528858992E+02  0.29999997391E+02 0.  0.
         12    1    1    2    0    0  0.97782211933E+01 -0.57298902292E+01 -0.39047669531E+02  0.40659141008E+02  0.00000000000E+00 0. -1.
         11    1    3    3    0    0  0.10984257028E+01  0.14585136592E+02  0.15411425469E+02  0.21247230024E+02  0.51100000000E-03 0.  1.
        -11    1    3    3    0    0 -0.32499567060E+01 -0.60188439649E+01  0.37628257307E+01  0.78068917634E+01  0.51100000000E-03 0. -1.
        -12    1    3    3    0    0 -0.76266901901E+01 -0.28364023982E+01  0.19873418331E+02  0.21474737204E+02  0.00000000000E+00 0.  1.
</event>
<event>
 7    1  0.5897985E-013  0.5052887E+02  0.7816164E-02  0.1300439E+00
        -11   -1    0    0    0    0  0.00000000000E+00  0.00000000000E+00  0.45593999997E+02  0.45594000000E+02  0.51100000000E-03 0. -1.
         11   -1    0    0    0    0 -0.00000000000E+00 -0.00000000000E+00 -0.45593999997E+02  0.45594000000E+02  0.51100000000E-03 0.  1.
    9900012    2    1    2    0    0 -0.32720486783E+02  0.23866591331E+02 -0.35945397509E+01  0.50528866302E+02  0.30000019611E+02 0.  0.
         12    1    1    2    0    0  0.32720486783E+02 -0.23866591331E+02  0.35945397509E+01  0.40659133698E+02  0.00000000000E+00 0. -1.
         11    1    3    3    0    0 -0.41584963816E+01 -0.31807350955E+01 -0.33526887605E+01  0.62169679177E+01  0.51100000000E-03 0. -1.
        -11    1    3    3    0    0 -0.17037177669E+02  0.27368123187E+02 -0.32368817702E+01  0.32399953604E+02  0.51100000000E-03 0.  1.
        -12    1    3    3    0    0 -0.11524812732E+02 -0.32079676031E+00  0.29950307798E+01  0.11911944780E+02  0.00000000000E+00 0.  1.
</event>
<event>
 7    1  0.5897985E-013  0.5052884E+02  0.7816164E-02  0.1300439E+00
        -11   -1    0    0    0    0  0.00000000000E+00  0.00000000000E+00  0.45593999997E+02  0.45594000000E+02  0.51100000000E-03 0. -1.
         11   -1    0    0    0    0 -0.00000000000E+00 -0.00000000000E+00 -0.45593999997E+02  0.45594000000E+02  0.51100000000E-03 0.  1.
    9900012    2    1    2    0    0  0.28847279330E+02  0.19526484578E+02  0.20969454211E+02  0.50528841935E+02  0.29999945544E+02 0.  0.
         12    1    1    2    0    0 -0.28847279330E+02 -0.19526484578E+02 -0.20969454211E+02  0.40659158065E+02  0.00000000000E+00 0. -1.
         11    1    3    3    0    0  0.88157776836E+01  0.14570170810E+00  0.94227825444E+01  0.12904572689E+02  0.51100000000E-03 0. -1.
        -11    1    3    3    0    0  0.97401999832E+01  0.16823424823E+02  0.16887944049E+02  0.25750762570E+02  0.51100000000E-03 0.  1.
        -12    1    3    3    0    0  0.10291301663E+02  0.25573580467E+01 -0.53412723825E+01  0.11873506675E+02  0.00000000000E+00 0.  1.
</event>
<event>
 7    1  0.6911566E-013  0.5052886E+02  0.7816164E-02  0.1300439E+00
        -11   -1    0    0    0    0  0.00000000000E+00  0.00000000000E+00  0.45593999997E+02  0.45594000000E+02  0.51100000000E-03 0. -1.
         11   -1    0    0    0    0 -0.00000000000E+00 -0.00000000000E+00 -0.45593999997E+02  0.45594000000E+02  0.51100000000E-03 0.  1.
    9900012    2    1    2    0    0  0.31659846257E+02  0.20606103364E+02 -0.15040221462E+02  0.50528860529E+02  0.30000002065E+02 0.  0.
         12    1    1    2    0    0 -0.31659846257E+02 -0.20606103364E+02  0.15040221462E+02  0.40659139471E+02  0.00000000000E+00 0. -1.
         11    1    3    3    0    0  0.12944165247E+00  0.62650948663E+01 -0.11409114332E+02  0.13016760692E+02  0.51100000000E-03 0. -1.
        -11    1    3    3    0    0  0.24892377335E+02  0.56594575019E+01 -0.62341664692E+01  0.26277837438E+02  0.51100000000E-03 0.  1.
         12    1    3    3    0    0  0.66380272694E+01  0.86815509960E+01  0.26030593390E+01  0.11234262399E+02  0.00000000000E+00 0. -1.
</event>
<event>
 7    1  0.5897985E-013  0.5052886E+02  0.7816164E-02  0.1300439E+00
        -11   -1    0    0    0    0  0.00000000000E+00  0.00000000000E+00  0.45593999997E+02  0.45594000000E+02  0.51100000000E-03 0. -1.
         11   -1    0    0    0    0 -0.00000000000E+00 -0.00000000000E+00 -0.45593999997E+02  0.45594000000E+02  0.51100000000E-03 0.  1.
    9900012    2    1    2    0    0  0.37107288448E+02 -0.33008712980E+01 -0.16288620521E+02  0.50528858768E+02  0.29999996711E+02 0.  0.
         12    1    1    2    0    0 -0.37107288448E+02  0.33008712980E+01  0.16288620521E+02  0.40659141232E+02  0.00000000000E+00 0. -1.
         11    1    3    3    0    0 -0.13635941471E+01  0.13988556382E+01 -0.96603360903E+01  0.98558753915E+01  0.51100000000E-03 0. -1.
        -11    1    3    3    0    0  0.39130223651E+02 -0.46331030096E+01 -0.68056517545E+01  0.39986959656E+02  0.51100000000E-03 0.  1.
        -12    1    3    3    0    0 -0.65934105673E+00 -0.66623926675E-01  0.17736732409E+00  0.68602371996E+00  0.00000000000E+00 0.  1.
</event>
<event>
 7    1  0.5897985E-013  0.5052885E+02  0.7816164E-02  0.1300439E+00
        -11   -1    0    0    0    0  0.00000000000E+00  0.00000000000E+00  0.45593999997E+02  0.45594000000E+02  0.51100000000E-03 0.  1.
         11   -1    0    0    0    0 -0.00000000000E+00 -0.00000000000E+00 -0.45593999997E+02  0.45594000000E+02  0.51100000000E-03 0. -1.
    9900012    2    1    2    0    0  0.22614984246E+02 -0.25744187937E+02  0.21885286773E+02  0.50528849712E+02  0.29999969185E+02 0.  0.
         12    1    1    2    0    0 -0.22614984246E+02  0.25744187937E+02 -0.21885286773E+02  0.40659150288E+02  0.00000000000E+00 0. -1.
         11    1    3    3    0    0  0.66785473442E+01 -0.12508455761E+02  0.20069867008E+02  0.24573644869E+02  0.51100000000E-03 0. -1.
        -11    1    3    3    0    0  0.14581530529E+02 -0.14107354957E+02  0.62559366952E+01  0.21231468170E+02  0.51100000000E-03 0.  1.
         12    1    3    3    0    0  0.13549063724E+01  0.87162278190E+00 -0.44405169300E+01  0.47237366731E+01  0.00000000000E+00 0. -1.
</event>
<event>
 7    1  0.5897985E-013  0.5052887E+02  0.7816164E-02  0.1300439E+00
        -11   -1    0    0    0    0  0.00000000000E+00  0.00000000000E+00  0.45593999997E+02  0.45594000000E+02  0.51100000000E-03 0. -1.
         11   -1    0    0    0    0 -0.00000000000E+00 -0.00000000000E+00 -0.45593999997E+02  0.45594000000E+02  0.51100000000E-03 0.  1.
    9900012    2    1    2    0    0  0.37412511605E+02  0.15627613349E+02 -0.30407443217E+01  0.50528874953E+02  0.30000045906E+02 0.  0.
         12    1    1    2    0    0 -0.37412511605E+02 -0.15627613349E+02  0.30407443217E+01  0.40659125047E+02  0.00000000000E+00 0. -1.
         11    1    3    3    0    0  0.12568415222E+02  0.18254078554E+02  0.32345893573E+01  0.22397299248E+02  0.51100000000E-03 0. -1.
        -11    1    3    3    0    0  0.16373476335E+02 -0.49014449136E+01  0.42127988094E+00  0.17096560079E+02  0.51100000000E-03 0.  1.
         12    1    3    3    0    0  0.84706200483E+01  0.22749797081E+01 -0.66966135600E+01  0.11035015625E+02  0.00000000000E+00 0. -1.
</event>
<event>
 7    1  0.5897985E-013  0.5052887E+02  0.7816164E-02  0.1300439E+00
        -11   -1    0    0    0    0  0.00000000000E+00  0.00000000000E+00  0.45593999997E+02  0.45594000000E+02  0.51100000000E-03 0.  1.
         11   -1    0    0    0    0 -0.00000000000E+00 -0.00000000000E+00 -0.45593999997E+02  0.45594000000E+02  0.51100000000E-03 0. -1.
    9900012    2    1    2    0    0  0.22705752344E+02  0.49793302233E+00  0.33724858239E+02  0.50528865847E+02  0.30000018229E+02 0.  0.
         12    1    1    2    0    0 -0.22705752344E+02 -0.49793302233E+00 -0.33724858239E+02  0.40659134153E+02  0.00000000000E+00 0. -1.
         11    1    3    3    0    0 -0.34698508239E+01  0.54142652921E+01 -0.20799028975E+00  0.64340806348E+01  0.51100000000E-03 0. -1.
        -11    1    3    3    0    0  0.22913109229E+02 -0.55113075413E+01  0.33174043543E+02  0.40692778851E+02  0.51100000000E-03 0.  1.
        -12    1    3    3    0    0  0.32624939389E+01  0.59497527162E+00  0.75880498524E+00  0.34020063611E+01  0.00000000000E+00 0.  1.
</event>
<event>
 7    1  0.5897985E-013  0.5052885E+02  0.7816164E-02  0.1300439E+00
        -11   -1    0    0    0    0  0.00000000000E+00  0.00000000000E+00  0.45593999997E+02  0.45594000000E+02  0.51100000000E-03 0. -1.
         11   -1    0    0    0    0 -0.00000000000E+00 -0.00000000000E+00 -0.45593999997E+02  0.45594000000E+02  0.51100000000E-03 0.  1.
    9900012    2    1    2    0    0  0.18616653537E+02  0.12682764371E+02 -0.33848690516E+02  0.50528854034E+02  0.29999982323E+02 0.  0.
         12    1    1    2    0    0 -0.18616653537E+02 -0.12682764371E+02  0.33848690516E+02  0.40659145966E+02  0.00000000000E+00 0. -1.
         11    1    3    3    0    0  0.16487535325E+02 -0.19922711482E+01 -0.18940797767E+02  0.25190509835E+02  0.51100000000E-03 0. -1.
        -11    1    3    3    0    0  0.15813412386E+00  0.16931969276E+02 -0.10230009400E+02  0.19783065550E+02  0.51100000000E-03 0.  1.
        -12    1    3    3    0    0  0.19709840879E+01 -0.22569337561E+01 -0.46778833484E+01  0.55552786497E+01  0.00000000000E+00 0.  1.
</event>
<event>
 7    1  0.5897985E-013  0.5052885E+02  0.7816164E-02  0.1300439E+00
        -11   -1    0    0    0    0  0.00000000000E+00  0.00000000000E+00  0.45593999997E+02  0.45594000000E+02  0.51100000000E-03 0. -1.
         11   -1    0    0    0    0 -0.00000000000E+00 -0.00000000000E+00 -0.45593999997E+02  0.45594000000E+02  0.51100000000E-03 0.  1.
    9900012    2    1    2    0    0  0.17153610502E+02 -0.36708368726E+02 -0.33787360317E+01  0.50528849185E+02  0.29999967584E+02 0.  0.
         12    1    1    2    0    0 -0.17153610502E+02  0.36708368726E+02  0.33787360317E+01  0.40659150815E+02  0.00000000000E+00 0. -1.
         11    1    3    3    0    0 -0.54249993315E+01 -0.82405760807E+01  0.16562407102E+01  0.10004041455E+02  0.51100000000E-03 0. -1.
        -11    1    3    3    0    0  0.11253950520E+02 -0.78507669119E+01 -0.93571230126E+01  0.16608482614E+02  0.51100000000E-03 0.  1.
        -12    1    3    3    0    0  0.11324659314E+02 -0.20617025734E+02  0.43221462708E+01  0.23916325116E+02  0.00000000000E+00 0.  1.
</event>
<event>
 7    1  0.5897985E-013  0.5052886E+02  0.7816164E-02  0.1300439E+00
        -11   -1    0    0    0    0  0.00000000000E+00  0.00000000000E+00  0.45593999997E+02  0.45594000000E+02  0.51100000000E-03 0.  1.
         11   -1    0    0    0    0 -0.00000000000E+00 -0.00000000000E+00 -0.45593999997E+02  0.45594000000E+02  0.51100000000E-03 0. -1.
    9900012    2    1    2    0    0  0.10746919413E+02  0.70945017986E+01  0.38566016316E+02  0.50528857767E+02  0.29999993667E+02 0.  0.
         12    1    1    2    0    0 -0.10746919413E+02 -0.70945017986E+01 -0.38566016316E+02  0.40659142233E+02  0.00000000000E+00 0. -1.
         11    1    3    3    0    0  0.90135024453E+01 -0.46367897405E+01  0.25697504244E+01  0.10456895473E+02  0.51100000000E-03 0. -1.
        -11    1    3    3    0    0  0.69053337649E+01  0.80059801518E+01  0.27410974910E+02  0.29379259664E+02  0.51100000000E-03 0.  1.
         12    1    3    3    0    0 -0.51719167969E+01  0.37253113873E+01  0.85852909817E+01  0.10692702630E+02  0.00000000000E+00 0. -1.
</event>
<event>
 7    1  0.5897985E-013  0.5052885E+02  0.7816164E-02  0.1300439E+00
        -11   -1    0    0    0    0  0.00000000000E+00  0.00000000000E+00  0.45593999997E+02  0.45594000000E+02  0.51100000000E-03 0.  1.
         11   -1    0    0    0    0 -0.00000000000E+00 -0.00000000000E+00 -0.45593999997E+02  0.45594000000E+02  0.51100000000E-03 0. -1.
    9900012    2    1    2    0    0 -0.40388154803E+02 -0.22469759351E+01  0.41127037481E+01  0.50528852427E+02  0.29999977439E+02 0.  0.
         12    1    1    2    0    0  0.40388154803E+02  0.22469759351E+01 -0.41127037481E+01  0.40659147573E+02  0.00000000000E+00 0. -1.
         11    1    3    3    0    0 -0.15927636553E+02 -0.86410280598E+01  0.62910673649E+01  0.19181618831E+02  0.51100000000E-03 0. -1.
        -11    1    3    3    0    0 -0.17896961025E+02  0.95569106701E+01  0.52345923415E+01  0.20953202923E+02  0.51100000000E-03 0.  1.
         12    1    3    3    0    0 -0.65635572242E+01 -0.31628585454E+01 -0.74129559583E+01  0.10394030674E+02  0.00000000000E+00 0. -1.
</event>
<event>
 7    1  0.5897985E-013  0.5052886E+02  0.7816164E-02  0.1300439E+00
        -11   -1    0    0    0    0  0.00000000000E+00  0.00000000000E+00  0.45593999997E+02  0.45594000000E+02  0.51100000000E-03 0.  1.
         11   -1    0    0    0    0 -0.00000000000E+00 -0.00000000000E+00 -0.45593999997E+02  0.45594000000E+02  0.51100000000E-03 0. -1.
    9900012    2    1    2    0    0  0.23500822321E+02 -0.46859656999E+01  0.32846904359E+02  0.50528855269E+02  0.29999986075E+02 0.  0.
         12    1    1    2    0    0 -0.23500822321E+02  0.46859656999E+01 -0.32846904359E+02  0.40659144731E+02  0.00000000000E+00 0. -1.
         11    1    3    3    0    0  0.22313493014E+02  0.43564952248E+01  0.89614325555E+01  0.24437231734E+02  0.51100000000E-03 0. -1.
        -11    1    3    3    0    0  0.25673634370E+01 -0.18279370400E+01  0.68707116898E+01  0.75590600094E+01  0.51100000000E-03 0.  1.
         12    1    3    3    0    0 -0.13800341296E+01 -0.72145238846E+01  0.17014760114E+02  0.18532563525E+02  0.00000000000E+00 0. -1.
</event>
<event>
 7    1  0.5897985E-013  0.5052887E+02  0.7816164E-02  0.1300439E+00
        -11   -1    0    0    0    0  0.00000000000E+00  0.00000000000E+00  0.45593999997E+02  0.45594000000E+02  0.51100000000E-03 0.  1.
         11   -1    0    0    0    0 -0.00000000000E+00 -0.00000000000E+00 -0.45593999997E+02  0.45594000000E+02  0.51100000000E-03 0. -1.
    9900012    2    1    2    0    0 -0.12806992228E+00 -0.16006874287E+02  0.37375509186E+02  0.50528866792E+02  0.30000021100E+02 0.  0.
         12    1    1    2    0    0  0.12806992228E+00  0.16006874287E+02 -0.37375509186E+02  0.40659133208E+02  0.00000000000E+00 0. -1.
         11    1    3    3    0    0 -0.54815624423E+01 -0.21021170049E+02  0.30448108603E+02  0.37403535057E+02  0.51100000000E-03 0. -1.
        -11    1    3    3    0    0  0.64672270339E+01  0.77101906522E+00  0.27574191950E+01  0.70726838459E+01  0.51100000000E-03 0.  1.
         12    1    3    3    0    0 -0.11137345138E+01  0.42432766963E+01  0.41699813882E+01  0.60526478888E+01  0.00000000000E+00 0. -1.
</event>
<event>
 7    1  0.5897985E-013  0.5052886E+02  0.7816164E-02  0.1300439E+00
        -11   -1    0    0    0    0  0.00000000000E+00  0.00000000000E+00  0.45593999997E+02  0.45594000000E+02  0.51100000000E-03 0.  1.
         11   -1    0    0    0    0 -0.00000000000E+00 -0.00000000000E+00 -0.45593999997E+02  0.45594000000E+02  0.51100000000E-03 0. -1.
    9900012    2    1    2    0    0 -0.25269208631E+02 -0.31341150686E+02  0.56890148148E+01  0.50528861781E+02  0.30000005869E+02 0.  0.
         12    1    1    2    0    0  0.25269208631E+02  0.31341150686E+02 -0.56890148148E+01  0.40659138219E+02  0.00000000000E+00 0. -1.
         11    1    3    3    0    0 -0.54981402194E+01 -0.27369004521E+01 -0.10355901210E+02  0.12040135385E+02  0.51100000000E-03 0. -1.
        -11    1    3    3    0    0 -0.76421150132E+01 -0.80579640538E+01  0.44911859498E+01  0.11979292887E+02  0.51100000000E-03 0.  1.
         12    1    3    3    0    0 -0.12128953398E+02 -0.20546286180E+02  0.11553730075E+02  0.26509433509E+02  0.00000000000E+00 0. -1.
</event>
<event>
 7    1  0.5897985E-013  0.5052886E+02  0.7816164E-02  0.1300439E+00
        -11   -1    0    0    0    0  0.00000000000E+00  0.00000000000E+00  0.45593999997E+02  0.45594000000E+02  0.51100000000E-03 0.  1.
         11   -1    0    0    0    0 -0.00000000000E+00 -0.00000000000E+00 -0.45593999997E+02  0.45594000000E+02  0.51100000000E-03 0. -1.
    9900012    2    1    2    0    0  0.36701118336E+02 -0.16714962398E+02  0.51772492052E+01  0.50528856324E+02  0.29999989284E+02 0.  0.
         12    1    1    2    0    0 -0.36701118336E+02  0.16714962398E+02 -0.51772492052E+01  0.40659143676E+02  0.00000000000E+00 0. -1.
         11    1    3    3    0    0  0.14383882139E+01 -0.92555078332E+01  0.24978684010E+01  0.96939534099E+01  0.51100000000E-03 0. -1.
        -11    1    3    3    0    0  0.33441869346E+02 -0.24560853280E+01 -0.22119306553E+01  0.33604815399E+02  0.51100000000E-03 0.  1.
        -12    1    3    3    0    0  0.18208607760E+01 -0.50033692373E+01  0.48913114595E+01  0.72300875157E+01  0.00000000000E+00 0.  1.
</event>
<event>
 7    1  0.5897985E-013  0.5052886E+02  0.7816164E-02  0.1300439E+00
        -11   -1    0    0    0    0  0.00000000000E+00  0.00000000000E+00  0.45593999997E+02  0.45594000000E+02  0.51100000000E-03 0.  1.
         11   -1    0    0    0    0 -0.00000000000E+00 -0.00000000000E+00 -0.45593999997E+02  0.45594000000E+02  0.51100000000E-03 0. -1.
    9900012    2    1    2    0    0  0.24222398535E+02 -0.12375382960E+02  0.30220708597E+02  0.50528856842E+02  0.29999990858E+02 0.  0.
         12    1    1    2    0    0 -0.24222398535E+02  0.12375382960E+02 -0.30220708597E+02  0.40659143158E+02  0.00000000000E+00 0. -1.
         11    1    3    3    0    0 -0.13026439424E+01  0.33444024250E+01  0.81094586675E+00  0.36796117024E+01  0.51100000000E-03 0. -1.
        -11    1    3    3    0    0  0.22799192155E+02 -0.11276899697E+02  0.32122233379E+02  0.40973277965E+02  0.51100000000E-03 0.  1.
        -12    1    3    3    0    0  0.27258503219E+01 -0.44428856885E+01 -0.27124706485E+01  0.58759671746E+01  0.00000000000E+00 0.  1.
</event>
<event>
 7    1  0.5897985E-013  0.5052889E+02  0.7816164E-02  0.1300439E+00
        -11   -1    0    0    0    0  0.00000000000E+00  0.00000000000E+00  0.45593999997E+02  0.45594000000E+02  0.51100000000E-03 0.  1.
         11   -1    0    0    0    0 -0.00000000000E+00 -0.00000000000E+00 -0.45593999997E+02  0.45594000000E+02  0.51100000000E-03 0. -1.
    9900012    2    1    2    0    0 -0.23062174358E+02 -0.33129375387E+02 -0.48727675097E+01  0.50528889547E+02  0.30000090267E+02 0.  0.
         12    1    1    2    0    0  0.23062174358E+02  0.33129375387E+02  0.48727675097E+01  0.40659110453E+02  0.00000000000E+00 0. -1.
         11    1    3    3    0    0 -0.18721806578E+02 -0.11729746781E+02 -0.43841296027E+01  0.22523623015E+02  0.51100000000E-03 0. -1.
        -11    1    3    3    0    0 -0.46811932371E+01 -0.24456949863E+02 -0.79635978571E+00  0.24913654005E+02  0.51100000000E-03 0.  1.
        -12    1    3    3    0    0  0.34082545784E+00  0.30573212570E+01  0.30772187869E+00  0.30916125268E+01  0.00000000000E+00 0.  1.
</event>
<event>
 7    1  0.5897985E-013  0.5052885E+02  0.7816164E-02  0.1300439E+00
        -11   -1    0    0    0    0  0.00000000000E+00  0.00000000000E+00  0.45593999997E+02  0.45594000000E+02  0.51100000000E-03 0. -1.
         11   -1    0    0    0    0 -0.00000000000E+00 -0.00000000000E+00 -0.45593999997E+02  0.45594000000E+02  0.51100000000E-03 0.  1.
    9900012    2    1    2    0    0 -0.10636197182E+02 -0.97980532276E+01 -0.38000474890E+02  0.50528848147E+02  0.29999964426E+02 0.  0.
         12    1    1    2    0    0  0.10636197182E+02  0.97980532276E+01  0.38000474890E+02  0.40659151853E+02  0.00000000000E+00 0. -1.
         11    1    3    3    0    0  0.23810485587E+01 -0.12654383339E+02 -0.45617852467E+01  0.13660625711E+02  0.51100000000E-03 0. -1.
        -11    1    3    3    0    0 -0.61012213833E+01  0.22163604522E+01 -0.70608574582E+01  0.95912910668E+01  0.51100000000E-03 0.  1.
         12    1    3    3    0    0 -0.69160243573E+01  0.63996965902E+00 -0.26377832186E+02  0.27276931369E+02  0.00000000000E+00 0. -1.
</event>
<event>
 7    1  0.5897985E-013  0.5052886E+02  0.7816164E-02  0.1300439E+00
        -11   -1    0    0    0    0  0.00000000000E+00  0.00000000000E+00  0.45593999997E+02  0.45594000000E+02  0.51100000000E-03 0. -1.
         11   -1    0    0    0    0 -0.00000000000E+00 -0.00000000000E+00 -0.45593999997E+02  0.45594000000E+02  0.51100000000E-03 0.  1.
    9900012    2    1    2    0    0 -0.37922903968E+02  0.13181890567E+02  0.64231384641E+01  0.50528860904E+02  0.30000003203E+02 0.  0.
         12    1    1    2    0    0  0.37922903968E+02 -0.13181890567E+02 -0.64231384641E+01  0.40659139096E+02  0.00000000000E+00 0. -1.
         11    1    3    3    0    0  0.31938375843E+01 -0.29746785577E+01  0.86265891703E+00  0.44489877168E+01  0.51100000000E-03 0. -1.
        -11    1    3    3    0    0 -0.20909972742E+02  0.32155660123E+01  0.62971698004E+01  0.22073087065E+02  0.51100000000E-03 0.  1.
         12    1    3    3    0    0 -0.20206768811E+02  0.12941003113E+02 -0.73669025331E+00  0.24006786121E+02  0.00000000000E+00 0. -1.
</event>
<event>
 7    1  0.5897985E-013  0.5052886E+02  0.7816164E-02  0.1300439E+00
        -11   -1    0    0    0    0  0.00000000000E+00  0.00000000000E+00  0.45593999997E+02  0.45594000000E+02  0.51100000000E-03 0.  1.
         11   -1    0    0    0    0 -0.00000000000E+00 -0.00000000000E+00 -0.45593999997E+02  0.45594000000E+02  0.51100000000E-03 0. -1.
    9900012    2    1    2    0    0 -0.32296499648E+02  0.13817795371E+02  0.20473641866E+02  0.50528863638E+02  0.30000011515E+02 0.  0.
         12    1    1    2    0    0  0.32296499648E+02 -0.13817795371E+02 -0.20473641866E+02  0.40659136362E+02  0.00000000000E+00 0. -1.
         11    1    3    3    0    0 -0.24143585736E+02  0.21709411397E+02  0.18511111928E+02  0.37374758066E+02  0.51100000000E-03 0. -1.
        -11    1    3    3    0    0 -0.79025663354E+01 -0.38754437688E+01  0.23543020791E+01  0.91111117670E+01  0.51100000000E-03 0.  1.
         12    1    3    3    0    0 -0.25034757623E+00 -0.40161722564E+01 -0.39177214104E+00  0.40429938057E+01  0.00000000000E+00 0. -1.
</event>
<event>
 7    1  0.5897985E-013  0.5052886E+02  0.7816164E-02  0.1300439E+00
        -11   -1    0    0    0    0  0.00000000000E+00  0.00000000000E+00  0.45593999997E+02  0.45594000000E+02  0.51100000000E-03 0. -1.
         11   -1    0    0    0    0 -0.00000000000E+00 -0.00000000000E+00 -0.45593999997E+02  0.45594000000E+02  0.51100000000E-03 0.  1.
    9900012    2    1    2    0    0 -0.65996137214E+00  0.40609705073E+02  0.18926114470E+01  0.50528859905E+02  0.30000000168E+02 0.  0.
         12    1    1    2    0    0  0.65996137214E+00 -0.40609705073E+02 -0.18926114470E+01  0.40659140095E+02  0.00000000000E+00 0. -1.
         11    1    3    3    0    0  0.17514410507E+01  0.22970366636E+01 -0.27043294014E+01  0.39569332772E+01  0.51100000000E-03 0. -1.
        -11    1    3    3    0    0 -0.11930430018E+02  0.31368287544E+02 -0.89415366284E+00  0.33572371601E+02  0.51100000000E-03 0.  1.
        -12    1    3    3    0    0  0.95190275955E+01  0.69443808655E+01  0.54910945113E+01  0.12999555027E+02  0.00000000000E+00 0.  1.
</event>
<event>
 7    1  0.5897985E-013  0.5052886E+02  0.7816164E-02  0.1300439E+00
        -11   -1    0    0    0    0  0.00000000000E+00  0.00000000000E+00  0.45593999997E+02  0.45594000000E+02  0.51100000000E-03 0. -1.
         11   -1    0    0    0    0 -0.00000000000E+00 -0.00000000000E+00 -0.45593999997E+02  0.45594000000E+02  0.51100000000E-03 0.  1.
    9900012    2    1    2    0    0 -0.16059013709E+01  0.40253635248E+02 -0.54983035224E+01  0.50528863123E+02  0.30000009950E+02 0.  0.
         12    1    1    2    0    0  0.16059013709E+01 -0.40253635248E+02  0.54983035224E+01  0.40659136877E+02  0.00000000000E+00 0. -1.
         11    1    3    3    0    0 -0.12983520733E+00 -0.12718056816E+01  0.17300055802E+01  0.21511081892E+01  0.51100000000E-03 0. -1.
        -11    1    3    3    0    0  0.35568375116E+01  0.30262637218E+02 -0.14829349759E+02  0.33887872743E+02  0.51100000000E-03 0.  1.
        -12    1    3    3    0    0 -0.50329036752E+01  0.11262803712E+02  0.76010406568E+01  0.14489882191E+02  0.00000000000E+00 0.  1.
</event>
<event>
 7    1  0.5897985E-013  0.5052886E+02  0.7816164E-02  0.1300439E+00
        -11   -1    0    0    0    0  0.00000000000E+00  0.00000000000E+00  0.45593999997E+02  0.45594000000E+02  0.51100000000E-03 0.  1.
         11   -1    0    0    0    0 -0.00000000000E+00 -0.00000000000E+00 -0.45593999997E+02  0.45594000000E+02  0.51100000000E-03 0. -1.
    9900012    2    1    2    0    0 -0.15625630854E+02 -0.93946403844E+01  0.36342066227E+02  0.50528863447E+02  0.30000010935E+02 0.  0.
         12    1    1    2    0    0  0.15625630854E+02  0.93946403844E+01 -0.36342066227E+02  0.40659136553E+02  0.00000000000E+00 0. -1.
         11    1    3    3    0    0 -0.40642409843E+01 -0.24590591072E+01 -0.49759753742E+01  0.68793428216E+01  0.51100000000E-03 0. -1.
        -11    1    3    3    0    0 -0.65713362694E+01 -0.50577711959E+01  0.19509115490E+02  0.21198327701E+02  0.51100000000E-03 0.  1.
         12    1    3    3    0    0 -0.49900536001E+01 -0.18778100813E+01  0.21808926111E+02  0.22451192925E+02  0.00000000000E+00 0. -1.
</event>
<event>
 7    1  0.5897985E-013  0.5052886E+02  0.7816164E-02  0.1300439E+00
        -11   -1    0    0    0    0  0.00000000000E+00  0.00000000000E+00  0.45593999997E+02  0.45594000000E+02  0.51100000000E-03 0.  1.
         11   -1    0    0    0    0 -0.00000000000E+00 -0.00000000000E+00 -0.45593999997E+02  0.45594000000E+02  0.51100000000E-03 0. -1.
    9900012    2    1    2    0    0 -0.24045330786E+02  0.30955691399E+02  0.10804296890E+02  0.50528860881E+02  0.30000003133E+02 0.  0.
         12    1    1    2    0    0  0.24045330786E+02 -0.30955691399E+02 -0.10804296890E+02  0.40659139119E+02  0.00000000000E+00 0. -1.
         11    1    3    3    0    0 -0.10561758906E+02 -0.20762573627E-01 -0.59532384202E+01  0.12124035229E+02  0.51100000000E-03 0. -1.
        -11    1    3    3    0    0 -0.54071430078E+00  0.80877580235E+01  0.24412488697E+01  0.84654532134E+01  0.51100000000E-03 0.  1.
         12    1    3    3    0    0 -0.12942857579E+02  0.22888695949E+02  0.14316286440E+02  0.29939372439E+02  0.00000000000E+00 0. -1.
</event>
<event>
 7    1  0.5897985E-013  0.5052888E+02  0.7816164E-02  0.1300439E+00
        -11   -1    0    0    0    0  0.00000000000E+00  0.00000000000E+00  0.45593999997E+02  0.45594000000E+02  0.51100000000E-03 0.  1.
         11   -1    0    0    0    0 -0.00000000000E+00 -0.00000000000E+00 -0.45593999997E+02  0.45594000000E+02  0.51100000000E-03 0. -1.
    9900012    2    1    2    0    0 -0.37253363933E+02  0.67398901186E+01  0.14829867716E+02  0.50528877781E+02  0.30000054503E+02 0.  0.
         12    1    1    2    0    0  0.37253363933E+02 -0.67398901186E+01 -0.14829867716E+02  0.40659122219E+02  0.00000000000E+00 0. -1.
         11    1    3    3    0    0 -0.97416842152E+01 -0.84606693576E+01 -0.26096868326E+01  0.13164110412E+02  0.51100000000E-03 0. -1.
        -11    1    3    3    0    0 -0.96309159471E+01  0.10997947785E+02  0.66288881188E+01  0.16051528133E+02  0.51100000000E-03 0.  1.
         12    1    3    3    0    0 -0.17880763771E+02  0.42026116915E+01  0.10810666429E+02  0.21313239236E+02  0.00000000000E+00 0. -1.
</event>
<event>
 7    1  0.5897985E-013  0.5052886E+02  0.7816164E-02  0.1300439E+00
        -11   -1    0    0    0    0  0.00000000000E+00  0.00000000000E+00  0.45593999997E+02  0.45594000000E+02  0.51100000000E-03 0.  1.
         11   -1    0    0    0    0 -0.00000000000E+00 -0.00000000000E+00 -0.45593999997E+02  0.45594000000E+02  0.51100000000E-03 0. -1.
    9900012    2    1    2    0    0 -0.23959933765E+02  0.28210488787E+02  0.16830191756E+02  0.50528862550E+02  0.30000008207E+02 0.  0.
         12    1    1    2    0    0  0.23959933765E+02 -0.28210488787E+02 -0.16830191756E+02  0.40659137450E+02  0.00000000000E+00 0. -1.
         11    1    3    3    0    0 -0.11756437370E+02 -0.18259182295E+01 -0.15507525713E+01  0.11998026122E+02  0.51100000000E-03 0. -1.
        -11    1    3    3    0    0 -0.89150781565E+01  0.13522883645E+02  0.47848025327E+01  0.16889089263E+02  0.51100000000E-03 0.  1.
         12    1    3    3    0    0 -0.32884182385E+01  0.16513523371E+02  0.13596141795E+02  0.21641747165E+02  0.00000000000E+00 0. -1.
</event>
<event>
 7    1  0.5897985E-013  0.5052886E+02  0.7816164E-02  0.1300439E+00
        -11   -1    0    0    0    0  0.00000000000E+00  0.00000000000E+00  0.45593999997E+02  0.45594000000E+02  0.51100000000E-03 0.  1.
         11   -1    0    0    0    0 -0.00000000000E+00 -0.00000000000E+00 -0.45593999997E+02  0.45594000000E+02  0.51100000000E-03 0. -1.
    9900012    2    1    2    0    0 -0.40354410669E+02  0.40480423679E+01 -0.28810021795E+01  0.50528864729E+02  0.30000014829E+02 0.  0.
         12    1    1    2    0    0  0.40354410669E+02 -0.40480423679E+01  0.28810021795E+01  0.40659135271E+02  0.00000000000E+00 0. -1.
         11    1    3    3    0    0 -0.33654197863E+02  0.24047565123E+01 -0.13245873826E+02  0.36246945545E+02  0.51100000000E-03 0. -1.
        -11    1    3    3    0    0 -0.29609487660E+01 -0.27228974352E+01  0.35379735728E+01  0.53571116565E+01  0.51100000000E-03 0.  1.
         12    1    3    3    0    0 -0.37392640398E+01  0.43661832908E+01  0.68268980733E+01  0.89248075268E+01  0.00000000000E+00 0. -1.
</event>
<event>
 7    1  0.5897985E-013  0.5052885E+02  0.7816164E-02  0.1300439E+00
        -11   -1    0    0    0    0  0.00000000000E+00  0.00000000000E+00  0.45593999997E+02  0.45594000000E+02  0.51100000000E-03 0. -1.
         11   -1    0    0    0    0 -0.00000000000E+00 -0.00000000000E+00 -0.45593999997E+02  0.45594000000E+02  0.51100000000E-03 0.  1.
    9900012    2    1    2    0    0 -0.15678416501E+02  0.35512543659E+02  0.12091851401E+02  0.50528851319E+02  0.29999974070E+02 0.  0.
         12    1    1    2    0    0  0.15678416501E+02 -0.35512543659E+02 -0.12091851401E+02  0.40659148681E+02  0.00000000000E+00 0. -1.
         11    1    3    3    0    0 -0.18800991931E+02  0.94897789677E+01  0.10916927783E+02  0.23721562236E+02  0.51100000000E-03 0.  1.
        -11    1    3    3    0    0 -0.30918855535E+00  0.16945443720E+02  0.20100991334E+01  0.17067048931E+02  0.51100000000E-03 0. -1.
        -12    1    3    3    0    0  0.34317639854E+01  0.90773209717E+01 -0.83517551602E+00  0.97402401520E+01  0.00000000000E+00 0.  1.
</event>
<event>
 7    1  0.5897985E-013  0.5052886E+02  0.7816164E-02  0.1300439E+00
        -11   -1    0    0    0    0  0.00000000000E+00  0.00000000000E+00  0.45593999997E+02  0.45594000000E+02  0.51100000000E-03 0.  1.
         11   -1    0    0    0    0 -0.00000000000E+00 -0.00000000000E+00 -0.45593999997E+02  0.45594000000E+02  0.51100000000E-03 0. -1.
    9900012    2    1    2    0    0 -0.28757654121E+02  0.13230072997E+02  0.25517214546E+02  0.50528859081E+02  0.29999997664E+02 0.  0.
         12    1    1    2    0    0  0.28757654121E+02 -0.13230072997E+02 -0.25517214546E+02  0.40659140919E+02  0.00000000000E+00 0. -1.
         11    1    3    3    0    0  0.12707021398E+01  0.11115705155E+01 -0.34517045080E+01  0.38424649914E+01  0.51100000000E-03 0. -1.
        -11    1    3    3    0    0 -0.26049236949E+02  0.56660605847E+01  0.28598590519E+02  0.39096628603E+02  0.51100000000E-03 0.  1.
        -12    1    3    3    0    0 -0.39791193121E+01  0.64524418964E+01  0.37032853482E+00  0.75897654872E+01  0.00000000000E+00 0.  1.
</event>
<event>
 7    1  0.5897985E-013  0.5052888E+02  0.7816164E-02  0.1300439E+00
        -11   -1    0    0    0    0  0.00000000000E+00  0.00000000000E+00  0.45593999997E+02  0.45594000000E+02  0.51100000000E-03 0.  1.
         11   -1    0    0    0    0 -0.00000000000E+00 -0.00000000000E+00 -0.45593999997E+02  0.45594000000E+02  0.51100000000E-03 0. -1.
    9900012    2    1    2    0    0  0.17840855597E+02  0.19698380162E+02  0.30770791851E+02  0.50528881212E+02  0.30000064933E+02 0.  0.
         12    1    1    2    0    0 -0.17840855597E+02 -0.19698380162E+02 -0.30770791851E+02  0.40659118788E+02  0.00000000000E+00 0. -1.
         11    1    3    3    0    0 -0.47781545970E+01 -0.35496106005E+01  0.22030501818E+01  0.63469620396E+01  0.51100000000E-03 0. -1.
        -11    1    3    3    0    0  0.57244042644E+01  0.66842616681E+01  0.13554431141E+02  0.16160778510E+02  0.51100000000E-03 0.  1.
         12    1    3    3    0    0  0.16894605930E+02  0.16563729095E+02  0.15013310528E+02  0.28021140663E+02  0.00000000000E+00 0. -1.
</event>
<event>
 7    1  0.5897985E-013  0.5052886E+02  0.7816164E-02  0.1300439E+00
        -11   -1    0    0    0    0  0.00000000000E+00  0.00000000000E+00  0.45593999997E+02  0.45594000000E+02  0.51100000000E-03 0. -1.
         11   -1    0    0    0    0 -0.00000000000E+00 -0.00000000000E+00 -0.45593999997E+02  0.45594000000E+02  0.51100000000E-03 0.  1.
    9900012    2    1    2    0    0  0.47551069195E+01 -0.14040165709E+02 -0.37860648672E+02  0.50528855729E+02  0.29999987474E+02 0.  0.
         12    1    1    2    0    0 -0.47551069195E+01  0.14040165709E+02  0.37860648672E+02  0.40659144271E+02  0.00000000000E+00 0. -1.
         11    1    3    3    0    0 -0.32344456740E+01 -0.38342677243E+01 -0.25761923896E+01  0.56391502276E+01  0.51100000000E-03 0. -1.
        -11    1    3    3    0    0  0.14784682185E+02 -0.42273578911E+01 -0.31551708563E+02  0.35099397367E+02  0.51100000000E-03 0.  1.
        -12    1    3    3    0    0 -0.67951295914E+01 -0.59785400939E+01 -0.37327477196E+01  0.97903081339E+01  0.00000000000E+00 0.  1.
</event>
<event>
 7    1  0.5897985E-013  0.5052886E+02  0.7816164E-02  0.1300439E+00
        -11   -1    0    0    0    0  0.00000000000E+00  0.00000000000E+00  0.45593999997E+02  0.45594000000E+02  0.51100000000E-03 0. -1.
         11   -1    0    0    0    0 -0.00000000000E+00 -0.00000000000E+00 -0.45593999997E+02  0.45594000000E+02  0.51100000000E-03 0.  1.
    9900012    2    1    2    0    0  0.12002685803E+02 -0.38208457910E+02 -0.70153365713E+01  0.50528859950E+02  0.30000000305E+02 0.  0.
         12    1    1    2    0    0 -0.12002685803E+02  0.38208457910E+02  0.70153365713E+01  0.40659140050E+02  0.00000000000E+00 0. -1.
         11    1    3    3    0    0  0.13045212804E+02 -0.87061678154E+01 -0.88392885579E+01  0.18002998572E+02  0.51100000000E-03 0. -1.
        -11    1    3    3    0    0 -0.70041976811E+01 -0.16839879154E+02 -0.92881458731E+00  0.18262064830E+02  0.51100000000E-03 0.  1.
         12    1    3    3    0    0  0.59616706798E+01 -0.12662410941E+02  0.27527665738E+01  0.14263796547E+02  0.00000000000E+00 0. -1.
</event>
<event>
 7    1  0.5897985E-013  0.5052888E+02  0.7816164E-02  0.1300439E+00
        -11   -1    0    0    0    0  0.00000000000E+00  0.00000000000E+00  0.45593999997E+02  0.45594000000E+02  0.51100000000E-03 0.  1.
         11   -1    0    0    0    0 -0.00000000000E+00 -0.00000000000E+00 -0.45593999997E+02  0.45594000000E+02  0.51100000000E-03 0. -1.
    9900012    2    1    2    0    0 -0.29931938268E+02 -0.19382921123E+02  0.19533192748E+02  0.50528878285E+02  0.30000056034E+02 0.  0.
         12    1    1    2    0    0  0.29931938268E+02  0.19382921123E+02 -0.19533192748E+02  0.40659121715E+02  0.00000000000E+00 0. -1.
         11    1    3    3    0    0  0.14779037033E+01 -0.41011474324E+01 -0.54500591443E+01  0.69790224643E+01  0.51100000000E-03 0. -1.
        -11    1    3    3    0    0 -0.23197488601E+02 -0.76280705920E+01  0.17875876949E+02  0.30263144505E+02  0.51100000000E-03 0.  1.
         12    1    3    3    0    0 -0.82123533701E+01 -0.76537030987E+01  0.71073749436E+01  0.13286711316E+02  0.00000000000E+00 0. -1.
</event>
<event>
 7    1  0.5897985E-013  0.5052883E+02  0.7816164E-02  0.1300439E+00
        -11   -1    0    0    0    0  0.00000000000E+00  0.00000000000E+00  0.45593999997E+02  0.45594000000E+02  0.51100000000E-03 0. -1.
         11   -1    0    0    0    0 -0.00000000000E+00 -0.00000000000E+00 -0.45593999997E+02  0.45594000000E+02  0.51100000000E-03 0.  1.
    9900012    2    1    2    0    0 -0.19953825754E+01 -0.17491870503E+02 -0.36649977451E+02  0.50528832122E+02  0.29999915719E+02 0.  0.
         12    1    1    2    0    0  0.19953825754E+01  0.17491870503E+02  0.36649977451E+02  0.40659167878E+02  0.00000000000E+00 0. -1.
         11    1    3    3    0    0 -0.64315064064E+01  0.64903914237E+01 -0.11324723292E+02  0.14551247829E+02  0.51100000000E-03 0. -1.
        -11    1    3    3    0    0  0.22577847666E+01 -0.15147484337E+02 -0.20758618990E+02  0.25796591566E+02  0.51100000000E-03 0.  1.
         12    1    3    3    0    0  0.21783390643E+01 -0.88347775897E+01 -0.45666351693E+01  0.10180992727E+02  0.00000000000E+00 0. -1.
</event>
<event>
 7    1  0.5897985E-013  0.5052886E+02  0.7816164E-02  0.1300439E+00
        -11   -1    0    0    0    0  0.00000000000E+00  0.00000000000E+00  0.45593999997E+02  0.45594000000E+02  0.51100000000E-03 0. -1.
         11   -1    0    0    0    0 -0.00000000000E+00 -0.00000000000E+00 -0.45593999997E+02  0.45594000000E+02  0.51100000000E-03 0.  1.
    9900012    2    1    2    0    0  0.10730796105E+01 -0.36245304124E+02 -0.18392714645E+02  0.50528861754E+02  0.30000005788E+02 0.  0.
         12    1    1    2    0    0 -0.10730796105E+01  0.36245304124E+02  0.18392714645E+02  0.40659138246E+02  0.00000000000E+00 0. -1.
         11    1    3    3    0    0 -0.10197212477E+02 -0.21069403350E+02 -0.21965141298E+01  0.23510158962E+02  0.51100000000E-03 0. -1.
        -11    1    3    3    0    0  0.28199707515E+01 -0.94607362141E+01 -0.13009381575E+02  0.16331006521E+02  0.51100000000E-03 0.  1.
         12    1    3    3    0    0  0.84503213365E+01 -0.57151645605E+01 -0.31868189398E+01  0.10687696272E+02  0.00000000000E+00 0. -1.
</event>
<event>
 7    1  0.5897985E-013  0.5052886E+02  0.7816164E-02  0.1300439E+00
        -11   -1    0    0    0    0  0.00000000000E+00  0.00000000000E+00  0.45593999997E+02  0.45594000000E+02  0.51100000000E-03 0.  1.
         11   -1    0    0    0    0 -0.00000000000E+00 -0.00000000000E+00 -0.45593999997E+02  0.45594000000E+02  0.51100000000E-03 0. -1.
    9900012    2    1    2    0    0 -0.17351731254E+02 -0.26981784905E+02  0.24981317379E+02  0.50528861886E+02  0.30000006188E+02 0.  0.
         12    1    1    2    0    0  0.17351731254E+02  0.26981784905E+02 -0.24981317379E+02  0.40659138114E+02  0.00000000000E+00 0. -1.
         11    1    3    3    0    0  0.45968040461E+00 -0.13747327717E+02  0.27386769257E+01  0.14025001853E+02  0.51100000000E-03 0. -1.
        -11    1    3    3    0    0 -0.19329631662E+02 -0.12073054051E+02  0.11378425795E+02  0.25472767187E+02  0.51100000000E-03 0.  1.
        -12    1    3    3    0    0  0.15182200032E+01 -0.11614031372E+01  0.10864214658E+02  0.11031092846E+02  0.00000000000E+00 0.  1.
</event>
<event>
 7    1  0.5897985E-013  0.5052887E+02  0.7816164E-02  0.1300439E+00
        -11   -1    0    0    0    0  0.00000000000E+00  0.00000000000E+00  0.45593999997E+02  0.45594000000E+02  0.51100000000E-03 0.  1.
         11   -1    0    0    0    0 -0.00000000000E+00 -0.00000000000E+00 -0.45593999997E+02  0.45594000000E+02  0.51100000000E-03 0. -1.
    9900012    2    1    2    0    0 -0.34855548633E+02  0.16621925293E+01  0.20868462338E+02  0.50528869723E+02  0.30000030010E+02 0.  0.
         12    1    1    2    0    0  0.34855548633E+02 -0.16621925293E+01 -0.20868462338E+02  0.40659130277E+02  0.00000000000E+00 0. -1.
         11    1    3    3    0    0 -0.22843914140E+02  0.82421968320E+01  0.35147905048E+00  0.24287893273E+02  0.51100000000E-03 0. -1.
        -11    1    3    3    0    0 -0.10063254121E+02 -0.18455759130E+01  0.89565381718E+01  0.13597603106E+02  0.51100000000E-03 0.  1.
         12    1    3    3    0    0 -0.19483803728E+01 -0.47344283897E+01  0.11560445115E+02  0.12643373344E+02  0.00000000000E+00 0. -1.
</event>
<event>
 7    1  0.5897985E-013  0.5052886E+02  0.7816164E-02  0.1300439E+00
        -11   -1    0    0    0    0  0.00000000000E+00  0.00000000000E+00  0.45593999997E+02  0.45594000000E+02  0.51100000000E-03 0.  1.
         11   -1    0    0    0    0 -0.00000000000E+00 -0.00000000000E+00 -0.45593999997E+02  0.45594000000E+02  0.51100000000E-03 0. -1.
    9900012    2    1    2    0    0 -0.17036138579E+01 -0.28694945417E+02  0.28755239047E+02  0.50528856314E+02  0.29999989251E+02 0.  0.
         12    1    1    2    0    0  0.17036138579E+01  0.28694945417E+02 -0.28755239047E+02  0.40659143686E+02  0.00000000000E+00 0. -1.
         11    1    3    3    0    0 -0.58791632158E+01 -0.14208941669E+02  0.29438967879E+02  0.33213121105E+02  0.51100000000E-03 0. -1.
        -11    1    3    3    0    0  0.37471123003E+01 -0.11002047803E+01 -0.31559959828E+00  0.39180230368E+01  0.51100000000E-03 0.  1.
         12    1    3    3    0    0  0.42843705756E+00 -0.13385798967E+02 -0.36812923397E+00  0.13397712172E+02  0.00000000000E+00 0. -1.
</event>
<event>
 7    1  0.5897985E-013  0.5052886E+02  0.7816164E-02  0.1300439E+00
        -11   -1    0    0    0    0  0.00000000000E+00  0.00000000000E+00  0.45593999997E+02  0.45594000000E+02  0.51100000000E-03 0. -1.
         11   -1    0    0    0    0 -0.00000000000E+00 -0.00000000000E+00 -0.45593999997E+02  0.45594000000E+02  0.51100000000E-03 0.  1.
    9900012    2    1    2    0    0  0.40224757932E+02 -0.57624378298E+01 -0.13886927618E+01  0.50528864397E+02  0.30000013821E+02 0.  0.
         12    1    1    2    0    0 -0.40224757932E+02  0.57624378298E+01  0.13886927618E+01  0.40659135603E+02  0.00000000000E+00 0. -1.
         11    1    3    3    0    0  0.33823580161E+02 -0.36747614261E+00  0.92255272875E+01  0.35061089082E+02  0.51100000000E-03 0. -1.
        -11    1    3    3    0    0  0.57661567699E+01 -0.70163135513E+01 -0.70359916001E+01  0.11488359230E+02  0.51100000000E-03 0.  1.
         12    1    3    3    0    0  0.63502100068E+00  0.16213518641E+01 -0.35782284492E+01  0.39794160844E+01  0.00000000000E+00 0. -1.
</event>
<event>
 7    1  0.5897985E-013  0.5052886E+02  0.7816164E-02  0.1300439E+00
        -11   -1    0    0    0    0  0.00000000000E+00  0.00000000000E+00  0.45593999997E+02  0.45594000000E+02  0.51100000000E-03 0.  1.
         11   -1    0    0    0    0 -0.00000000000E+00 -0.00000000000E+00 -0.45593999997E+02  0.45594000000E+02  0.51100000000E-03 0. -1.
    9900012    2    1    2    0    0  0.67429865895E+01 -0.11401913428E+02  0.38440788484E+02  0.50528859365E+02  0.29999998525E+02 0.  0.
         12    1    1    2    0    0 -0.67429865895E+01  0.11401913428E+02 -0.38440788484E+02  0.40659140635E+02  0.00000000000E+00 0. -1.
         11    1    3    3    0    0  0.18859409709E+01 -0.27307110308E+01 -0.44499740273E+01  0.55512003372E+01  0.51100000000E-03 0. -1.
        -11    1    3    3    0    0  0.36510441033E+01 -0.75927649455E+01  0.16399339701E+02  0.18436880036E+02  0.51100000000E-03 0.  1.
         12    1    3    3    0    0  0.12060015153E+01 -0.10784374520E+01  0.26491422809E+02  0.26540778991E+02  0.00000000000E+00 0. -1.
</event>
<event>
 7    1  0.5897985E-013  0.5052887E+02  0.7816164E-02  0.1300439E+00
        -11   -1    0    0    0    0  0.00000000000E+00  0.00000000000E+00  0.45593999997E+02  0.45594000000E+02  0.51100000000E-03 0.  1.
         11   -1    0    0    0    0 -0.00000000000E+00 -0.00000000000E+00 -0.45593999997E+02  0.45594000000E+02  0.51100000000E-03 0. -1.
    9900012    2    1    2    0    0 -0.11439283710E+02 -0.38948211747E+02 -0.23118310744E+01  0.50528868517E+02  0.30000026344E+02 0.  0.
         12    1    1    2    0    0  0.11439283710E+02  0.38948211747E+02  0.23118310744E+01  0.40659131483E+02  0.00000000000E+00 0. -1.
         11    1    3    3    0    0 -0.39202245967E+01 -0.59502183318E+01 -0.59843190737E+01  0.93051240788E+01  0.51100000000E-03 0. -1.
        -11    1    3    3    0    0  0.52727665388E+01 -0.13803808819E+02  0.93278200300E+01  0.17474422212E+02  0.51100000000E-03 0.  1.
        -12    1    3    3    0    0 -0.12791825652E+02 -0.19194184596E+02 -0.56553320307E+01  0.23749322226E+02  0.00000000000E+00 0.  1.
</event>
<event>
 7    1  0.5897985E-013  0.5052885E+02  0.7816164E-02  0.1300439E+00
        -11   -1    0    0    0    0  0.00000000000E+00  0.00000000000E+00  0.45593999997E+02  0.45594000000E+02  0.51100000000E-03 0.  1.
         11   -1    0    0    0    0 -0.00000000000E+00 -0.00000000000E+00 -0.45593999997E+02  0.45594000000E+02  0.51100000000E-03 0. -1.
    9900012    2    1    2    0    0  0.22456309170E+02 -0.27125177861E+02  0.20324992516E+02  0.50528850768E+02  0.29999972394E+02 0.  0.
         12    1    1    2    0    0 -0.22456309170E+02  0.27125177861E+02 -0.20324992516E+02  0.40659149232E+02  0.00000000000E+00 0. -1.
         11    1    3    3    0    0  0.42915700525E+01  0.60729104027E+01  0.24460686704E+01  0.78282224340E+01  0.51100000000E-03 0. -1.
        -11    1    3    3    0    0  0.12168165009E+02 -0.22132181744E+02  0.16193335047E+02  0.30002030075E+02  0.51100000000E-03 0.  1.
         12    1    3    3    0    0  0.59965741087E+01 -0.11065906520E+02  0.16855887987E+01  0.12698598259E+02  0.00000000000E+00 0. -1.
</event>
<event>
 7    1  0.5897985E-013  0.5052886E+02  0.7816164E-02  0.1300439E+00
        -11   -1    0    0    0    0  0.00000000000E+00  0.00000000000E+00  0.45593999997E+02  0.45594000000E+02  0.51100000000E-03 0.  1.
         11   -1    0    0    0    0 -0.00000000000E+00 -0.00000000000E+00 -0.45593999997E+02  0.45594000000E+02  0.51100000000E-03 0. -1.
    9900012    2    1    2    0    0 -0.64670325924E+01  0.37536825433E+02  0.14224282104E+02  0.50528856188E+02  0.29999988870E+02 0.  0.
         12    1    1    2    0    0  0.64670325924E+01 -0.37536825433E+02 -0.14224282104E+02  0.40659143812E+02  0.00000000000E+00 0. -1.
         11    1    3    3    0    0  0.39051955865E+01  0.16299007899E+02 -0.44089068624E+01  0.17330512718E+02  0.51100000000E-03 0. -1.
        -11    1    3    3    0    0 -0.42460019000E+01  0.19895246626E+02  0.10397032599E+02  0.22846173806E+02  0.51100000000E-03 0.  1.
         12    1    3    3    0    0 -0.61262262788E+01  0.13425709074E+01  0.82361563676E+01  0.10352169665E+02  0.00000000000E+00 0. -1.
</event>
<event>
 7    1  0.5897985E-013  0.5052886E+02  0.7816164E-02  0.1300439E+00
        -11   -1    0    0    0    0  0.00000000000E+00  0.00000000000E+00  0.45593999997E+02  0.45594000000E+02  0.51100000000E-03 0. -1.
         11   -1    0    0    0    0 -0.00000000000E+00 -0.00000000000E+00 -0.45593999997E+02  0.45594000000E+02  0.51100000000E-03 0.  1.
    9900012    2    1    2    0    0  0.61147642356E+01  0.12872130830E+02 -0.38079958911E+02  0.50528863702E+02  0.30000011710E+02 0.  0.
         12    1    1    2    0    0 -0.61147642356E+01 -0.12872130830E+02  0.38079958911E+02  0.40659136298E+02  0.00000000000E+00 0. -1.
         11    1    3    3    0    0 -0.75959145851E+01 -0.21001056874E+01 -0.17600842735E+02  0.19284657827E+02  0.51100000000E-03 0. -1.
        -11    1    3    3    0    0  0.56454285313E+01  0.12075704524E+02 -0.17854360497E+02  0.22281644734E+02  0.51100000000E-03 0.  1.
         12    1    3    3    0    0  0.80652502895E+01  0.28965319940E+01 -0.26247556793E+01  0.89625611407E+01  0.00000000000E+00 0. -1.
</event>
<event>
 7    1  0.5897985E-013  0.5052886E+02  0.7816164E-02  0.1300439E+00
        -11   -1    0    0    0    0  0.00000000000E+00  0.00000000000E+00  0.45593999997E+02  0.45594000000E+02  0.51100000000E-03 0.  1.
         11   -1    0    0    0    0 -0.00000000000E+00 -0.00000000000E+00 -0.45593999997E+02  0.45594000000E+02  0.51100000000E-03 0. -1.
    9900012    2    1    2    0    0 -0.27712134387E+02  0.28758656939E+02  0.76251671809E+01  0.50528856923E+02  0.29999991103E+02 0.  0.
         12    1    1    2    0    0  0.27712134387E+02 -0.28758656939E+02 -0.76251671809E+01  0.40659143077E+02  0.00000000000E+00 0. -1.
         11    1    3    3    0    0 -0.11139728177E+02  0.75294967486E+01 -0.29696284412E+01  0.13769733421E+02  0.51100000000E-03 0. -1.
        -11    1    3    3    0    0 -0.90276235862E+01  0.15798568336E+02  0.17448313642E+02  0.25209847249E+02  0.51100000000E-03 0.  1.
        -12    1    3    3    0    0 -0.75447826238E+01  0.54305918540E+01 -0.68535180197E+01  0.11549276253E+02  0.00000000000E+00 0.  1.
</event>
<event>
 7    1  0.5897985E-013  0.5052887E+02  0.7816164E-02  0.1300439E+00
        -11   -1    0    0    0    0  0.00000000000E+00  0.00000000000E+00  0.45593999997E+02  0.45594000000E+02  0.51100000000E-03 0. -1.
         11   -1    0    0    0    0 -0.00000000000E+00 -0.00000000000E+00 -0.45593999997E+02  0.45594000000E+02  0.51100000000E-03 0.  1.
    9900012    2    1    2    0    0  0.10252198679E+02 -0.38261037423E+02 -0.91733572288E+01  0.50528867627E+02  0.30000023640E+02 0.  0.
         12    1    1    2    0    0 -0.10252198679E+02  0.38261037423E+02  0.91733572288E+01  0.40659132373E+02  0.00000000000E+00 0. -1.
         11    1    3    3    0    0  0.36085358361E+00  0.10728428979E+01  0.37171147083E+01  0.38856336946E+01  0.51100000000E-03 0. -1.
        -11    1    3    3    0    0  0.63086670883E+01 -0.35491553970E+02 -0.39369082956E+01  0.36262224571E+02  0.51100000000E-03 0.  1.
         12    1    3    3    0    0  0.35826780071E+01 -0.38423263507E+01 -0.89535636415E+01  0.10381009362E+02  0.00000000000E+00 0. -1.
</event>
<event>
 7    1  0.5897985E-013  0.5052886E+02  0.7816164E-02  0.1300439E+00
        -11   -1    0    0    0    0  0.00000000000E+00  0.00000000000E+00  0.45593999997E+02  0.45594000000E+02  0.51100000000E-03 0. -1.
         11   -1    0    0    0    0 -0.00000000000E+00 -0.00000000000E+00 -0.45593999997E+02  0.45594000000E+02  0.51100000000E-03 0.  1.
    9900012    2    1    2    0    0 -0.39046673988E+02 -0.93922494398E+01  0.63488916953E+01  0.50528861730E+02  0.30000005715E+02 0.  0.
         12    1    1    2    0    0  0.39046673988E+02  0.93922494398E+01 -0.63488916953E+01  0.40659138270E+02  0.00000000000E+00 0. -1.
         11    1    3    3    0    0 -0.67230575677E+01  0.60679373640E+01 -0.21330183117E+01  0.93042535590E+01  0.51100000000E-03 0. -1.
        -11    1    3    3    0    0 -0.30343003405E+02 -0.11626091740E+02  0.90704852441E+00  0.32506716261E+02  0.51100000000E-03 0.  1.
        -12    1    3    3    0    0 -0.19806130157E+01 -0.38340950640E+01  0.75748614826E+01  0.87178919102E+01  0.00000000000E+00 0.  1.
</event>
<event>
 7    1  0.5897985E-013  0.5052887E+02  0.7816164E-02  0.1300439E+00
        -11   -1    0    0    0    0  0.00000000000E+00  0.00000000000E+00  0.45593999997E+02  0.45594000000E+02  0.51100000000E-03 0.  1.
         11   -1    0    0    0    0 -0.00000000000E+00 -0.00000000000E+00 -0.45593999997E+02  0.45594000000E+02  0.51100000000E-03 0. -1.
    9900012    2    1    2    0    0 -0.66209170932E+01 -0.98057190538E+00  0.40104450881E+02  0.50528867632E+02  0.30000023655E+02 0.  0.
         12    1    1    2    0    0  0.66209170932E+01  0.98057190538E+00 -0.40104450881E+02  0.40659132368E+02  0.00000000000E+00 0. -1.
         11    1    3    3    0    0 -0.15733453339E+02 -0.57700765604E+00  0.23387361317E+02  0.28192962977E+02  0.51100000000E-03 0.  1.
        -11    1    3    3    0    0  0.54833856426E+01 -0.10709675087E+01  0.39393306833E+00  0.56008635971E+01  0.51100000000E-03 0. -1.
        -12    1    3    3    0    0  0.36291506035E+01  0.66740325938E+00  0.16323156496E+02  0.16735041058E+02  0.00000000000E+00 0.  1.
</event>
<event>
 7    1  0.5897985E-013  0.5052887E+02  0.7816164E-02  0.1300439E+00
        -11   -1    0    0    0    0  0.00000000000E+00  0.00000000000E+00  0.45593999997E+02  0.45594000000E+02  0.51100000000E-03 0.  1.
         11   -1    0    0    0    0 -0.00000000000E+00 -0.00000000000E+00 -0.45593999997E+02  0.45594000000E+02  0.51100000000E-03 0. -1.
    9900012    2    1    2    0    0 -0.30817862673E+01  0.39558536894E+02  0.88763561420E+01  0.50528868847E+02  0.30000027347E+02 0.  0.
         12    1    1    2    0    0  0.30817862673E+01 -0.39558536894E+02 -0.88763561420E+01  0.40659131153E+02  0.00000000000E+00 0. -1.
         11    1    3    3    0    0 -0.65576115598E+01  0.51762424593E+01 -0.70771657721E+01  0.10949065302E+02  0.51100000000E-03 0. -1.
        -11    1    3    3    0    0  0.26401093966E+01  0.34755610546E+02  0.16445572389E+02  0.38540621343E+02  0.51100000000E-03 0.  1.
        -12    1    3    3    0    0  0.83571589590E+00 -0.37331611131E+00 -0.49205047515E+00  0.10391822014E+01  0.00000000000E+00 0.  1.
</event>
<event>
 7    1  0.5897985E-013  0.5052887E+02  0.7816164E-02  0.1300439E+00
        -11   -1    0    0    0    0  0.00000000000E+00  0.00000000000E+00  0.45593999997E+02  0.45594000000E+02  0.51100000000E-03 0.  1.
         11   -1    0    0    0    0 -0.00000000000E+00 -0.00000000000E+00 -0.45593999997E+02  0.45594000000E+02  0.51100000000E-03 0. -1.
    9900012    2    1    2    0    0 -0.71601652876E+01  0.36862419573E+02  0.15590343051E+02  0.50528871380E+02  0.30000035045E+02 0.  0.
         12    1    1    2    0    0  0.71601652876E+01 -0.36862419573E+02 -0.15590343051E+02  0.40659128620E+02  0.00000000000E+00 0. -1.
         11    1    3    3    0    0  0.20505920066E+01  0.62000465398E+00 -0.62391387890E+00  0.22312781399E+01  0.51100000000E-03 0. -1.
        -11    1    3    3    0    0 -0.13673625099E+02  0.15213122173E+02  0.17275102907E+02  0.26773798578E+02  0.51100000000E-03 0.  1.
        -12    1    3    3    0    0  0.44628678047E+01  0.21029292746E+02 -0.10608459768E+01  0.21523794662E+02  0.00000000000E+00 0.  1.
</event>
<event>
 7    1  0.5897985E-013  0.5052887E+02  0.7816164E-02  0.1300439E+00
        -11   -1    0    0    0    0  0.00000000000E+00  0.00000000000E+00  0.45593999997E+02  0.45594000000E+02  0.51100000000E-03 0. -1.
         11   -1    0    0    0    0 -0.00000000000E+00 -0.00000000000E+00 -0.45593999997E+02  0.45594000000E+02  0.51100000000E-03 0.  1.
    9900012    2    1    2    0    0 -0.36780903346E+02  0.14113469326E+02 -0.10056848065E+02  0.50528867442E+02  0.30000023078E+02 0.  0.
         12    1    1    2    0    0  0.36780903346E+02 -0.14113469326E+02  0.10056848065E+02  0.40659132558E+02  0.00000000000E+00 0. -1.
         11    1    3    3    0    0  0.29474409231E+01  0.71847420452E+01 -0.34510509414E+01  0.84980985586E+01  0.51100000000E-03 0. -1.
        -11    1    3    3    0    0 -0.12936717447E+02 -0.16292283106E+01 -0.46287048090E+01  0.13836110424E+02  0.51100000000E-03 0.  1.
         12    1    3    3    0    0 -0.26791626821E+02  0.85579555917E+01 -0.19770923144E+01  0.28194658460E+02  0.00000000000E+00 0. -1.
</event>
<event>
 7    1  0.5897985E-013  0.5052886E+02  0.7816164E-02  0.1300439E+00
        -11   -1    0    0    0    0  0.00000000000E+00  0.00000000000E+00  0.45593999997E+02  0.45594000000E+02  0.51100000000E-03 0. -1.
         11   -1    0    0    0    0 -0.00000000000E+00 -0.00000000000E+00 -0.45593999997E+02  0.45594000000E+02  0.51100000000E-03 0.  1.
    9900012    2    1    2    0    0 -0.35823719212E+02  0.12755680174E+02 -0.14391638589E+02  0.50528862083E+02  0.30000006787E+02 0.  0.
         12    1    1    2    0    0  0.35823719212E+02 -0.12755680174E+02  0.14391638589E+02  0.40659137917E+02  0.00000000000E+00 0. -1.
         11    1    3    3    0    0 -0.77455362325E+01  0.42833214936E+01  0.45600869375E+01  0.99566343553E+01  0.51100000000E-03 0. -1.
        -11    1    3    3    0    0 -0.88014617806E+00 -0.28026355905E+00 -0.10829039126E+02  0.10868362048E+02  0.51100000000E-03 0.  1.
        -12    1    3    3    0    0 -0.27198036802E+02  0.87526222390E+01 -0.81226864008E+01  0.29703865679E+02  0.00000000000E+00 0.  1.
</event>
<event>
 7    1  0.5897985E-013  0.5052886E+02  0.7816164E-02  0.1300439E+00
        -11   -1    0    0    0    0  0.00000000000E+00  0.00000000000E+00  0.45593999997E+02  0.45594000000E+02  0.51100000000E-03 0.  1.
         11   -1    0    0    0    0 -0.00000000000E+00 -0.00000000000E+00 -0.45593999997E+02  0.45594000000E+02  0.51100000000E-03 0. -1.
    9900012    2    1    2    0    0  0.27322823711E+01  0.19334485286E+02  0.35663398510E+02  0.50528859803E+02  0.29999999859E+02 0.  0.
         12    1    1    2    0    0 -0.27322823711E+01 -0.19334485286E+02 -0.35663398510E+02  0.40659140197E+02  0.00000000000E+00 0. -1.
         11    1    3    3    0    0 -0.13430019684E+01 -0.23094195574E+01 -0.39800122383E+01  0.47934925323E+01  0.51100000000E-03 0. -1.
        -11    1    3    3    0    0  0.39329368720E+01  0.81746675638E+01  0.19451804820E+02  0.21463128691E+02  0.51100000000E-03 0.  1.
         12    1    3    3    0    0  0.14234746748E+00  0.13469237279E+02  0.20191605929E+02  0.24272238580E+02  0.00000000000E+00 0. -1.
</event>
<event>
 7    1  0.5897985E-013  0.5052886E+02  0.7816164E-02  0.1300439E+00
        -11   -1    0    0    0    0  0.00000000000E+00  0.00000000000E+00  0.45593999997E+02  0.45594000000E+02  0.51100000000E-03 0. -1.
         11   -1    0    0    0    0 -0.00000000000E+00 -0.00000000000E+00 -0.45593999997E+02  0.45594000000E+02  0.51100000000E-03 0.  1.
    9900012    2    1    2    0    0  0.37735818430E+02 -0.46682000932E+01 -0.14400749715E+02  0.50528859859E+02  0.30000000026E+02 0.  0.
         12    1    1    2    0    0 -0.37735818430E+02  0.46682000932E+01  0.14400749715E+02  0.40659140141E+02  0.00000000000E+00 0. -1.
         11    1    3    3    0    0  0.35095433326E+02 -0.15397128907E+01 -0.79762180608E+00  0.35138246356E+02  0.51100000000E-03 0. -1.
        -11    1    3    3    0    0  0.83489288078E+00  0.16614443331E+01 -0.55023062829E+01  0.58079960473E+01  0.51100000000E-03 0.  1.
         12    1    3    3    0    0  0.18054922228E+01 -0.47899315355E+01 -0.81008216258E+01  0.95826174553E+01  0.00000000000E+00 0. -1.
</event>
<event>
 7    1  0.5897985E-013  0.5052886E+02  0.7816164E-02  0.1300439E+00
        -11   -1    0    0    0    0  0.00000000000E+00  0.00000000000E+00  0.45593999997E+02  0.45594000000E+02  0.51100000000E-03 0. -1.
         11   -1    0    0    0    0 -0.00000000000E+00 -0.00000000000E+00 -0.45593999997E+02  0.45594000000E+02  0.51100000000E-03 0.  1.
    9900012    2    1    2    0    0 -0.24339432896E+02 -0.32181322594E+02 -0.50119614500E+01  0.50528864801E+02  0.30000015048E+02 0.  0.
         12    1    1    2    0    0  0.24339432896E+02  0.32181322594E+02  0.50119614500E+01  0.40659135199E+02  0.00000000000E+00 0. -1.
         11    1    3    3    0    0 -0.79125051341E+01 -0.76144499675E+01  0.33715289630E+01  0.11487157769E+02  0.51100000000E-03 0. -1.
        -11    1    3    3    0    0 -0.18742740703E-01 -0.12620925376E+02 -0.13114913837E+02  0.18201348133E+02  0.51100000000E-03 0.  1.
        -12    1    3    3    0    0 -0.16408185021E+02 -0.11945947251E+02  0.47314234244E+01  0.20840358899E+02  0.00000000000E+00 0.  1.
</event>
<event>
 7    1  0.5897985E-013  0.5052886E+02  0.7816164E-02  0.1300439E+00
        -11   -1    0    0    0    0  0.00000000000E+00  0.00000000000E+00  0.45593999997E+02  0.45594000000E+02  0.51100000000E-03 0.  1.
         11   -1    0    0    0    0 -0.00000000000E+00 -0.00000000000E+00 -0.45593999997E+02  0.45594000000E+02  0.51100000000E-03 0. -1.
    9900012    2    1    2    0    0 -0.41996871030E+01 -0.29486543061E+02  0.27678008639E+02  0.50528858892E+02  0.29999997087E+02 0.  0.
         12    1    1    2    0    0  0.41996871030E+01  0.29486543061E+02 -0.27678008639E+02  0.40659141108E+02  0.00000000000E+00 0. -1.
         11    1    3    3    0    0 -0.23723012205E+01 -0.23716705907E+01  0.20756727003E+02  0.21026039822E+02  0.51100000000E-03 0. -1.
        -11    1    3    3    0    0 -0.22767260270E+00 -0.23810617182E+02  0.27876303794E+01  0.23974323949E+02  0.51100000000E-03 0.  1.
        -12    1    3    3    0    0 -0.15997132798E+01 -0.33042552876E+01  0.41336512574E+01  0.55284951208E+01  0.00000000000E+00 0.  1.
</event>
<event>
 7    1  0.5897985E-013  0.5052886E+02  0.7816164E-02  0.1300439E+00
        -11   -1    0    0    0    0  0.00000000000E+00  0.00000000000E+00  0.45593999997E+02  0.45594000000E+02  0.51100000000E-03 0.  1.
         11   -1    0    0    0    0 -0.00000000000E+00 -0.00000000000E+00 -0.45593999997E+02  0.45594000000E+02  0.51100000000E-03 0. -1.
    9900012    2    1    2    0    0 -0.32007859218E+02 -0.24518000595E+02 -0.52469518053E+01  0.50528857016E+02  0.29999991387E+02 0.  0.
         12    1    1    2    0    0  0.32007859218E+02  0.24518000595E+02  0.52469518053E+01  0.40659142984E+02  0.00000000000E+00 0. -1.
         11    1    3    3    0    0 -0.15508096460E+02  0.85269786741E+00  0.79934843159E+00  0.15552077277E+02  0.51100000000E-03 0. -1.
        -11    1    3    3    0    0  0.30841071763E+01 -0.67699090592E+01 -0.14320202607E+01  0.75758872770E+01  0.51100000000E-03 0.  1.
        -12    1    3    3    0    0 -0.19583869935E+02 -0.18600789403E+02 -0.46142799761E+01  0.27400892462E+02  0.00000000000E+00 0.  1.
</event>
<event>
 7    1  0.5897985E-013  0.5052888E+02  0.7816164E-02  0.1300439E+00
        -11   -1    0    0    0    0  0.00000000000E+00  0.00000000000E+00  0.45593999997E+02  0.45594000000E+02  0.51100000000E-03 0.  1.
         11   -1    0    0    0    0 -0.00000000000E+00 -0.00000000000E+00 -0.45593999997E+02  0.45594000000E+02  0.51100000000E-03 0. -1.
    9900012    2    1    2    0    0 -0.19469032242E+02  0.28122545264E+02  0.21982803854E+02  0.50528875146E+02  0.30000046494E+02 0.  0.
         12    1    1    2    0    0  0.19469032242E+02 -0.28122545264E+02 -0.21982803854E+02  0.40659124854E+02  0.00000000000E+00 0. -1.
         11    1    3    3    0    0 -0.67856318595E+01 -0.10285965600E+01 -0.23274743338E+01  0.72470647611E+01  0.51100000000E-03 0. -1.
        -11    1    3    3    0    0 -0.37333584421E+01  0.26068736032E+02  0.18305144906E+02  0.32071721093E+02  0.51100000000E-03 0.  1.
        -12    1    3    3    0    0 -0.89500419402E+01  0.30824057919E+01  0.60051332821E+01  0.11210089292E+02  0.00000000000E+00 0.  1.
</event>
<event>
 7    1  0.5897985E-013  0.5052886E+02  0.7816164E-02  0.1300439E+00
        -11   -1    0    0    0    0  0.00000000000E+00  0.00000000000E+00  0.45593999997E+02  0.45594000000E+02  0.51100000000E-03 0.  1.
         11   -1    0    0    0    0 -0.00000000000E+00 -0.00000000000E+00 -0.45593999997E+02  0.45594000000E+02  0.51100000000E-03 0. -1.
    9900012    2    1    2    0    0 -0.28848714549E+02 -0.20624006471E+02  0.19888889803E+02  0.50528856973E+02  0.29999991256E+02 0.  0.
         12    1    1    2    0    0  0.28848714549E+02  0.20624006471E+02 -0.19888889803E+02  0.40659143027E+02  0.00000000000E+00 0. -1.
         11    1    3    3    0    0 -0.23751746306E+02 -0.16567128426E+02  0.25092577187E+02  0.38317784735E+02  0.51100000000E-03 0. -1.
        -11    1    3    3    0    0 -0.47336843582E+01  0.15207030369E+01 -0.67553490877E+00  0.50176342038E+01  0.51100000000E-03 0.  1.
         12    1    3    3    0    0 -0.36328388466E+00 -0.55775810824E+01 -0.45281524751E+01  0.71934380340E+01  0.00000000000E+00 0. -1.
</event>
<event>
 7    1  0.5897985E-013  0.5052885E+02  0.7816164E-02  0.1300439E+00
        -11   -1    0    0    0    0  0.00000000000E+00  0.00000000000E+00  0.45593999997E+02  0.45594000000E+02  0.51100000000E-03 0.  1.
         11   -1    0    0    0    0 -0.00000000000E+00 -0.00000000000E+00 -0.45593999997E+02  0.45594000000E+02  0.51100000000E-03 0. -1.
    9900012    2    1    2    0    0  0.24511889679E+01  0.21795337919E+02  0.34236253231E+02  0.50528854440E+02  0.29999983557E+02 0.  0.
         12    1    1    2    0    0 -0.24511889679E+01 -0.21795337919E+02 -0.34236253231E+02  0.40659145560E+02  0.00000000000E+00 0. -1.
         11    1    3    3    0    0  0.23830124122E+01 -0.50232929686E+01 -0.32480185235E+00  0.55693551610E+01  0.51100000000E-03 0. -1.
        -11    1    3    3    0    0 -0.32200679967E+01  0.51801565963E+01  0.12364171360E+02  0.13786790560E+02  0.51100000000E-03 0.  1.
         12    1    3    3    0    0  0.32882445524E+01  0.21638474291E+02  0.22196883724E+02  0.31172708720E+02  0.00000000000E+00 0. -1.
</event>
<event>
 7    1  0.5897985E-013  0.5052886E+02  0.7816164E-02  0.1300439E+00
        -11   -1    0    0    0    0  0.00000000000E+00  0.00000000000E+00  0.45593999997E+02  0.45594000000E+02  0.51100000000E-03 0. -1.
         11   -1    0    0    0    0 -0.00000000000E+00 -0.00000000000E+00 -0.45593999997E+02  0.45594000000E+02  0.51100000000E-03 0.  1.
    9900012    2    1    2    0    0 -0.19486621047E+02  0.35133254191E+02  0.62523650055E+01  0.50528855665E+02  0.29999987280E+02 0.  0.
         12    1    1    2    0    0  0.19486621047E+02 -0.35133254191E+02 -0.62523650055E+01  0.40659144335E+02  0.00000000000E+00 0. -1.
         11    1    3    3    0    0  0.88272720091E+00  0.22455434183E+02  0.93415494652E+01  0.24337014573E+02  0.51100000000E-03 0. -1.
        -11    1    3    3    0    0 -0.16380589290E+02  0.77528463781E+01  0.17656024061E+01  0.18208450911E+02  0.51100000000E-03 0.  1.
        -12    1    3    3    0    0 -0.39887589578E+01  0.49249736296E+01 -0.48547868659E+01  0.79833901814E+01  0.00000000000E+00 0.  1.
</event>
<event>
 7    1  0.5897985E-013  0.5052886E+02  0.7816164E-02  0.1300439E+00
        -11   -1    0    0    0    0  0.00000000000E+00  0.00000000000E+00  0.45593999997E+02  0.45594000000E+02  0.51100000000E-03 0. -1.
         11   -1    0    0    0    0 -0.00000000000E+00 -0.00000000000E+00 -0.45593999997E+02  0.45594000000E+02  0.51100000000E-03 0.  1.
    9900012    2    1    2    0    0 -0.40344482203E+02  0.13575528872E+01  0.48626874583E+01  0.50528856829E+02  0.29999990818E+02 0.  0.
         12    1    1    2    0    0  0.40344482203E+02 -0.13575528872E+01 -0.48626874583E+01  0.40659143171E+02  0.00000000000E+00 0. -1.
         11    1    3    3    0    0 -0.15931322121E+02  0.38848077720E+01  0.86692521079E+01  0.18548711231E+02  0.51100000000E-03 0. -1.
        -11    1    3    3    0    0 -0.22151460313E+02 -0.53608683435E+01 -0.99329042309E+01  0.24861389546E+02  0.51100000000E-03 0.  1.
         12    1    3    3    0    0 -0.22616997685E+01  0.28336134587E+01  0.61263395814E+01  0.71187560530E+01  0.00000000000E+00 0. -1.
</event>
<event>
 7    1  0.5897985E-013  0.5052891E+02  0.7816164E-02  0.1300439E+00
        -11   -1    0    0    0    0  0.00000000000E+00  0.00000000000E+00  0.45593999997E+02  0.45594000000E+02  0.51100000000E-03 0. -1.
         11   -1    0    0    0    0 -0.00000000000E+00 -0.00000000000E+00 -0.45593999997E+02  0.45594000000E+02  0.51100000000E-03 0.  1.
    9900012    2    1    2    0    0 -0.36249011599E+02  0.17707518640E+02  0.50611169704E+01  0.50528905528E+02  0.30000138843E+02 0.  0.
         12    1    1    2    0    0  0.36249011599E+02 -0.17707518640E+02 -0.50611169704E+01  0.40659094472E+02  0.00000000000E+00 0. -1.
         11    1    3    3    0    0 -0.51838548653E+01  0.74663747066E+01  0.10309198334E+02  0.13744041366E+02  0.51100000000E-03 0. -1.
        -11    1    3    3    0    0 -0.21213725657E+02 -0.11038832910E+01 -0.14780478878E+01  0.21293786427E+02  0.51100000000E-03 0.  1.
         12    1    3    3    0    0 -0.98514310769E+01  0.11345027224E+02 -0.37700334762E+01  0.15491077735E+02  0.00000000000E+00 0. -1.
</event>
<event>
 7    1  0.5897985E-013  0.5052885E+02  0.7816164E-02  0.1300439E+00
        -11   -1    0    0    0    0  0.00000000000E+00  0.00000000000E+00  0.45593999997E+02  0.45594000000E+02  0.51100000000E-03 0.  1.
         11   -1    0    0    0    0 -0.00000000000E+00 -0.00000000000E+00 -0.45593999997E+02  0.45594000000E+02  0.51100000000E-03 0. -1.
    9900012    2    1    2    0    0 -0.27145544142E+02  0.24671516561E+02  0.17538583470E+02  0.50528853350E+02  0.29999980244E+02 0.  0.
         12    1    1    2    0    0  0.27145544142E+02 -0.24671516561E+02 -0.17538583470E+02  0.40659146650E+02  0.00000000000E+00 0. -1.
         11    1    3    3    0    0 -0.10345024629E+02  0.68763601961E+01 -0.60005217970E+01  0.13795293626E+02  0.51100000000E-03 0. -1.
        -11    1    3    3    0    0 -0.15621876568E+02  0.76095907270E+01  0.11126624130E+02  0.20633726356E+02  0.51100000000E-03 0.  1.
         12    1    3    3    0    0 -0.11786429452E+01  0.10185565637E+02  0.12412481137E+02  0.16099833369E+02  0.00000000000E+00 0. -1.
</event>
<event>
 7    1  0.5897985E-013  0.5052886E+02  0.7816164E-02  0.1300439E+00
        -11   -1    0    0    0    0  0.00000000000E+00  0.00000000000E+00  0.45593999997E+02  0.45594000000E+02  0.51100000000E-03 0.  1.
         11   -1    0    0    0    0 -0.00000000000E+00 -0.00000000000E+00 -0.45593999997E+02  0.45594000000E+02  0.51100000000E-03 0. -1.
    9900012    2    1    2    0    0 -0.10879575973E+02 -0.17603282984E+02  0.34998924636E+02  0.50528862395E+02  0.30000007735E+02 0.  0.
         12    1    1    2    0    0  0.10879575973E+02  0.17603282984E+02 -0.34998924636E+02  0.40659137605E+02  0.00000000000E+00 0. -1.
         11    1    3    3    0    0 -0.76622385373E+01 -0.17768079701E+02  0.25486877653E+02  0.31999929507E+02  0.51100000000E-03 0. -1.
        -11    1    3    3    0    0 -0.83645988860E+01  0.35956707176E+01  0.80946818782E+01  0.12182743427E+02  0.51100000000E-03 0.  1.
         12    1    3    3    0    0  0.51472614498E+01 -0.34308739998E+01  0.14173651039E+01  0.63461894609E+01  0.00000000000E+00 0. -1.
</event>
<event>
 7    1  0.5897985E-013  0.5052885E+02  0.7816164E-02  0.1300439E+00
        -11   -1    0    0    0    0  0.00000000000E+00  0.00000000000E+00  0.45593999997E+02  0.45594000000E+02  0.51100000000E-03 0.  1.
         11   -1    0    0    0    0 -0.00000000000E+00 -0.00000000000E+00 -0.45593999997E+02  0.45594000000E+02  0.51100000000E-03 0. -1.
    9900012    2    1    2    0    0  0.23962890979E+02  0.65041485929E+01  0.32196932522E+02  0.50528849040E+02  0.29999967142E+02 0.  0.
         12    1    1    2    0    0 -0.23962890979E+02 -0.65041485929E+01 -0.32196932522E+02  0.40659150960E+02  0.00000000000E+00 0. -1.
         11    1    3    3    0    0  0.16439566421E+02 -0.55194462212E+01  0.18827216717E+02  0.25596634940E+02  0.51100000000E-03 0. -1.
        -11    1    3    3    0    0 -0.37704815816E+01  0.74047204447E+01  0.82199250404E+01  0.11688181388E+02  0.51100000000E-03 0.  1.
        -12    1    3    3    0    0  0.11293806139E+02  0.46188743693E+01  0.51497907644E+01  0.13244032712E+02  0.00000000000E+00 0.  1.
</event>
<event>
 7    1  0.5897985E-013  0.5052886E+02  0.7816164E-02  0.1300439E+00
        -11   -1    0    0    0    0  0.00000000000E+00  0.00000000000E+00  0.45593999997E+02  0.45594000000E+02  0.51100000000E-03 0. -1.
         11   -1    0    0    0    0 -0.00000000000E+00 -0.00000000000E+00 -0.45593999997E+02  0.45594000000E+02  0.51100000000E-03 0.  1.
    9900012    2    1    2    0    0 -0.33502717199E+02 -0.20905981162E+02  0.96785128650E+01  0.50528859338E+02  0.29999998445E+02 0.  0.
         12    1    1    2    0    0  0.33502717199E+02  0.20905981162E+02 -0.96785128650E+01  0.40659140662E+02  0.00000000000E+00 0. -1.
         11    1    3    3    0    0 -0.21044651298E+01  0.62586124366E+01 -0.24151876825E+01  0.70307990241E+01  0.51100000000E-03 0. -1.
        -11    1    3    3    0    0 -0.11576895203E+02 -0.11480704954E+02  0.68453011444E+01  0.17683021144E+02  0.51100000000E-03 0.  1.
         12    1    3    3    0    0 -0.19821356866E+02 -0.15683888645E+02  0.52483994031E+01  0.25815039170E+02  0.00000000000E+00 0. -1.
</event>
<event>
 7    1  0.5897985E-013  0.5052886E+02  0.7816164E-02  0.1300439E+00
        -11   -1    0    0    0    0  0.00000000000E+00  0.00000000000E+00  0.45593999997E+02  0.45594000000E+02  0.51100000000E-03 0.  1.
         11   -1    0    0    0    0 -0.00000000000E+00 -0.00000000000E+00 -0.45593999997E+02  0.45594000000E+02  0.51100000000E-03 0. -1.
    9900012    2    1    2    0    0  0.43724008375E+01 -0.37122748582E+02  0.15998412120E+02  0.50528861522E+02  0.30000005083E+02 0.  0.
         12    1    1    2    0    0 -0.43724008375E+01  0.37122748582E+02 -0.15998412120E+02  0.40659138478E+02  0.00000000000E+00 0. -1.
         11    1    3    3    0    0 -0.47754842373E+01 -0.29113787065E+02  0.13593601392E+02  0.32483901336E+02  0.51100000000E-03 0.  1.
        -11    1    3    3    0    0  0.31413931642E+01  0.18263607086E+01  0.50494629100E+01  0.62210144181E+01  0.51100000000E-03 0. -1.
         12    1    3    3    0    0  0.60064919105E+01 -0.98353222261E+01 -0.26446521819E+01  0.11823945768E+02  0.00000000000E+00 0. -1.
</event>
<event>
 7    1  0.5897985E-013  0.5052887E+02  0.7816164E-02  0.1300439E+00
        -11   -1    0    0    0    0  0.00000000000E+00  0.00000000000E+00  0.45593999997E+02  0.45594000000E+02  0.51100000000E-03 0.  1.
         11   -1    0    0    0    0 -0.00000000000E+00 -0.00000000000E+00 -0.45593999997E+02  0.45594000000E+02  0.51100000000E-03 0. -1.
    9900012    2    1    2    0    0 -0.33454274758E+02 -0.16040570207E+02  0.16633592698E+02  0.50528870666E+02  0.30000032877E+02 0.  0.
         12    1    1    2    0    0  0.33454274758E+02  0.16040570207E+02 -0.16633592698E+02  0.40659129334E+02  0.00000000000E+00 0. -1.
         11    1    3    3    0    0 -0.25875436428E+01  0.40192534405E+00 -0.20322275019E+01  0.33146455265E+01  0.51100000000E-03 0. -1.
        -11    1    3    3    0    0 -0.20517514906E+02 -0.14828482539E+02  0.24496114158E+02  0.35226579758E+02  0.51100000000E-03 0.  1.
        -12    1    3    3    0    0 -0.10349216209E+02 -0.16140130118E+01 -0.58302939586E+01  0.11987645382E+02  0.00000000000E+00 0.  1.
</event>
<event>
 7    1  0.5897985E-013  0.5052886E+02  0.7816164E-02  0.1300439E+00
        -11   -1    0    0    0    0  0.00000000000E+00  0.00000000000E+00  0.45593999997E+02  0.45594000000E+02  0.51100000000E-03 0.  1.
         11   -1    0    0    0    0 -0.00000000000E+00 -0.00000000000E+00 -0.45593999997E+02  0.45594000000E+02  0.51100000000E-03 0. -1.
    9900012    2    1    2    0    0 -0.32066249566E+02  0.21832748687E+02  0.12175883118E+02  0.50528863190E+02  0.30000010153E+02 0.  0.
         12    1    1    2    0    0  0.32066249566E+02 -0.21832748687E+02 -0.12175883118E+02  0.40659136810E+02  0.00000000000E+00 0. -1.
         11    1    3    3    0    0  0.37621679110E+01 -0.11292568332E+01  0.63116323227E+01  0.74340992207E+01  0.51100000000E-03 0. -1.
        -11    1    3    3    0    0 -0.15628151477E+02  0.11598067689E+02  0.15886843212E+01  0.19526346582E+02  0.51100000000E-03 0.  1.
         12    1    3    3    0    0 -0.20200265999E+02  0.11363937831E+02  0.42755664743E+01  0.23568417388E+02  0.00000000000E+00 0. -1.
</event>
<event>
 7    1  0.5897985E-013  0.5052886E+02  0.7816164E-02  0.1300439E+00
        -11   -1    0    0    0    0  0.00000000000E+00  0.00000000000E+00  0.45593999997E+02  0.45594000000E+02  0.51100000000E-03 0.  1.
         11   -1    0    0    0    0 -0.00000000000E+00 -0.00000000000E+00 -0.45593999997E+02  0.45594000000E+02  0.51100000000E-03 0. -1.
    9900012    2    1    2    0    0  0.36077916960E+02  0.18336013829E+02 -0.39166491892E+01  0.50528860361E+02  0.30000001554E+02 0.  0.
         12    1    1    2    0    0 -0.36077916960E+02 -0.18336013829E+02  0.39166491892E+01  0.40659139639E+02  0.00000000000E+00 0. -1.
         11    1    3    3    0    0  0.22473754807E+02  0.65442345764E+01 -0.14396315216E+02  0.27480002791E+02  0.51100000000E-03 0. -1.
        -11    1    3    3    0    0  0.29186090262E+01  0.87503296805E+01  0.31872587299E+01  0.97593630242E+01  0.51100000000E-03 0.  1.
         12    1    3    3    0    0  0.10685553126E+02  0.30414495724E+01  0.72924072969E+01  0.13289494546E+02  0.00000000000E+00 0. -1.
</event>
<event>
 7    1  0.5897985E-013  0.5052886E+02  0.7816164E-02  0.1300439E+00
        -11   -1    0    0    0    0  0.00000000000E+00  0.00000000000E+00  0.45593999997E+02  0.45594000000E+02  0.51100000000E-03 0. -1.
         11   -1    0    0    0    0 -0.00000000000E+00 -0.00000000000E+00 -0.45593999997E+02  0.45594000000E+02  0.51100000000E-03 0.  1.
    9900012    2    1    2    0    0  0.53287225949E+01 -0.33512848012E+02 -0.22397761242E+02  0.50528856194E+02  0.29999988888E+02 0.  0.
         12    1    1    2    0    0 -0.53287225949E+01  0.33512848012E+02  0.22397761242E+02  0.40659143806E+02  0.00000000000E+00 0. -1.
         11    1    3    3    0    0  0.74841456121E+01 -0.12705983328E+02  0.32514365404E+01  0.15100539318E+02  0.51100000000E-03 0. -1.
        -11    1    3    3    0    0  0.50560045071E+01 -0.74939040004E+01 -0.12146541128E+02  0.15141342093E+02  0.51100000000E-03 0.  1.
         12    1    3    3    0    0 -0.72114275243E+01 -0.13312960684E+02 -0.13502656655E+02  0.20286974783E+02  0.00000000000E+00 0. -1.
</event>
<event>
 7    1  0.5897985E-013  0.5052886E+02  0.7816164E-02  0.1300439E+00
        -11   -1    0    0    0    0  0.00000000000E+00  0.00000000000E+00  0.45593999997E+02  0.45594000000E+02  0.51100000000E-03 0.  1.
         11   -1    0    0    0    0 -0.00000000000E+00 -0.00000000000E+00 -0.45593999997E+02  0.45594000000E+02  0.51100000000E-03 0. -1.
    9900012    2    1    2    0    0 -0.30090775193E+02  0.15949728478E+02  0.22210737862E+02  0.50528862447E+02  0.30000007892E+02 0.  0.
         12    1    1    2    0    0  0.30090775193E+02 -0.15949728478E+02 -0.22210737862E+02  0.40659137553E+02  0.00000000000E+00 0. -1.
         11    1    3    3    0    0 -0.10673723903E+02 -0.61262769299E+00 -0.50565315560E+01  0.11826758063E+02  0.51100000000E-03 0. -1.
        -11    1    3    3    0    0 -0.20450643292E+02  0.15178153567E+02  0.23940686243E+02  0.34953706740E+02  0.51100000000E-03 0.  1.
        -12    1    3    3    0    0  0.10335920027E+01  0.13842026044E+01  0.33265831746E+01  0.37483976438E+01  0.00000000000E+00 0.  1.
</event>
<event>
 7    1  0.8415157E-013  0.5052889E+02  0.7816164E-02  0.1300439E+00
        -11   -1    0    0    0    0  0.00000000000E+00  0.00000000000E+00  0.45593999997E+02  0.45594000000E+02  0.51100000000E-03 0.  1.
         11   -1    0    0    0    0 -0.00000000000E+00 -0.00000000000E+00 -0.45593999997E+02  0.45594000000E+02  0.51100000000E-03 0. -1.
    9900012    2    1    2    0    0  0.64887290463E+01 -0.40137166762E+02  0.25958662104E+00  0.50528890989E+02  0.30000094650E+02 0.  0.
         12    1    1    2    0    0 -0.64887290463E+01  0.40137166762E+02 -0.25958662104E+00  0.40659109011E+02  0.00000000000E+00 0. -1.
         11    1    3    3    0    0  0.88472785894E+01 -0.34008196999E+01 -0.45580557238E+01  0.10517403925E+02  0.51100000000E-03 0. -1.
        -11    1    3    3    0    0 -0.84886446266E+01 -0.16870018103E+02  0.13478994177E+01  0.18933341794E+02  0.51100000000E-03 0.  1.
        -12    1    3    3    0    0  0.61300950835E+01 -0.19866328960E+02  0.34697429272E+01  0.21078145270E+02  0.00000000000E+00 0.  1.
</event>
<event>
 7    1  0.5897985E-013  0.5052885E+02  0.7816164E-02  0.1300439E+00
        -11   -1    0    0    0    0  0.00000000000E+00  0.00000000000E+00  0.45593999997E+02  0.45594000000E+02  0.51100000000E-03 0.  1.
         11   -1    0    0    0    0 -0.00000000000E+00 -0.00000000000E+00 -0.45593999997E+02  0.45594000000E+02  0.51100000000E-03 0. -1.
    9900012    2    1    2    0    0 -0.92009572307E+01  0.23339697252E+02  0.31996368328E+02  0.50528847673E+02  0.29999962987E+02 0.  0.
         12    1    1    2    0    0  0.92009572307E+01 -0.23339697252E+02 -0.31996368328E+02  0.40659152327E+02  0.00000000000E+00 0. -1.
         11    1    3    3    0    0 -0.10791355502E+02  0.57119034092E+01  0.22230206807E+02  0.25362596260E+02  0.51100000000E-03 0. -1.
        -11    1    3    3    0    0  0.67548889306E+01  0.14183257607E+02  0.10529052310E+02  0.18911749354E+02  0.51100000000E-03 0.  1.
         12    1    3    3    0    0 -0.51644906596E+01  0.34445362355E+01 -0.76289078920E+00  0.62545020591E+01  0.00000000000E+00 0. -1.
</event>
<event>
 7    1  0.5897985E-013  0.5052892E+02  0.7816164E-02  0.1300439E+00
        -11   -1    0    0    0    0  0.00000000000E+00  0.00000000000E+00  0.45593999997E+02  0.45594000000E+02  0.51100000000E-03 0.  1.
         11   -1    0    0    0    0 -0.00000000000E+00 -0.00000000000E+00 -0.45593999997E+02  0.45594000000E+02  0.51100000000E-03 0. -1.
    9900012    2    1    2    0    0 -0.22914769960E+02 -0.10170735089E+01  0.33571410298E+02  0.50528920937E+02  0.30000185680E+02 0.  0.
         12    1    1    2    0    0  0.22914769960E+02  0.10170735089E+01 -0.33571410298E+02  0.40659079063E+02  0.00000000000E+00 0. -1.
         11    1    3    3    0    0 -0.10725824058E+01 -0.46171644424E+00 -0.94812266474E+00  0.15041781612E+01  0.51100000000E-03 0. -1.
        -11    1    3    3    0    0 -0.13118104805E+02  0.10221576631E+02  0.30244539383E+02  0.34515177318E+02  0.51100000000E-03 0.  1.
        -12    1    3    3    0    0 -0.87240827490E+01 -0.10776933696E+02  0.42749935793E+01  0.14509565458E+02  0.00000000000E+00 0.  1.
</event>
<event>
 7    1  0.5897985E-013  0.5052886E+02  0.7816164E-02  0.1300439E+00
        -11   -1    0    0    0    0  0.00000000000E+00  0.00000000000E+00  0.45593999997E+02  0.45594000000E+02  0.51100000000E-03 0.  1.
         11   -1    0    0    0    0 -0.00000000000E+00 -0.00000000000E+00 -0.45593999997E+02  0.45594000000E+02  0.51100000000E-03 0. -1.
    9900012    2    1    2    0    0  0.16618725937E+02 -0.91246749548E+01  0.35968378902E+02  0.50528855572E+02  0.29999986996E+02 0.  0.
         12    1    1    2    0    0 -0.16618725937E+02  0.91246749548E+01 -0.35968378902E+02  0.40659144428E+02  0.00000000000E+00 0. -1.
         11    1    3    3    0    0  0.73703126500E-01 -0.24613513119E+01 -0.28947724475E+01  0.38004460547E+01  0.51100000000E-03 0. -1.
        -11    1    3    3    0    0  0.14834125624E+02 -0.16247375676E+01  0.38618731184E+02  0.41401660036E+02  0.51100000000E-03 0.  1.
         12    1    3    3    0    0  0.17108971872E+01 -0.50385860753E+01  0.24442016523E+00  0.53267494817E+01  0.00000000000E+00 0. -1.
</event>
<event>
 7    1  0.5897985E-013  0.5052885E+02  0.7816164E-02  0.1300439E+00
        -11   -1    0    0    0    0  0.00000000000E+00  0.00000000000E+00  0.45593999997E+02  0.45594000000E+02  0.51100000000E-03 0. -1.
         11   -1    0    0    0    0 -0.00000000000E+00 -0.00000000000E+00 -0.45593999997E+02  0.45594000000E+02  0.51100000000E-03 0.  1.
    9900012    2    1    2    0    0  0.37904576562E+02  0.14383122703E+02  0.30879288543E+01  0.50528850383E+02  0.29999971223E+02 0.  0.
         12    1    1    2    0    0 -0.37904576562E+02 -0.14383122703E+02 -0.30879288543E+01  0.40659149617E+02  0.00000000000E+00 0. -1.
         11    1    3    3    0    0  0.13189979637E+02 -0.41017969987E+01  0.48155645889E+01  0.14628395812E+02  0.51100000000E-03 0.  1.
        -11    1    3    3    0    0  0.73827220618E+01  0.14837624384E+02  0.44204113302E+01  0.17152251134E+02  0.51100000000E-03 0. -1.
         12    1    3    3    0    0  0.17331874862E+02  0.36472953178E+01 -0.61480470649E+01  0.18748203436E+02  0.00000000000E+00 0. -1.
</event>
<event>
 7    1  0.5897985E-013  0.5052892E+02  0.7816164E-02  0.1300439E+00
        -11   -1    0    0    0    0  0.00000000000E+00  0.00000000000E+00  0.45593999997E+02  0.45594000000E+02  0.51100000000E-03 0. -1.
         11   -1    0    0    0    0 -0.00000000000E+00 -0.00000000000E+00 -0.45593999997E+02  0.45594000000E+02  0.51100000000E-03 0.  1.
    9900012    2    1    2    0    0  0.12551914842E+02  0.19187816431E+02 -0.33577342770E+02  0.50528919672E+02  0.30000181835E+02 0.  0.
         12    1    1    2    0    0 -0.12551914842E+02 -0.19187816431E+02  0.33577342770E+02  0.40659080328E+02  0.00000000000E+00 0. -1.
         11    1    3    3    0    0  0.10420597498E+02  0.19345657009E+02 -0.14573969973E+02  0.26367478043E+02  0.51100000000E-03 0. -1.
        -11    1    3    3    0    0  0.29843565535E+01 -0.99386517589E+00 -0.21322258156E+02  0.21553024037E+02  0.51100000000E-03 0.  1.
        -12    1    3    3    0    0 -0.85303921003E+00  0.83602459824E+00  0.23188853589E+01  0.26084175913E+01  0.00000000000E+00 0.  1.
</event>
<event>
 7    1  0.5897985E-013  0.5052886E+02  0.7816164E-02  0.1300439E+00
        -11   -1    0    0    0    0  0.00000000000E+00  0.00000000000E+00  0.45593999997E+02  0.45594000000E+02  0.51100000000E-03 0.  1.
         11   -1    0    0    0    0 -0.00000000000E+00 -0.00000000000E+00 -0.45593999997E+02  0.45594000000E+02  0.51100000000E-03 0. -1.
    9900012    2    1    2    0    0 -0.29221635886E+02 -0.14638507699E+02  0.24186267428E+02  0.50528862729E+02  0.30000008751E+02 0.  0.
         12    1    1    2    0    0  0.29221635886E+02  0.14638507699E+02 -0.24186267428E+02  0.40659137271E+02  0.00000000000E+00 0. -1.
         11    1    3    3    0    0 -0.78708600212E+00 -0.98250125906E+01 -0.23509383648E+01  0.10132980225E+02  0.51100000000E-03 0. -1.
        -11    1    3    3    0    0 -0.24009771038E+02 -0.64934483390E+01  0.18239933239E+02  0.30843624000E+02  0.51100000000E-03 0.  1.
        -12    1    3    3    0    0 -0.44247788452E+01  0.16799532308E+01  0.82972725542E+01  0.95522585039E+01  0.00000000000E+00 0.  1.
</event>
<event>
 7    1  0.5897985E-013  0.5052886E+02  0.7816164E-02  0.1300439E+00
        -11   -1    0    0    0    0  0.00000000000E+00  0.00000000000E+00  0.45593999997E+02  0.45594000000E+02  0.51100000000E-03 0. -1.
         11   -1    0    0    0    0 -0.00000000000E+00 -0.00000000000E+00 -0.45593999997E+02  0.45594000000E+02  0.51100000000E-03 0.  1.
    9900012    2    1    2    0    0  0.10792090787E+01  0.19999296842E+02 -0.35384017709E+02  0.50528864795E+02  0.30000015030E+02 0.  0.
         12    1    1    2    0    0 -0.10792090787E+01 -0.19999296842E+02  0.35384017709E+02  0.40659135205E+02  0.00000000000E+00 0. -1.
         11    1    3    3    0    0  0.74768303075E+01 -0.13911662984E+01 -0.25176463641E+01  0.80110472844E+01  0.51100000000E-03 0. -1.
        -11    1    3    3    0    0 -0.10858883097E+02  0.17577123035E+02 -0.28507722743E+02  0.35207397696E+02  0.51100000000E-03 0.  1.
        -12    1    3    3    0    0  0.44612618683E+01  0.38133401052E+01 -0.43586486025E+01  0.73104198139E+01  0.00000000000E+00 0.  1.
</event>
<event>
 7    1  0.5897985E-013  0.5052886E+02  0.7816164E-02  0.1300439E+00
        -11   -1    0    0    0    0  0.00000000000E+00  0.00000000000E+00  0.45593999997E+02  0.45594000000E+02  0.51100000000E-03 0.  1.
         11   -1    0    0    0    0 -0.00000000000E+00 -0.00000000000E+00 -0.45593999997E+02  0.45594000000E+02  0.51100000000E-03 0. -1.
    9900012    2    1    2    0    0  0.36134806259E+02 -0.10442774561E+02  0.15439882245E+02  0.50528859236E+02  0.29999998134E+02 0.  0.
         12    1    1    2    0    0 -0.36134806259E+02  0.10442774561E+02 -0.15439882245E+02  0.40659140764E+02  0.00000000000E+00 0. -1.
         11    1    3    3    0    0  0.66368063900E+01  0.36611054597E+01  0.23682014565E+01  0.79409867551E+01  0.51100000000E-03 0. -1.
        -11    1    3    3    0    0  0.16013090262E+02 -0.17240906520E+02  0.15976471299E+02  0.28441440766E+02  0.51100000000E-03 0.  1.
        -12    1    3    3    0    0  0.13484909607E+02  0.31370264999E+01 -0.29047905110E+01  0.14146431716E+02  0.00000000000E+00 0.  1.
</event>
<event>
 7    1  0.5897985E-013  0.5052886E+02  0.7816164E-02  0.1300439E+00
        -11   -1    0    0    0    0  0.00000000000E+00  0.00000000000E+00  0.45593999997E+02  0.45594000000E+02  0.51100000000E-03 0. -1.
         11   -1    0    0    0    0 -0.00000000000E+00 -0.00000000000E+00 -0.45593999997E+02  0.45594000000E+02  0.51100000000E-03 0.  1.
    9900012    2    1    2    0    0 -0.25166323225E+01  0.31509646632E+02 -0.25572923999E+02  0.50528859442E+02  0.29999998759E+02 0.  0.
         12    1    1    2    0    0  0.25166323225E+01 -0.31509646632E+02  0.25572923999E+02  0.40659140558E+02  0.00000000000E+00 0. -1.
         11    1    3    3    0    0  0.92894866337E+01  0.65268741672E+01 -0.29993784626E+01  0.11742696442E+02  0.51100000000E-03 0. -1.
        -11    1    3    3    0    0 -0.12217887538E+02  0.26914288123E+02 -0.21365133189E+02  0.36470873276E+02  0.51100000000E-03 0.  1.
        -12    1    3    3    0    0  0.41176858181E+00 -0.19315156583E+01 -0.12084123472E+01  0.23152897236E+01  0.00000000000E+00 0.  1.
</event>
<event>
 7    1  0.5897985E-013  0.5052886E+02  0.7816164E-02  0.1300439E+00
        -11   -1    0    0    0    0  0.00000000000E+00  0.00000000000E+00  0.45593999997E+02  0.45594000000E+02  0.51100000000E-03 0. -1.
         11   -1    0    0    0    0 -0.00000000000E+00 -0.00000000000E+00 -0.45593999997E+02  0.45594000000E+02  0.51100000000E-03 0.  1.
    9900012    2    1    2    0    0  0.60630547812E+01  0.12807431142E+02 -0.38110030478E+02  0.50528863895E+02  0.30000012297E+02 0.  0.
         12    1    1    2    0    0 -0.60630547812E+01 -0.12807431142E+02  0.38110030478E+02  0.40659136105E+02  0.00000000000E+00 0. -1.
         11    1    3    3    0    0  0.56570785810E+01  0.21166138712E+02 -0.29164554228E+02  0.36477105006E+02  0.51100000000E-03 0. -1.
        -11    1    3    3    0    0  0.18838207455E+01 -0.65732507440E+01 -0.94649318419E+01  0.11676529492E+02  0.51100000000E-03 0.  1.
         12    1    3    3    0    0 -0.14778445453E+01 -0.17854568260E+01  0.51945559213E+00  0.23752293973E+01  0.00000000000E+00 0. -1.
</event>
<event>
 7    1  0.5897985E-013  0.5052887E+02  0.7816164E-02  0.1300439E+00
        -11   -1    0    0    0    0  0.00000000000E+00  0.00000000000E+00  0.45593999997E+02  0.45594000000E+02  0.51100000000E-03 0.  1.
         11   -1    0    0    0    0 -0.00000000000E+00 -0.00000000000E+00 -0.45593999997E+02  0.45594000000E+02  0.51100000000E-03 0. -1.
    9900012    2    1    2    0    0  0.14989904634E+02 -0.26846573379E+01  0.37699603934E+02  0.50528871102E+02  0.30000034201E+02 0.  0.
         12    1    1    2    0    0 -0.14989904634E+02  0.26846573379E+01 -0.37699603934E+02  0.40659128898E+02  0.00000000000E+00 0. -1.
         11    1    3    3    0    0  0.72174136503E+01 -0.13966718343E+02  0.95834093836E+01  0.18412007406E+02  0.51100000000E-03 0. -1.
        -11    1    3    3    0    0  0.86838442875E+01  0.75270798941E+01  0.22939451361E+02  0.25657055801E+02  0.51100000000E-03 0.  1.
         12    1    3    3    0    0 -0.91135330399E+00  0.37549811106E+01  0.51767431895E+01  0.64598078946E+01  0.00000000000E+00 0. -1.
</event>
<event>
 7    1  0.5897985E-013  0.5052886E+02  0.7816164E-02  0.1300439E+00
        -11   -1    0    0    0    0  0.00000000000E+00  0.00000000000E+00  0.45593999997E+02  0.45594000000E+02  0.51100000000E-03 0.  1.
         11   -1    0    0    0    0 -0.00000000000E+00 -0.00000000000E+00 -0.45593999997E+02  0.45594000000E+02  0.51100000000E-03 0. -1.
    9900012    2    1    2    0    0  0.16888677570E+02 -0.18003140513E+02  0.32308283590E+02  0.50528859737E+02  0.29999999657E+02 0.  0.
         12    1    1    2    0    0 -0.16888677570E+02  0.18003140513E+02 -0.32308283590E+02  0.40659140263E+02  0.00000000000E+00 0. -1.
         11    1    3    3    0    0 -0.30666143825E+01 -0.68237586798E+01  0.85700984697E+01  0.11376044758E+02  0.51100000000E-03 0. -1.
        -11    1    3    3    0    0  0.24199419307E+02 -0.11502724381E+02  0.21436195760E+02  0.34313773502E+02  0.51100000000E-03 0.  1.
        -12    1    3    3    0    0 -0.42441273550E+01  0.32334254805E+00  0.23019893600E+01  0.48390414776E+01  0.00000000000E+00 0.  1.
</event>
<event>
 7    1  0.5897985E-013  0.5052886E+02  0.7816164E-02  0.1300439E+00
        -11   -1    0    0    0    0  0.00000000000E+00  0.00000000000E+00  0.45593999997E+02  0.45594000000E+02  0.51100000000E-03 0.  1.
         11   -1    0    0    0    0 -0.00000000000E+00 -0.00000000000E+00 -0.45593999997E+02  0.45594000000E+02  0.51100000000E-03 0. -1.
    9900012    2    1    2    0    0 -0.62619477266E+01  0.32487238360E+02 -0.23633302285E+02  0.50528860529E+02  0.30000002065E+02 0.  0.
         12    1    1    2    0    0  0.62619477266E+01 -0.32487238360E+02  0.23633302285E+02  0.40659139471E+02  0.00000000000E+00 0. -1.
         11    1    3    3    0    0 -0.11039241790E+02  0.16421369021E+01 -0.32125625635E+01  0.11613872368E+02  0.51100000000E-03 0. -1.
        -11    1    3    3    0    0  0.19713952934E+01  0.28461658911E+02 -0.14653907525E+02  0.32073188700E+02  0.51100000000E-03 0.  1.
         12    1    3    3    0    0  0.28058987701E+01  0.23834425466E+01 -0.57668321965E+01  0.68417994610E+01  0.00000000000E+00 0. -1.
</event>
<event>
 7    1  0.5897985E-013  0.5052886E+02  0.7816164E-02  0.1300439E+00
        -11   -1    0    0    0    0  0.00000000000E+00  0.00000000000E+00  0.45593999997E+02  0.45594000000E+02  0.51100000000E-03 0.  1.
         11   -1    0    0    0    0 -0.00000000000E+00 -0.00000000000E+00 -0.45593999997E+02  0.45594000000E+02  0.51100000000E-03 0. -1.
    9900012    2    1    2    0    0  0.22743042560E+02  0.76174636999E+01  0.32831296973E+02  0.50528858358E+02  0.29999995465E+02 0.  0.
         12    1    1    2    0    0 -0.22743042560E+02 -0.76174636999E+01 -0.32831296973E+02  0.40659141642E+02  0.00000000000E+00 0. -1.
         11    1    3    3    0    0  0.15010616025E+02  0.72364392741E+01  0.36695674325E+02  0.40302073908E+02  0.51100000000E-03 0. -1.
        -11    1    3    3    0    0  0.63463489345E+01  0.59915261924E+00 -0.28356088028E+00  0.63808726436E+01  0.51100000000E-03 0.  1.
         12    1    3    3    0    0  0.13860776006E+01 -0.21812819348E+00 -0.35808164715E+01  0.38459118069E+01  0.00000000000E+00 0. -1.
</event>
<event>
 7    1  0.5897985E-013  0.5052886E+02  0.7816164E-02  0.1300439E+00
        -11   -1    0    0    0    0  0.00000000000E+00  0.00000000000E+00  0.45593999997E+02  0.45594000000E+02  0.51100000000E-03 0.  1.
         11   -1    0    0    0    0 -0.00000000000E+00 -0.00000000000E+00 -0.45593999997E+02  0.45594000000E+02  0.51100000000E-03 0. -1.
    9900012    2    1    2    0    0 -0.20251492792E+02 -0.40191375513E+00  0.35254515528E+02  0.50528863756E+02  0.30000011874E+02 0.  0.
         12    1    1    2    0    0  0.20251492792E+02  0.40191375513E+00 -0.35254515528E+02  0.40659136244E+02  0.00000000000E+00 0. -1.
         11    1    3    3    0    0 -0.19342856725E+02 -0.12801418471E+02  0.22913053269E+02  0.32604147459E+02  0.51100000000E-03 0. -1.
        -11    1    3    3    0    0 -0.12990737509E+01  0.62531455516E+01  0.86225942290E+01  0.10730263436E+02  0.51100000000E-03 0.  1.
         12    1    3    3    0    0  0.39043768408E+00  0.61463591640E+01  0.37188680297E+01  0.71944528618E+01  0.00000000000E+00 0. -1.
</event>
<event>
 7    1  0.5897985E-013  0.5052886E+02  0.7816164E-02  0.1300439E+00
        -11   -1    0    0    0    0  0.00000000000E+00  0.00000000000E+00  0.45593999997E+02  0.45594000000E+02  0.51100000000E-03 0.  1.
         11   -1    0    0    0    0 -0.00000000000E+00 -0.00000000000E+00 -0.45593999997E+02  0.45594000000E+02  0.51100000000E-03 0. -1.
    9900012    2    1    2    0    0  0.32115121166E+02 -0.17973082776E+02  0.17284471990E+02  0.50528859773E+02  0.29999999767E+02 0.  0.
         12    1    1    2    0    0 -0.32115121166E+02  0.17973082776E+02 -0.17284471990E+02  0.40659140227E+02  0.00000000000E+00 0. -1.
         11    1    3    3    0    0  0.99878885167E+01  0.51130161260E+01 -0.62690572081E-01  0.11220729981E+02  0.51100000000E-03 0. -1.
        -11    1    3    3    0    0  0.91464974010E+01 -0.19858799705E+02  0.99278538260E+01  0.24012343124E+02  0.51100000000E-03 0.  1.
        -12    1    3    3    0    0  0.12980735248E+02 -0.32272991970E+01  0.74193087365E+01  0.15295786669E+02  0.00000000000E+00 0.  1.
</event>
<event>
 7    1  0.5897985E-013  0.5052886E+02  0.7816164E-02  0.1300439E+00
        -11   -1    0    0    0    0  0.00000000000E+00  0.00000000000E+00  0.45593999997E+02  0.45594000000E+02  0.51100000000E-03 0.  1.
         11   -1    0    0    0    0 -0.00000000000E+00 -0.00000000000E+00 -0.45593999997E+02  0.45594000000E+02  0.51100000000E-03 0. -1.
    9900012    2    1    2    0    0  0.34212705840E+02  0.66834199742E+01  0.20928163305E+02  0.50528863723E+02  0.30000011773E+02 0.  0.
         12    1    1    2    0    0 -0.34212705840E+02 -0.66834199742E+01 -0.20928163305E+02  0.40659136277E+02  0.00000000000E+00 0. -1.
         11    1    3    3    0    0  0.10819275209E+02 -0.33142277048E+01 -0.55574046535E+01  0.12606568449E+02  0.51100000000E-03 0. -1.
        -11    1    3    3    0    0  0.95212010643E+01  0.89750427713E+01  0.14807200491E+02  0.19760006303E+02  0.51100000000E-03 0.  1.
         12    1    3    3    0    0  0.13872229567E+02  0.10226049078E+01  0.11678367468E+02  0.18162288971E+02  0.00000000000E+00 0. -1.
</event>
<event>
 7    1  0.5897985E-013  0.5052885E+02  0.7816164E-02  0.1300439E+00
        -11   -1    0    0    0    0  0.00000000000E+00  0.00000000000E+00  0.45593999997E+02  0.45594000000E+02  0.51100000000E-03 0. -1.
         11   -1    0    0    0    0 -0.00000000000E+00 -0.00000000000E+00 -0.45593999997E+02  0.45594000000E+02  0.51100000000E-03 0.  1.
    9900012    2    1    2    0    0  0.11999064429E+02  0.11714933632E+02 -0.37039829895E+02  0.50528853233E+02  0.29999979886E+02 0.  0.
         12    1    1    2    0    0 -0.11999064429E+02 -0.11714933632E+02  0.37039829895E+02  0.40659146767E+02  0.00000000000E+00 0. -1.
         11    1    3    3    0    0  0.36656394287E+01  0.20399305754E+02 -0.15976050096E+02  0.26168736397E+02  0.51100000000E-03 0. -1.
        -11    1    3    3    0    0  0.60215870826E+01 -0.75180991412E+01 -0.17076990750E+02  0.19606247449E+02  0.51100000000E-03 0.  1.
        -12    1    3    3    0    0  0.23118379178E+01 -0.11662729810E+01 -0.39867890497E+01  0.47538693873E+01  0.00000000000E+00 0.  1.
</event>
<event>
 7    1  0.5897985E-013  0.5052884E+02  0.7816164E-02  0.1300439E+00
        -11   -1    0    0    0    0  0.00000000000E+00  0.00000000000E+00  0.45593999997E+02  0.45594000000E+02  0.51100000000E-03 0.  1.
         11   -1    0    0    0    0 -0.00000000000E+00 -0.00000000000E+00 -0.45593999997E+02  0.45594000000E+02  0.51100000000E-03 0. -1.
    9900012    2    1    2    0    0 -0.86969466268E+01 -0.39704467162E+02 -0.10419043575E+01  0.50528841648E+02  0.29999944673E+02 0.  0.
         12    1    1    2    0    0  0.86969466268E+01  0.39704467162E+02  0.10419043575E+01  0.40659158352E+02  0.00000000000E+00 0. -1.
         11    1    3    3    0    0 -0.11101275237E+02 -0.19555694327E+02  0.66609960351E+01  0.23452768726E+02  0.51100000000E-03 0. -1.
        -11    1    3    3    0    0  0.41144354997E+01  0.12554261790E+01 -0.11777214938E+00  0.43033178958E+01  0.51100000000E-03 0.  1.
        -12    1    3    3    0    0 -0.17101068898E+01 -0.21404199014E+02 -0.75851282432E+01  0.22772755026E+02  0.00000000000E+00 0.  1.
</event>
<event>
 7    1  0.5897985E-013  0.5052886E+02  0.7816164E-02  0.1300439E+00
        -11   -1    0    0    0    0  0.00000000000E+00  0.00000000000E+00  0.45593999997E+02  0.45594000000E+02  0.51100000000E-03 0.  1.
         11   -1    0    0    0    0 -0.00000000000E+00 -0.00000000000E+00 -0.45593999997E+02  0.45594000000E+02  0.51100000000E-03 0. -1.
    9900012    2    1    2    0    0 -0.54074632899E+01 -0.30003897100E+02  0.26901514007E+02  0.50528856424E+02  0.29999989588E+02 0.  0.
         12    1    1    2    0    0  0.54074632899E+01  0.30003897100E+02 -0.26901514007E+02  0.40659143576E+02  0.00000000000E+00 0. -1.
         11    1    3    3    0    0 -0.18704758919E+01 -0.10017999514E+02  0.22672820953E+02  0.24857912313E+02  0.51100000000E-03 0. -1.
        -11    1    3    3    0    0  0.56469436544E+01 -0.10386775814E+02  0.33534624951E+00  0.11827321836E+02  0.51100000000E-03 0.  1.
         12    1    3    3    0    0 -0.91839310524E+01 -0.95991217715E+01  0.38933468048E+01  0.13843622275E+02  0.00000000000E+00 0. -1.
</event>
<event>
 7    1  0.5897985E-013  0.5052885E+02  0.7816164E-02  0.1300439E+00
        -11   -1    0    0    0    0  0.00000000000E+00  0.00000000000E+00  0.45593999997E+02  0.45594000000E+02  0.51100000000E-03 0. -1.
         11   -1    0    0    0    0 -0.00000000000E+00 -0.00000000000E+00 -0.45593999997E+02  0.45594000000E+02  0.51100000000E-03 0.  1.
    9900012    2    1    2    0    0 -0.34194297487E+02  0.20188960365E+02 -0.87362478946E+01  0.50528854306E+02  0.29999983150E+02 0.  0.
         12    1    1    2    0    0  0.34194297487E+02 -0.20188960365E+02  0.87362478946E+01  0.40659145694E+02  0.00000000000E+00 0. -1.
         11    1    3    3    0    0 -0.13642360439E+02  0.15227926460E+02  0.90588277557E+00  0.20465198912E+02  0.51100000000E-03 0. -1.
        -11    1    3    3    0    0 -0.21729113638E+02 -0.16173292147E+01 -0.71815822392E+01  0.22942215608E+02  0.51100000000E-03 0.  1.
        -12    1    3    3    0    0  0.11771765900E+01  0.65783631192E+01 -0.24605484310E+01  0.71214397866E+01  0.00000000000E+00 0.  1.
</event>
<event>
 7    1  0.5897985E-013  0.5052885E+02  0.7816164E-02  0.1300439E+00
        -11   -1    0    0    0    0  0.00000000000E+00  0.00000000000E+00  0.45593999997E+02  0.45594000000E+02  0.51100000000E-03 0. -1.
         11   -1    0    0    0    0 -0.00000000000E+00 -0.00000000000E+00 -0.45593999997E+02  0.45594000000E+02  0.51100000000E-03 0.  1.
    9900012    2    1    2    0    0 -0.19706622995E+02  0.31487285194E+02 -0.16533797270E+02  0.50528848866E+02  0.29999966613E+02 0.  0.
         12    1    1    2    0    0  0.19706622995E+02 -0.31487285194E+02  0.16533797270E+02  0.40659151134E+02  0.00000000000E+00 0. -1.
         11    1    3    3    0    0 -0.15192934401E+02  0.18153581496E+02  0.29529056608E+01  0.23855763014E+02  0.51100000000E-03 0. -1.
        -11    1    3    3    0    0 -0.74828897287E+01  0.11085058465E+02 -0.10694087393E+02  0.17124125241E+02  0.51100000000E-03 0.  1.
         12    1    3    3    0    0  0.29692011347E+01  0.22486452335E+01 -0.87926155375E+01  0.95489606113E+01  0.00000000000E+00 0. -1.
</event>
<event>
 7    1  0.5897985E-013  0.5052886E+02  0.7816164E-02  0.1300439E+00
        -11   -1    0    0    0    0  0.00000000000E+00  0.00000000000E+00  0.45593999997E+02  0.45594000000E+02  0.51100000000E-03 0. -1.
         11   -1    0    0    0    0 -0.00000000000E+00 -0.00000000000E+00 -0.45593999997E+02  0.45594000000E+02  0.51100000000E-03 0.  1.
    9900012    2    1    2    0    0  0.37419511552E+02  0.15776029945E+02 -0.20156068305E+01  0.50528860357E+02  0.30000001542E+02 0.  0.
         12    1    1    2    0    0 -0.37419511552E+02 -0.15776029945E+02  0.20156068305E+01  0.40659139643E+02  0.00000000000E+00 0. -1.
         11    1    3    3    0    0  0.57386678048E+01  0.73701518753E+01  0.35947706820E+01  0.10008687394E+02  0.51100000000E-03 0. -1.
        -11    1    3    3    0    0  0.31131403476E+02  0.11991505753E+01 -0.91527230865E+01  0.32471134638E+02  0.51100000000E-03 0.  1.
        -12    1    3    3    0    0  0.54944027053E+00  0.72067274945E+01  0.35423455740E+01  0.80490383250E+01  0.00000000000E+00 0.  1.
</event>
<event>
 7    1  0.5897985E-013  0.5052894E+02  0.7816164E-02  0.1300439E+00
        -11   -1    0    0    0    0  0.00000000000E+00  0.00000000000E+00  0.45593999997E+02  0.45594000000E+02  0.51100000000E-03 0.  1.
         11   -1    0    0    0    0 -0.00000000000E+00 -0.00000000000E+00 -0.45593999997E+02  0.45594000000E+02  0.51100000000E-03 0. -1.
    9900012    2    1    2    0    0  0.15199759912E+01 -0.39822081791E+01  0.40435023772E+02  0.50528936355E+02  0.30000232545E+02 0.  0.
         12    1    1    2    0    0 -0.15199759912E+01  0.39822081791E+01 -0.40435023772E+02  0.40659063645E+02  0.00000000000E+00 0. -1.
         11    1    3    3    0    0 -0.76753849742E-01 -0.29229507257E+01  0.13677249012E+01  0.32280340402E+01  0.51100000000E-03 0. -1.
        -11    1    3    3    0    0 -0.31591747185E+01  0.78035678688E+01  0.35722439635E+02  0.36701072874E+02  0.51100000000E-03 0.  1.
        -12    1    3    3    0    0  0.47559045594E+01 -0.88628253222E+01  0.33448592361E+01  0.10599829441E+02  0.00000000000E+00 0.  1.
</event>
<event>
 7    1  0.5897985E-013  0.5052883E+02  0.7816164E-02  0.1300439E+00
        -11   -1    0    0    0    0  0.00000000000E+00  0.00000000000E+00  0.45593999997E+02  0.45594000000E+02  0.51100000000E-03 0.  1.
         11   -1    0    0    0    0 -0.00000000000E+00 -0.00000000000E+00 -0.45593999997E+02  0.45594000000E+02  0.51100000000E-03 0. -1.
    9900012    2    1    2    0    0  0.35148803507E+02 -0.10627826346E+02  0.17457924313E+02  0.50528828807E+02  0.29999905641E+02 0.  0.
         12    1    1    2    0    0 -0.35148803507E+02  0.10627826346E+02 -0.17457924313E+02  0.40659171193E+02  0.00000000000E+00 0. -1.
         11    1    3    3    0    0 -0.61465340712E-01 -0.10137590673E+01 -0.15413640729E+01  0.18458843141E+01  0.51100000000E-03 0. -1.
        -11    1    3    3    0    0  0.31287695634E+02  0.99515735534E+00  0.20281332513E+02  0.37299365745E+02  0.51100000000E-03 0.  1.
        -12    1    3    3    0    0  0.39225732135E+01 -0.10609224634E+02 -0.12820441266E+01  0.11383578747E+02  0.00000000000E+00 0.  1.
</event>
<event>
 7    1  0.5897985E-013  0.5052885E+02  0.7816164E-02  0.1300439E+00
        -11   -1    0    0    0    0  0.00000000000E+00  0.00000000000E+00  0.45593999997E+02  0.45594000000E+02  0.51100000000E-03 0. -1.
         11   -1    0    0    0    0 -0.00000000000E+00 -0.00000000000E+00 -0.45593999997E+02  0.45594000000E+02  0.51100000000E-03 0.  1.
    9900012    2    1    2    0    0  0.76391370992E+01 -0.23910960686E+01 -0.39863422710E+02  0.50528853106E+02  0.29999979501E+02 0.  0.
         12    1    1    2    0    0 -0.76391370992E+01  0.23910960686E+01  0.39863422710E+02  0.40659146894E+02  0.00000000000E+00 0. -1.
         11    1    3    3    0    0 -0.45111190726E+00 -0.82648575165E+01 -0.55303936882E+01  0.99547288425E+01  0.51100000000E-03 0. -1.
        -11    1    3    3    0    0  0.74903183357E+01  0.12694121796E+02 -0.24509728514E+02  0.28600216591E+02  0.51100000000E-03 0.  1.
        -12    1    3    3    0    0  0.59993067081E+00 -0.68203603484E+01 -0.98233005074E+01  0.11973907673E+02  0.00000000000E+00 0.  1.
</event>
<event>
 7    1  0.5897985E-013  0.5052891E+02  0.7816164E-02  0.1300439E+00
        -11   -1    0    0    0    0  0.00000000000E+00  0.00000000000E+00  0.45593999997E+02  0.45594000000E+02  0.51100000000E-03 0.  1.
         11   -1    0    0    0    0 -0.00000000000E+00 -0.00000000000E+00 -0.45593999997E+02  0.45594000000E+02  0.51100000000E-03 0. -1.
    9900012    2    1    2    0    0  0.12236783931E+02  0.27450425999E+02  0.27384241144E+02  0.50528912067E+02  0.30000158719E+02 0.  0.
         12    1    1    2    0    0 -0.12236783931E+02 -0.27450425999E+02 -0.27384241144E+02  0.40659087933E+02  0.00000000000E+00 0. -1.
         11    1    3    3    0    0  0.11061688344E+02  0.10382918303E+02  0.88006551577E+00  0.15196725209E+02  0.51100000000E-03 0. -1.
        -11    1    3    3    0    0  0.44215875612E+01  0.10536997792E+02  0.25534813003E+02  0.27975085958E+02  0.51100000000E-03 0.  1.
        -12    1    3    3    0    0 -0.32464919751E+01  0.65305099038E+01  0.96936262600E+00  0.73571008997E+01  0.00000000000E+00 0.  1.
</event>
<event>
 7    1  0.5897985E-013  0.5052885E+02  0.7816164E-02  0.1300439E+00
        -11   -1    0    0    0    0  0.00000000000E+00  0.00000000000E+00  0.45593999997E+02  0.45594000000E+02  0.51100000000E-03 0.  1.
         11   -1    0    0    0    0 -0.00000000000E+00 -0.00000000000E+00 -0.45593999997E+02  0.45594000000E+02  0.51100000000E-03 0. -1.
    9900012    2    1    2    0    0 -0.15778447496E+02 -0.36035794197E+00  0.37471015594E+02  0.50528852532E+02  0.29999977756E+02 0.  0.
         12    1    1    2    0    0  0.15778447496E+02  0.36035794197E+00 -0.37471015594E+02  0.40659147468E+02  0.00000000000E+00 0. -1.
         11    1    3    3    0    0  0.96881581345E+00  0.16488715531E+01  0.22642943820E+02  0.22723562366E+02  0.51100000000E-03 0. -1.
        -11    1    3    3    0    0 -0.19437176176E+02 -0.34444606858E+01  0.10085412628E+02  0.22167175626E+02  0.51100000000E-03 0.  1.
        -12    1    3    3    0    0  0.26899128662E+01  0.14352311908E+01  0.47426591448E+01  0.56381145397E+01  0.00000000000E+00 0.  1.
</event>
<event>
 7    1  0.5897985E-013  0.5052889E+02  0.7816164E-02  0.1300439E+00
        -11   -1    0    0    0    0  0.00000000000E+00  0.00000000000E+00  0.45593999997E+02  0.45594000000E+02  0.51100000000E-03 0.  1.
         11   -1    0    0    0    0 -0.00000000000E+00 -0.00000000000E+00 -0.45593999997E+02  0.45594000000E+02  0.51100000000E-03 0. -1.
    9900012    2    1    2    0    0 -0.28337608944E+02  0.15857849173E+02  0.24467770903E+02  0.50528889409E+02  0.30000089848E+02 0.  0.
         12    1    1    2    0    0  0.28337608944E+02 -0.15857849173E+02 -0.24467770903E+02  0.40659110591E+02  0.00000000000E+00 0. -1.
         11    1    3    3    0    0 -0.31421194175E+02  0.13989919354E+02  0.15328623409E+02  0.37656021866E+02  0.51100000000E-03 0. -1.
        -11    1    3    3    0    0 -0.22985055969E+01 -0.14681686920E+01  0.29708311972E+01  0.40329251853E+01  0.51100000000E-03 0.  1.
         12    1    3    3    0    0  0.53820908273E+01  0.33360985110E+01  0.61683162966E+01  0.88399423574E+01  0.00000000000E+00 0. -1.
</event>
<event>
 7    1  0.5897985E-013  0.5052886E+02  0.7816164E-02  0.1300439E+00
        -11   -1    0    0    0    0  0.00000000000E+00  0.00000000000E+00  0.45593999997E+02  0.45594000000E+02  0.51100000000E-03 0.  1.
         11   -1    0    0    0    0 -0.00000000000E+00 -0.00000000000E+00 -0.45593999997E+02  0.45594000000E+02  0.51100000000E-03 0. -1.
    9900012    2    1    2    0    0  0.10327297019E+02 -0.33614597590E+02  0.20410089177E+02  0.50528856193E+02  0.29999988885E+02 0.  0.
         12    1    1    2    0    0 -0.10327297019E+02  0.33614597590E+02 -0.20410089177E+02  0.40659143807E+02  0.00000000000E+00 0. -1.
         11    1    3    3    0    0 -0.21366945957E+01  0.38405678746E-01 -0.12287949654E+01  0.24651320694E+01  0.51100000000E-03 0. -1.
        -11    1    3    3    0    0  0.12512673342E+02 -0.36741093286E+02  0.22492258525E+02  0.44859520994E+02  0.51100000000E-03 0.  1.
        -12    1    3    3    0    0 -0.48681726550E-01  0.30880900167E+01 -0.85337438225E+00  0.32042031300E+01  0.00000000000E+00 0.  1.
</event>
<event>
 7    1  0.5897985E-013  0.5052886E+02  0.7816164E-02  0.1300439E+00
        -11   -1    0    0    0    0  0.00000000000E+00  0.00000000000E+00  0.45593999997E+02  0.45594000000E+02  0.51100000000E-03 0. -1.
         11   -1    0    0    0    0 -0.00000000000E+00 -0.00000000000E+00 -0.45593999997E+02  0.45594000000E+02  0.51100000000E-03 0.  1.
    9900012    2    1    2    0    0  0.22504486631E+01 -0.25361095596E+02 -0.31700415680E+02  0.50528855355E+02  0.29999986336E+02 0.  0.
         12    1    1    2    0    0 -0.22504486631E+01  0.25361095596E+02  0.31700415680E+02  0.40659144645E+02  0.00000000000E+00 0. -1.
         11    1    3    3    0    0 -0.80494144814E+00 -0.13192769269E+02 -0.20503400811E+01  0.13375387337E+02  0.51100000000E-03 0. -1.
        -11    1    3    3    0    0 -0.27700930460E+01 -0.48840886787E+01 -0.26827141628E+02  0.27408452453E+02  0.51100000000E-03 0.  1.
         12    1    3    3    0    0  0.58254831572E+01 -0.72842376485E+01 -0.28229339711E+01  0.97450155639E+01  0.00000000000E+00 0. -1.
</event>
<event>
 7    1  0.5897985E-013  0.5052885E+02  0.7816164E-02  0.1300439E+00
        -11   -1    0    0    0    0  0.00000000000E+00  0.00000000000E+00  0.45593999997E+02  0.45594000000E+02  0.51100000000E-03 0.  1.
         11   -1    0    0    0    0 -0.00000000000E+00 -0.00000000000E+00 -0.45593999997E+02  0.45594000000E+02  0.51100000000E-03 0. -1.
    9900012    2    1    2    0    0 -0.27199665557E+02  0.69662929294E+01  0.29407742514E+02  0.50528851418E+02  0.29999974371E+02 0.  0.
         12    1    1    2    0    0  0.27199665557E+02 -0.69662929294E+01 -0.29407742514E+02  0.40659148582E+02  0.00000000000E+00 0. -1.
         11    1    3    3    0    0 -0.58870343845E+01  0.13220982646E+01 -0.10044590546E+01  0.61167030269E+01  0.51100000000E-03 0. -1.
        -11    1    3    3    0    0 -0.13483552517E+02 -0.10203255489E+01  0.31296351384E+02  0.34092651158E+02  0.51100000000E-03 0.  1.
        -12    1    3    3    0    0 -0.78290786550E+01  0.66645202137E+01 -0.88414981536E+00  0.10319497234E+02  0.00000000000E+00 0.  1.
</event>
<event>
 7    1  0.5897985E-013  0.5052885E+02  0.7816164E-02  0.1300439E+00
        -11   -1    0    0    0    0  0.00000000000E+00  0.00000000000E+00  0.45593999997E+02  0.45594000000E+02  0.51100000000E-03 0. -1.
         11   -1    0    0    0    0 -0.00000000000E+00 -0.00000000000E+00 -0.45593999997E+02  0.45594000000E+02  0.51100000000E-03 0.  1.
    9900012    2    1    2    0    0 -0.38241145612E+02 -0.14976821366E+01 -0.13730911461E+02  0.50528853440E+02  0.29999980515E+02 0.  0.
         12    1    1    2    0    0  0.38241145612E+02  0.14976821366E+01  0.13730911461E+02  0.40659146560E+02  0.00000000000E+00 0. -1.
         11    1    3    3    0    0 -0.85808378380E+01  0.97437900064E+01 -0.71161032157E+01  0.14805780862E+02  0.51100000000E-03 0. -1.
        -11    1    3    3    0    0 -0.31072078011E+02 -0.88289508752E+01 -0.58803553037E+01  0.32832955765E+02  0.51100000000E-03 0.  1.
        -12    1    3    3    0    0  0.14117702374E+01 -0.24125212679E+01 -0.73445294113E+00  0.28901168132E+01  0.00000000000E+00 0.  1.
</event>
<event>
 7    1  0.5897985E-013  0.5052886E+02  0.7816164E-02  0.1300439E+00
        -11   -1    0    0    0    0  0.00000000000E+00  0.00000000000E+00  0.45593999997E+02  0.45594000000E+02  0.51100000000E-03 0.  1.
         11   -1    0    0    0    0 -0.00000000000E+00 -0.00000000000E+00 -0.45593999997E+02  0.45594000000E+02  0.51100000000E-03 0. -1.
    9900012    2    1    2    0    0 -0.31289070780E+02 -0.41333867720E+01  0.25633477598E+02  0.50528855761E+02  0.29999987570E+02 0.  0.
         12    1    1    2    0    0  0.31289070780E+02  0.41333867720E+01 -0.25633477598E+02  0.40659144239E+02  0.00000000000E+00 0. -1.
         11    1    3    3    0    0  0.33930611506E+01  0.62031044216E+01  0.31095086095E+01  0.77240153087E+01  0.51100000000E-03 0. -1.
        -11    1    3    3    0    0 -0.12052749835E+02 -0.54234864515E+01  0.74079871507E+01  0.15151279080E+02  0.51100000000E-03 0.  1.
         12    1    3    3    0    0 -0.22629382095E+02 -0.49130047421E+01  0.15115981838E+02  0.27653561372E+02  0.00000000000E+00 0. -1.
</event>
<event>
 7    1  0.5897985E-013  0.5052886E+02  0.7816164E-02  0.1300439E+00
        -11   -1    0    0    0    0  0.00000000000E+00  0.00000000000E+00  0.45593999997E+02  0.45594000000E+02  0.51100000000E-03 0. -1.
         11   -1    0    0    0    0 -0.00000000000E+00 -0.00000000000E+00 -0.45593999997E+02  0.45594000000E+02  0.51100000000E-03 0.  1.
    9900012    2    1    2    0    0 -0.16839548344E+02  0.46314981579E+01 -0.36717084307E+02  0.50528862729E+02  0.30000008752E+02 0.  0.
         12    1    1    2    0    0  0.16839548344E+02 -0.46314981579E+01  0.36717084307E+02  0.40659137271E+02  0.00000000000E+00 0. -1.
         11    1    3    3    0    0 -0.72491625547E+00 -0.79066503476E+01  0.32525793725E+00  0.79464719394E+01  0.51100000000E-03 0. -1.
        -11    1    3    3    0    0 -0.92444606917E+01  0.76585817285E+01 -0.16729620784E+02  0.20591117974E+02  0.51100000000E-03 0.  1.
         12    1    3    3    0    0 -0.68701713970E+01  0.48795667771E+01 -0.20312721460E+02  0.21991272816E+02  0.00000000000E+00 0. -1.
</event>
<event>
 7    1  0.5897985E-013  0.5052886E+02  0.7816164E-02  0.1300439E+00
        -11   -1    0    0    0    0  0.00000000000E+00  0.00000000000E+00  0.45593999997E+02  0.45594000000E+02  0.51100000000E-03 0.  1.
         11   -1    0    0    0    0 -0.00000000000E+00 -0.00000000000E+00 -0.45593999997E+02  0.45594000000E+02  0.51100000000E-03 0. -1.
    9900012    2    1    2    0    0 -0.16542115205E+02 -0.27599094937E+02  0.24855868999E+02  0.50528857849E+02  0.29999993917E+02 0.  0.
         12    1    1    2    0    0  0.16542115205E+02  0.27599094937E+02 -0.24855868999E+02  0.40659142151E+02  0.00000000000E+00 0. -1.
         11    1    3    3    0    0 -0.35596538437E+01 -0.50300263131E+01 -0.43381971703E-01  0.61623195676E+01  0.51100000000E-03 0. -1.
        -11    1    3    3    0    0 -0.18142377795E+02 -0.11214357347E+02  0.23626649066E+02  0.31829643873E+02  0.51100000000E-03 0.  1.
        -12    1    3    3    0    0  0.51599164334E+01 -0.11354711277E+02  0.12726019041E+01  0.12536894408E+02  0.00000000000E+00 0.  1.
</event>
<event>
 7    1  0.5897985E-013  0.5052886E+02  0.7816164E-02  0.1300439E+00
        -11   -1    0    0    0    0  0.00000000000E+00  0.00000000000E+00  0.45593999997E+02  0.45594000000E+02  0.51100000000E-03 0.  1.
         11   -1    0    0    0    0 -0.00000000000E+00 -0.00000000000E+00 -0.45593999997E+02  0.45594000000E+02  0.51100000000E-03 0. -1.
    9900012    2    1    2    0    0 -0.11269476367E+01 -0.31569097391E+02  0.25598594522E+02  0.50528856348E+02  0.29999989354E+02 0.  0.
         12    1    1    2    0    0  0.11269476367E+01  0.31569097391E+02 -0.25598594522E+02  0.40659143652E+02  0.00000000000E+00 0. -1.
         11    1    3    3    0    0  0.17814321639E+01 -0.45837354187E+01 -0.43974631288E+01  0.65971064243E+01  0.51100000000E-03 0. -1.
        -11    1    3    3    0    0  0.53923126189E+01 -0.61703919372E+01  0.14603193978E+02  0.16745269382E+02  0.51100000000E-03 0.  1.
         12    1    3    3    0    0 -0.83006924195E+01 -0.20814970035E+02  0.15392863673E+02  0.27186480542E+02  0.00000000000E+00 0. -1.
</event>
<event>
 7    1  0.5897985E-013  0.5052886E+02  0.7816164E-02  0.1300439E+00
        -11   -1    0    0    0    0  0.00000000000E+00  0.00000000000E+00  0.45593999997E+02  0.45594000000E+02  0.51100000000E-03 0.  1.
         11   -1    0    0    0    0 -0.00000000000E+00 -0.00000000000E+00 -0.45593999997E+02  0.45594000000E+02  0.51100000000E-03 0. -1.
    9900012    2    1    2    0    0 -0.30699229247E+02 -0.21875951907E+01  0.26569489268E+02  0.50528855776E+02  0.29999987617E+02 0.  0.
         12    1    1    2    0    0  0.30699229247E+02  0.21875951907E+01 -0.26569489268E+02  0.40659144224E+02  0.00000000000E+00 0. -1.
         11    1    3    3    0    0 -0.15609619573E+02  0.12481554407E+02  0.18051615536E+02  0.26931584569E+02  0.51100000000E-03 0. -1.
        -11    1    3    3    0    0 -0.78732842634E+01 -0.52288215260E+01  0.92637097839E+00  0.94967016955E+01  0.51100000000E-03 0.  1.
         12    1    3    3    0    0 -0.72163254101E+01 -0.94403280714E+01  0.75915027528E+01  0.14100569512E+02  0.00000000000E+00 0. -1.
</event>
<event>
 7    1  0.5897985E-013  0.5052886E+02  0.7816164E-02  0.1300439E+00
        -11   -1    0    0    0    0  0.00000000000E+00  0.00000000000E+00  0.45593999997E+02  0.45594000000E+02  0.51100000000E-03 0. -1.
         11   -1    0    0    0    0 -0.00000000000E+00 -0.00000000000E+00 -0.45593999997E+02  0.45594000000E+02  0.51100000000E-03 0.  1.
    9900012    2    1    2    0    0 -0.60319816599E+01  0.35248872065E+02 -0.19346783702E+02  0.50528858049E+02  0.29999994525E+02 0.  0.
         12    1    1    2    0    0  0.60319816599E+01 -0.35248872065E+02  0.19346783702E+02  0.40659141951E+02  0.00000000000E+00 0. -1.
         11    1    3    3    0    0 -0.62585745307E+01  0.28792689164E+02 -0.13467505450E+01  0.29495803798E+02  0.51100000000E-03 0. -1.
        -11    1    3    3    0    0 -0.37063553306E+01  0.11830837034E+01 -0.96379436507E+01  0.10393590090E+02  0.51100000000E-03 0.  1.
         12    1    3    3    0    0  0.39329482014E+01  0.52730991979E+01 -0.83620895064E+01  0.10639464160E+02  0.00000000000E+00 0. -1.
</event>
<event>
 7    1  0.5897985E-013  0.5052886E+02  0.7816164E-02  0.1300439E+00
        -11   -1    0    0    0    0  0.00000000000E+00  0.00000000000E+00  0.45593999997E+02  0.45594000000E+02  0.51100000000E-03 0.  1.
         11   -1    0    0    0    0 -0.00000000000E+00 -0.00000000000E+00 -0.45593999997E+02  0.45594000000E+02  0.51100000000E-03 0. -1.
    9900012    2    1    2    0    0  0.18618411979E+02  0.11097662401E+00  0.36145649033E+02  0.50528861735E+02  0.30000005731E+02 0.  0.
         12    1    1    2    0    0 -0.18618411979E+02 -0.11097662401E+00 -0.36145649033E+02  0.40659138265E+02  0.00000000000E+00 0. -1.
         11    1    3    3    0    0  0.69946541777E+01  0.10007823678E+02  0.85757504695E+01  0.14920630624E+02  0.51100000000E-03 0. -1.
        -11    1    3    3    0    0  0.15058236766E+01 -0.11202057095E+02  0.91107154896E+01  0.14517531646E+02  0.51100000000E-03 0.  1.
        -12    1    3    3    0    0  0.10117934125E+02  0.13052100411E+01  0.18459183073E+02  0.21090699466E+02  0.00000000000E+00 0.  1.
</event>
<event>
 7    1  0.5897985E-013  0.5052886E+02  0.7816164E-02  0.1300439E+00
        -11   -1    0    0    0    0  0.00000000000E+00  0.00000000000E+00  0.45593999997E+02  0.45594000000E+02  0.51100000000E-03 0. -1.
         11   -1    0    0    0    0 -0.00000000000E+00 -0.00000000000E+00 -0.45593999997E+02  0.45594000000E+02  0.51100000000E-03 0.  1.
    9900012    2    1    2    0    0  0.33577832873E+02  0.13029405165E+02 -0.18866091299E+02  0.50528860064E+02  0.30000000651E+02 0.  0.
         12    1    1    2    0    0 -0.33577832873E+02 -0.13029405165E+02  0.18866091299E+02  0.40659139936E+02  0.00000000000E+00 0. -1.
         11    1    3    3    0    0  0.25149843546E+00 -0.60446828945E+01 -0.61455742822E+01  0.86237767989E+01  0.51100000000E-03 0. -1.
        -11    1    3    3    0    0  0.23330405792E+02  0.10381807325E+02 -0.35218089001E+01  0.25777759716E+02  0.51100000000E-03 0.  1.
         12    1    3    3    0    0  0.99959286457E+01  0.86922807340E+01 -0.91987081170E+01  0.16127323549E+02  0.00000000000E+00 0. -1.
</event>
<event>
 7    1  0.5897985E-013  0.5052886E+02  0.7816164E-02  0.1300439E+00
        -11   -1    0    0    0    0  0.00000000000E+00  0.00000000000E+00  0.45593999997E+02  0.45594000000E+02  0.51100000000E-03 0.  1.
         11   -1    0    0    0    0 -0.00000000000E+00 -0.00000000000E+00 -0.45593999997E+02  0.45594000000E+02  0.51100000000E-03 0. -1.
    9900012    2    1    2    0    0  0.23697536903E+02  0.23362215107E+02  0.23362352295E+02  0.50528857674E+02  0.29999993385E+02 0.  0.
         12    1    1    2    0    0 -0.23697536903E+02 -0.23362215107E+02 -0.23362352295E+02  0.40659142326E+02  0.00000000000E+00 0. -1.
         11    1    3    3    0    0  0.92737576199E+01  0.26744604997E+01  0.10243228586E+02  0.14074055972E+02  0.51100000000E-03 0. -1.
        -11    1    3    3    0    0  0.10075210471E+02  0.21375215281E+02  0.11017460916E+01  0.23656363606E+02  0.51100000000E-03 0.  1.
        -12    1    3    3    0    0  0.43485688115E+01 -0.68746067436E+00  0.12017377618E+02  0.12798438096E+02  0.00000000000E+00 0.  1.
</event>
<event>
 7    1  0.5897985E-013  0.5052900E+02  0.7816164E-02  0.1300438E+00
        -11   -1    0    0    0    0  0.00000000000E+00  0.00000000000E+00  0.45593999997E+02  0.45594000000E+02  0.51100000000E-03 0. -1.
         11   -1    0    0    0    0 -0.00000000000E+00 -0.00000000000E+00 -0.45593999997E+02  0.45594000000E+02  0.51100000000E-03 0.  1.
    9900012    2    1    2    0    0 -0.14105363504E+02  0.27483519441E+02 -0.26435751371E+02  0.50529002583E+02  0.30000433847E+02 0.  0.
         12    1    1    2    0    0  0.14105363504E+02 -0.27483519441E+02  0.26435751371E+02  0.40658997417E+02  0.00000000000E+00 0. -1.
         11    1    3    3    0    0  0.53745407274E+01  0.71771744690E+01 -0.74940235834E+00  0.89977289104E+01  0.51100000000E-03 0. -1.
        -11    1    3    3    0    0 -0.18062857737E+02  0.22688535355E+02 -0.25714769423E+02  0.38759332204E+02  0.51100000000E-03 0.  1.
         12    1    3    3    0    0 -0.14170464941E+01 -0.23821903823E+01  0.28420410314E-01  0.27719414683E+01  0.00000000000E+00 0. -1.
</event>
<event>
 7    1  0.5897985E-013  0.5052886E+02  0.7816164E-02  0.1300439E+00
        -11   -1    0    0    0    0  0.00000000000E+00  0.00000000000E+00  0.45593999997E+02  0.45594000000E+02  0.51100000000E-03 0. -1.
         11   -1    0    0    0    0 -0.00000000000E+00 -0.00000000000E+00 -0.45593999997E+02  0.45594000000E+02  0.51100000000E-03 0.  1.
    9900012    2    1    2    0    0 -0.38064676787E+02  0.73325031369E+01 -0.12267059127E+02  0.50528856370E+02  0.29999989421E+02 0.  0.
         12    1    1    2    0    0  0.38064676787E+02 -0.73325031369E+01  0.12267059127E+02  0.40659143630E+02  0.00000000000E+00 0. -1.
         11    1    3    3    0    0 -0.20988376596E+02 -0.11112412507E+02 -0.71736698441E+01  0.24808450237E+02  0.51100000000E-03 0. -1.
        -11    1    3    3    0    0 -0.62189014927E+01  0.55142690838E+01 -0.12635623749E+01  0.84070499845E+01  0.51100000000E-03 0.  1.
         12    1    3    3    0    0 -0.10857398698E+02  0.12930646561E+02 -0.38298269080E+01  0.17313356148E+02  0.00000000000E+00 0. -1.
</event>
<event>
 7    1  0.5897985E-013  0.5052886E+02  0.7816164E-02  0.1300439E+00
        -11   -1    0    0    0    0  0.00000000000E+00  0.00000000000E+00  0.45593999997E+02  0.45594000000E+02  0.51100000000E-03 0. -1.
         11   -1    0    0    0    0 -0.00000000000E+00 -0.00000000000E+00 -0.45593999997E+02  0.45594000000E+02  0.51100000000E-03 0.  1.
    9900012    2    1    2    0    0 -0.19893915882E+02  0.34513309509E+02 -0.81381491769E+01  0.50528857185E+02  0.29999991900E+02 0.  0.
         12    1    1    2    0    0  0.19893915882E+02 -0.34513309509E+02  0.81381491769E+01  0.40659142815E+02  0.00000000000E+00 0. -1.
         11    1    3    3    0    0 -0.12471713583E+02  0.13671735639E+02  0.45374408447E+01  0.19053828087E+02  0.51100000000E-03 0. -1.
        -11    1    3    3    0    0 -0.70663824596E+00  0.12888561314E+02 -0.15991100961E+02  0.20550660830E+02  0.51100000000E-03 0.  1.
        -12    1    3    3    0    0 -0.67155640529E+01  0.79530125562E+01  0.33155109392E+01  0.10924368268E+02  0.00000000000E+00 0.  1.
</event>
<event>
 7    1  0.5897985E-013  0.5052885E+02  0.7816164E-02  0.1300439E+00
        -11   -1    0    0    0    0  0.00000000000E+00  0.00000000000E+00  0.45593999997E+02  0.45594000000E+02  0.51100000000E-03 0.  1.
         11   -1    0    0    0    0 -0.00000000000E+00 -0.00000000000E+00 -0.45593999997E+02  0.45594000000E+02  0.51100000000E-03 0. -1.
    9900012    2    1    2    0    0 -0.28495661660E+02  0.27476146288E+02  0.92857386793E+01  0.50528852308E+02  0.29999977074E+02 0.  0.
         12    1    1    2    0    0  0.28495661660E+02 -0.27476146288E+02 -0.92857386793E+01  0.40659147692E+02  0.00000000000E+00 0. -1.
         11    1    3    3    0    0 -0.19963068302E+02  0.97598539809E+01  0.93038230757E+01  0.24090246363E+02  0.51100000000E-03 0. -1.
        -11    1    3    3    0    0 -0.43153875372E-01  0.14788706388E+02  0.56365692939E+01  0.15826516122E+02  0.51100000000E-03 0.  1.
         12    1    3    3    0    0 -0.84894394829E+01  0.29275859185E+01 -0.56546536902E+01  0.10612089822E+02  0.00000000000E+00 0. -1.
</event>
<event>
 7    1  0.5897985E-013  0.5052886E+02  0.7816164E-02  0.1300439E+00
        -11   -1    0    0    0    0  0.00000000000E+00  0.00000000000E+00  0.45593999997E+02  0.45594000000E+02  0.51100000000E-03 0.  1.
         11   -1    0    0    0    0 -0.00000000000E+00 -0.00000000000E+00 -0.45593999997E+02  0.45594000000E+02  0.51100000000E-03 0. -1.
    9900012    2    1    2    0    0 -0.87089362965E+01 -0.11246839743E+02  0.38089741230E+02  0.50528863725E+02  0.30000011780E+02 0.  0.
         12    1    1    2    0    0  0.87089362965E+01  0.11246839743E+02 -0.38089741230E+02  0.40659136275E+02  0.00000000000E+00 0. -1.
         11    1    3    3    0    0  0.21556131335E+00  0.52322150168E+01 -0.21591553551E+01  0.56643175026E+01  0.51100000000E-03 0. -1.
        -11    1    3    3    0    0 -0.97295054992E+01 -0.12954904939E+02  0.32554036979E+02  0.36362867917E+02  0.51100000000E-03 0.  1.
        -12    1    3    3    0    0  0.80500788939E+00 -0.35241498203E+01  0.76948596061E+01  0.85016783058E+01  0.00000000000E+00 0.  1.
</event>
<event>
 7    1  0.5897985E-013  0.5052886E+02  0.7816164E-02  0.1300439E+00
        -11   -1    0    0    0    0  0.00000000000E+00  0.00000000000E+00  0.45593999997E+02  0.45594000000E+02  0.51100000000E-03 0.  1.
         11   -1    0    0    0    0 -0.00000000000E+00 -0.00000000000E+00 -0.45593999997E+02  0.45594000000E+02  0.51100000000E-03 0. -1.
    9900012    2    1    2    0    0 -0.75712619887E+01  0.21392989012E+02  0.33736949821E+02  0.50528858713E+02  0.29999996545E+02 0.  0.
         12    1    1    2    0    0  0.75712619887E+01 -0.21392989012E+02 -0.33736949821E+02  0.40659141287E+02  0.00000000000E+00 0. -1.
         11    1    3    3    0    0 -0.32589982153E+01 -0.73884460825E+00 -0.19639723536E+01  0.38760996361E+01  0.51100000000E-03 0. -1.
        -11    1    3    3    0    0 -0.66403129328E+01  0.25140198307E+02  0.29022942960E+02  0.38967352298E+02  0.51100000000E-03 0.  1.
        -12    1    3    3    0    0  0.23280491594E+01 -0.30083646874E+01  0.66779792141E+01  0.76854067794E+01  0.00000000000E+00 0.  1.
</event>
<event>
 7    1  0.5897985E-013  0.5052886E+02  0.7816164E-02  0.1300439E+00
        -11   -1    0    0    0    0  0.00000000000E+00  0.00000000000E+00  0.45593999997E+02  0.45594000000E+02  0.51100000000E-03 0.  1.
         11   -1    0    0    0    0 -0.00000000000E+00 -0.00000000000E+00 -0.45593999997E+02  0.45594000000E+02  0.51100000000E-03 0. -1.
    9900012    2    1    2    0    0  0.32086789873E+02  0.21275744799E+02  0.13074643721E+02  0.50528859459E+02  0.29999998811E+02 0.  0.
         12    1    1    2    0    0 -0.32086789873E+02 -0.21275744799E+02 -0.13074643721E+02  0.40659140541E+02  0.00000000000E+00 0. -1.
         11    1    3    3    0    0  0.35507100400E+00 -0.27959300616E+01  0.75784827565E+01  0.80855860319E+01  0.51100000000E-03 0. -1.
        -11    1    3    3    0    0  0.21262712782E+02  0.11987831016E+02  0.91064658234E+01  0.26052615366E+02  0.51100000000E-03 0.  1.
         12    1    3    3    0    0  0.10469006087E+02  0.12083843845E+02 -0.36103048593E+01  0.16390658061E+02  0.00000000000E+00 0. -1.
</event>
<event>
 7    1  0.5897985E-013  0.5052886E+02  0.7816164E-02  0.1300439E+00
        -11   -1    0    0    0    0  0.00000000000E+00  0.00000000000E+00  0.45593999997E+02  0.45594000000E+02  0.51100000000E-03 0.  1.
         11   -1    0    0    0    0 -0.00000000000E+00 -0.00000000000E+00 -0.45593999997E+02  0.45594000000E+02  0.51100000000E-03 0. -1.
    9900012    2    1    2    0    0  0.29028032126E+02  0.26476223040E+01  0.28346583767E+02  0.50528863706E+02  0.30000011720E+02 0.  0.
         12    1    1    2    0    0 -0.29028032126E+02 -0.26476223040E+01 -0.28346583767E+02  0.40659136294E+02  0.00000000000E+00 0. -1.
         11    1    3    3    0    0  0.80383480517E+01 -0.46725633753E+01  0.10180610654E+02  0.13787411702E+02  0.51100000000E-03 0. -1.
        -11    1    3    3    0    0  0.22005702813E+02  0.40440516937E+01  0.47223358460E+01  0.22867132888E+02  0.51100000000E-03 0.  1.
        -12    1    3    3    0    0 -0.10160187388E+01  0.32761339857E+01  0.13443637267E+02  0.13874319116E+02  0.00000000000E+00 0.  1.
</event>
<event>
 7    1  0.5897985E-013  0.5052886E+02  0.7816164E-02  0.1300439E+00
        -11   -1    0    0    0    0  0.00000000000E+00  0.00000000000E+00  0.45593999997E+02  0.45594000000E+02  0.51100000000E-03 0. -1.
         11   -1    0    0    0    0 -0.00000000000E+00 -0.00000000000E+00 -0.45593999997E+02  0.45594000000E+02  0.51100000000E-03 0.  1.
    9900012    2    1    2    0    0 -0.37083513370E+02  0.16522190041E+02 -0.22351869805E+01  0.50528858489E+02  0.29999995862E+02 0.  0.
         12    1    1    2    0    0  0.37083513370E+02 -0.16522190041E+02  0.22351869805E+01  0.40659141511E+02  0.00000000000E+00 0. -1.
         11    1    3    3    0    0 -0.13091845864E+02  0.17937654757E+02  0.56861381196E+01  0.22923526197E+02  0.51100000000E-03 0. -1.
        -11    1    3    3    0    0 -0.14784447643E+02 -0.37801555263E+01 -0.44813616338E-01  0.15260127012E+02  0.51100000000E-03 0.  1.
         12    1    3    3    0    0 -0.92072198635E+01  0.23646908096E+01 -0.78765114838E+01  0.12345205280E+02  0.00000000000E+00 0. -1.
</event>
<event>
 7    1  0.5897985E-013  0.5052888E+02  0.7816164E-02  0.1300439E+00
        -11   -1    0    0    0    0  0.00000000000E+00  0.00000000000E+00  0.45593999997E+02  0.45594000000E+02  0.51100000000E-03 0. -1.
         11   -1    0    0    0    0 -0.00000000000E+00 -0.00000000000E+00 -0.45593999997E+02  0.45594000000E+02  0.51100000000E-03 0.  1.
    9900012    2    1    2    0    0  0.35280272264E+02 -0.57967128374E+01 -0.19361418785E+02  0.50528880136E+02  0.30000061661E+02 0.  0.
         12    1    1    2    0    0 -0.35280272264E+02  0.57967128374E+01  0.19361418785E+02  0.40659119864E+02  0.00000000000E+00 0. -1.
         11    1    3    3    0    0  0.19700790794E+00 -0.79138636639E+01  0.53484968603E+00  0.79343629016E+01  0.51100000000E-03 0. -1.
        -11    1    3    3    0    0  0.23202319974E+02 -0.48373403114E+01 -0.14642021082E+02  0.27859222801E+02  0.51100000000E-03 0.  1.
         12    1    3    3    0    0  0.11880944383E+02  0.69544911380E+01 -0.52542473889E+01  0.14735294433E+02  0.00000000000E+00 0. -1.
</event>
<event>
 7    1  0.5897985E-013  0.5052887E+02  0.7816164E-02  0.1300439E+00
        -11   -1    0    0    0    0  0.00000000000E+00  0.00000000000E+00  0.45593999997E+02  0.45594000000E+02  0.51100000000E-03 0.  1.
         11   -1    0    0    0    0 -0.00000000000E+00 -0.00000000000E+00 -0.45593999997E+02  0.45594000000E+02  0.51100000000E-03 0. -1.
    9900012    2    1    2    0    0 -0.14726064474E+02 -0.32870524426E+02  0.18863633992E+02  0.50528867713E+02  0.30000023901E+02 0.  0.
         12    1    1    2    0    0  0.14726064474E+02  0.32870524426E+02 -0.18863633992E+02  0.40659132287E+02  0.00000000000E+00 0. -1.
         11    1    3    3    0    0  0.19477735068E+01 -0.22879443206E+02  0.79706794624E+01  0.24306264098E+02  0.51100000000E-03 0. -1.
        -11    1    3    3    0    0 -0.16271943384E+02 -0.79912145722E+01  0.13721130722E+02  0.22735546625E+02  0.51100000000E-03 0.  1.
        -12    1    3    3    0    0 -0.40189459765E+00 -0.19998666470E+01 -0.28281761919E+01  0.34870569892E+01  0.00000000000E+00 0.  1.
</event>
<event>
 7    1  0.5897985E-013  0.5052886E+02  0.7816164E-02  0.1300439E+00
        -11   -1    0    0    0    0  0.00000000000E+00  0.00000000000E+00  0.45593999997E+02  0.45594000000E+02  0.51100000000E-03 0. -1.
         11   -1    0    0    0    0 -0.00000000000E+00 -0.00000000000E+00 -0.45593999997E+02  0.45594000000E+02  0.51100000000E-03 0.  1.
    9900012    2    1    2    0    0  0.26066045732E+02  0.17581219704E+02 -0.25780374681E+02  0.50528859021E+02  0.29999997481E+02 0.  0.
         12    1    1    2    0    0 -0.26066045732E+02 -0.17581219704E+02  0.25780374681E+02  0.40659140979E+02  0.00000000000E+00 0. -1.
         11    1    3    3    0    0  0.11953401948E+02  0.14368996862E+02 -0.27900928296E+01  0.18898055646E+02  0.51100000000E-03 0.  1.
        -11    1    3    3    0    0  0.16924668211E+02  0.53585829049E+01 -0.16487214282E+02  0.24227815417E+02  0.51100000000E-03 0. -1.
         12    1    3    3    0    0 -0.28120244276E+01 -0.21463600624E+01 -0.65030675693E+01  0.74029879582E+01  0.00000000000E+00 0. -1.
</event>
<event>
 7    1  0.5897985E-013  0.5052884E+02  0.7816164E-02  0.1300439E+00
        -11   -1    0    0    0    0  0.00000000000E+00  0.00000000000E+00  0.45593999997E+02  0.45594000000E+02  0.51100000000E-03 0. -1.
         11   -1    0    0    0    0 -0.00000000000E+00 -0.00000000000E+00 -0.45593999997E+02  0.45594000000E+02  0.51100000000E-03 0.  1.
    9900012    2    1    2    0    0  0.12232284013E+02  0.37672736568E+02 -0.91816785429E+01  0.50528842685E+02  0.29999947826E+02 0.  0.
         12    1    1    2    0    0 -0.12232284013E+02 -0.37672736568E+02  0.91816785429E+01  0.40659157315E+02  0.00000000000E+00 0. -1.
         11    1    3    3    0    0 -0.20974223544E+01  0.18242756002E+02 -0.86781838039E+00  0.18383428300E+02  0.51100000000E-03 0.  1.
        -11    1    3    3    0    0  0.15451131444E+02  0.19676773499E+02 -0.13147866190E+01  0.25052775143E+02  0.51100000000E-03 0. -1.
        -12    1    3    3    0    0 -0.11214250765E+01 -0.24679293313E+00 -0.69990735435E+01  0.70926392423E+01  0.00000000000E+00 0.  1.
</event>
<event>
 7    1  0.5897985E-013  0.5052877E+02  0.7816164E-02  0.1300439E+00
        -11   -1    0    0    0    0  0.00000000000E+00  0.00000000000E+00  0.45593999997E+02  0.45594000000E+02  0.51100000000E-03 0. -1.
         11   -1    0    0    0    0 -0.00000000000E+00 -0.00000000000E+00 -0.45593999997E+02  0.45594000000E+02  0.51100000000E-03 0.  1.
    9900012    2    1    2    0    0  0.28847231800E+02 -0.27487177045E+02 -0.80910556600E+01  0.50528771452E+02  0.29999731305E+02 0.  0.
         12    1    1    2    0    0 -0.28847231800E+02  0.27487177045E+02  0.80910556600E+01  0.40659228548E+02  0.00000000000E+00 0. -1.
         11    1    3    3    0    0  0.77409877564E+01 -0.40501915113E+01  0.66470121875E+01  0.10977691652E+02  0.51100000000E-03 0. -1.
        -11    1    3    3    0    0  0.19841464132E+02 -0.26521613016E+02 -0.11972989733E+02  0.35219769155E+02  0.51100000000E-03 0.  1.
         12    1    3    3    0    0  0.12647799115E+01  0.30846274829E+01 -0.27650781140E+01  0.43313106456E+01  0.00000000000E+00 0. -1.
</event>
<event>
 7    1  0.5897985E-013  0.5052890E+02  0.7816164E-02  0.1300439E+00
        -11   -1    0    0    0    0  0.00000000000E+00  0.00000000000E+00  0.45593999997E+02  0.45594000000E+02  0.51100000000E-03 0.  1.
         11   -1    0    0    0    0 -0.00000000000E+00 -0.00000000000E+00 -0.45593999997E+02  0.45594000000E+02  0.51100000000E-03 0. -1.
    9900012    2    1    2    0    0 -0.15096743449E+02  0.15473746638E+01  0.37720768050E+02  0.50528900485E+02  0.30000123513E+02 0.  0.
         12    1    1    2    0    0  0.15096743449E+02 -0.15473746638E+01 -0.37720768050E+02  0.40659099515E+02  0.00000000000E+00 0. -1.
         11    1    3    3    0    0 -0.14434521010E+02 -0.59133594926E+01  0.33544420816E+02  0.36993937144E+02  0.51100000000E-03 0. -1.
        -11    1    3    3    0    0  0.23993355961E+01  0.44555643787E+01  0.68225485970E+01  0.84944708402E+01  0.51100000000E-03 0.  1.
         12    1    3    3    0    0 -0.30615580355E+01  0.30051697777E+01 -0.26462013627E+01  0.50404925007E+01  0.00000000000E+00 0. -1.
</event>
<event>
 7    1  0.5897985E-013  0.5052886E+02  0.7816164E-02  0.1300439E+00
        -11   -1    0    0    0    0  0.00000000000E+00  0.00000000000E+00  0.45593999997E+02  0.45594000000E+02  0.51100000000E-03 0. -1.
         11   -1    0    0    0    0 -0.00000000000E+00 -0.00000000000E+00 -0.45593999997E+02  0.45594000000E+02  0.51100000000E-03 0.  1.
    9900012    2    1    2    0    0  0.27629197321E+02 -0.27081658303E+02 -0.12505080626E+02  0.50528858315E+02  0.29999995334E+02 0.  0.
         12    1    1    2    0    0 -0.27629197321E+02  0.27081658303E+02  0.12505080626E+02  0.40659141685E+02  0.00000000000E+00 0. -1.
         11    1    3    3    0    0  0.79896394982E+01  0.59489989513E+01 -0.43848845634E+01  0.10883572057E+02  0.51100000000E-03 0. -1.
        -11    1    3    3    0    0  0.14814779205E+02 -0.21296479872E+02 -0.72071903227E+01  0.26925105950E+02  0.51100000000E-03 0.  1.
         12    1    3    3    0    0  0.48247786178E+01 -0.11734177383E+02 -0.91300574032E+00  0.12720180307E+02  0.00000000000E+00 0. -1.
</event>
<event>
 7    1  0.5897985E-013  0.5052887E+02  0.7816164E-02  0.1300439E+00
        -11   -1    0    0    0    0  0.00000000000E+00  0.00000000000E+00  0.45593999997E+02  0.45594000000E+02  0.51100000000E-03 0.  1.
         11   -1    0    0    0    0 -0.00000000000E+00 -0.00000000000E+00 -0.45593999997E+02  0.45594000000E+02  0.51100000000E-03 0. -1.
    9900012    2    1    2    0    0  0.54117504537E+01  0.27615704211E+02  0.29347069723E+02  0.50528872324E+02  0.30000037917E+02 0.  0.
         12    1    1    2    0    0 -0.54117504537E+01 -0.27615704211E+02 -0.29347069723E+02  0.40659127676E+02  0.00000000000E+00 0. -1.
         11    1    3    3    0    0  0.32630888028E+01  0.20151799261E+01 -0.11985058490E+01  0.40180984558E+01  0.51100000000E-03 0. -1.
        -11    1    3    3    0    0  0.29157616278E+01  0.30041368063E+02  0.23988252769E+02  0.38554140273E+02  0.51100000000E-03 0.  1.
        -12    1    3    3    0    0 -0.76709997687E+00 -0.44408437788E+01  0.65573228028E+01  0.79566335961E+01  0.00000000000E+00 0.  1.
</event>
<event>
 7    1  0.5897985E-013  0.5052886E+02  0.7816164E-02  0.1300439E+00
        -11   -1    0    0    0    0  0.00000000000E+00  0.00000000000E+00  0.45593999997E+02  0.45594000000E+02  0.51100000000E-03 0.  1.
         11   -1    0    0    0    0 -0.00000000000E+00 -0.00000000000E+00 -0.45593999997E+02  0.45594000000E+02  0.51100000000E-03 0. -1.
    9900012    2    1    2    0    0  0.30803952004E+02  0.75651118002E+01  0.25437204393E+02  0.50528859048E+02  0.29999997563E+02 0.  0.
         12    1    1    2    0    0 -0.30803952004E+02 -0.75651118002E+01 -0.25437204393E+02  0.40659140952E+02  0.00000000000E+00 0. -1.
         11    1    3    3    0    0  0.13376943714E+01  0.49039746998E+01  0.88440338978E+01  0.10200751440E+02  0.51100000000E-03 0. -1.
        -11    1    3    3    0    0  0.15445806583E+02 -0.87913855343E+01  0.12610253971E+02  0.21791739400E+02  0.51100000000E-03 0.  1.
        -12    1    3    3    0    0  0.14020451049E+02  0.11452522635E+02  0.39829165246E+01  0.18536368209E+02  0.00000000000E+00 0.  1.
</event>
<event>
 7    1  0.5897985E-013  0.5052886E+02  0.7816164E-02  0.1300439E+00
        -11   -1    0    0    0    0  0.00000000000E+00  0.00000000000E+00  0.45593999997E+02  0.45594000000E+02  0.51100000000E-03 0.  1.
         11   -1    0    0    0    0 -0.00000000000E+00 -0.00000000000E+00 -0.45593999997E+02  0.45594000000E+02  0.51100000000E-03 0. -1.
    9900012    2    1    2    0    0  0.46405107974E+01 -0.54250292187E+01  0.40027495765E+02  0.50528859580E+02  0.29999999178E+02 0.  0.
         12    1    1    2    0    0 -0.46405107974E+01  0.54250292187E+01 -0.40027495765E+02  0.40659140420E+02  0.00000000000E+00 0. -1.
         11    1    3    3    0    0 -0.67811363243E+01 -0.21692251620E+01  0.57255634845E+01  0.91362697600E+01  0.51100000000E-03 0. -1.
        -11    1    3    3    0    0  0.11320259408E+02  0.40848069054E+01  0.31167235110E+02  0.33410035397E+02  0.51100000000E-03 0.  1.
         12    1    3    3    0    0  0.10138771358E+00 -0.73406109621E+01  0.31346971704E+01  0.79825544230E+01  0.00000000000E+00 0. -1.
</event>
<event>
 7    1  0.5897985E-013  0.5052886E+02  0.7816164E-02  0.1300439E+00
        -11   -1    0    0    0    0  0.00000000000E+00  0.00000000000E+00  0.45593999997E+02  0.45594000000E+02  0.51100000000E-03 0. -1.
         11   -1    0    0    0    0 -0.00000000000E+00 -0.00000000000E+00 -0.45593999997E+02  0.45594000000E+02  0.51100000000E-03 0.  1.
    9900012    2    1    2    0    0  0.33277761013E+02  0.39864072670E+01 -0.23018793807E+02  0.50528859708E+02  0.29999999568E+02 0.  0.
         12    1    1    2    0    0 -0.33277761013E+02 -0.39864072670E+01  0.23018793807E+02  0.40659140292E+02  0.00000000000E+00 0. -1.
         11    1    3    3    0    0  0.89004776880E+01 -0.80957588108E+01 -0.55057273765E+01  0.13231509665E+02  0.51100000000E-03 0. -1.
        -11    1    3    3    0    0  0.91821508636E+01  0.62265380064E+01 -0.17841656780E+02  0.21009673651E+02  0.51100000000E-03 0.  1.
        -12    1    3    3    0    0  0.15195132461E+02  0.58556280714E+01  0.32859034895E+00  0.16287676392E+02  0.00000000000E+00 0.  1.
</event>
<event>
 7    1  0.5897985E-013  0.5052895E+02  0.7816164E-02  0.1300438E+00
        -11   -1    0    0    0    0  0.00000000000E+00  0.00000000000E+00  0.45593999997E+02  0.45594000000E+02  0.51100000000E-03 0. -1.
         11   -1    0    0    0    0 -0.00000000000E+00 -0.00000000000E+00 -0.45593999997E+02  0.45594000000E+02  0.51100000000E-03 0.  1.
    9900012    2    1    2    0    0  0.13146821781E+02  0.23120523624E+02 -0.30753227390E+02  0.50528947743E+02  0.30000267157E+02 0.  0.
         12    1    1    2    0    0 -0.13146821781E+02 -0.23120523624E+02  0.30753227390E+02  0.40659052257E+02  0.00000000000E+00 0. -1.
         11    1    3    3    0    0  0.48244418967E+01  0.86671075570E+00 -0.54979716852E-02  0.49016790631E+01  0.51100000000E-03 0. -1.
        -11    1    3    3    0    0  0.12204642384E+02  0.24902515762E+02 -0.20934962818E+02  0.34747104274E+02  0.51100000000E-03 0.  1.
        -12    1    3    3    0    0 -0.38822624990E+01 -0.26487028941E+01 -0.98127666004E+01  0.10880164405E+02  0.00000000000E+00 0.  1.
</event>
<event>
 7    1  0.5897985E-013  0.5052885E+02  0.7816164E-02  0.1300439E+00
        -11   -1    0    0    0    0  0.00000000000E+00  0.00000000000E+00  0.45593999997E+02  0.45594000000E+02  0.51100000000E-03 0.  1.
         11   -1    0    0    0    0 -0.00000000000E+00 -0.00000000000E+00 -0.45593999997E+02  0.45594000000E+02  0.51100000000E-03 0. -1.
    9900012    2    1    2    0    0  0.19198004158E+01  0.27242315383E+02  0.30122030965E+02  0.50528854282E+02  0.29999983076E+02 0.  0.
         12    1    1    2    0    0 -0.19198004158E+01 -0.27242315383E+02 -0.30122030965E+02  0.40659145718E+02  0.00000000000E+00 0. -1.
         11    1    3    3    0    0 -0.49871737357E+00 -0.10934080807E+01 -0.37412820370E+01  0.39295612721E+01  0.51100000000E-03 0. -1.
        -11    1    3    3    0    0  0.57502432079E+01  0.27593176181E+02  0.27503641776E+02  0.39381454771E+02  0.51100000000E-03 0.  1.
         12    1    3    3    0    0 -0.33317254185E+01  0.74254728221E+00  0.63596712266E+01  0.72178382388E+01  0.00000000000E+00 0. -1.
</event>
<event>
 7    1  0.5897985E-013  0.5052887E+02  0.7816164E-02  0.1300439E+00
        -11   -1    0    0    0    0  0.00000000000E+00  0.00000000000E+00  0.45593999997E+02  0.45594000000E+02  0.51100000000E-03 0. -1.
         11   -1    0    0    0    0 -0.00000000000E+00 -0.00000000000E+00 -0.45593999997E+02  0.45594000000E+02  0.51100000000E-03 0.  1.
    9900012    2    1    2    0    0 -0.34433255171E+02  0.10571784832E+02 -0.18861428936E+02  0.50528865753E+02  0.30000017943E+02 0.  0.
         12    1    1    2    0    0  0.34433255171E+02 -0.10571784832E+02  0.18861428936E+02  0.40659134247E+02  0.00000000000E+00 0. -1.
         11    1    3    3    0    0 -0.11008029509E+01  0.49927764962E+00 -0.14385800533E+02  0.14436492044E+02  0.51100000000E-03 0. -1.
        -11    1    3    3    0    0 -0.26082731744E+02  0.40695169219E+01 -0.30917565039E+01  0.26578728746E+02  0.51100000000E-03 0.  1.
        -12    1    3    3    0    0 -0.72497204764E+01  0.60029902606E+01 -0.13838718993E+01  0.95136449634E+01  0.00000000000E+00 0.  1.
</event>
<event>
 7    1  0.5897985E-013  0.5052886E+02  0.7816164E-02  0.1300439E+00
        -11   -1    0    0    0    0  0.00000000000E+00  0.00000000000E+00  0.45593999997E+02  0.45594000000E+02  0.51100000000E-03 0.  1.
         11   -1    0    0    0    0 -0.00000000000E+00 -0.00000000000E+00 -0.45593999997E+02  0.45594000000E+02  0.51100000000E-03 0. -1.
    9900012    2    1    2    0    0 -0.10977978561E+02  0.28254575365E+02  0.27098495987E+02  0.50528861702E+02  0.30000005630E+02 0.  0.
         12    1    1    2    0    0  0.10977978561E+02 -0.28254575365E+02 -0.27098495987E+02  0.40659138298E+02  0.00000000000E+00 0. -1.
         11    1    3    3    0    0 -0.16239528219E+02  0.87243635033E+01  0.12250522965E+02  0.22133958266E+02  0.51100000000E-03 0. -1.
        -11    1    3    3    0    0  0.36160904885E+01  0.93136805199E+01  0.15026884994E+02  0.18045166337E+02  0.51100000000E-03 0.  1.
         12    1    3    3    0    0  0.16454591695E+01  0.10216531342E+02 -0.17891197180E+00  0.10349737100E+02  0.00000000000E+00 0. -1.
</event>
<event>
 7    1  0.5897985E-013  0.5052886E+02  0.7816164E-02  0.1300439E+00
        -11   -1    0    0    0    0  0.00000000000E+00  0.00000000000E+00  0.45593999997E+02  0.45594000000E+02  0.51100000000E-03 0.  1.
         11   -1    0    0    0    0 -0.00000000000E+00 -0.00000000000E+00 -0.45593999997E+02  0.45594000000E+02  0.51100000000E-03 0. -1.
    9900012    2    1    2    0    0 -0.28216314706E+02 -0.11877401432E+02  0.26756918081E+02  0.50528859016E+02  0.29999997465E+02 0.  0.
         12    1    1    2    0    0  0.28216314706E+02  0.11877401432E+02 -0.26756918081E+02  0.40659140984E+02  0.00000000000E+00 0. -1.
         11    1    3    3    0    0  0.21588928742E+01 -0.22673326436E+00  0.18543528445E+01  0.28549695530E+01  0.51100000000E-03 0. -1.
        -11    1    3    3    0    0 -0.30294133695E+02 -0.15680060302E+01  0.20838551072E+02  0.36802695422E+02  0.51100000000E-03 0.  1.
        -12    1    3    3    0    0 -0.81073885227E-01 -0.10082662138E+02  0.40640141637E+01  0.10871194041E+02  0.00000000000E+00 0.  1.
</event>
<event>
 7    1  0.5897985E-013  0.5052887E+02  0.7816164E-02  0.1300439E+00
        -11   -1    0    0    0    0  0.00000000000E+00  0.00000000000E+00  0.45593999997E+02  0.45594000000E+02  0.51100000000E-03 0. -1.
         11   -1    0    0    0    0 -0.00000000000E+00 -0.00000000000E+00 -0.45593999997E+02  0.45594000000E+02  0.51100000000E-03 0.  1.
    9900012    2    1    2    0    0 -0.58976384436E+01 -0.40157559969E+02  0.23984843530E+01  0.50528874468E+02  0.30000044433E+02 0.  0.
         12    1    1    2    0    0  0.58976384436E+01  0.40157559969E+02 -0.23984843530E+01  0.40659125532E+02  0.00000000000E+00 0. -1.
         11    1    3    3    0    0  0.16333618484E+01 -0.56157810296E+01  0.62541356281E+01  0.85626561426E+01  0.51100000000E-03 0. -1.
        -11    1    3    3    0    0 -0.14267894528E+02 -0.24920578723E+02 -0.74803304864E+01  0.29674288577E+02  0.51100000000E-03 0.  1.
        -12    1    3    3    0    0  0.67368942356E+01 -0.96212002163E+01  0.36246792114E+01  0.12291929748E+02  0.00000000000E+00 0.  1.
</event>
<event>
 7    1  0.5897985E-013  0.5052886E+02  0.7816164E-02  0.1300439E+00
        -11   -1    0    0    0    0  0.00000000000E+00  0.00000000000E+00  0.45593999997E+02  0.45594000000E+02  0.51100000000E-03 0.  1.
         11   -1    0    0    0    0 -0.00000000000E+00 -0.00000000000E+00 -0.45593999997E+02  0.45594000000E+02  0.51100000000E-03 0. -1.
    9900012    2    1    2    0    0  0.37473626141E+02  0.14962178377E+02 -0.50026038209E+01  0.50528862245E+02  0.30000007281E+02 0.  0.
         12    1    1    2    0    0 -0.37473626141E+02 -0.14962178377E+02  0.50026038209E+01  0.40659137755E+02  0.00000000000E+00 0. -1.
         11    1    3    3    0    0  0.15640722167E+00  0.63545925521E+01  0.22356884992E+01  0.67382203176E+01  0.51100000000E-03 0. -1.
        -11    1    3    3    0    0  0.37577780003E+02  0.11976689820E+02 -0.50437779605E+01  0.39761417799E+02  0.51100000000E-03 0.  1.
        -12    1    3    3    0    0 -0.26056108304E+00 -0.33691039953E+01 -0.21945143596E+01  0.40292241292E+01  0.00000000000E+00 0.  1.
</event>
<event>
 7    1  0.5897985E-013  0.5052886E+02  0.7816164E-02  0.1300439E+00
        -11   -1    0    0    0    0  0.00000000000E+00  0.00000000000E+00  0.45593999997E+02  0.45594000000E+02  0.51100000000E-03 0.  1.
         11   -1    0    0    0    0 -0.00000000000E+00 -0.00000000000E+00 -0.45593999997E+02  0.45594000000E+02  0.51100000000E-03 0. -1.
    9900012    2    1    2    0    0 -0.39335459370E+02 -0.48516827606E+01  0.90745925030E+01  0.50528863037E+02  0.30000009687E+02 0.  0.
         12    1    1    2    0    0  0.39335459370E+02  0.48516827606E+01 -0.90745925030E+01  0.40659136963E+02  0.00000000000E+00 0. -1.
         11    1    3    3    0    0 -0.13092118163E+01  0.28165502575E+01 -0.16133082663E+01  0.34999649650E+01  0.51100000000E-03 0. -1.
        -11    1    3    3    0    0 -0.25378207828E+02 -0.15299892353E+01  0.18029847371E+02  0.31168408623E+02  0.51100000000E-03 0.  1.
        -12    1    3    3    0    0 -0.12648039726E+02 -0.61382437828E+01 -0.73419466018E+01  0.15860489449E+02  0.00000000000E+00 0.  1.
</event>
<event>
 7    1  0.5897985E-013  0.5052886E+02  0.7816164E-02  0.1300439E+00
        -11   -1    0    0    0    0  0.00000000000E+00  0.00000000000E+00  0.45593999997E+02  0.45594000000E+02  0.51100000000E-03 0.  1.
         11   -1    0    0    0    0 -0.00000000000E+00 -0.00000000000E+00 -0.45593999997E+02  0.45594000000E+02  0.51100000000E-03 0. -1.
    9900012    2    1    2    0    0 -0.21641929252E+01 -0.69133394001E+01  0.40008595942E+02  0.50528859061E+02  0.29999997601E+02 0.  0.
         12    1    1    2    0    0  0.21641929252E+01  0.69133394001E+01 -0.40008595942E+02  0.40659140939E+02  0.00000000000E+00 0. -1.
         11    1    3    3    0    0 -0.32984128334E+00  0.51872113323E+01  0.12699121719E+01  0.53505732275E+01  0.51100000000E-03 0. -1.
        -11    1    3    3    0    0 -0.88974841291E+00 -0.14976804010E+02  0.39329294174E+02  0.42093820106E+02  0.51100000000E-03 0.  1.
        -12    1    3    3    0    0 -0.94460322898E+00  0.28762532773E+01 -0.59061040393E+00  0.30844657276E+01  0.00000000000E+00 0.  1.
</event>
<event>
 7    1  0.5897985E-013  0.5052886E+02  0.7816164E-02  0.1300439E+00
        -11   -1    0    0    0    0  0.00000000000E+00  0.00000000000E+00  0.45593999997E+02  0.45594000000E+02  0.51100000000E-03 0. -1.
         11   -1    0    0    0    0 -0.00000000000E+00 -0.00000000000E+00 -0.45593999997E+02  0.45594000000E+02  0.51100000000E-03 0.  1.
    9900012    2    1    2    0    0  0.35722855182E+02 -0.14608039172E+01 -0.19362577559E+02  0.50528859082E+02  0.29999997666E+02 0.  0.
         12    1    1    2    0    0 -0.35722855182E+02  0.14608039172E+01  0.19362577559E+02  0.40659140918E+02  0.00000000000E+00 0. -1.
         11    1    3    3    0    0  0.54881677735E+01 -0.99252305781E+01 -0.30824162836E+01  0.11752934865E+02  0.51100000000E-03 0. -1.
        -11    1    3    3    0    0  0.26585518163E+02  0.34898797570E+01 -0.71391154487E+01  0.27747720742E+02  0.51100000000E-03 0.  1.
        -12    1    3    3    0    0  0.36491692457E+01  0.49745469038E+01 -0.91410458271E+01  0.11028203475E+02  0.00000000000E+00 0.  1.
</event>
<event>
 7    1  0.5897985E-013  0.5052886E+02  0.7816164E-02  0.1300439E+00
        -11   -1    0    0    0    0  0.00000000000E+00  0.00000000000E+00  0.45593999997E+02  0.45594000000E+02  0.51100000000E-03 0.  1.
         11   -1    0    0    0    0 -0.00000000000E+00 -0.00000000000E+00 -0.45593999997E+02  0.45594000000E+02  0.51100000000E-03 0. -1.
    9900012    2    1    2    0    0  0.35306249801E+02 -0.16722447371E+02 -0.11269176907E+02  0.50528857495E+02  0.29999992841E+02 0.  0.
         12    1    1    2    0    0 -0.35306249801E+02  0.16722447371E+02  0.11269176907E+02  0.40659142505E+02  0.00000000000E+00 0. -1.
         11    1    3    3    0    0 -0.19932677737E+01 -0.10316053431E+02 -0.12139036517E+01  0.10576749838E+02  0.51100000000E-03 0. -1.
        -11    1    3    3    0    0  0.55728933775E+01 -0.19900735565E+01  0.11268810466E+01  0.60239019341E+01  0.51100000000E-03 0.  1.
         12    1    3    3    0    0  0.31726624197E+02 -0.44163203834E+01 -0.11182154302E+02  0.33928205722E+02  0.00000000000E+00 0. -1.
</event>
<event>
 7    1  0.5897985E-013  0.5052881E+02  0.7816164E-02  0.1300439E+00
        -11   -1    0    0    0    0  0.00000000000E+00  0.00000000000E+00  0.45593999997E+02  0.45594000000E+02  0.51100000000E-03 0. -1.
         11   -1    0    0    0    0 -0.00000000000E+00 -0.00000000000E+00 -0.45593999997E+02  0.45594000000E+02  0.51100000000E-03 0.  1.
    9900012    2    1    2    0    0 -0.12458699900E+02 -0.36595918588E+02 -0.12597193726E+02  0.50528809768E+02  0.29999847772E+02 0.  0.
         12    1    1    2    0    0  0.12458699900E+02  0.36595918588E+02  0.12597193726E+02  0.40659190232E+02  0.00000000000E+00 0. -1.
         11    1    3    3    0    0  0.30060695734E+01  0.20176689894E+01 -0.93201135086E+00  0.37384606257E+01  0.51100000000E-03 0. -1.
        -11    1    3    3    0    0 -0.18553899906E+02 -0.24014419250E+02 -0.87799477376E+01  0.31591565586E+02  0.51100000000E-03 0.  1.
        -12    1    3    3    0    0  0.30891304326E+01 -0.14599168328E+02 -0.28852346376E+01  0.15198783557E+02  0.00000000000E+00 0.  1.
</event>
<event>
 7    1  0.5897985E-013  0.5052886E+02  0.7816164E-02  0.1300439E+00
        -11   -1    0    0    0    0  0.00000000000E+00  0.00000000000E+00  0.45593999997E+02  0.45594000000E+02  0.51100000000E-03 0.  1.
         11   -1    0    0    0    0 -0.00000000000E+00 -0.00000000000E+00 -0.45593999997E+02  0.45594000000E+02  0.51100000000E-03 0. -1.
    9900012    2    1    2    0    0  0.34834468028E+01 -0.29400145357E+02  0.27868663497E+02  0.50528863834E+02  0.30000012111E+02 0.  0.
         12    1    1    2    0    0 -0.34834468028E+01  0.29400145357E+02 -0.27868663497E+02  0.40659136166E+02  0.00000000000E+00 0. -1.
         11    1    3    3    0    0 -0.52935306337E+00 -0.58025810639E+01 -0.18198542684E+01  0.61042633862E+01  0.51100000000E-03 0. -1.
        -11    1    3    3    0    0  0.13137540044E+02 -0.10153923370E+02  0.12590822339E+02  0.20838088339E+02  0.51100000000E-03 0.  1.
        -12    1    3    3    0    0 -0.91247401776E+01 -0.13443640923E+02  0.17097695426E+02  0.23586512109E+02  0.00000000000E+00 0.  1.
</event>
<event>
 7    1  0.5897985E-013  0.5052886E+02  0.7816164E-02  0.1300439E+00
        -11   -1    0    0    0    0  0.00000000000E+00  0.00000000000E+00  0.45593999997E+02  0.45594000000E+02  0.51100000000E-03 0.  1.
         11   -1    0    0    0    0 -0.00000000000E+00 -0.00000000000E+00 -0.45593999997E+02  0.45594000000E+02  0.51100000000E-03 0. -1.
    9900012    2    1    2    0    0 -0.37454266096E+02  0.10536137628E+02  0.11803963956E+02  0.50528858223E+02  0.29999995056E+02 0.  0.
         12    1    1    2    0    0  0.37454266096E+02 -0.10536137628E+02 -0.11803963956E+02  0.40659141777E+02  0.00000000000E+00 0. -1.
         11    1    3    3    0    0 -0.16907405720E+02  0.76376150828E+01 -0.59672764099E+01  0.19488507391E+02  0.51100000000E-03 0. -1.
        -11    1    3    3    0    0 -0.12771706400E+02 -0.54263578082E+01  0.79036054005E+01  0.15969621850E+02  0.51100000000E-03 0.  1.
        -12    1    3    3    0    0 -0.77751539763E+01  0.83248803537E+01  0.98676349649E+01  0.15070728982E+02  0.00000000000E+00 0.  1.
</event>
<event>
 7    1  0.5897985E-013  0.5052887E+02  0.7816164E-02  0.1300439E+00
        -11   -1    0    0    0    0  0.00000000000E+00  0.00000000000E+00  0.45593999997E+02  0.45594000000E+02  0.51100000000E-03 0.  1.
         11   -1    0    0    0    0 -0.00000000000E+00 -0.00000000000E+00 -0.45593999997E+02  0.45594000000E+02  0.51100000000E-03 0. -1.
    9900012    2    1    2    0    0  0.12398362870E+00  0.26819740433E+02  0.30558974245E+02  0.50528871188E+02  0.30000034464E+02 0.  0.
         12    1    1    2    0    0 -0.12398362870E+00 -0.26819740433E+02 -0.30558974245E+02  0.40659128812E+02  0.00000000000E+00 0. -1.
         11    1    3    3    0    0  0.38463844615E+00  0.93823463243E+00 -0.22814590689E-01  0.10142739898E+01  0.51100000000E-03 0. -1.
        -11    1    3    3    0    0  0.35335391275E+01  0.23851849313E+02  0.35541319387E+02  0.42948597165E+02  0.51100000000E-03 0.  1.
        -12    1    3    3    0    0 -0.37941939450E+01  0.20296564883E+01 -0.49595305514E+01  0.65660000337E+01  0.00000000000E+00 0.  1.
</event>
<event>
 7    1  0.5897985E-013  0.5052886E+02  0.7816164E-02  0.1300439E+00
        -11   -1    0    0    0    0  0.00000000000E+00  0.00000000000E+00  0.45593999997E+02  0.45594000000E+02  0.51100000000E-03 0.  1.
         11   -1    0    0    0    0 -0.00000000000E+00 -0.00000000000E+00 -0.45593999997E+02  0.45594000000E+02  0.51100000000E-03 0. -1.
    9900012    2    1    2    0    0  0.69810727893E+01  0.17541082837E+01  0.40016918410E+02  0.50528855491E+02  0.29999986750E+02 0.  0.
         12    1    1    2    0    0 -0.69810727893E+01 -0.17541082837E+01 -0.40016918410E+02  0.40659144509E+02  0.00000000000E+00 0. -1.
         11    1    3    3    0    0  0.66376000239E+01 -0.53783231609E+01  0.26949577993E+02  0.28271254807E+02  0.51100000000E-03 0. -1.
        -11    1    3    3    0    0 -0.43964687885E+01  0.10942084834E+02  0.72541175127E+01  0.13844868344E+02  0.51100000000E-03 0.  1.
         12    1    3    3    0    0  0.47399415539E+01 -0.38096533893E+01  0.58132229041E+01  0.84127323393E+01  0.00000000000E+00 0. -1.
</event>
<event>
 7    1  0.5897985E-013  0.5052881E+02  0.7816164E-02  0.1300439E+00
        -11   -1    0    0    0    0  0.00000000000E+00  0.00000000000E+00  0.45593999997E+02  0.45594000000E+02  0.51100000000E-03 0. -1.
         11   -1    0    0    0    0 -0.00000000000E+00 -0.00000000000E+00 -0.45593999997E+02  0.45594000000E+02  0.51100000000E-03 0.  1.
    9900012    2    1    2    0    0  0.29817169244E+02  0.11599569786E+01 -0.27618122967E+02  0.50528809180E+02  0.29999845984E+02 0.  0.
         12    1    1    2    0    0 -0.29817169244E+02 -0.11599569786E+01  0.27618122967E+02  0.40659190820E+02  0.00000000000E+00 0. -1.
         11    1    3    3    0    0  0.31502654160E+01  0.19683378965E+01 -0.96429970076E+01  0.10333727199E+02  0.51100000000E-03 0. -1.
        -11    1    3    3    0    0  0.45881996389E+01 -0.28051641976E+01  0.56481511727E+01  0.77988546616E+01  0.51100000000E-03 0.  1.
        -12    1    3    3    0    0  0.22078704189E+02  0.19967832797E+01 -0.23623277132E+02  0.32396227320E+02  0.00000000000E+00 0.  1.
</event>
<event>
 7    1  0.5897985E-013  0.5052885E+02  0.7816164E-02  0.1300439E+00
        -11   -1    0    0    0    0  0.00000000000E+00  0.00000000000E+00  0.45593999997E+02  0.45594000000E+02  0.51100000000E-03 0.  1.
         11   -1    0    0    0    0 -0.00000000000E+00 -0.00000000000E+00 -0.45593999997E+02  0.45594000000E+02  0.51100000000E-03 0. -1.
    9900012    2    1    2    0    0  0.14103585572E+02  0.14664377359E+02  0.35202433630E+02  0.50528850688E+02  0.29999972152E+02 0.  0.
         12    1    1    2    0    0 -0.14103585572E+02 -0.14664377359E+02 -0.35202433630E+02  0.40659149312E+02  0.00000000000E+00 0. -1.
         11    1    3    3    0    0  0.15742577547E+02 -0.11629853793E+01  0.73852334811E+01  0.17427649200E+02  0.51100000000E-03 0. -1.
        -11    1    3    3    0    0 -0.22614292046E+01  0.43989427901E+01  0.30334480487E+01  0.58022898103E+01  0.51100000000E-03 0.  1.
         12    1    3    3    0    0  0.62243722931E+00  0.11428419948E+02  0.24783752100E+02  0.27298911677E+02  0.00000000000E+00 0. -1.
</event>
<event>
 7    1  0.5897985E-013  0.5052886E+02  0.7816164E-02  0.1300439E+00
        -11   -1    0    0    0    0  0.00000000000E+00  0.00000000000E+00  0.45593999997E+02  0.45594000000E+02  0.51100000000E-03 0.  1.
         11   -1    0    0    0    0 -0.00000000000E+00 -0.00000000000E+00 -0.45593999997E+02  0.45594000000E+02  0.51100000000E-03 0. -1.
    9900012    2    1    2    0    0  0.24097161365E+02  0.29799744332E+02  0.13581894423E+02  0.50528858295E+02  0.29999995273E+02 0.  0.
         12    1    1    2    0    0 -0.24097161365E+02 -0.29799744332E+02 -0.13581894423E+02  0.40659141705E+02  0.00000000000E+00 0. -1.
         11    1    3    3    0    0 -0.43001009043E+01  0.18526628307E+01 -0.56169401282E+00  0.47157955614E+01  0.51100000000E-03 0. -1.
        -11    1    3    3    0    0  0.13017368010E+02  0.22398066625E+02  0.14032323197E+02  0.29462371816E+02  0.51100000000E-03 0.  1.
         12    1    3    3    0    0  0.15379894259E+02  0.55490148757E+01  0.11126523830E+00  0.16350690917E+02  0.00000000000E+00 0. -1.
</event>
<event>
 7    1  0.5897985E-013  0.5052886E+02  0.7816164E-02  0.1300439E+00
        -11   -1    0    0    0    0  0.00000000000E+00  0.00000000000E+00  0.45593999997E+02  0.45594000000E+02  0.51100000000E-03 0.  1.
         11   -1    0    0    0    0 -0.00000000000E+00 -0.00000000000E+00 -0.45593999997E+02  0.45594000000E+02  0.51100000000E-03 0. -1.
    9900012    2    1    2    0    0 -0.37475998293E+02  0.15342919101E+02  0.36482905562E+01  0.50528860332E+02  0.30000001464E+02 0.  0.
         12    1    1    2    0    0  0.37475998293E+02 -0.15342919101E+02 -0.36482905562E+01  0.40659139668E+02  0.00000000000E+00 0. -1.
         11    1    3    3    0    0  0.16218591927E+01  0.35441643077E+01  0.13140928420E+01  0.41131943960E+01  0.51100000000E-03 0. -1.
        -11    1    3    3    0    0 -0.40568887539E+02  0.99081275909E+01 -0.16197224431E+01  0.41792692299E+02  0.51100000000E-03 0.  1.
        -12    1    3    3    0    0  0.14710300536E+01  0.18906272022E+01  0.39539201572E+01  0.46229736367E+01  0.00000000000E+00 0.  1.
</event>
<event>
 7    1  0.5897985E-013  0.5052887E+02  0.7816164E-02  0.1300439E+00
        -11   -1    0    0    0    0  0.00000000000E+00  0.00000000000E+00  0.45593999997E+02  0.45594000000E+02  0.51100000000E-03 0.  1.
         11   -1    0    0    0    0 -0.00000000000E+00 -0.00000000000E+00 -0.45593999997E+02  0.45594000000E+02  0.51100000000E-03 0. -1.
    9900012    2    1    2    0    0  0.14903976469E+02  0.19225393276E+02  0.32579448088E+02  0.50528871887E+02  0.30000036588E+02 0.  0.
         12    1    1    2    0    0 -0.14903976469E+02 -0.19225393276E+02 -0.32579448088E+02  0.40659128113E+02  0.00000000000E+00 0. -1.
         11    1    3    3    0    0  0.15141208467E+02  0.68556937095E+01  0.82899453264E+01  0.18573635182E+02  0.51100000000E-03 0. -1.
        -11    1    3    3    0    0 -0.71859282727E+01  0.77999561097E+00  0.91897319355E+01  0.11691754855E+02  0.51100000000E-03 0.  1.
         12    1    3    3    0    0  0.69486962747E+01  0.11589703955E+02  0.15099770826E+02  0.20263481850E+02  0.00000000000E+00 0. -1.
</event>
<event>
 7    1  0.5897985E-013  0.5052885E+02  0.7816164E-02  0.1300439E+00
        -11   -1    0    0    0    0  0.00000000000E+00  0.00000000000E+00  0.45593999997E+02  0.45594000000E+02  0.51100000000E-03 0.  1.
         11   -1    0    0    0    0 -0.00000000000E+00 -0.00000000000E+00 -0.45593999997E+02  0.45594000000E+02  0.51100000000E-03 0. -1.
    9900012    2    1    2    0    0 -0.23210368419E+02 -0.30369117032E+02  0.13862253532E+02  0.50528849192E+02  0.29999967603E+02 0.  0.
         12    1    1    2    0    0  0.23210368419E+02  0.30369117032E+02 -0.13862253532E+02  0.40659150808E+02  0.00000000000E+00 0. -1.
         11    1    3    3    0    0  0.13392683043E+01 -0.23046533664E+01 -0.63880793685E+01  0.69218946113E+01  0.51100000000E-03 0. -1.
        -11    1    3    3    0    0 -0.76860518649E+01 -0.14345747563E+02  0.12523213167E+02  0.20535499378E+02  0.51100000000E-03 0.  1.
         12    1    3    3    0    0 -0.16863584859E+02 -0.13718716102E+02  0.77271197333E+01  0.23071455202E+02  0.00000000000E+00 0. -1.
</event>
<event>
 7    1  0.5897985E-013  0.5052878E+02  0.7816164E-02  0.1300439E+00
        -11   -1    0    0    0    0  0.00000000000E+00  0.00000000000E+00  0.45593999997E+02  0.45594000000E+02  0.51100000000E-03 0.  1.
         11   -1    0    0    0    0 -0.00000000000E+00 -0.00000000000E+00 -0.45593999997E+02  0.45594000000E+02  0.51100000000E-03 0. -1.
    9900012    2    1    2    0    0  0.37160688459E+02  0.16532893760E+01  0.16417130473E+02  0.50528778347E+02  0.29999752261E+02 0.  0.
         12    1    1    2    0    0 -0.37160688459E+02 -0.16532893760E+01 -0.16417130473E+02  0.40659221653E+02  0.00000000000E+00 0. -1.
         11    1    3    3    0    0  0.33967543597E+00  0.24531164286E+01  0.12041355708E+02  0.12293388758E+02  0.51100000000E-03 0.  1.
        -11    1    3    3    0    0  0.17697319246E+02  0.28750551209E+01 -0.12286453987E+01  0.17971383369E+02  0.51100000000E-03 0. -1.
        -12    1    3    3    0    0  0.19123693777E+02 -0.36748821734E+01  0.56044201637E+01  0.20264006219E+02  0.00000000000E+00 0.  1.
</event>
<event>
 7    1  0.5897985E-013  0.5052885E+02  0.7816164E-02  0.1300439E+00
        -11   -1    0    0    0    0  0.00000000000E+00  0.00000000000E+00  0.45593999997E+02  0.45594000000E+02  0.51100000000E-03 0.  1.
         11   -1    0    0    0    0 -0.00000000000E+00 -0.00000000000E+00 -0.45593999997E+02  0.45594000000E+02  0.51100000000E-03 0. -1.
    9900012    2    1    2    0    0  0.29890236382E+01  0.60533661242E+01  0.40094745855E+02  0.50528854056E+02  0.29999982388E+02 0.  0.
         12    1    1    2    0    0 -0.29890236382E+01 -0.60533661242E+01 -0.40094745855E+02  0.40659145944E+02  0.00000000000E+00 0. -1.
         11    1    3    3    0    0 -0.61675617020E+01  0.14381406865E+02  0.22484977989E+02  0.27394121928E+02  0.51100000000E-03 0. -1.
        -11    1    3    3    0    0  0.79559704361E+01 -0.40770313399E+01  0.16191165653E+02  0.18495228995E+02  0.51100000000E-03 0.  1.
         12    1    3    3    0    0  0.12006149041E+01 -0.42510094014E+01  0.14186022131E+01  0.46395031326E+01  0.00000000000E+00 0. -1.
</event>
<event>
 7    1  0.5897985E-013  0.5052887E+02  0.7816164E-02  0.1300439E+00
        -11   -1    0    0    0    0  0.00000000000E+00  0.00000000000E+00  0.45593999997E+02  0.45594000000E+02  0.51100000000E-03 0. -1.
         11   -1    0    0    0    0 -0.00000000000E+00 -0.00000000000E+00 -0.45593999997E+02  0.45594000000E+02  0.51100000000E-03 0.  1.
    9900012    2    1    2    0    0 -0.82426451401E+01  0.94252571105E+01 -0.38683180956E+02  0.50528866224E+02  0.30000019374E+02 0.  0.
         12    1    1    2    0    0  0.82426451401E+01 -0.94252571105E+01  0.38683180956E+02  0.40659133776E+02  0.00000000000E+00 0. -1.
         11    1    3    3    0    0  0.31994900535E+01 -0.36059678204E+01 -0.82450921934E+01  0.95509835129E+01  0.51100000000E-03 0. -1.
        -11    1    3    3    0    0 -0.16767123584E+02  0.13519148649E+02 -0.27315445063E+02  0.34785591165E+02  0.51100000000E-03 0.  1.
        -12    1    3    3    0    0  0.53249883901E+01 -0.48792371833E+00 -0.31226436999E+01  0.61922915456E+01  0.00000000000E+00 0.  1.
</event>
<event>
 7    1  0.5897985E-013  0.5052883E+02  0.7816164E-02  0.1300439E+00
        -11   -1    0    0    0    0  0.00000000000E+00  0.00000000000E+00  0.45593999997E+02  0.45594000000E+02  0.51100000000E-03 0.  1.
         11   -1    0    0    0    0 -0.00000000000E+00 -0.00000000000E+00 -0.45593999997E+02  0.45594000000E+02  0.51100000000E-03 0. -1.
    9900012    2    1    2    0    0  0.19671308655E+01 -0.39170390809E+02  0.10722840705E+02  0.50528825971E+02  0.29999897020E+02 0.  0.
         12    1    1    2    0    0 -0.19671308655E+01  0.39170390809E+02 -0.10722840705E+02  0.40659174029E+02  0.00000000000E+00 0. -1.
         11    1    3    3    0    0 -0.85884718723E+00 -0.64195792739E+01 -0.61667652191E+01  0.89430201875E+01  0.51100000000E-03 0. -1.
        -11    1    3    3    0    0  0.94379974241E+01 -0.27370669567E+02  0.15826054812E+02  0.32995353598E+02  0.51100000000E-03 0.  1.
        -12    1    3    3    0    0 -0.66120193714E+01 -0.53801419684E+01  0.10635511119E+01  0.85904521846E+01  0.00000000000E+00 0.  1.
</event>
<event>
 7    1  0.5897985E-013  0.5052888E+02  0.7816164E-02  0.1300439E+00
        -11   -1    0    0    0    0  0.00000000000E+00  0.00000000000E+00  0.45593999997E+02  0.45594000000E+02  0.51100000000E-03 0.  1.
         11   -1    0    0    0    0 -0.00000000000E+00 -0.00000000000E+00 -0.45593999997E+02  0.45594000000E+02  0.51100000000E-03 0. -1.
    9900012    2    1    2    0    0  0.17260865265E+02  0.31227831527E+02  0.19494857969E+02  0.50528875332E+02  0.30000047059E+02 0.  0.
         12    1    1    2    0    0 -0.17260865265E+02 -0.31227831527E+02 -0.19494857969E+02  0.40659124668E+02  0.00000000000E+00 0. -1.
         11    1    3    3    0    0  0.63193357465E+01 -0.23168265120E+00  0.13420771421E+02  0.14835928920E+02  0.51100000000E-03 0. -1.
        -11    1    3    3    0    0  0.49399495838E+01  0.27523787175E+02  0.42186023440E+01  0.28280002976E+02  0.51100000000E-03 0.  1.
        -12    1    3    3    0    0  0.60015799348E+01  0.39357270031E+01  0.18554842041E+01  0.74129434362E+01  0.00000000000E+00 0.  1.
</event>
<event>
 7    1  0.5897985E-013  0.5052886E+02  0.7816164E-02  0.1300439E+00
        -11   -1    0    0    0    0  0.00000000000E+00  0.00000000000E+00  0.45593999997E+02  0.45594000000E+02  0.51100000000E-03 0.  1.
         11   -1    0    0    0    0 -0.00000000000E+00 -0.00000000000E+00 -0.45593999997E+02  0.45594000000E+02  0.51100000000E-03 0. -1.
    9900012    2    1    2    0    0 -0.88264980896E+01  0.29739713911E+02  0.26283232798E+02  0.50528856153E+02  0.29999988763E+02 0.  0.
         12    1    1    2    0    0  0.88264980896E+01 -0.29739713911E+02 -0.26283232798E+02  0.40659143847E+02  0.00000000000E+00 0. -1.
         11    1    3    3    0    0 -0.38483103631E+01  0.42832124785E+00  0.32499404831E-01  0.38722097327E+01  0.51100000000E-03 0. -1.
        -11    1    3    3    0    0 -0.10935973767E+02  0.18699596151E+02  0.26817152496E+02  0.34473614355E+02  0.51100000000E-03 0.  1.
        -12    1    3    3    0    0  0.59577860400E+01  0.10611796512E+02 -0.56641910201E+00  0.12183032066E+02  0.00000000000E+00 0.  1.
</event>
<event>
 7    1  0.5897985E-013  0.5052886E+02  0.7816164E-02  0.1300439E+00
        -11   -1    0    0    0    0  0.00000000000E+00  0.00000000000E+00  0.45593999997E+02  0.45594000000E+02  0.51100000000E-03 0. -1.
         11   -1    0    0    0    0 -0.00000000000E+00 -0.00000000000E+00 -0.45593999997E+02  0.45594000000E+02  0.51100000000E-03 0.  1.
    9900012    2    1    2    0    0 -0.98169369158E+00 -0.35655641226E+02 -0.19516079495E+02  0.50528857946E+02  0.29999994212E+02 0.  0.
         12    1    1    2    0    0  0.98169369158E+00  0.35655641226E+02  0.19516079495E+02  0.40659142054E+02  0.00000000000E+00 0. -1.
         11    1    3    3    0    0  0.29333395945E+01 -0.30498177312E+01 -0.68462284084E+00  0.42865578341E+01  0.51100000000E-03 0. -1.
        -11    1    3    3    0    0 -0.18388152308E+01 -0.37141336852E+02 -0.15792018482E+02  0.40401089002E+02  0.51100000000E-03 0.  1.
        -12    1    3    3    0    0 -0.20762180553E+01  0.45355133567E+01 -0.30394381716E+01  0.58412111091E+01  0.00000000000E+00 0.  1.
</event>
<event>
 7    1  0.5897985E-013  0.5052886E+02  0.7816164E-02  0.1300439E+00
        -11   -1    0    0    0    0  0.00000000000E+00  0.00000000000E+00  0.45593999997E+02  0.45594000000E+02  0.51100000000E-03 0.  1.
         11   -1    0    0    0    0 -0.00000000000E+00 -0.00000000000E+00 -0.45593999997E+02  0.45594000000E+02  0.51100000000E-03 0. -1.
    9900012    2    1    2    0    0 -0.34977287322E+02  0.17592000758E+02  0.10967075289E+02  0.50528857615E+02  0.29999993207E+02 0.  0.
         12    1    1    2    0    0  0.34977287322E+02 -0.17592000758E+02 -0.10967075289E+02  0.40659142385E+02  0.00000000000E+00 0. -1.
         11    1    3    3    0    0 -0.13345116493E+02 -0.85539663720E+00 -0.66963275257E+01  0.14955421766E+02  0.51100000000E-03 0. -1.
        -11    1    3    3    0    0 -0.18469345291E+02  0.18038565686E+02  0.19061563431E+02  0.32091272461E+02  0.51100000000E-03 0.  1.
        -12    1    3    3    0    0 -0.31628255378E+01  0.40883170939E+00 -0.13981606159E+01  0.34821633875E+01  0.00000000000E+00 0.  1.
</event>
<event>
 7    1  0.5897985E-013  0.5052886E+02  0.7816164E-02  0.1300439E+00
        -11   -1    0    0    0    0  0.00000000000E+00  0.00000000000E+00  0.45593999997E+02  0.45594000000E+02  0.51100000000E-03 0. -1.
         11   -1    0    0    0    0 -0.00000000000E+00 -0.00000000000E+00 -0.45593999997E+02  0.45594000000E+02  0.51100000000E-03 0.  1.
    9900012    2    1    2    0    0  0.14661901330E+00 -0.25240786969E+02 -0.31875485908E+02  0.50528862948E+02  0.30000009417E+02 0.  0.
         12    1    1    2    0    0 -0.14661901330E+00  0.25240786969E+02  0.31875485908E+02  0.40659137052E+02  0.00000000000E+00 0. -1.
         11    1    3    3    0    0  0.12778720472E+02 -0.96426196190E+01 -0.14183893993E+02  0.21388283220E+02  0.51100000000E-03 0. -1.
        -11    1    3    3    0    0 -0.12143056606E+02 -0.14853212350E+02 -0.10454364801E+02  0.21848695259E+02  0.51100000000E-03 0.  1.
         12    1    3    3    0    0 -0.48904485267E+00 -0.74495500023E+00 -0.72372271134E+01  0.72918844691E+01  0.00000000000E+00 0. -1.
</event>
<event>
 7    1  0.5897985E-013  0.5052893E+02  0.7816164E-02  0.1300439E+00
        -11   -1    0    0    0    0  0.00000000000E+00  0.00000000000E+00  0.45593999997E+02  0.45594000000E+02  0.51100000000E-03 0.  1.
         11   -1    0    0    0    0 -0.00000000000E+00 -0.00000000000E+00 -0.45593999997E+02  0.45594000000E+02  0.51100000000E-03 0. -1.
    9900012    2    1    2    0    0 -0.19882949783E+02 -0.34516903892E+02  0.81493394931E+01  0.50528928681E+02  0.30000209219E+02 0.  0.
         12    1    1    2    0    0  0.19882949783E+02  0.34516903892E+02 -0.81493394931E+01  0.40659071319E+02  0.00000000000E+00 0. -1.
         11    1    3    3    0    0  0.40711160753E+01 -0.89331733582E+01 -0.12134013517E+01  0.98918105243E+01  0.51100000000E-03 0. -1.
        -11    1    3    3    0    0 -0.68866529676E+01 -0.67084416304E+00  0.77590241105E+01  0.10396079857E+02  0.51100000000E-03 0.  1.
        -12    1    3    3    0    0 -0.17067412890E+02 -0.24912886371E+02  0.16037167344E+01  0.30241038300E+02  0.00000000000E+00 0.  1.
</event>
<event>
 7    1  0.5897985E-013  0.5052887E+02  0.7816164E-02  0.1300439E+00
        -11   -1    0    0    0    0  0.00000000000E+00  0.00000000000E+00  0.45593999997E+02  0.45594000000E+02  0.51100000000E-03 0.  1.
         11   -1    0    0    0    0 -0.00000000000E+00 -0.00000000000E+00 -0.45593999997E+02  0.45594000000E+02  0.51100000000E-03 0. -1.
    9900012    2    1    2    0    0 -0.84784029148E+01  0.17650162563E+02  0.35633601230E+02  0.50528867064E+02  0.30000021928E+02 0.  0.
         12    1    1    2    0    0  0.84784029148E+01 -0.17650162563E+02 -0.35633601230E+02  0.40659132936E+02  0.00000000000E+00 0. -1.
         11    1    3    3    0    0 -0.32347221866E+00 -0.61338272539E+01  0.32407459649E+01  0.69448474229E+01  0.51100000000E-03 0. -1.
        -11    1    3    3    0    0 -0.57839475962E+01  0.17313865982E+02  0.11477758823E+02  0.21562999627E+02  0.51100000000E-03 0.  1.
         12    1    3    3    0    0 -0.23709830999E+01  0.64701238341E+01  0.20915096442E+02  0.22021020014E+02  0.00000000000E+00 0. -1.
</event>
<event>
 7    1  0.5897985E-013  0.5052886E+02  0.7816164E-02  0.1300439E+00
        -11   -1    0    0    0    0  0.00000000000E+00  0.00000000000E+00  0.45593999997E+02  0.45594000000E+02  0.51100000000E-03 0.  1.
         11   -1    0    0    0    0 -0.00000000000E+00 -0.00000000000E+00 -0.45593999997E+02  0.45594000000E+02  0.51100000000E-03 0. -1.
    9900012    2    1    2    0    0 -0.32764066993E+02 -0.23943567528E+02  0.25272407789E+01  0.50528862554E+02  0.30000008220E+02 0.  0.
         12    1    1    2    0    0  0.32764066993E+02  0.23943567528E+02 -0.25272407789E+01  0.40659137446E+02  0.00000000000E+00 0. -1.
         11    1    3    3    0    0 -0.16656288328E+01  0.53532460504E+01  0.18165968985E+01  0.58933511043E+01  0.51100000000E-03 0. -1.
        -11    1    3    3    0    0 -0.27124442983E+02 -0.22279108264E+02 -0.39469407767E+01  0.35322406684E+02  0.51100000000E-03 0.  1.
         12    1    3    3    0    0 -0.39739951766E+01 -0.70177053146E+01  0.46575846571E+01  0.93131047661E+01  0.00000000000E+00 0. -1.
</event>
<event>
 7    1  0.5897985E-013  0.5052886E+02  0.7816164E-02  0.1300439E+00
        -11   -1    0    0    0    0  0.00000000000E+00  0.00000000000E+00  0.45593999997E+02  0.45594000000E+02  0.51100000000E-03 0. -1.
         11   -1    0    0    0    0 -0.00000000000E+00 -0.00000000000E+00 -0.45593999997E+02  0.45594000000E+02  0.51100000000E-03 0.  1.
    9900012    2    1    2    0    0 -0.14837905985E+02  0.80554813299E+01 -0.36987991204E+02  0.50528859247E+02  0.29999998167E+02 0.  0.
         12    1    1    2    0    0  0.14837905985E+02 -0.80554813299E+01  0.36987991204E+02  0.40659140753E+02  0.00000000000E+00 0. -1.
         11    1    3    3    0    0  0.41128433371E+01  0.10496097183E+02 -0.37722150924E+01  0.11887520488E+02  0.51100000000E-03 0. -1.
        -11    1    3    3    0    0 -0.15759795763E+02 -0.57005317848E-01 -0.26282660529E+02  0.30645597674E+02  0.51100000000E-03 0.  1.
         12    1    3    3    0    0 -0.31909535595E+01 -0.23836105353E+01 -0.69331155827E+01  0.79957410842E+01  0.00000000000E+00 0. -1.
</event>
<event>
 7    1  0.5897985E-013  0.5052886E+02  0.7816164E-02  0.1300439E+00
        -11   -1    0    0    0    0  0.00000000000E+00  0.00000000000E+00  0.45593999997E+02  0.45594000000E+02  0.51100000000E-03 0. -1.
         11   -1    0    0    0    0 -0.00000000000E+00 -0.00000000000E+00 -0.45593999997E+02  0.45594000000E+02  0.51100000000E-03 0.  1.
    9900012    2    1    2    0    0 -0.33878948892E+01 -0.37521365829E+02 -0.15291659704E+02  0.50528861028E+02  0.30000003580E+02 0.  0.
         12    1    1    2    0    0  0.33878948892E+01  0.37521365829E+02  0.15291659704E+02  0.40659138972E+02  0.00000000000E+00 0. -1.
         11    1    3    3    0    0 -0.10425301751E+01  0.79944827688E-01 -0.11963304469E+01  0.15888571807E+01  0.51100000000E-03 0. -1.
        -11    1    3    3    0    0 -0.99256366643E+01 -0.19725426222E+02  0.39502341853E+01  0.22432455354E+02  0.51100000000E-03 0.  1.
        -12    1    3    3    0    0  0.75802719502E+01 -0.17875884434E+02 -0.18045563443E+02  0.26507548493E+02  0.00000000000E+00 0.  1.
</event>
<event>
 7    1  0.5897985E-013  0.5052886E+02  0.7816164E-02  0.1300439E+00
        -11   -1    0    0    0    0  0.00000000000E+00  0.00000000000E+00  0.45593999997E+02  0.45594000000E+02  0.51100000000E-03 0.  1.
         11   -1    0    0    0    0 -0.00000000000E+00 -0.00000000000E+00 -0.45593999997E+02  0.45594000000E+02  0.51100000000E-03 0. -1.
    9900012    2    1    2    0    0  0.10592178128E+02  0.10528956840E+02  0.37816828665E+02  0.50528859578E+02  0.29999999172E+02 0.  0.
         12    1    1    2    0    0 -0.10592178128E+02 -0.10528956840E+02 -0.37816828665E+02  0.40659140422E+02  0.00000000000E+00 0. -1.
         11    1    3    3    0    0 -0.31752288579E+00  0.11646530321E+02  0.28839978256E+02  0.31104450411E+02  0.51100000000E-03 0. -1.
        -11    1    3    3    0    0  0.12443713839E+02 -0.11580458235E+01  0.11160548572E+02  0.16755444755E+02  0.51100000000E-03 0.  1.
         12    1    3    3    0    0 -0.15340128256E+01  0.40472342641E-01 -0.21836981636E+01  0.26689644114E+01  0.00000000000E+00 0. -1.
</event>
<event>
 7    1  0.5897985E-013  0.5052886E+02  0.7816164E-02  0.1300439E+00
        -11   -1    0    0    0    0  0.00000000000E+00  0.00000000000E+00  0.45593999997E+02  0.45594000000E+02  0.51100000000E-03 0. -1.
         11   -1    0    0    0    0 -0.00000000000E+00 -0.00000000000E+00 -0.45593999997E+02  0.45594000000E+02  0.51100000000E-03 0.  1.
    9900012    2    1    2    0    0  0.30692417160E+02  0.20111918924E+02 -0.17511485917E+02  0.50528857203E+02  0.29999991955E+02 0.  0.
         12    1    1    2    0    0 -0.30692417160E+02 -0.20111918924E+02  0.17511485917E+02  0.40659142797E+02  0.00000000000E+00 0. -1.
         11    1    3    3    0    0  0.10794347887E+02  0.52001669381E+01  0.18299714206E+01  0.12120580768E+02  0.51100000000E-03 0. -1.
        -11    1    3    3    0    0  0.13288498612E+02  0.19467228475E+02 -0.19165723985E+02  0.30378975559E+02  0.51100000000E-03 0.  1.
        -12    1    3    3    0    0  0.66095706605E+01 -0.45554764886E+01 -0.17573335266E+00  0.80293008765E+01  0.00000000000E+00 0.  1.
</event>
<event>
 7    1  0.5897985E-013  0.5052886E+02  0.7816164E-02  0.1300439E+00
        -11   -1    0    0    0    0  0.00000000000E+00  0.00000000000E+00  0.45593999997E+02  0.45594000000E+02  0.51100000000E-03 0.  1.
         11   -1    0    0    0    0 -0.00000000000E+00 -0.00000000000E+00 -0.45593999997E+02  0.45594000000E+02  0.51100000000E-03 0. -1.
    9900012    2    1    2    0    0  0.16520765802E+02 -0.15054044914E+02  0.33964770093E+02  0.50528861072E+02  0.30000003713E+02 0.  0.
         12    1    1    2    0    0 -0.16520765802E+02  0.15054044914E+02 -0.33964770093E+02  0.40659138928E+02  0.00000000000E+00 0. -1.
         11    1    3    3    0    0  0.31909799478E+01  0.29084376567E+01 -0.24512206876E+01  0.49648611008E+01  0.51100000000E-03 0. -1.
        -11    1    3    3    0    0  0.15717342211E+02 -0.90185352101E+01  0.24593893423E+02  0.30548787496E+02  0.51100000000E-03 0.  1.
        -12    1    3    3    0    0 -0.23875563569E+01 -0.89439473602E+01  0.11822097357E+02  0.15015212475E+02  0.00000000000E+00 0.  1.
</event>
<event>
 7    1  0.5897985E-013  0.5052886E+02  0.7816164E-02  0.1300439E+00
        -11   -1    0    0    0    0  0.00000000000E+00  0.00000000000E+00  0.45593999997E+02  0.45594000000E+02  0.51100000000E-03 0. -1.
         11   -1    0    0    0    0 -0.00000000000E+00 -0.00000000000E+00 -0.45593999997E+02  0.45594000000E+02  0.51100000000E-03 0.  1.
    9900012    2    1    2    0    0 -0.11360659075E+02 -0.37050619462E+02 -0.12302544198E+02  0.50528861165E+02  0.30000003996E+02 0.  0.
         12    1    1    2    0    0  0.11360659075E+02  0.37050619462E+02  0.12302544198E+02  0.40659138835E+02  0.00000000000E+00 0. -1.
         11    1    3    3    0    0 -0.17781010211E+02 -0.18912476305E+02  0.11381486724E+01  0.25983484500E+02  0.51100000000E-03 0. -1.
        -11    1    3    3    0    0  0.42079244930E+01 -0.99997935375E+01 -0.11658240000E+02  0.15925359007E+02  0.51100000000E-03 0.  1.
         12    1    3    3    0    0  0.22124266438E+01 -0.81383496195E+01 -0.17824528706E+01  0.86200176577E+01  0.00000000000E+00 0. -1.
</event>
<event>
 7    1  0.5897985E-013  0.5052886E+02  0.7816164E-02  0.1300439E+00
        -11   -1    0    0    0    0  0.00000000000E+00  0.00000000000E+00  0.45593999997E+02  0.45594000000E+02  0.51100000000E-03 0.  1.
         11   -1    0    0    0    0 -0.00000000000E+00 -0.00000000000E+00 -0.45593999997E+02  0.45594000000E+02  0.51100000000E-03 0. -1.
    9900012    2    1    2    0    0 -0.66511322783E+01  0.29919337431E+01  0.39999709925E+02  0.50528855614E+02  0.29999987123E+02 0.  0.
         12    1    1    2    0    0  0.66511322783E+01 -0.29919337431E+01 -0.39999709925E+02  0.40659144386E+02  0.00000000000E+00 0. -1.
         11    1    3    3    0    0  0.80827879841E+01 -0.34576771636E+01  0.25419674316E+02  0.26896967033E+02  0.51100000000E-03 0. -1.
        -11    1    3    3    0    0 -0.52358891417E+01  0.68608028509E+01  0.95656925345E+01  0.12883618466E+02  0.51100000000E-03 0.  1.
         12    1    3    3    0    0 -0.94980311207E+01 -0.41119194411E+00  0.50143430751E+01  0.10748270115E+02  0.00000000000E+00 0. -1.
</event>
<event>
 7    1  0.5897985E-013  0.5052885E+02  0.7816164E-02  0.1300439E+00
        -11   -1    0    0    0    0  0.00000000000E+00  0.00000000000E+00  0.45593999997E+02  0.45594000000E+02  0.51100000000E-03 0. -1.
         11   -1    0    0    0    0 -0.00000000000E+00 -0.00000000000E+00 -0.45593999997E+02  0.45594000000E+02  0.51100000000E-03 0.  1.
    9900012    2    1    2    0    0 -0.22482415237E+01 -0.34517010376E+02 -0.21370264220E+02  0.50528846196E+02  0.29999958498E+02 0.  0.
         12    1    1    2    0    0  0.22482415237E+01  0.34517010376E+02  0.21370264220E+02  0.40659153804E+02  0.00000000000E+00 0. -1.
         11    1    3    3    0    0  0.60950054686E+01 -0.15091818243E+02 -0.20695540470E+02  0.26329023247E+02  0.51100000000E-03 0. -1.
        -11    1    3    3    0    0 -0.91285731318E+01 -0.14043413276E+02 -0.47426121363E+01  0.17408063476E+02  0.51100000000E-03 0.  1.
         12    1    3    3    0    0  0.78532613943E+00 -0.53817788568E+01  0.40678883866E+01  0.67917594727E+01  0.00000000000E+00 0. -1.
</event>
<event>
 7    1  0.5897985E-013  0.5052886E+02  0.7816164E-02  0.1300439E+00
        -11   -1    0    0    0    0  0.00000000000E+00  0.00000000000E+00  0.45593999997E+02  0.45594000000E+02  0.51100000000E-03 0.  1.
         11   -1    0    0    0    0 -0.00000000000E+00 -0.00000000000E+00 -0.45593999997E+02  0.45594000000E+02  0.51100000000E-03 0. -1.
    9900012    2    1    2    0    0 -0.21128431014E+02 -0.15850000652E+02  0.30911685557E+02  0.50528862998E+02  0.30000009569E+02 0.  0.
         12    1    1    2    0    0  0.21128431014E+02  0.15850000652E+02 -0.30911685557E+02  0.40659137002E+02  0.00000000000E+00 0. -1.
         11    1    3    3    0    0 -0.32850664915E+01 -0.11083680665E+02  0.71875317884E+01  0.13612503532E+02  0.51100000000E-03 0. -1.
        -11    1    3    3    0    0 -0.20432291560E+02 -0.45836839045E+01  0.26055811944E+02  0.33427444306E+02  0.51100000000E-03 0.  1.
        -12    1    3    3    0    0  0.25889270375E+01 -0.18263608246E+00 -0.23316581759E+01  0.34889151599E+01  0.00000000000E+00 0.  1.
</event>
<event>
 7    1  0.5897985E-013  0.5052886E+02  0.7816164E-02  0.1300439E+00
        -11   -1    0    0    0    0  0.00000000000E+00  0.00000000000E+00  0.45593999997E+02  0.45594000000E+02  0.51100000000E-03 0.  1.
         11   -1    0    0    0    0 -0.00000000000E+00 -0.00000000000E+00 -0.45593999997E+02  0.45594000000E+02  0.51100000000E-03 0. -1.
    9900012    2    1    2    0    0  0.19094669414E+02  0.32674709460E+02  0.14863469563E+02  0.50528858767E+02  0.29999996707E+02 0.  0.
         12    1    1    2    0    0 -0.19094669414E+02 -0.32674709460E+02 -0.14863469563E+02  0.40659141233E+02  0.00000000000E+00 0. -1.
         11    1    3    3    0    0  0.67861973572E-01  0.48847714312E+01  0.97441412172E+01  0.10900178233E+02  0.51100000000E-03 0.  1.
        -11    1    3    3    0    0  0.15820797508E+02  0.30180722357E+02  0.13033279151E+01  0.34100913473E+02  0.51100000000E-03 0. -1.
         12    1    3    3    0    0  0.32060099327E+01 -0.23907843278E+01  0.38160004312E+01  0.55277670611E+01  0.00000000000E+00 0. -1.
</event>
<event>
 7    1  0.5897985E-013  0.5052884E+02  0.7816164E-02  0.1300439E+00
        -11   -1    0    0    0    0  0.00000000000E+00  0.00000000000E+00  0.45593999997E+02  0.45594000000E+02  0.51100000000E-03 0.  1.
         11   -1    0    0    0    0 -0.00000000000E+00 -0.00000000000E+00 -0.45593999997E+02  0.45594000000E+02  0.51100000000E-03 0. -1.
    9900012    2    1    2    0    0  0.17347417710E+02  0.71576427357E+01  0.36069414917E+02  0.50528838139E+02  0.29999934009E+02 0.  0.
         12    1    1    2    0    0 -0.17347417710E+02 -0.71576427357E+01 -0.36069414917E+02  0.40659161861E+02  0.00000000000E+00 0. -1.
         11    1    3    3    0    0 -0.14367951919E+01 -0.32272286403E+01 -0.10455569310E+01  0.36840975390E+01  0.51100000000E-03 0. -1.
        -11    1    3    3    0    0  0.16603214658E+02  0.90369136284E+01  0.39213203204E+02  0.43531687892E+02  0.51100000000E-03 0.  1.
        -12    1    3    3    0    0  0.21809982430E+01  0.13479577476E+01 -0.20982313560E+01  0.33130527084E+01  0.00000000000E+00 0.  1.
</event>
<event>
 7    1  0.5897985E-013  0.5052886E+02  0.7816164E-02  0.1300439E+00
        -11   -1    0    0    0    0  0.00000000000E+00  0.00000000000E+00  0.45593999997E+02  0.45594000000E+02  0.51100000000E-03 0.  1.
         11   -1    0    0    0    0 -0.00000000000E+00 -0.00000000000E+00 -0.45593999997E+02  0.45594000000E+02  0.51100000000E-03 0. -1.
    9900012    2    1    2    0    0 -0.39016127804E+02  0.10118774442E+02  0.53402219602E+01  0.50528858401E+02  0.29999995595E+02 0.  0.
         12    1    1    2    0    0  0.39016127804E+02 -0.10118774442E+02 -0.53402219602E+01  0.40659141599E+02  0.00000000000E+00 0. -1.
         11    1    3    3    0    0 -0.37856268674E+02  0.81385897529E+01 -0.44144625453E+01  0.38972056668E+02  0.51100000000E-03 0.  1.
        -11    1    3    3    0    0 -0.22817092262E+01  0.22431586674E+01  0.98917875732E+01  0.10396413779E+02  0.51100000000E-03 0. -1.
        -12    1    3    3    0    0  0.11218500968E+01 -0.26297397857E+00 -0.13710306764E+00  0.11603879542E+01  0.00000000000E+00 0.  1.
</event>
<event>
 7    1  0.5897985E-013  0.5052886E+02  0.7816164E-02  0.1300439E+00
        -11   -1    0    0    0    0  0.00000000000E+00  0.00000000000E+00  0.45593999997E+02  0.45594000000E+02  0.51100000000E-03 0. -1.
         11   -1    0    0    0    0 -0.00000000000E+00 -0.00000000000E+00 -0.45593999997E+02  0.45594000000E+02  0.51100000000E-03 0.  1.
    9900012    2    1    2    0    0 -0.35618518665E+02  0.19560451931E+02 -0.13693735262E+01  0.50528864058E+02  0.30000012792E+02 0.  0.
         12    1    1    2    0    0  0.35618518665E+02 -0.19560451931E+02  0.13693735262E+01  0.40659135942E+02  0.00000000000E+00 0. -1.
         11    1    3    3    0    0 -0.30153680114E+02  0.21742825417E+02 -0.30268174471E+01  0.37298210489E+02  0.51100000000E-03 0. -1.
        -11    1    3    3    0    0 -0.22412131102E+01  0.20781542338E+00 -0.49852637192E+01  0.54698334588E+01  0.51100000000E-03 0.  1.
         12    1    3    3    0    0 -0.32236254409E+01 -0.23901889087E+01  0.66427076401E+01  0.77608201110E+01  0.00000000000E+00 0. -1.
</event>
<event>
 7    1  0.5897985E-013  0.5052887E+02  0.7816164E-02  0.1300439E+00
        -11   -1    0    0    0    0  0.00000000000E+00  0.00000000000E+00  0.45593999997E+02  0.45594000000E+02  0.51100000000E-03 0. -1.
         11   -1    0    0    0    0 -0.00000000000E+00 -0.00000000000E+00 -0.45593999997E+02  0.45594000000E+02  0.51100000000E-03 0.  1.
    9900012    2    1    2    0    0  0.73306781706E+01 -0.38302410691E+02 -0.11504417549E+02  0.50528866582E+02  0.30000020462E+02 0.  0.
         12    1    1    2    0    0 -0.73306781706E+01  0.38302410691E+02  0.11504417549E+02  0.40659133418E+02  0.00000000000E+00 0. -1.
         11    1    3    3    0    0  0.15518861532E+01 -0.20820860791E+02 -0.73341421379E+00  0.20891493278E+02  0.51100000000E-03 0. -1.
        -11    1    3    3    0    0  0.10993230788E+02 -0.64365049177E+01 -0.11820553913E+02  0.17378297206E+02  0.51100000000E-03 0.  1.
        -12    1    3    3    0    0 -0.52144387707E+01 -0.11045044982E+02  0.10495505779E+01  0.12259076097E+02  0.00000000000E+00 0.  1.
</event>
<event>
 7    1  0.5897985E-013  0.5052885E+02  0.7816164E-02  0.1300439E+00
        -11   -1    0    0    0    0  0.00000000000E+00  0.00000000000E+00  0.45593999997E+02  0.45594000000E+02  0.51100000000E-03 0.  1.
         11   -1    0    0    0    0 -0.00000000000E+00 -0.00000000000E+00 -0.45593999997E+02  0.45594000000E+02  0.51100000000E-03 0. -1.
    9900012    2    1    2    0    0 -0.22223597874E+02  0.34045449841E+02  0.43033202912E+00  0.50528854129E+02  0.29999982610E+02 0.  0.
         12    1    1    2    0    0  0.22223597874E+02 -0.34045449841E+02 -0.43033202912E+00  0.40659145871E+02  0.00000000000E+00 0. -1.
         11    1    3    3    0    0 -0.32913020631E+01 -0.26233178376E+01 -0.16516990455E+01  0.45213466739E+01  0.51100000000E-03 0. -1.
        -11    1    3    3    0    0 -0.23081382153E+02  0.28333464574E+02  0.29055173322E+01  0.36660297982E+02  0.51100000000E-03 0.  1.
        -12    1    3    3    0    0  0.41490863426E+01  0.83353031040E+01 -0.82348625757E+00  0.93472094729E+01  0.00000000000E+00 0.  1.
</event>
<event>
 7    1  0.5897985E-013  0.5052885E+02  0.7816164E-02  0.1300439E+00
        -11   -1    0    0    0    0  0.00000000000E+00  0.00000000000E+00  0.45593999997E+02  0.45594000000E+02  0.51100000000E-03 0.  1.
         11   -1    0    0    0    0 -0.00000000000E+00 -0.00000000000E+00 -0.45593999997E+02  0.45594000000E+02  0.51100000000E-03 0. -1.
    9900012    2    1    2    0    0  0.62371764706E+01  0.23683816585E+02  0.32455213951E+02  0.50528850341E+02  0.29999971098E+02 0.  0.
         12    1    1    2    0    0 -0.62371764706E+01 -0.23683816585E+02 -0.32455213951E+02  0.40659149659E+02  0.00000000000E+00 0. -1.
         11    1    3    3    0    0  0.35278665808E+01  0.20537079881E+02  0.52794149923E+01  0.21496272132E+02  0.51100000000E-03 0. -1.
        -11    1    3    3    0    0  0.17741988351E+01 -0.32623958124E+01  0.89371214414E+01  0.96779723012E+01  0.51100000000E-03 0.  1.
         12    1    3    3    0    0  0.93511105470E+00  0.64091325169E+01  0.18238677517E+02  0.19354605908E+02  0.00000000000E+00 0. -1.
</event>
<event>
 7    1  0.5897985E-013  0.5052886E+02  0.7816164E-02  0.1300439E+00
        -11   -1    0    0    0    0  0.00000000000E+00  0.00000000000E+00  0.45593999997E+02  0.45594000000E+02  0.51100000000E-03 0. -1.
         11   -1    0    0    0    0 -0.00000000000E+00 -0.00000000000E+00 -0.45593999997E+02  0.45594000000E+02  0.51100000000E-03 0.  1.
    9900012    2    1    2    0    0 -0.12378564033E+02 -0.12374460464E+02 -0.36698901294E+02  0.50528862337E+02  0.30000007560E+02 0.  0.
         12    1    1    2    0    0  0.12378564033E+02  0.12374460464E+02  0.36698901294E+02  0.40659137663E+02  0.00000000000E+00 0. -1.
         11    1    3    3    0    0 -0.69794385492E+01  0.23404707244E+01 -0.77708252875E+01  0.10704022215E+02  0.51100000000E-03 0. -1.
        -11    1    3    3    0    0 -0.41112071257E+01 -0.13858227352E+02 -0.42063404492E+01  0.15054759700E+02  0.51100000000E-03 0.  1.
        -12    1    3    3    0    0 -0.12879183586E+01 -0.85670383570E+00 -0.24721735557E+02  0.24770080422E+02  0.00000000000E+00 0.  1.
</event>
<event>
 7    1  0.5897985E-013  0.5052886E+02  0.7816164E-02  0.1300439E+00
        -11   -1    0    0    0    0  0.00000000000E+00  0.00000000000E+00  0.45593999997E+02  0.45594000000E+02  0.51100000000E-03 0.  1.
         11   -1    0    0    0    0 -0.00000000000E+00 -0.00000000000E+00 -0.45593999997E+02  0.45594000000E+02  0.51100000000E-03 0. -1.
    9900012    2    1    2    0    0 -0.24669039180E+02  0.18530770412E+02 -0.26480466319E+02  0.50528855363E+02  0.29999986362E+02 0.  0.
         12    1    1    2    0    0  0.24669039180E+02 -0.18530770412E+02  0.26480466319E+02  0.40659144637E+02  0.00000000000E+00 0. -1.
         11    1    3    3    0    0  0.13595846346E+01  0.32811172738E+01 -0.94699020345E+01  0.10114012347E+02  0.51100000000E-03 0. -1.
        -11    1    3    3    0    0 -0.28433708370E+02  0.15626037487E+02 -0.11554966090E+02  0.34440761618E+02  0.51100000000E-03 0.  1.
        -12    1    3    3    0    0  0.24050845554E+01 -0.37638434885E+00 -0.54555981948E+01  0.59740813988E+01  0.00000000000E+00 0.  1.
</event>
<event>
 7    1  0.5897985E-013  0.5052886E+02  0.7816164E-02  0.1300439E+00
        -11   -1    0    0    0    0  0.00000000000E+00  0.00000000000E+00  0.45593999997E+02  0.45594000000E+02  0.51100000000E-03 0.  1.
         11   -1    0    0    0    0 -0.00000000000E+00 -0.00000000000E+00 -0.45593999997E+02  0.45594000000E+02  0.51100000000E-03 0. -1.
    9900012    2    1    2    0    0  0.24725747891E+02 -0.30209380058E+02  0.11366464504E+02  0.50528858745E+02  0.29999996641E+02 0.  0.
         12    1    1    2    0    0 -0.24725747891E+02  0.30209380058E+02 -0.11366464504E+02  0.40659141255E+02  0.00000000000E+00 0. -1.
         11    1    3    3    0    0  0.32276277191E+01  0.40326960401E+01  0.43222966631E-01  0.51654706011E+01  0.51100000000E-03 0. -1.
        -11    1    3    3    0    0  0.43333377084E+01 -0.21646974701E+02  0.21490199781E+01  0.22180793866E+02  0.51100000000E-03 0.  1.
        -12    1    3    3    0    0  0.17164782464E+02 -0.12595101397E+02  0.91742215597E+01  0.23182594278E+02  0.00000000000E+00 0.  1.
</event>
<event>
 7    1  0.5897985E-013  0.5052886E+02  0.7816164E-02  0.1300439E+00
        -11   -1    0    0    0    0  0.00000000000E+00  0.00000000000E+00  0.45593999997E+02  0.45594000000E+02  0.51100000000E-03 0.  1.
         11   -1    0    0    0    0 -0.00000000000E+00 -0.00000000000E+00 -0.45593999997E+02  0.45594000000E+02  0.51100000000E-03 0. -1.
    9900012    2    1    2    0    0 -0.24536532698E+02 -0.18800559899E+02  0.26413314705E+02  0.50528859784E+02  0.29999999800E+02 0.  0.
         12    1    1    2    0    0  0.24536532698E+02  0.18800559899E+02 -0.26413314705E+02  0.40659140216E+02  0.00000000000E+00 0. -1.
         11    1    3    3    0    0 -0.18970992935E+01 -0.55600862934E+01  0.21321825389E+02  0.22116369130E+02  0.51100000000E-03 0. -1.
        -11    1    3    3    0    0 -0.12354795511E+02 -0.11901989962E+02  0.55512427507E+01  0.18030935459E+02  0.51100000000E-03 0.  1.
         12    1    3    3    0    0 -0.10284637893E+02 -0.13384836440E+01 -0.45975343427E+00  0.10381555195E+02  0.00000000000E+00 0. -1.
</event>
<event>
 7    1  0.5897985E-013  0.5052886E+02  0.7816164E-02  0.1300439E+00
        -11   -1    0    0    0    0  0.00000000000E+00  0.00000000000E+00  0.45593999997E+02  0.45594000000E+02  0.51100000000E-03 0.  1.
         11   -1    0    0    0    0 -0.00000000000E+00 -0.00000000000E+00 -0.45593999997E+02  0.45594000000E+02  0.51100000000E-03 0. -1.
    9900012    2    1    2    0    0 -0.39277290534E+02 -0.96117655017E+01  0.42513571343E+01  0.50528860496E+02  0.30000001964E+02 0.  0.
         12    1    1    2    0    0  0.39277290534E+02  0.96117655017E+01 -0.42513571343E+01  0.40659139504E+02  0.00000000000E+00 0. -1.
         11    1    3    3    0    0  0.29338821282E+01 -0.28454755074E+00  0.49241254305E+01  0.57389583696E+01  0.51100000000E-03 0. -1.
        -11    1    3    3    0    0 -0.35534778969E+01 -0.25230538765E+01  0.31131569071E+01  0.53558148042E+01  0.51100000000E-03 0.  1.
         12    1    3    3    0    0 -0.38657694765E+02 -0.68041640745E+01 -0.37859252034E+01  0.39434087322E+02  0.00000000000E+00 0. -1.
</event>
<event>
 7    1  0.5897985E-013  0.5052886E+02  0.7816164E-02  0.1300439E+00
        -11   -1    0    0    0    0  0.00000000000E+00  0.00000000000E+00  0.45593999997E+02  0.45594000000E+02  0.51100000000E-03 0.  1.
         11   -1    0    0    0    0 -0.00000000000E+00 -0.00000000000E+00 -0.45593999997E+02  0.45594000000E+02  0.51100000000E-03 0. -1.
    9900012    2    1    2    0    0 -0.27953673005E+02  0.85721955532E+00  0.29513099033E+02  0.50528859891E+02  0.30000000126E+02 0.  0.
         12    1    1    2    0    0  0.27953673005E+02 -0.85721955532E+00 -0.29513099033E+02  0.40659140109E+02  0.00000000000E+00 0. -1.
         11    1    3    3    0    0 -0.36083908210E+01  0.18330208395E+01 -0.47362682521E+01  0.62299828998E+01  0.51100000000E-03 0. -1.
        -11    1    3    3    0    0 -0.14540311998E+02 -0.74294076807E+01  0.20913851169E+02  0.26533110305E+02  0.51100000000E-03 0.  1.
        -12    1    3    3    0    0 -0.98049701865E+01  0.64536063965E+01  0.13335516116E+02  0.17765766686E+02  0.00000000000E+00 0.  1.
</event>
<event>
 7    1  0.5897985E-013  0.5052888E+02  0.7816164E-02  0.1300439E+00
        -11   -1    0    0    0    0  0.00000000000E+00  0.00000000000E+00  0.45593999997E+02  0.45594000000E+02  0.51100000000E-03 0.  1.
         11   -1    0    0    0    0 -0.00000000000E+00 -0.00000000000E+00 -0.45593999997E+02  0.45594000000E+02  0.51100000000E-03 0. -1.
    9900012    2    1    2    0    0  0.64980689884E+01  0.39385461471E+02  0.77281881385E+01  0.50528875959E+02  0.30000048964E+02 0.  0.
         12    1    1    2    0    0 -0.64980689884E+01 -0.39385461471E+02 -0.77281881385E+01  0.40659124041E+02  0.00000000000E+00 0. -1.
         11    1    3    3    0    0 -0.26066113990E+00  0.94223891488E+00  0.48631814960E+01  0.49604730547E+01  0.51100000000E-03 0. -1.
        -11    1    3    3    0    0  0.88997343112E+01  0.29897744774E+02 -0.73812586072E+01  0.32055629650E+02  0.51100000000E-03 0.  1.
        -12    1    3    3    0    0 -0.21410041829E+01  0.85454777829E+01  0.10246265250E+02  0.13512773254E+02  0.00000000000E+00 0.  1.
</event>
<event>
 7    1  0.5897985E-013  0.5052886E+02  0.7816164E-02  0.1300439E+00
        -11   -1    0    0    0    0  0.00000000000E+00  0.00000000000E+00  0.45593999997E+02  0.45594000000E+02  0.51100000000E-03 0.  1.
         11   -1    0    0    0    0 -0.00000000000E+00 -0.00000000000E+00 -0.45593999997E+02  0.45594000000E+02  0.51100000000E-03 0. -1.
    9900012    2    1    2    0    0 -0.15527096535E+02 -0.36041077591E+02  0.10635588954E+02  0.50528858923E+02  0.29999997184E+02 0.  0.
         12    1    1    2    0    0  0.15527096535E+02  0.36041077591E+02 -0.10635588954E+02  0.40659141077E+02  0.00000000000E+00 0. -1.
         11    1    3    3    0    0  0.55812324720E+01 -0.12355738258E+02  0.29084300406E+01  0.13866268040E+02  0.51100000000E-03 0. -1.
        -11    1    3    3    0    0 -0.96530811310E+01 -0.46368696816E+01  0.95655921384E+01  0.14359076885E+02  0.51100000000E-03 0.  1.
         12    1    3    3    0    0 -0.11455247876E+02 -0.19048469651E+02 -0.18384332253E+01  0.22303513998E+02  0.00000000000E+00 0. -1.
</event>
<event>
 7    1  0.5897985E-013  0.5052886E+02  0.7816164E-02  0.1300439E+00
        -11   -1    0    0    0    0  0.00000000000E+00  0.00000000000E+00  0.45593999997E+02  0.45594000000E+02  0.51100000000E-03 0. -1.
         11   -1    0    0    0    0 -0.00000000000E+00 -0.00000000000E+00 -0.45593999997E+02  0.45594000000E+02  0.51100000000E-03 0.  1.
    9900012    2    1    2    0    0 -0.35986173086E+02  0.11480038243E+02  0.15045589331E+02  0.50528859702E+02  0.29999999550E+02 0.  0.
         12    1    1    2    0    0  0.35986173086E+02 -0.11480038243E+02 -0.15045589331E+02  0.40659140298E+02  0.00000000000E+00 0. -1.
         11    1    3    3    0    0 -0.16726802001E+02  0.51865785924E+01  0.19127318989E+02  0.25933392271E+02  0.51100000000E-03 0.  1.
        -11    1    3    3    0    0 -0.99350536525E+01  0.79591145275E+01 -0.71979957241E+01  0.14624087590E+02  0.51100000000E-03 0. -1.
         12    1    3    3    0    0 -0.93243174321E+01 -0.16656548766E+01  0.31162660664E+01  0.99713798413E+01  0.00000000000E+00 0. -1.
</event>
<event>
 7    1  0.5897985E-013  0.5052887E+02  0.7816164E-02  0.1300439E+00
        -11   -1    0    0    0    0  0.00000000000E+00  0.00000000000E+00  0.45593999997E+02  0.45594000000E+02  0.51100000000E-03 0.  1.
         11   -1    0    0    0    0 -0.00000000000E+00 -0.00000000000E+00 -0.45593999997E+02  0.45594000000E+02  0.51100000000E-03 0. -1.
    9900012    2    1    2    0    0  0.11464830270E+01 -0.19070259613E+02  0.35891168946E+02  0.50528865315E+02  0.30000016611E+02 0.  0.
         12    1    1    2    0    0 -0.11464830270E+01  0.19070259613E+02 -0.35891168946E+02  0.40659134685E+02  0.00000000000E+00 0. -1.
         11    1    3    3    0    0 -0.16909351444E+01 -0.10278657785E+02  0.37080704730E+01  0.11057117817E+02  0.51100000000E-03 0. -1.
        -11    1    3    3    0    0  0.94911816802E+01  0.22710999199E+01  0.11412222219E+02  0.15015966195E+02  0.51100000000E-03 0.  1.
        -12    1    3    3    0    0 -0.66537635088E+01 -0.11062701748E+02  0.20770876254E+02  0.24455781303E+02  0.00000000000E+00 0.  1.
</event>
<event>
 7    1  0.5897985E-013  0.5052886E+02  0.7816164E-02  0.1300439E+00
        -11   -1    0    0    0    0  0.00000000000E+00  0.00000000000E+00  0.45593999997E+02  0.45594000000E+02  0.51100000000E-03 0. -1.
         11   -1    0    0    0    0 -0.00000000000E+00 -0.00000000000E+00 -0.45593999997E+02  0.45594000000E+02  0.51100000000E-03 0.  1.
    9900012    2    1    2    0    0  0.15318485294E+02 -0.18123304116E+02 -0.33015994190E+02  0.50528855689E+02  0.29999987351E+02 0.  0.
         12    1    1    2    0    0 -0.15318485294E+02  0.18123304116E+02  0.33015994190E+02  0.40659144311E+02  0.00000000000E+00 0. -1.
         11    1    3    3    0    0  0.35972844210E+01 -0.17327499211E+01  0.54716982518E+01  0.67736518595E+01  0.51100000000E-03 0. -1.
        -11    1    3    3    0    0  0.37549820234E+01 -0.23793857465E+01 -0.11386666138E+02  0.12223646449E+02  0.51100000000E-03 0.  1.
         12    1    3    3    0    0  0.79662188496E+01 -0.14011168449E+02 -0.27101026304E+02  0.31531557380E+02  0.00000000000E+00 0. -1.
</event>
<event>
 7    1  0.5897985E-013  0.5052885E+02  0.7816164E-02  0.1300439E+00
        -11   -1    0    0    0    0  0.00000000000E+00  0.00000000000E+00  0.45593999997E+02  0.45594000000E+02  0.51100000000E-03 0. -1.
         11   -1    0    0    0    0 -0.00000000000E+00 -0.00000000000E+00 -0.45593999997E+02  0.45594000000E+02  0.51100000000E-03 0.  1.
    9900012    2    1    2    0    0 -0.17978266122E+02 -0.36437671476E+02  0.14980666325E+01  0.50528853932E+02  0.29999982012E+02 0.  0.
         12    1    1    2    0    0  0.17978266122E+02  0.36437671476E+02 -0.14980666325E+01  0.40659146068E+02  0.00000000000E+00 0. -1.
         11    1    3    3    0    0 -0.17746127720E+02 -0.59055133072E+01  0.83429773500E+00  0.18721543458E+02  0.51100000000E-03 0. -1.
        -11    1    3    3    0    0  0.39532635590E+01 -0.16162904235E+02  0.21037128224E+01  0.16771802944E+02  0.51100000000E-03 0.  1.
        -12    1    3    3    0    0 -0.41854019602E+01 -0.14369253933E+02 -0.14399439249E+01  0.15035507530E+02  0.00000000000E+00 0.  1.
</event>
<event>
 7    1  0.5897985E-013  0.5052883E+02  0.7816164E-02  0.1300439E+00
        -11   -1    0    0    0    0  0.00000000000E+00  0.00000000000E+00  0.45593999997E+02  0.45594000000E+02  0.51100000000E-03 0. -1.
         11   -1    0    0    0    0 -0.00000000000E+00 -0.00000000000E+00 -0.45593999997E+02  0.45594000000E+02  0.51100000000E-03 0.  1.
    9900012    2    1    2    0    0 -0.21264578700E+02  0.39621730749E+01 -0.34427993548E+02  0.50528832983E+02  0.29999918334E+02 0.  0.
         12    1    1    2    0    0  0.21264578700E+02 -0.39621730749E+01  0.34427993548E+02  0.40659167017E+02  0.00000000000E+00 0. -1.
         11    1    3    3    0    0 -0.63221974294E+01  0.13544557895E+02 -0.16642629703E+02  0.22369674843E+02  0.51100000000E-03 0. -1.
        -11    1    3    3    0    0 -0.13544751486E+02 -0.37703178937E+01 -0.17106630868E+02  0.22142999114E+02  0.51100000000E-03 0.  1.
         12    1    3    3    0    0 -0.13976297845E+01 -0.58120669263E+01 -0.67873297797E+00  0.60161590260E+01  0.00000000000E+00 0. -1.
</event>
<event>
 7    1  0.5897985E-013  0.5052886E+02  0.7816164E-02  0.1300439E+00
        -11   -1    0    0    0    0  0.00000000000E+00  0.00000000000E+00  0.45593999997E+02  0.45594000000E+02  0.51100000000E-03 0.  1.
         11   -1    0    0    0    0 -0.00000000000E+00 -0.00000000000E+00 -0.45593999997E+02  0.45594000000E+02  0.51100000000E-03 0. -1.
    9900012    2    1    2    0    0  0.34572331055E+02 -0.21127688623E+02  0.33971191794E+01  0.50528859332E+02  0.29999998426E+02 0.  0.
         12    1    1    2    0    0 -0.34572331055E+02  0.21127688623E+02 -0.33971191794E+01  0.40659140668E+02  0.00000000000E+00 0. -1.
         11    1    3    3    0    0  0.53059232397E+00 -0.13542354902E+00 -0.35360593900E+01  0.35782096114E+01  0.51100000000E-03 0. -1.
        -11    1    3    3    0    0  0.29361974390E+02 -0.20643304440E+02 -0.29463573213E+01  0.36013227848E+02  0.51100000000E-03 0.  1.
        -12    1    3    3    0    0  0.46797643412E+01 -0.34896063403E+00  0.98795358908E+01  0.10937421873E+02  0.00000000000E+00 0.  1.
</event>
<event>
 7    1  0.5897985E-013  0.5052887E+02  0.7816164E-02  0.1300439E+00
        -11   -1    0    0    0    0  0.00000000000E+00  0.00000000000E+00  0.45593999997E+02  0.45594000000E+02  0.51100000000E-03 0.  1.
         11   -1    0    0    0    0 -0.00000000000E+00 -0.00000000000E+00 -0.45593999997E+02  0.45594000000E+02  0.51100000000E-03 0. -1.
    9900012    2    1    2    0    0 -0.16547345583E+02  0.17892926889E+02  0.32545253323E+02  0.50528868278E+02  0.30000025618E+02 0.  0.
         12    1    1    2    0    0  0.16547345583E+02 -0.17892926889E+02 -0.32545253323E+02  0.40659131722E+02  0.00000000000E+00 0. -1.
         11    1    3    3    0    0 -0.14072553906E+02 -0.40222491938E+01  0.16942323051E+02  0.22388782295E+02  0.51100000000E-03 0. -1.
        -11    1    3    3    0    0 -0.41116728022E+01  0.67886721558E+01  0.74168984386E+01  0.10862886614E+02  0.51100000000E-03 0.  1.
         12    1    3    3    0    0  0.16368811253E+01  0.15126503927E+02  0.81860318340E+01  0.17277199370E+02  0.00000000000E+00 0. -1.
</event>
<event>
 7    1  0.5897985E-013  0.5052887E+02  0.7816164E-02  0.1300439E+00
        -11   -1    0    0    0    0  0.00000000000E+00  0.00000000000E+00  0.45593999997E+02  0.45594000000E+02  0.51100000000E-03 0.  1.
         11   -1    0    0    0    0 -0.00000000000E+00 -0.00000000000E+00 -0.45593999997E+02  0.45594000000E+02  0.51100000000E-03 0. -1.
    9900012    2    1    2    0    0  0.12404686715E+02  0.34491285151E+02  0.17596591411E+02  0.50528867776E+02  0.30000024093E+02 0.  0.
         12    1    1    2    0    0 -0.12404686715E+02 -0.34491285151E+02 -0.17596591411E+02  0.40659132224E+02  0.00000000000E+00 0. -1.
         11    1    3    3    0    0  0.15591494649E+01 -0.19072755965E+01 -0.55165951721E+01  0.60416446278E+01  0.51100000000E-03 0. -1.
        -11    1    3    3    0    0  0.37206243153E+01  0.13843975675E+02  0.94809173622E+01  0.17186811865E+02  0.51100000000E-03 0.  1.
         12    1    3    3    0    0  0.71249129353E+01  0.22554585073E+02  0.13632269221E+02  0.27300411283E+02  0.00000000000E+00 0. -1.
</event>
<event>
 7    1  0.5897985E-013  0.5052886E+02  0.7816164E-02  0.1300439E+00
        -11   -1    0    0    0    0  0.00000000000E+00  0.00000000000E+00  0.45593999997E+02  0.45594000000E+02  0.51100000000E-03 0. -1.
         11   -1    0    0    0    0 -0.00000000000E+00 -0.00000000000E+00 -0.45593999997E+02  0.45594000000E+02  0.51100000000E-03 0.  1.
    9900012    2    1    2    0    0 -0.49721362319E+01 -0.18255643940E+01 -0.40312661961E+02  0.50528861563E+02  0.30000005206E+02 0.  0.
         12    1    1    2    0    0  0.49721362319E+01  0.18255643940E+01  0.40312661961E+02  0.40659138437E+02  0.00000000000E+00 0. -1.
         11    1    3    3    0    0  0.36259553156E+00 -0.19588313850E+01  0.39602964575E+01  0.44331077369E+01  0.51100000000E-03 0. -1.
        -11    1    3    3    0    0  0.27191719966E+01  0.28802871248E+01 -0.19609793577E+02  0.20005848011E+02  0.51100000000E-03 0.  1.
         12    1    3    3    0    0 -0.80539037600E+01 -0.27470201338E+01 -0.24663164842E+02  0.26089905814E+02  0.00000000000E+00 0. -1.
</event>
<event>
 7    1  0.5897985E-013  0.5052883E+02  0.7816164E-02  0.1300439E+00
        -11   -1    0    0    0    0  0.00000000000E+00  0.00000000000E+00  0.45593999997E+02  0.45594000000E+02  0.51100000000E-03 0.  1.
         11   -1    0    0    0    0 -0.00000000000E+00 -0.00000000000E+00 -0.45593999997E+02  0.45594000000E+02  0.51100000000E-03 0. -1.
    9900012    2    1    2    0    0 -0.10598828564E+02  0.22425587251E+02  0.32216863031E+02  0.50528826446E+02  0.29999898467E+02 0.  0.
         12    1    1    2    0    0  0.10598828564E+02 -0.22425587251E+02 -0.32216863031E+02  0.40659173554E+02  0.00000000000E+00 0. -1.
         11    1    3    3    0    0 -0.34081187547E+01  0.11907562959E+02 -0.44698028864E+00  0.12393753294E+02  0.51100000000E-03 0. -1.
        -11    1    3    3    0    0 -0.15109411467E+01  0.95897338390E+01  0.30464660067E+02  0.31974074678E+02  0.51100000000E-03 0.  1.
        -12    1    3    3    0    0 -0.56797686624E+01  0.92829045300E+00  0.21991832527E+01  0.61609984745E+01  0.00000000000E+00 0.  1.
</event>
<event>
 7    1  0.5897985E-013  0.5052885E+02  0.7816164E-02  0.1300439E+00
        -11   -1    0    0    0    0  0.00000000000E+00  0.00000000000E+00  0.45593999997E+02  0.45594000000E+02  0.51100000000E-03 0. -1.
         11   -1    0    0    0    0 -0.00000000000E+00 -0.00000000000E+00 -0.45593999997E+02  0.45594000000E+02  0.51100000000E-03 0.  1.
    9900012    2    1    2    0    0 -0.23905329752E+02  0.22907847356E+02  0.23599417256E+02  0.50528846592E+02  0.29999959700E+02 0.  0.
         12    1    1    2    0    0  0.23905329752E+02 -0.22907847356E+02 -0.23599417256E+02  0.40659153408E+02  0.00000000000E+00 0. -1.
         11    1    3    3    0    0 -0.63858042653E+01  0.32554331711E+01  0.20698128223E+02  0.21904083031E+02  0.51100000000E-03 0. -1.
        -11    1    3    3    0    0 -0.18052564187E+02  0.14123615989E+02  0.22031064097E+01  0.23026621125E+02  0.51100000000E-03 0.  1.
         12    1    3    3    0    0  0.53303870076E+00  0.55287981961E+01  0.69818262425E+00  0.55981424353E+01  0.00000000000E+00 0. -1.
</event>
<event>
 7    1  0.5897985E-013  0.5052886E+02  0.7816164E-02  0.1300439E+00
        -11   -1    0    0    0    0  0.00000000000E+00  0.00000000000E+00  0.45593999997E+02  0.45594000000E+02  0.51100000000E-03 0.  1.
         11   -1    0    0    0    0 -0.00000000000E+00 -0.00000000000E+00 -0.45593999997E+02  0.45594000000E+02  0.51100000000E-03 0. -1.
    9900012    2    1    2    0    0  0.21970829593E+02  0.19454425417E+02  0.28142019176E+02  0.50528864931E+02  0.30000015444E+02 0.  0.
         12    1    1    2    0    0 -0.21970829593E+02 -0.19454425417E+02 -0.28142019176E+02  0.40659135069E+02  0.00000000000E+00 0. -1.
         11    1    3    3    0    0  0.22935491773E+02  0.17089781272E+02  0.25457600339E+02  0.38290819031E+02  0.51100000000E-03 0. -1.
        -11    1    3    3    0    0 -0.40591487329E+01 -0.34620923463E+01  0.14156474454E+01  0.55196766029E+01  0.51100000000E-03 0.  1.
        -12    1    3    3    0    0  0.30944865528E+01  0.58267364916E+01  0.12687713913E+01  0.67183692970E+01  0.00000000000E+00 0.  1.
</event>
<event>
 7    1  0.5897985E-013  0.5052887E+02  0.7816164E-02  0.1300439E+00
        -11   -1    0    0    0    0  0.00000000000E+00  0.00000000000E+00  0.45593999997E+02  0.45594000000E+02  0.51100000000E-03 0.  1.
         11   -1    0    0    0    0 -0.00000000000E+00 -0.00000000000E+00 -0.45593999997E+02  0.45594000000E+02  0.51100000000E-03 0. -1.
    9900012    2    1    2    0    0 -0.84820878370E+01 -0.35504363181E+02  0.17906956331E+02  0.50528871824E+02  0.30000036396E+02 0.  0.
         12    1    1    2    0    0  0.84820878370E+01  0.35504363181E+02 -0.17906956331E+02  0.40659128176E+02  0.00000000000E+00 0. -1.
         11    1    3    3    0    0 -0.36387165974E+01  0.18183510380E+01  0.49011772418E+00  0.40971788609E+01  0.51100000000E-03 0. -1.
        -11    1    3    3    0    0  0.61778803619E+00 -0.28798296457E+02  0.32049249878E+01  0.28982668706E+02  0.51100000000E-03 0.  1.
        -12    1    3    3    0    0 -0.54611592758E+01 -0.85244177628E+01  0.14211913619E+02  0.17449024258E+02  0.00000000000E+00 0.  1.
</event>
<event>
 7    1  0.5897985E-013  0.5052886E+02  0.7816164E-02  0.1300439E+00
        -11   -1    0    0    0    0  0.00000000000E+00  0.00000000000E+00  0.45593999997E+02  0.45594000000E+02  0.51100000000E-03 0. -1.
         11   -1    0    0    0    0 -0.00000000000E+00 -0.00000000000E+00 -0.45593999997E+02  0.45594000000E+02  0.51100000000E-03 0.  1.
    9900012    2    1    2    0    0 -0.18552617090E+02 -0.32110983108E+02 -0.16668848169E+02  0.50528864048E+02  0.30000012760E+02 0.  0.
         12    1    1    2    0    0  0.18552617090E+02  0.32110983108E+02  0.16668848169E+02  0.40659135952E+02  0.00000000000E+00 0. -1.
         11    1    3    3    0    0 -0.93588821259E+01 -0.88588978576E+01  0.31258538003E+01  0.13260456559E+02  0.51100000000E-03 0. -1.
        -11    1    3    3    0    0 -0.15094789049E+02 -0.18560865341E+02 -0.16369075534E+02  0.28988014985E+02  0.51100000000E-03 0.  1.
        -12    1    3    3    0    0  0.59010540850E+01 -0.46912199095E+01 -0.34256264352E+01  0.82803925044E+01  0.00000000000E+00 0.  1.
</event>
<event>
 7    1  0.5897985E-013  0.5052885E+02  0.7816164E-02  0.1300439E+00
        -11   -1    0    0    0    0  0.00000000000E+00  0.00000000000E+00  0.45593999997E+02  0.45594000000E+02  0.51100000000E-03 0.  1.
         11   -1    0    0    0    0 -0.00000000000E+00 -0.00000000000E+00 -0.45593999997E+02  0.45594000000E+02  0.51100000000E-03 0. -1.
    9900012    2    1    2    0    0  0.20286121102E+02  0.32652014624E+02  0.13247104359E+02  0.50528849219E+02  0.29999967686E+02 0.  0.
         12    1    1    2    0    0 -0.20286121102E+02 -0.32652014624E+02 -0.13247104359E+02  0.40659150781E+02  0.00000000000E+00 0. -1.
         11    1    3    3    0    0 -0.19019759378E+00 -0.14946256208E+01  0.25378757675E+01  0.29514224610E+01  0.51100000000E-03 0. -1.
        -11    1    3    3    0    0  0.18936627405E+02  0.20218401748E+02  0.16690532442E+02  0.32341204371E+02  0.51100000000E-03 0.  1.
        -12    1    3    3    0    0  0.15396912907E+01  0.13928238496E+02 -0.59813038504E+01  0.15236222387E+02  0.00000000000E+00 0.  1.
</event>
<event>
 7    1  0.5897985E-013  0.5052889E+02  0.7816164E-02  0.1300439E+00
        -11   -1    0    0    0    0  0.00000000000E+00  0.00000000000E+00  0.45593999997E+02  0.45594000000E+02  0.51100000000E-03 0. -1.
         11   -1    0    0    0    0 -0.00000000000E+00 -0.00000000000E+00 -0.45593999997E+02  0.45594000000E+02  0.51100000000E-03 0.  1.
    9900012    2    1    2    0    0 -0.33959477211E+02 -0.20631720914E+02  0.86167986493E+01  0.50528890083E+02  0.30000091895E+02 0.  0.
         12    1    1    2    0    0  0.33959477211E+02  0.20631720914E+02 -0.86167986493E+01  0.40659109917E+02  0.00000000000E+00 0. -1.
         11    1    3    3    0    0 -0.11419115353E+02 -0.17777638386E+01  0.81141876120E+01  0.14120788950E+02  0.51100000000E-03 0. -1.
        -11    1    3    3    0    0  0.26813110955E+01 -0.86440908605E+01 -0.12774997769E+01  0.91401171731E+01  0.51100000000E-03 0.  1.
        -12    1    3    3    0    0 -0.25221672954E+02 -0.10209866215E+02  0.17801108141E+01  0.27267983960E+02  0.00000000000E+00 0.  1.
</event>
<event>
 7    1  0.5897985E-013  0.5052886E+02  0.7816164E-02  0.1300439E+00
        -11   -1    0    0    0    0  0.00000000000E+00  0.00000000000E+00  0.45593999997E+02  0.45594000000E+02  0.51100000000E-03 0. -1.
         11   -1    0    0    0    0 -0.00000000000E+00 -0.00000000000E+00 -0.45593999997E+02  0.45594000000E+02  0.51100000000E-03 0.  1.
    9900012    2    1    2    0    0 -0.11868875959E+02  0.34363407888E+02 -0.18205803908E+02  0.50528864321E+02  0.30000013591E+02 0.  0.
         12    1    1    2    0    0  0.11868875959E+02 -0.34363407888E+02  0.18205803908E+02  0.40659135679E+02  0.00000000000E+00 0. -1.
         11    1    3    3    0    0  0.39489642362E+01  0.63572359460E+01 -0.88964332869E+01  0.11625630860E+02  0.51100000000E-03 0. -1.
        -11    1    3    3    0    0 -0.18913232814E+02  0.28824203309E+02 -0.92760357841E+01  0.35701399300E+02  0.51100000000E-03 0.  1.
        -12    1    3    3    0    0  0.30953926185E+01 -0.81803136727E+00 -0.33334837098E-01  0.32018341606E+01  0.00000000000E+00 0.  1.
</event>
<event>
 7    1  0.5897985E-013  0.5052886E+02  0.7816164E-02  0.1300439E+00
        -11   -1    0    0    0    0  0.00000000000E+00  0.00000000000E+00  0.45593999997E+02  0.45594000000E+02  0.51100000000E-03 0.  1.
         11   -1    0    0    0    0 -0.00000000000E+00 -0.00000000000E+00 -0.45593999997E+02  0.45594000000E+02  0.51100000000E-03 0. -1.
    9900012    2    1    2    0    0 -0.56467125911E+01  0.38111281154E+02  0.12992716095E+02  0.50528858521E+02  0.29999995959E+02 0.  0.
         12    1    1    2    0    0  0.56467125911E+01 -0.38111281154E+02 -0.12992716095E+02  0.40659141479E+02  0.00000000000E+00 0. -1.
         11    1    3    3    0    0  0.62665956476E+01  0.10483283313E+02 -0.73865877243E+00  0.12235810846E+02  0.51100000000E-03 0. -1.
        -11    1    3    3    0    0 -0.95058997108E+01  0.58289060582E+01  0.11864622659E+02  0.16282123518E+02  0.51100000000E-03 0.  1.
        -12    1    3    3    0    0 -0.24074085279E+01  0.21799091784E+02  0.18667522083E+01  0.22010924156E+02  0.00000000000E+00 0.  1.
</event>
<event>
 7    1  0.5897985E-013  0.5052887E+02  0.7816164E-02  0.1300439E+00
        -11   -1    0    0    0    0  0.00000000000E+00  0.00000000000E+00  0.45593999997E+02  0.45594000000E+02  0.51100000000E-03 0.  1.
         11   -1    0    0    0    0 -0.00000000000E+00 -0.00000000000E+00 -0.45593999997E+02  0.45594000000E+02  0.51100000000E-03 0. -1.
    9900012    2    1    2    0    0 -0.39489470620E+01 -0.37090562344E+02  0.16182106129E+02  0.50528873636E+02  0.30000041904E+02 0.  0.
         12    1    1    2    0    0  0.39489470620E+01  0.37090562344E+02 -0.16182106129E+02  0.40659126364E+02  0.00000000000E+00 0. -1.
         11    1    3    3    0    0 -0.11102521509E+02 -0.15548425263E+02  0.55511286206E+01  0.19895591001E+02  0.51100000000E-03 0. -1.
        -11    1    3    3    0    0  0.67406590289E+01  0.29764922470E-01  0.48258265538E+01  0.82901129234E+01  0.51100000000E-03 0.  1.
        -12    1    3    3    0    0  0.41291541857E+00 -0.21571902003E+02  0.58051509544E+01  0.22343169712E+02  0.00000000000E+00 0.  1.
</event>
<event>
 7    1  0.5897985E-013  0.5052887E+02  0.7816164E-02  0.1300439E+00
        -11   -1    0    0    0    0  0.00000000000E+00  0.00000000000E+00  0.45593999997E+02  0.45594000000E+02  0.51100000000E-03 0.  1.
         11   -1    0    0    0    0 -0.00000000000E+00 -0.00000000000E+00 -0.45593999997E+02  0.45594000000E+02  0.51100000000E-03 0. -1.
    9900012    2    1    2    0    0  0.10758810866E+02 -0.10729813398E+02  0.37713185376E+02  0.50528865011E+02  0.30000015688E+02 0.  0.
         12    1    1    2    0    0 -0.10758810866E+02  0.10729813398E+02 -0.37713185376E+02  0.40659134989E+02  0.00000000000E+00 0. -1.
         11    1    3    3    0    0 -0.60105554247E+00 -0.10738513992E+02  0.25861035221E+01  0.11061866127E+02  0.51100000000E-03 0. -1.
        -11    1    3    3    0    0  0.13208003122E+01 -0.12988002068E+01  0.25267601464E+02  0.25335411571E+02  0.51100000000E-03 0.  1.
        -12    1    3    3    0    0  0.10039066097E+02  0.13075008011E+01  0.98594803898E+01  0.14131587313E+02  0.00000000000E+00 0.  1.
</event>
<event>
 7    1  0.5897985E-013  0.5052889E+02  0.7816164E-02  0.1300439E+00
        -11   -1    0    0    0    0  0.00000000000E+00  0.00000000000E+00  0.45593999997E+02  0.45594000000E+02  0.51100000000E-03 0.  1.
         11   -1    0    0    0    0 -0.00000000000E+00 -0.00000000000E+00 -0.45593999997E+02  0.45594000000E+02  0.51100000000E-03 0. -1.
    9900012    2    1    2    0    0 -0.21794912563E+01 -0.20901343529E+02  0.34807282499E+02  0.50528889601E+02  0.30000090430E+02 0.  0.
         12    1    1    2    0    0  0.21794912563E+01  0.20901343529E+02 -0.34807282499E+02  0.40659110399E+02  0.00000000000E+00 0. -1.
         11    1    3    3    0    0  0.69062582158E+01 -0.19227988074E+02  0.84640736351E+01  0.22114530759E+02  0.51100000000E-03 0. -1.
        -11    1    3    3    0    0 -0.71309147776E+01  0.67283873688E+00  0.14347152757E+02  0.16035693001E+02  0.51100000000E-03 0.  1.
        -12    1    3    3    0    0 -0.19548346946E+01 -0.23461941920E+01  0.11996056107E+02  0.12378665841E+02  0.00000000000E+00 0.  1.
</event>
<event>
 7    1  0.5897985E-013  0.5052884E+02  0.7816164E-02  0.1300439E+00
        -11   -1    0    0    0    0  0.00000000000E+00  0.00000000000E+00  0.45593999997E+02  0.45594000000E+02  0.51100000000E-03 0.  1.
         11   -1    0    0    0    0 -0.00000000000E+00 -0.00000000000E+00 -0.45593999997E+02  0.45594000000E+02  0.51100000000E-03 0. -1.
    9900012    2    1    2    0    0 -0.30427130213E+02  0.33775994807E+01  0.26757219162E+02  0.50528841025E+02  0.29999942781E+02 0.  0.
         12    1    1    2    0    0  0.30427130213E+02 -0.33775994807E+01 -0.26757219162E+02  0.40659158975E+02  0.00000000000E+00 0. -1.
         11    1    3    3    0    0 -0.36294358406E+01  0.81746527139E+01 -0.28825613556E+01  0.93971757323E+01  0.51100000000E-03 0. -1.
        -11    1    3    3    0    0 -0.17189707215E+02 -0.52110232411E+01  0.14008292416E+02  0.22778785175E+02  0.51100000000E-03 0.  1.
         12    1    3    3    0    0 -0.96079871568E+01  0.41397000787E+00  0.15631488101E+02  0.18352880118E+02  0.00000000000E+00 0. -1.
</event>
<event>
 7    1  0.5897985E-013  0.5052886E+02  0.7816164E-02  0.1300439E+00
        -11   -1    0    0    0    0  0.00000000000E+00  0.00000000000E+00  0.45593999997E+02  0.45594000000E+02  0.51100000000E-03 0. -1.
         11   -1    0    0    0    0 -0.00000000000E+00 -0.00000000000E+00 -0.45593999997E+02  0.45594000000E+02  0.51100000000E-03 0.  1.
    9900012    2    1    2    0    0  0.64944448385E+00  0.40631878246E+02 -0.13394548079E+01  0.50528862686E+02  0.30000008621E+02 0.  0.
         12    1    1    2    0    0 -0.64944448385E+00 -0.40631878246E+02  0.13394548079E+01  0.40659137314E+02  0.00000000000E+00 0. -1.
         11    1    3    3    0    0  0.10225942172E+02  0.75056817098E+01 -0.40652459822E+01  0.13320336947E+02  0.51100000000E-03 0. -1.
        -11    1    3    3    0    0 -0.25720131713E+01  0.10763917905E+02  0.74003185007E+01  0.13313222547E+02  0.51100000000E-03 0.  1.
         12    1    3    3    0    0 -0.70044845166E+01  0.22362278631E+02 -0.46745273264E+01  0.23895303192E+02  0.00000000000E+00 0. -1.
</event>
<event>
 7    1  0.5897985E-013  0.5052886E+02  0.7816164E-02  0.1300439E+00
        -11   -1    0    0    0    0  0.00000000000E+00  0.00000000000E+00  0.45593999997E+02  0.45594000000E+02  0.51100000000E-03 0.  1.
         11   -1    0    0    0    0 -0.00000000000E+00 -0.00000000000E+00 -0.45593999997E+02  0.45594000000E+02  0.51100000000E-03 0. -1.
    9900012    2    1    2    0    0  0.39533344593E+02  0.94601317545E+01  0.88661377572E+00  0.50528861894E+02  0.30000006214E+02 0.  0.
         12    1    1    2    0    0 -0.39533344593E+02 -0.94601317545E+01 -0.88661377572E+00  0.40659138106E+02  0.00000000000E+00 0. -1.
         11    1    3    3    0    0  0.32580329703E+02  0.98098485904E+01 -0.91209694315E+01  0.35226454499E+02  0.51100000000E-03 0. -1.
        -11    1    3    3    0    0 -0.20121048385E+01 -0.10847702912E+01  0.35769428703E+01  0.42449750322E+01  0.51100000000E-03 0.  1.
         12    1    3    3    0    0  0.89651197282E+01  0.73505345536E+00  0.64306403369E+01  0.11057432363E+02  0.00000000000E+00 0. -1.
</event>
<event>
 7    1  0.5897985E-013  0.5052886E+02  0.7816164E-02  0.1300439E+00
        -11   -1    0    0    0    0  0.00000000000E+00  0.00000000000E+00  0.45593999997E+02  0.45594000000E+02  0.51100000000E-03 0.  1.
         11   -1    0    0    0    0 -0.00000000000E+00 -0.00000000000E+00 -0.45593999997E+02  0.45594000000E+02  0.51100000000E-03 0. -1.
    9900012    2    1    2    0    0 -0.19813272566E+02 -0.30239787152E+01  0.35375910838E+02  0.50528864684E+02  0.30000014693E+02 0.  0.
         12    1    1    2    0    0  0.19813272566E+02  0.30239787152E+01 -0.35375910838E+02  0.40659135316E+02  0.00000000000E+00 0. -1.
         11    1    3    3    0    0 -0.12136031787E+02 -0.28597197447E+01 -0.15837575853E+01  0.12568593911E+02  0.51100000000E-03 0. -1.
        -11    1    3    3    0    0 -0.35697561899E+01  0.14777015371E+01  0.22822302301E+02  0.23147013709E+02  0.51100000000E-03 0.  1.
         12    1    3    3    0    0 -0.41074845898E+01 -0.16419605077E+01  0.14137366122E+02  0.14813257064E+02  0.00000000000E+00 0. -1.
</event>
<event>
 7    1  0.5897985E-013  0.5052886E+02  0.7816164E-02  0.1300439E+00
        -11   -1    0    0    0    0  0.00000000000E+00  0.00000000000E+00  0.45593999997E+02  0.45594000000E+02  0.51100000000E-03 0.  1.
         11   -1    0    0    0    0 -0.00000000000E+00 -0.00000000000E+00 -0.45593999997E+02  0.45594000000E+02  0.51100000000E-03 0. -1.
    9900012    2    1    2    0    0  0.16105157412E+02  0.32308891658E+02  0.18706282239E+02  0.50528861168E+02  0.30000004005E+02 0.  0.
         12    1    1    2    0    0 -0.16105157412E+02 -0.32308891658E+02 -0.18706282239E+02  0.40659138832E+02  0.00000000000E+00 0. -1.
         11    1    3    3    0    0  0.22984096196E+01 -0.19891093730E+01  0.48141736741E+01  0.56934621544E+01  0.51100000000E-03 0. -1.
        -11    1    3    3    0    0  0.18818325244E+02  0.31640906031E+02  0.10753088856E+02  0.38352382190E+02  0.51100000000E-03 0.  1.
        -12    1    3    3    0    0 -0.50115774521E+01  0.26570949994E+01  0.31390197088E+01  0.64830168229E+01  0.00000000000E+00 0.  1.
</event>
<event>
 7    1  0.5897985E-013  0.5052885E+02  0.7816164E-02  0.1300439E+00
        -11   -1    0    0    0    0  0.00000000000E+00  0.00000000000E+00  0.45593999997E+02  0.45594000000E+02  0.51100000000E-03 0.  1.
         11   -1    0    0    0    0 -0.00000000000E+00 -0.00000000000E+00 -0.45593999997E+02  0.45594000000E+02  0.51100000000E-03 0. -1.
    9900012    2    1    2    0    0  0.26245124105E+02 -0.94758292197E+01  0.29573101210E+02  0.50528853503E+02  0.29999980709E+02 0.  0.
         12    1    1    2    0    0 -0.26245124105E+02  0.94758292197E+01 -0.29573101210E+02  0.40659146497E+02  0.00000000000E+00 0. -1.
         11    1    3    3    0    0  0.64282720200E+01  0.51965395371E+01 -0.24221491750E+01  0.86135655341E+01  0.51100000000E-03 0. -1.
        -11    1    3    3    0    0  0.31570268787E+01 -0.70433298783E+01  0.15253538663E+02  0.17095196884E+02  0.51100000000E-03 0.  1.
         12    1    3    3    0    0  0.16659825206E+02 -0.76290388785E+01  0.16741711721E+02  0.24820091085E+02  0.00000000000E+00 0. -1.
</event>
<event>
 7    1  0.7728608E-013  0.5052884E+02  0.7816164E-02  0.1300439E+00
        -11   -1    0    0    0    0  0.00000000000E+00  0.00000000000E+00  0.45593999997E+02  0.45594000000E+02  0.51100000000E-03 0.  1.
         11   -1    0    0    0    0 -0.00000000000E+00 -0.00000000000E+00 -0.45593999997E+02  0.45594000000E+02  0.51100000000E-03 0. -1.
    9900012    2    1    2    0    0 -0.28401013331E+01 -0.39582149215E+02  0.88518086519E+01  0.50528840780E+02  0.29999942034E+02 0.  0.
         12    1    1    2    0    0  0.28401013331E+01  0.39582149215E+02 -0.88518086519E+01  0.40659159220E+02  0.00000000000E+00 0. -1.
         11    1    3    3    0    0  0.17266178579E+01 -0.32790178227E+01 -0.52062800570E+01  0.63905022809E+01  0.51100000000E-03 0. -1.
        -11    1    3    3    0    0  0.79717447020E+00 -0.15465987688E+02  0.16326012526E+02  0.22502687563E+02  0.51100000000E-03 0.  1.
        -12    1    3    3    0    0 -0.53638936612E+01 -0.20837143705E+02 -0.22679238168E+01  0.21635650936E+02  0.00000000000E+00 0.  1.
</event>
<event>
 7    1  0.5897985E-013  0.5052891E+02  0.7816164E-02  0.1300439E+00
        -11   -1    0    0    0    0  0.00000000000E+00  0.00000000000E+00  0.45593999997E+02  0.45594000000E+02  0.51100000000E-03 0. -1.
         11   -1    0    0    0    0 -0.00000000000E+00 -0.00000000000E+00 -0.45593999997E+02  0.45594000000E+02  0.51100000000E-03 0.  1.
    9900012    2    1    2    0    0  0.15228143576E+02  0.29886456630E+02 -0.22979670824E+02  0.50528906087E+02  0.30000140543E+02 0.  0.
         12    1    1    2    0    0 -0.15228143576E+02 -0.29886456630E+02  0.22979670824E+02  0.40659093913E+02  0.00000000000E+00 0. -1.
         11    1    3    3    0    0  0.18630026933E+02  0.20757892458E+02 -0.35285364460E+01  0.28114383731E+02  0.51100000000E-03 0. -1.
        -11    1    3    3    0    0 -0.83638171240E-01  0.64079156206E+01 -0.14559988135E+02  0.15907911010E+02  0.51100000000E-03 0.  1.
         12    1    3    3    0    0 -0.33182451863E+01  0.27206485509E+01 -0.48911462426E+01  0.65066113470E+01  0.00000000000E+00 0. -1.
</event>
<event>
 7    1  0.5897985E-013  0.5052884E+02  0.7816164E-02  0.1300439E+00
        -11   -1    0    0    0    0  0.00000000000E+00  0.00000000000E+00  0.45593999997E+02  0.45594000000E+02  0.51100000000E-03 0.  1.
         11   -1    0    0    0    0 -0.00000000000E+00 -0.00000000000E+00 -0.45593999997E+02  0.45594000000E+02  0.51100000000E-03 0. -1.
    9900012    2    1    2    0    0 -0.17354389497E+02 -0.36737854546E+02  0.15239068326E+01  0.50528842563E+02  0.29999947454E+02 0.  0.
         12    1    1    2    0    0  0.17354389497E+02  0.36737854546E+02 -0.15239068326E+01  0.40659157437E+02  0.00000000000E+00 0. -1.
         11    1    3    3    0    0 -0.19303466306E+02 -0.29312644537E+02 -0.56331738720E+01  0.35546977218E+02  0.51100000000E-03 0. -1.
        -11    1    3    3    0    0  0.20613684825E+01 -0.97128003152E+01  0.32401072617E+01  0.10444425562E+02  0.51100000000E-03 0.  1.
         12    1    3    3    0    0 -0.11229167335E+00  0.22875903065E+01  0.39169734430E+01  0.45374397829E+01  0.00000000000E+00 0. -1.
</event>
<event>
 7    1  0.5897985E-013  0.5052886E+02  0.7816164E-02  0.1300439E+00
        -11   -1    0    0    0    0  0.00000000000E+00  0.00000000000E+00  0.45593999997E+02  0.45594000000E+02  0.51100000000E-03 0. -1.
         11   -1    0    0    0    0 -0.00000000000E+00 -0.00000000000E+00 -0.45593999997E+02  0.45594000000E+02  0.51100000000E-03 0.  1.
    9900012    2    1    2    0    0  0.31616132130E+02  0.19107015559E+02  0.16985522840E+02  0.50528857848E+02  0.29999993914E+02 0.  0.
         12    1    1    2    0    0 -0.31616132130E+02 -0.19107015559E+02 -0.16985522840E+02  0.40659142152E+02  0.00000000000E+00 0. -1.
         11    1    3    3    0    0 -0.27688648280E+01  0.31289019816E+01  0.67324422831E+01  0.79235357892E+01  0.51100000000E-03 0. -1.
        -11    1    3    3    0    0  0.14032077884E+02  0.15179092460E+02  0.25466729490E+01  0.20827616307E+02  0.51100000000E-03 0.  1.
         12    1    3    3    0    0  0.20352919074E+02  0.79902111650E+00  0.77064076082E+01  0.21777705751E+02  0.00000000000E+00 0. -1.
</event>
<event>
 7    1  0.5897985E-013  0.5052885E+02  0.7816164E-02  0.1300439E+00
        -11   -1    0    0    0    0  0.00000000000E+00  0.00000000000E+00  0.45593999997E+02  0.45594000000E+02  0.51100000000E-03 0.  1.
         11   -1    0    0    0    0 -0.00000000000E+00 -0.00000000000E+00 -0.45593999997E+02  0.45594000000E+02  0.51100000000E-03 0. -1.
    9900012    2    1    2    0    0 -0.19670199746E+02  0.20618716021E+02  0.29002039577E+02  0.50528849639E+02  0.29999968964E+02 0.  0.
         12    1    1    2    0    0  0.19670199746E+02 -0.20618716021E+02 -0.29002039577E+02  0.40659150361E+02  0.00000000000E+00 0. -1.
         11    1    3    3    0    0 -0.30786980160E+01  0.34473918071E-01 -0.79840070606E+00  0.31807253690E+01  0.51100000000E-03 0. -1.
        -11    1    3    3    0    0  0.35414159801E+01  0.52112079855E+01  0.18624133767E+02  0.19661044597E+02  0.51100000000E-03 0.  1.
        -12    1    3    3    0    0 -0.20132917710E+02  0.15373034118E+02  0.11176306517E+02  0.27687079674E+02  0.00000000000E+00 0.  1.
</event>
<event>
 7    1  0.5897985E-013  0.5052884E+02  0.7816164E-02  0.1300439E+00
        -11   -1    0    0    0    0  0.00000000000E+00  0.00000000000E+00  0.45593999997E+02  0.45594000000E+02  0.51100000000E-03 0. -1.
         11   -1    0    0    0    0 -0.00000000000E+00 -0.00000000000E+00 -0.45593999997E+02  0.45594000000E+02  0.51100000000E-03 0.  1.
    9900012    2    1    2    0    0  0.95951834459E+01  0.10017058108E+02 -0.38219863338E+02  0.50528844179E+02  0.29999952368E+02 0.  0.
         12    1    1    2    0    0 -0.95951834459E+01 -0.10017058108E+02  0.38219863338E+02  0.40659155821E+02  0.00000000000E+00 0. -1.
         11    1    3    3    0    0  0.26957883100E+01 -0.52686946833E+01 -0.26172489056E+02  0.26833292790E+02  0.51100000000E-03 0.  1.
        -11    1    3    3    0    0  0.95055844191E+01  0.74017907544E+01 -0.62845274717E+01  0.13588153934E+02  0.51100000000E-03 0. -1.
        -12    1    3    3    0    0 -0.26061892832E+01  0.78839620372E+01 -0.57628468098E+01  0.10107397456E+02  0.00000000000E+00 0.  1.
</event>
<event>
 7    1  0.5897985E-013  0.5052886E+02  0.7816164E-02  0.1300439E+00
        -11   -1    0    0    0    0  0.00000000000E+00  0.00000000000E+00  0.45593999997E+02  0.45594000000E+02  0.51100000000E-03 0. -1.
         11   -1    0    0    0    0 -0.00000000000E+00 -0.00000000000E+00 -0.45593999997E+02  0.45594000000E+02  0.51100000000E-03 0.  1.
    9900012    2    1    2    0    0 -0.32878682288E+02 -0.23138694174E+02  0.60629093091E+01  0.50528858514E+02  0.29999995940E+02 0.  0.
         12    1    1    2    0    0  0.32878682288E+02  0.23138694174E+02 -0.60629093091E+01  0.40659141486E+02  0.00000000000E+00 0. -1.
         11    1    3    3    0    0 -0.96182018131E+01 -0.25104994904E+01  0.12347230729E+02  0.15851388607E+02  0.51100000000E-03 0. -1.
        -11    1    3    3    0    0 -0.11972700828E+02 -0.12219362085E+02  0.35949278166E+01  0.17480900468E+02  0.51100000000E-03 0.  1.
         12    1    3    3    0    0 -0.11287779647E+02 -0.84088325982E+01 -0.98792492369E+01  0.17196569440E+02  0.00000000000E+00 0. -1.
</event>
<event>
 7    1  0.5897985E-013  0.5052886E+02  0.7816164E-02  0.1300439E+00
        -11   -1    0    0    0    0  0.00000000000E+00  0.00000000000E+00  0.45593999997E+02  0.45594000000E+02  0.51100000000E-03 0. -1.
         11   -1    0    0    0    0 -0.00000000000E+00 -0.00000000000E+00 -0.45593999997E+02  0.45594000000E+02  0.51100000000E-03 0.  1.
    9900012    2    1    2    0    0 -0.33574912485E+02  0.13744418333E+02 -0.18357064635E+02  0.50528860736E+02  0.30000002692E+02 0.  0.
         12    1    1    2    0    0  0.33574912485E+02 -0.13744418333E+02  0.18357064635E+02  0.40659139264E+02  0.00000000000E+00 0. -1.
         11    1    3    3    0    0 -0.66624050707E+01 -0.20715143557E+00 -0.37862975724E+01  0.76659378168E+01  0.51100000000E-03 0. -1.
        -11    1    3    3    0    0  0.53255008401E+01  0.41195573093E+00 -0.21112684789E+01  0.57435286692E+01  0.51100000000E-03 0.  1.
        -12    1    3    3    0    0 -0.32238008254E+02  0.13539614038E+02 -0.12459498584E+02  0.37119394250E+02  0.00000000000E+00 0.  1.
</event>
<event>
 7    1  0.5897985E-013  0.5052887E+02  0.7816164E-02  0.1300439E+00
        -11   -1    0    0    0    0  0.00000000000E+00  0.00000000000E+00  0.45593999997E+02  0.45594000000E+02  0.51100000000E-03 0.  1.
         11   -1    0    0    0    0 -0.00000000000E+00 -0.00000000000E+00 -0.45593999997E+02  0.45594000000E+02  0.51100000000E-03 0. -1.
    9900012    2    1    2    0    0  0.29468774410E+02 -0.21632616526E+02  0.17798489286E+02  0.50528868383E+02  0.30000025937E+02 0.  0.
         12    1    1    2    0    0 -0.29468774410E+02  0.21632616526E+02 -0.17798489286E+02  0.40659131617E+02  0.00000000000E+00 0. -1.
         11    1    3    3    0    0  0.12257591727E+02 -0.20078172933E+02  0.10377155010E+01  0.23546941139E+02  0.51100000000E-03 0. -1.
        -11    1    3    3    0    0  0.18478795151E+02 -0.17040015474E+01  0.17499722026E+02  0.25507053197E+02  0.51100000000E-03 0.  1.
         12    1    3    3    0    0 -0.12676124686E+01  0.14955795448E+00 -0.73894824119E+00  0.14748740473E+01  0.00000000000E+00 0. -1.
</event>
<event>
 7    1  0.5897985E-013  0.5052887E+02  0.7816164E-02  0.1300439E+00
        -11   -1    0    0    0    0  0.00000000000E+00  0.00000000000E+00  0.45593999997E+02  0.45594000000E+02  0.51100000000E-03 0. -1.
         11   -1    0    0    0    0 -0.00000000000E+00 -0.00000000000E+00 -0.45593999997E+02  0.45594000000E+02  0.51100000000E-03 0.  1.
    9900012    2    1    2    0    0 -0.15950860477E+02 -0.13663400701E+02 -0.34814451918E+02  0.50528873952E+02  0.30000042864E+02 0.  0.
         12    1    1    2    0    0  0.15950860477E+02  0.13663400701E+02  0.34814451918E+02  0.40659126048E+02  0.00000000000E+00 0. -1.
         11    1    3    3    0    0 -0.87784082685E+01  0.36141502798E+01 -0.86296179404E+01  0.12829374109E+02  0.51100000000E-03 0. -1.
        -11    1    3    3    0    0 -0.46521292111E+01 -0.14527888191E+02 -0.29172729577E+02  0.32920358332E+02  0.51100000000E-03 0.  1.
        -12    1    3    3    0    0 -0.25203229973E+01 -0.27496627898E+01  0.29878955994E+01  0.47791415109E+01  0.00000000000E+00 0.  1.
</event>
<event>
 7    1  0.5897985E-013  0.5052887E+02  0.7816164E-02  0.1300439E+00
        -11   -1    0    0    0    0  0.00000000000E+00  0.00000000000E+00  0.45593999997E+02  0.45594000000E+02  0.51100000000E-03 0.  1.
         11   -1    0    0    0    0 -0.00000000000E+00 -0.00000000000E+00 -0.45593999997E+02  0.45594000000E+02  0.51100000000E-03 0. -1.
    9900012    2    1    2    0    0  0.38266728841E+02 -0.76367825725E+01  0.11423755796E+02  0.50528865961E+02  0.30000018576E+02 0.  0.
         12    1    1    2    0    0 -0.38266728841E+02  0.76367825725E+01 -0.11423755796E+02  0.40659134039E+02  0.00000000000E+00 0. -1.
         11    1    3    3    0    0  0.16258471105E+01  0.32349343072E+01 -0.28295236405E+01  0.45950389652E+01  0.51100000000E-03 0. -1.
        -11    1    3    3    0    0  0.39029185720E+02 -0.10709003677E+02  0.11083984542E+02  0.41962063955E+02  0.51100000000E-03 0.  1.
        -12    1    3    3    0    0 -0.23883039893E+01 -0.16271320260E+00  0.31692948944E+01  0.39717630417E+01  0.00000000000E+00 0.  1.
</event>
<event>
 7    1  0.5897985E-013  0.5052887E+02  0.7816164E-02  0.1300439E+00
        -11   -1    0    0    0    0  0.00000000000E+00  0.00000000000E+00  0.45593999997E+02  0.45594000000E+02  0.51100000000E-03 0.  1.
         11   -1    0    0    0    0 -0.00000000000E+00 -0.00000000000E+00 -0.45593999997E+02  0.45594000000E+02  0.51100000000E-03 0. -1.
    9900012    2    1    2    0    0  0.14770081494E+02  0.35067306165E+02  0.14328063009E+02  0.50528872382E+02  0.30000038094E+02 0.  0.
         12    1    1    2    0    0 -0.14770081494E+02 -0.35067306165E+02 -0.14328063009E+02  0.40659127618E+02  0.00000000000E+00 0. -1.
         11    1    3    3    0    0 -0.16158564157E+01  0.74865432843E+01 -0.37569759079E+01  0.85307790112E+01  0.51100000000E-03 0. -1.
        -11    1    3    3    0    0  0.20235367653E+02  0.24209107995E+02  0.18953880921E+02  0.36807616279E+02  0.51100000000E-03 0.  1.
        -12    1    3    3    0    0 -0.38494297426E+01  0.33716548863E+01 -0.86884200419E+00  0.51904770921E+01  0.00000000000E+00 0.  1.
</event>
<event>
 7    1  0.5897985E-013  0.5052890E+02  0.7816164E-02  0.1300439E+00
        -11   -1    0    0    0    0  0.00000000000E+00  0.00000000000E+00  0.45593999997E+02  0.45594000000E+02  0.51100000000E-03 0. -1.
         11   -1    0    0    0    0 -0.00000000000E+00 -0.00000000000E+00 -0.45593999997E+02  0.45594000000E+02  0.51100000000E-03 0.  1.
    9900012    2    1    2    0    0 -0.78833526484E+01  0.31308163355E+02 -0.24714658853E+02  0.50528896421E+02  0.30000111161E+02 0.  0.
         12    1    1    2    0    0  0.78833526484E+01 -0.31308163355E+02  0.24714658853E+02  0.40659103579E+02  0.00000000000E+00 0. -1.
         11    1    3    3    0    0 -0.81731433305E+01  0.24207805637E+01 -0.17691981668E+02  0.19638397746E+02  0.51100000000E-03 0. -1.
        -11    1    3    3    0    0  0.64678246362E+00  0.13453687607E+02 -0.75552250118E+01  0.15443492578E+02  0.51100000000E-03 0.  1.
         12    1    3    3    0    0 -0.35699178153E+00  0.15433695184E+02  0.53254782629E+00  0.15447006097E+02  0.00000000000E+00 0. -1.
</event>
<event>
 7    1  0.5897985E-013  0.5052886E+02  0.7816164E-02  0.1300439E+00
        -11   -1    0    0    0    0  0.00000000000E+00  0.00000000000E+00  0.45593999997E+02  0.45594000000E+02  0.51100000000E-03 0.  1.
         11   -1    0    0    0    0 -0.00000000000E+00 -0.00000000000E+00 -0.45593999997E+02  0.45594000000E+02  0.51100000000E-03 0. -1.
    9900012    2    1    2    0    0 -0.13989838393E+02  0.29700181662E+02  0.23986435261E+02  0.50528862705E+02  0.30000008679E+02 0.  0.
         12    1    1    2    0    0  0.13989838393E+02 -0.29700181662E+02 -0.23986435261E+02  0.40659137295E+02  0.00000000000E+00 0. -1.
         11    1    3    3    0    0  0.14409352499E+01  0.67920572391E+00 -0.23437970757E+01  0.28339018690E+01  0.51100000000E-03 0. -1.
        -11    1    3    3    0    0 -0.29779336104E+01  0.26620588023E+02  0.20531497009E+02  0.33750054296E+02  0.51100000000E-03 0.  1.
        -12    1    3    3    0    0 -0.12452840033E+02  0.24003879154E+01  0.57987353279E+01  0.13944906541E+02  0.00000000000E+00 0.  1.
</event>
<event>
 7    1  0.5897985E-013  0.5052887E+02  0.7816164E-02  0.1300439E+00
        -11   -1    0    0    0    0  0.00000000000E+00  0.00000000000E+00  0.45593999997E+02  0.45594000000E+02  0.51100000000E-03 0.  1.
         11   -1    0    0    0    0 -0.00000000000E+00 -0.00000000000E+00 -0.45593999997E+02  0.45594000000E+02  0.51100000000E-03 0. -1.
    9900012    2    1    2    0    0 -0.11940011973E+02 -0.35064168418E+02  0.16766195268E+02  0.50528866998E+02  0.30000021726E+02 0.  0.
         12    1    1    2    0    0  0.11940011973E+02  0.35064168418E+02 -0.16766195268E+02  0.40659133002E+02  0.00000000000E+00 0. -1.
         11    1    3    3    0    0 -0.98487537419E+00  0.52189461044E+00 -0.19586756771E+01  0.22536113587E+01  0.51100000000E-03 0. -1.
        -11    1    3    3    0    0 -0.16836997785E+01 -0.35174840321E+02  0.14873773504E+02  0.38227390377E+02  0.51100000000E-03 0.  1.
        -12    1    3    3    0    0 -0.92714368200E+01 -0.41122270760E+00  0.38510974403E+01  0.10047865262E+02  0.00000000000E+00 0.  1.
</event>
<event>
 7    1  0.5897985E-013  0.5052886E+02  0.7816164E-02  0.1300439E+00
        -11   -1    0    0    0    0  0.00000000000E+00  0.00000000000E+00  0.45593999997E+02  0.45594000000E+02  0.51100000000E-03 0. -1.
         11   -1    0    0    0    0 -0.00000000000E+00 -0.00000000000E+00 -0.45593999997E+02  0.45594000000E+02  0.51100000000E-03 0.  1.
    9900012    2    1    2    0    0 -0.77153284575E+01  0.62507229132E+00 -0.39915514663E+02  0.50528864257E+02  0.30000013395E+02 0.  0.
         12    1    1    2    0    0  0.77153284575E+01 -0.62507229132E+00  0.39915514663E+02  0.40659135743E+02  0.00000000000E+00 0. -1.
         11    1    3    3    0    0  0.61571742829E+01  0.12742608138E+01 -0.25426707674E+02  0.26192594357E+02  0.51100000000E-03 0. -1.
        -11    1    3    3    0    0 -0.11064035006E+02  0.47824934787E+01 -0.50032154960E+01  0.13050566273E+02  0.51100000000E-03 0.  1.
        -12    1    3    3    0    0 -0.28084677346E+01 -0.54316820012E+01 -0.94855914928E+01  0.11285703627E+02  0.00000000000E+00 0.  1.
</event>
<event>
 7    1  0.5897985E-013  0.5052887E+02  0.7816164E-02  0.1300439E+00
        -11   -1    0    0    0    0  0.00000000000E+00  0.00000000000E+00  0.45593999997E+02  0.45594000000E+02  0.51100000000E-03 0. -1.
         11   -1    0    0    0    0 -0.00000000000E+00 -0.00000000000E+00 -0.45593999997E+02  0.45594000000E+02  0.51100000000E-03 0.  1.
    9900012    2    1    2    0    0 -0.30877021142E+02 -0.21647925986E+02 -0.15203356965E+02  0.50528865760E+02  0.30000017965E+02 0.  0.
         12    1    1    2    0    0  0.30877021142E+02  0.21647925986E+02  0.15203356965E+02  0.40659134240E+02  0.00000000000E+00 0. -1.
         11    1    3    3    0    0 -0.38047835423E+01 -0.64790459009E+01 -0.11063999033E+02  0.13374097669E+02  0.51100000000E-03 0. -1.
        -11    1    3    3    0    0 -0.13440301184E+02 -0.14985244979E+02  0.50004752966E+01  0.20741360044E+02  0.51100000000E-03 0.  1.
        -12    1    3    3    0    0 -0.13631936415E+02 -0.18363510588E+00 -0.91398332292E+01  0.16413408048E+02  0.00000000000E+00 0.  1.
</event>
<event>
 7    1  0.5897985E-013  0.5052886E+02  0.7816164E-02  0.1300439E+00
        -11   -1    0    0    0    0  0.00000000000E+00  0.00000000000E+00  0.45593999997E+02  0.45594000000E+02  0.51100000000E-03 0. -1.
         11   -1    0    0    0    0 -0.00000000000E+00 -0.00000000000E+00 -0.45593999997E+02  0.45594000000E+02  0.51100000000E-03 0.  1.
    9900012    2    1    2    0    0  0.27973477037E+02  0.29422457954E+02 -0.22292138827E+01  0.50528857804E+02  0.29999993780E+02 0.  0.
         12    1    1    2    0    0 -0.27973477037E+02 -0.29422457954E+02  0.22292138827E+01  0.40659142196E+02  0.00000000000E+00 0. -1.
         11    1    3    3    0    0  0.12371184479E+02  0.68536843852E+01 -0.10209165726E+01  0.14179614451E+02  0.51100000000E-03 0. -1.
        -11    1    3    3    0    0  0.21273787102E+01  0.37409776027E+01 -0.10541335529E+02  0.11385974205E+02  0.51100000000E-03 0.  1.
        -12    1    3    3    0    0  0.13474913848E+02  0.18827795966E+02  0.93330382191E+01  0.24963269148E+02  0.00000000000E+00 0.  1.
</event>
<event>
 7    1  0.5897985E-013  0.5052886E+02  0.7816164E-02  0.1300439E+00
        -11   -1    0    0    0    0  0.00000000000E+00  0.00000000000E+00  0.45593999997E+02  0.45594000000E+02  0.51100000000E-03 0.  1.
         11   -1    0    0    0    0 -0.00000000000E+00 -0.00000000000E+00 -0.45593999997E+02  0.45594000000E+02  0.51100000000E-03 0. -1.
    9900012    2    1    2    0    0 -0.18260052548E+02 -0.21484240233E+02  0.29294431327E+02  0.50528858295E+02  0.29999995274E+02 0.  0.
         12    1    1    2    0    0  0.18260052548E+02  0.21484240233E+02 -0.29294431327E+02  0.40659141705E+02  0.00000000000E+00 0. -1.
         11    1    3    3    0    0 -0.83088207760E+00 -0.78565700735E+01  0.37406428068E+01  0.87411936951E+01  0.51100000000E-03 0. -1.
        -11    1    3    3    0    0 -0.57069835577E+01  0.43447560720E+01  0.17422710907E+02  0.18841375275E+02  0.51100000000E-03 0.  1.
        -12    1    3    3    0    0 -0.11722186912E+02 -0.17972426231E+02  0.81310776127E+01  0.22946289325E+02  0.00000000000E+00 0.  1.
</event>
<event>
 7    1  0.5897985E-013  0.5052884E+02  0.7816164E-02  0.1300439E+00
        -11   -1    0    0    0    0  0.00000000000E+00  0.00000000000E+00  0.45593999997E+02  0.45594000000E+02  0.51100000000E-03 0. -1.
         11   -1    0    0    0    0 -0.00000000000E+00 -0.00000000000E+00 -0.45593999997E+02  0.45594000000E+02  0.51100000000E-03 0.  1.
    9900012    2    1    2    0    0  0.21599890533E+02  0.28562708228E+02 -0.19255739418E+02  0.50528842694E+02  0.29999947851E+02 0.  0.
         12    1    1    2    0    0 -0.21599890533E+02 -0.28562708228E+02  0.19255739418E+02  0.40659157306E+02  0.00000000000E+00 0. -1.
         11    1    3    3    0    0 -0.31258390423E-01  0.19552539697E+01  0.11604553363E+01  0.22739067751E+01  0.51100000000E-03 0. -1.
        -11    1    3    3    0    0  0.13697837948E+02  0.30767058188E+02 -0.11426281567E+02  0.35564062545E+02  0.51100000000E-03 0.  1.
        -12    1    3    3    0    0  0.79333109756E+01 -0.41596039294E+01 -0.89899131869E+01  0.12690873374E+02  0.00000000000E+00 0.  1.
</event>
<event>
 7    1  0.5897985E-013  0.5052887E+02  0.7816164E-02  0.1300439E+00
        -11   -1    0    0    0    0  0.00000000000E+00  0.00000000000E+00  0.45593999997E+02  0.45594000000E+02  0.51100000000E-03 0.  1.
         11   -1    0    0    0    0 -0.00000000000E+00 -0.00000000000E+00 -0.45593999997E+02  0.45594000000E+02  0.51100000000E-03 0. -1.
    9900012    2    1    2    0    0  0.21839571642E+01  0.40058947789E+02  0.66087856118E+01  0.50528868010E+02  0.30000024804E+02 0.  0.
         12    1    1    2    0    0 -0.21839571642E+01 -0.40058947789E+02 -0.66087856118E+01  0.40659131990E+02  0.00000000000E+00 0. -1.
         11    1    3    3    0    0  0.14007397981E+02  0.31949600538E+02  0.62248104284E+01  0.35436315241E+02  0.51100000000E-03 0.  1.
        -11    1    3    3    0    0 -0.78998790341E+01  0.61813591373E+01 -0.18234155757E+01  0.10195201526E+02  0.51100000000E-03 0. -1.
        -12    1    3    3    0    0 -0.39235617829E+01  0.19279881137E+01  0.22073907592E+01  0.48973512427E+01  0.00000000000E+00 0.  1.
</event>
<event>
 7    1  0.5897985E-013  0.5052886E+02  0.7816164E-02  0.1300439E+00
        -11   -1    0    0    0    0  0.00000000000E+00  0.00000000000E+00  0.45593999997E+02  0.45594000000E+02  0.51100000000E-03 0. -1.
         11   -1    0    0    0    0 -0.00000000000E+00 -0.00000000000E+00 -0.45593999997E+02  0.45594000000E+02  0.51100000000E-03 0.  1.
    9900012    2    1    2    0    0  0.35585481644E+02  0.13484865060E+01 -0.19621953020E+02  0.50528856379E+02  0.29999989449E+02 0.  0.
         12    1    1    2    0    0 -0.35585481644E+02 -0.13484865060E+01  0.19621953020E+02  0.40659143621E+02  0.00000000000E+00 0. -1.
         11    1    3    3    0    0 -0.36067659542E+01 -0.31671845102E+01 -0.14259681760E+01  0.50073150361E+01  0.51100000000E-03 0.  1.
        -11    1    3    3    0    0  0.11799841944E+02  0.59605108255E+01 -0.12501190723E+01  0.13278808575E+02  0.51100000000E-03 0. -1.
         12    1    3    3    0    0  0.27392405654E+02 -0.14448398094E+01 -0.16945865771E+02  0.32242732768E+02  0.00000000000E+00 0. -1.
</event>
<event>
 7    1  0.5897985E-013  0.5052885E+02  0.7816164E-02  0.1300439E+00
        -11   -1    0    0    0    0  0.00000000000E+00  0.00000000000E+00  0.45593999997E+02  0.45594000000E+02  0.51100000000E-03 0.  1.
         11   -1    0    0    0    0 -0.00000000000E+00 -0.00000000000E+00 -0.45593999997E+02  0.45594000000E+02  0.51100000000E-03 0. -1.
    9900012    2    1    2    0    0 -0.11879249470E+02 -0.14504902369E+02  0.36078491551E+02  0.50528852035E+02  0.29999976245E+02 0.  0.
         12    1    1    2    0    0  0.11879249470E+02  0.14504902369E+02 -0.36078491551E+02  0.40659147965E+02  0.00000000000E+00 0. -1.
         11    1    3    3    0    0  0.25724154577E+01 -0.50265902995E+01  0.32040630830E+01  0.64922994253E+01  0.51100000000E-03 0. -1.
        -11    1    3    3    0    0 -0.53840058178E+01  0.71448546925E+01  0.17466443868E+02  0.19624299450E+02  0.51100000000E-03 0.  1.
        -12    1    3    3    0    0 -0.90676591096E+01 -0.16623166762E+02  0.15407984600E+02  0.24412253160E+02  0.00000000000E+00 0.  1.
</event>
<event>
 7    1  0.5897985E-013  0.5052886E+02  0.7816164E-02  0.1300439E+00
        -11   -1    0    0    0    0  0.00000000000E+00  0.00000000000E+00  0.45593999997E+02  0.45594000000E+02  0.51100000000E-03 0.  1.
         11   -1    0    0    0    0 -0.00000000000E+00 -0.00000000000E+00 -0.45593999997E+02  0.45594000000E+02  0.51100000000E-03 0. -1.
    9900012    2    1    2    0    0 -0.35752954667E+02  0.13747394147E+01  0.19313267730E+02  0.50528856056E+02  0.29999988468E+02 0.  0.
         12    1    1    2    0    0  0.35752954667E+02 -0.13747394147E+01 -0.19313267730E+02  0.40659143944E+02  0.00000000000E+00 0. -1.
         11    1    3    3    0    0 -0.93193967827E+00 -0.92991314743E+01  0.43397083522E+01  0.10304146087E+02  0.51100000000E-03 0. -1.
        -11    1    3    3    0    0 -0.76479459453E+01  0.37724054249E+01  0.71210578080E+01  0.11109976797E+02  0.51100000000E-03 0.  1.
         12    1    3    3    0    0 -0.27173069043E+02  0.69014654641E+01  0.78525015694E+01  0.29114733172E+02  0.00000000000E+00 0. -1.
</event>
<event>
 7    1  0.5897985E-013  0.5052875E+02  0.7816164E-02  0.1300439E+00
        -11   -1    0    0    0    0  0.00000000000E+00  0.00000000000E+00  0.45593999997E+02  0.45594000000E+02  0.51100000000E-03 0.  1.
         11   -1    0    0    0    0 -0.00000000000E+00 -0.00000000000E+00 -0.45593999997E+02  0.45594000000E+02  0.51100000000E-03 0. -1.
    9900012    2    1    2    0    0 -0.52237072541E+01 -0.35062133262E+02  0.19913174706E+02  0.50528747262E+02  0.29999657777E+02 0.  0.
         12    1    1    2    0    0  0.52237072541E+01  0.35062133262E+02 -0.19913174706E+02  0.40659252738E+02  0.00000000000E+00 0. -1.
         11    1    3    3    0    0 -0.96697149465E+01 -0.92880610339E+01  0.20868103941E+01  0.13569312540E+02  0.51100000000E-03 0. -1.
        -11    1    3    3    0    0  0.35117330208E+01 -0.88659961787E+01  0.17607628055E+02  0.20024153491E+02  0.51100000000E-03 0.  1.
        -12    1    3    3    0    0  0.93427467163E+00 -0.16908076049E+02  0.21873625622E+00  0.16935281231E+02  0.00000000000E+00 0.  1.
</event>
<event>
 7    1  0.5897985E-013  0.5052885E+02  0.7816164E-02  0.1300439E+00
        -11   -1    0    0    0    0  0.00000000000E+00  0.00000000000E+00  0.45593999997E+02  0.45594000000E+02  0.51100000000E-03 0.  1.
         11   -1    0    0    0    0 -0.00000000000E+00 -0.00000000000E+00 -0.45593999997E+02  0.45594000000E+02  0.51100000000E-03 0. -1.
    9900012    2    1    2    0    0 -0.19234271344E+02  0.21753942205E+02  0.28460058406E+02  0.50528854410E+02  0.29999983466E+02 0.  0.
         12    1    1    2    0    0  0.19234271344E+02 -0.21753942205E+02 -0.28460058406E+02  0.40659145590E+02  0.00000000000E+00 0. -1.
         11    1    3    3    0    0 -0.10959065267E+02  0.87997119121E+01  0.40961434258E+00  0.14060719236E+02  0.51100000000E-03 0. -1.
        -11    1    3    3    0    0  0.61208530326E+00  0.13131675428E+02  0.22283663167E+02  0.25872324835E+02  0.51100000000E-03 0.  1.
         12    1    3    3    0    0 -0.88872913803E+01 -0.17744513419E+00  0.57667808963E+01  0.10595810340E+02  0.00000000000E+00 0. -1.
</event>
<event>
 7    1  0.6303236E-013  0.5052887E+02  0.7816164E-02  0.1300439E+00
        -11   -1    0    0    0    0  0.00000000000E+00  0.00000000000E+00  0.45593999997E+02  0.45594000000E+02  0.51100000000E-03 0.  1.
         11   -1    0    0    0    0 -0.00000000000E+00 -0.00000000000E+00 -0.45593999997E+02  0.45594000000E+02  0.51100000000E-03 0. -1.
    9900012    2    1    2    0    0  0.12459564465E+02 -0.38299301146E+02  0.55756365838E+01  0.50528868944E+02  0.30000027641E+02 0.  0.
         12    1    1    2    0    0 -0.12459564465E+02  0.38299301146E+02 -0.55756365838E+01  0.40659131056E+02  0.00000000000E+00 0. -1.
         11    1    3    3    0    0 -0.13307463943E+01  0.25445001944E+01  0.25517490953E+00  0.28827906099E+01  0.51100000000E-03 0. -1.
        -11    1    3    3    0    0  0.17788173696E+01 -0.32152715489E+02  0.62027285378E+01  0.32793827866E+02  0.51100000000E-03 0.  1.
        -12    1    3    3    0    0  0.12011493490E+02 -0.86910858517E+01 -0.88226686354E+00  0.14852250468E+02  0.00000000000E+00 0.  1.
</event>
<event>
 7    1  0.5897985E-013  0.5052886E+02  0.7816164E-02  0.1300439E+00
        -11   -1    0    0    0    0  0.00000000000E+00  0.00000000000E+00  0.45593999997E+02  0.45594000000E+02  0.51100000000E-03 0.  1.
         11   -1    0    0    0    0 -0.00000000000E+00 -0.00000000000E+00 -0.45593999997E+02  0.45594000000E+02  0.51100000000E-03 0. -1.
    9900012    2    1    2    0    0 -0.26500202814E+02 -0.54196093431E+00  0.30831987141E+02  0.50528857093E+02  0.29999991620E+02 0.  0.
         12    1    1    2    0    0  0.26500202814E+02  0.54196093431E+00 -0.30831987141E+02  0.40659142907E+02  0.00000000000E+00 0. -1.
         11    1    3    3    0    0  0.16899105877E+01  0.56702140012E+01  0.13179843469E+02  0.14446985801E+02  0.51100000000E-03 0. -1.
        -11    1    3    3    0    0 -0.18242995536E+02 -0.83852967669E+01  0.16197241629E+02  0.25796719261E+02  0.51100000000E-03 0.  1.
        -12    1    3    3    0    0 -0.99471178664E+01  0.21731218314E+01  0.14549020428E+01  0.10285152031E+02  0.00000000000E+00 0.  1.
</event>
<event>
 7    1  0.5897985E-013  0.5052886E+02  0.7816164E-02  0.1300439E+00
        -11   -1    0    0    0    0  0.00000000000E+00  0.00000000000E+00  0.45593999997E+02  0.45594000000E+02  0.51100000000E-03 0. -1.
         11   -1    0    0    0    0 -0.00000000000E+00 -0.00000000000E+00 -0.45593999997E+02  0.45594000000E+02  0.51100000000E-03 0.  1.
    9900012    2    1    2    0    0  0.29778553143E+02  0.27464789664E+02 -0.34768524320E+01  0.50528863248E+02  0.30000010327E+02 0.  0.
         12    1    1    2    0    0 -0.29778553143E+02 -0.27464789664E+02  0.34768524320E+01  0.40659136752E+02  0.00000000000E+00 0. -1.
         11    1    3    3    0    0  0.13650660511E+02  0.26360332612E+02  0.53488230860E+01  0.30163182466E+02  0.51100000000E-03 0. -1.
        -11    1    3    3    0    0  0.11857933626E+02  0.15999296675E+01 -0.17585716432E+01  0.12093921585E+02  0.51100000000E-03 0.  1.
         12    1    3    3    0    0  0.42699590065E+01 -0.49547261520E+00 -0.70671038747E+01  0.82717591966E+01  0.00000000000E+00 0. -1.
</event>
<event>
 7    1  0.5897985E-013  0.5052886E+02  0.7816164E-02  0.1300439E+00
        -11   -1    0    0    0    0  0.00000000000E+00  0.00000000000E+00  0.45593999997E+02  0.45594000000E+02  0.51100000000E-03 0.  1.
         11   -1    0    0    0    0 -0.00000000000E+00 -0.00000000000E+00 -0.45593999997E+02  0.45594000000E+02  0.51100000000E-03 0. -1.
    9900012    2    1    2    0    0  0.29340307928E+02 -0.19775905751E+02  0.20030620585E+02  0.50528857380E+02  0.29999992493E+02 0.  0.
         12    1    1    2    0    0 -0.29340307928E+02  0.19775905751E+02 -0.20030620585E+02  0.40659142620E+02  0.00000000000E+00 0. -1.
         11    1    3    3    0    0  0.22624884746E+02 -0.75439727649E+01  0.97708210119E+01  0.25773355978E+02  0.51100000000E-03 0. -1.
        -11    1    3    3    0    0  0.30084914291E+01 -0.15046425763E+02  0.12307837932E+02  0.19670506444E+02  0.51100000000E-03 0.  1.
         12    1    3    3    0    0  0.37069317521E+01  0.28144927774E+01 -0.20480383587E+01  0.50849949584E+01  0.00000000000E+00 0. -1.
</event>
<event>
 7    1  0.5897985E-013  0.5052886E+02  0.7816164E-02  0.1300439E+00
        -11   -1    0    0    0    0  0.00000000000E+00  0.00000000000E+00  0.45593999997E+02  0.45594000000E+02  0.51100000000E-03 0. -1.
         11   -1    0    0    0    0 -0.00000000000E+00 -0.00000000000E+00 -0.45593999997E+02  0.45594000000E+02  0.51100000000E-03 0.  1.
    9900012    2    1    2    0    0  0.96209679147E+01  0.27227958657E+02 -0.28622383149E+02  0.50528861133E+02  0.30000003901E+02 0.  0.
         12    1    1    2    0    0 -0.96209679147E+01 -0.27227958657E+02  0.28622383149E+02  0.40659138867E+02  0.00000000000E+00 0. -1.
         11    1    3    3    0    0 -0.81216574346E+01 -0.28945762859E+00 -0.42104404212E+01  0.91527544491E+01  0.51100000000E-03 0. -1.
        -11    1    3    3    0    0  0.28997768242E+01  0.83816789303E+01 -0.91914590044E+01  0.12772790072E+02  0.51100000000E-03 0.  1.
         12    1    3    3    0    0  0.14842848525E+02  0.19135737356E+02 -0.15220483723E+02  0.28603316613E+02  0.00000000000E+00 0. -1.
</event>
<event>
 7    1  0.5897985E-013  0.5052885E+02  0.7816164E-02  0.1300439E+00
        -11   -1    0    0    0    0  0.00000000000E+00  0.00000000000E+00  0.45593999997E+02  0.45594000000E+02  0.51100000000E-03 0.  1.
         11   -1    0    0    0    0 -0.00000000000E+00 -0.00000000000E+00 -0.45593999997E+02  0.45594000000E+02  0.51100000000E-03 0. -1.
    9900012    2    1    2    0    0  0.23815025221E+02  0.55788867453E+01  0.32479024306E+02  0.50528850680E+02  0.29999972126E+02 0.  0.
         12    1    1    2    0    0 -0.23815025221E+02 -0.55788867453E+01 -0.32479024306E+02  0.40659149320E+02  0.00000000000E+00 0. -1.
         11    1    3    3    0    0  0.15369327499E+02  0.37913131891E+01  0.35261241767E+02  0.38651590584E+02  0.51100000000E-03 0.  1.
        -11    1    3    3    0    0  0.36719582553E+01  0.45343220411E+01 -0.25422835923E+01  0.63644764063E+01  0.51100000000E-03 0. -1.
         12    1    3    3    0    0  0.47737394673E+01 -0.27467484849E+01 -0.23993386936E+00  0.55127836891E+01  0.00000000000E+00 0. -1.
</event>
<event>
 7    1  0.5897985E-013  0.5052887E+02  0.7816164E-02  0.1300439E+00
        -11   -1    0    0    0    0  0.00000000000E+00  0.00000000000E+00  0.45593999997E+02  0.45594000000E+02  0.51100000000E-03 0. -1.
         11   -1    0    0    0    0 -0.00000000000E+00 -0.00000000000E+00 -0.45593999997E+02  0.45594000000E+02  0.51100000000E-03 0.  1.
    9900012    2    1    2    0    0 -0.28564983036E+02  0.14878915038E+02 -0.24815803645E+02  0.50528874590E+02  0.30000044804E+02 0.  0.
         12    1    1    2    0    0  0.28564983036E+02 -0.14878915038E+02  0.24815803645E+02  0.40659125410E+02  0.00000000000E+00 0. -1.
         11    1    3    3    0    0 -0.20779388405E+01 -0.27767094933E+01 -0.25119200379E+01  0.42822526751E+01  0.51100000000E-03 0. -1.
        -11    1    3    3    0    0 -0.21008106959E+01  0.15016562395E+02 -0.41189447129E+01  0.15712296381E+02  0.51100000000E-03 0.  1.
        -12    1    3    3    0    0 -0.24386233499E+02  0.26390621364E+01 -0.18184938894E+02  0.30534325534E+02  0.00000000000E+00 0.  1.
</event>
<event>
 7    1  0.5897985E-013  0.5052885E+02  0.7816164E-02  0.1300439E+00
        -11   -1    0    0    0    0  0.00000000000E+00  0.00000000000E+00  0.45593999997E+02  0.45594000000E+02  0.51100000000E-03 0. -1.
         11   -1    0    0    0    0 -0.00000000000E+00 -0.00000000000E+00 -0.45593999997E+02  0.45594000000E+02  0.51100000000E-03 0.  1.
    9900012    2    1    2    0    0 -0.30832868684E+02  0.25588238094E+02 -0.69095869381E+01  0.50528854514E+02  0.29999983780E+02 0.  0.
         12    1    1    2    0    0  0.30832868684E+02 -0.25588238094E+02  0.69095869381E+01  0.40659145486E+02  0.00000000000E+00 0. -1.
         11    1    3    3    0    0 -0.58575668942E+01 -0.55816578656E+01 -0.59905499563E+01  0.10067406989E+02  0.51100000000E-03 0. -1.
        -11    1    3    3    0    0 -0.17871951399E+02  0.17537354621E+02  0.29930767809E+00  0.25041067055E+02  0.51100000000E-03 0.  1.
        -12    1    3    3    0    0 -0.71033503907E+01  0.13632541338E+02 -0.12183446599E+01  0.15420380469E+02  0.00000000000E+00 0.  1.
</event>
<event>
 7    1  0.5897985E-013  0.5052888E+02  0.7816164E-02  0.1300439E+00
        -11   -1    0    0    0    0  0.00000000000E+00  0.00000000000E+00  0.45593999997E+02  0.45594000000E+02  0.51100000000E-03 0.  1.
         11   -1    0    0    0    0 -0.00000000000E+00 -0.00000000000E+00 -0.45593999997E+02  0.45594000000E+02  0.51100000000E-03 0. -1.
    9900012    2    1    2    0    0  0.34937258048E+02 -0.20796439601E+02 -0.24465109017E+00  0.50528883506E+02  0.30000071904E+02 0.  0.
         12    1    1    2    0    0 -0.34937258048E+02  0.20796439601E+02  0.24465109017E+00  0.40659116494E+02  0.00000000000E+00 0. -1.
         11    1    3    3    0    0  0.32234401128E+02 -0.67898948205E+01 -0.61124052319E+01  0.33504041334E+02  0.51100000000E-03 0. -1.
        -11    1    3    3    0    0 -0.82097180820E-01 -0.12078607251E+02  0.26780701649E+01  0.12372208903E+02  0.51100000000E-03 0.  1.
        -12    1    3    3    0    0  0.27849541005E+01 -0.19279375291E+01  0.31896839768E+01  0.46526332684E+01  0.00000000000E+00 0.  1.
</event>
<event>
 7    1  0.5897985E-013  0.5052886E+02  0.7816164E-02  0.1300439E+00
        -11   -1    0    0    0    0  0.00000000000E+00  0.00000000000E+00  0.45593999997E+02  0.45594000000E+02  0.51100000000E-03 0.  1.
         11   -1    0    0    0    0 -0.00000000000E+00 -0.00000000000E+00 -0.45593999997E+02  0.45594000000E+02  0.51100000000E-03 0. -1.
    9900012    2    1    2    0    0  0.21521006592E+02 -0.53571712762E+01  0.34078037205E+02  0.50528860455E+02  0.30000001838E+02 0.  0.
         12    1    1    2    0    0 -0.21521006592E+02  0.53571712762E+01 -0.34078037205E+02  0.40659139545E+02  0.00000000000E+00 0. -1.
         11    1    3    3    0    0 -0.32668104275E+01 -0.36398879575E+01  0.60280306606E+01  0.77626019232E+01  0.51100000000E-03 0. -1.
        -11    1    3    3    0    0  0.28143224898E+02 -0.32423159544E+01  0.22869120479E+02  0.36408108879E+02  0.51100000000E-03 0.  1.
        -12    1    3    3    0    0 -0.33554078790E+01  0.15250326357E+01  0.51808860655E+01  0.63581496520E+01  0.00000000000E+00 0.  1.
</event>
<event>
 7    1  0.5897985E-013  0.5052886E+02  0.7816164E-02  0.1300439E+00
        -11   -1    0    0    0    0  0.00000000000E+00  0.00000000000E+00  0.45593999997E+02  0.45594000000E+02  0.51100000000E-03 0. -1.
         11   -1    0    0    0    0 -0.00000000000E+00 -0.00000000000E+00 -0.45593999997E+02  0.45594000000E+02  0.51100000000E-03 0.  1.
    9900012    2    1    2    0    0 -0.34224532632E+02  0.12982754611E+02 -0.17700134133E+02  0.50528864501E+02  0.30000014138E+02 0.  0.
         12    1    1    2    0    0  0.34224532632E+02 -0.12982754611E+02  0.17700134133E+02  0.40659135499E+02  0.00000000000E+00 0. -1.
         11    1    3    3    0    0 -0.14824399674E+02 -0.57878969178E+01  0.12223503222E+01  0.15961100119E+02  0.51100000000E-03 0. -1.
        -11    1    3    3    0    0 -0.10428396454E+02  0.31150832065E+01 -0.69866544208E+01  0.12933233789E+02  0.51100000000E-03 0.  1.
         12    1    3    3    0    0 -0.89717365044E+01  0.15655568322E+02 -0.11935830035E+02  0.21634530594E+02  0.00000000000E+00 0. -1.
</event>
<event>
 7    1  0.5897985E-013  0.5052886E+02  0.7816164E-02  0.1300439E+00
        -11   -1    0    0    0    0  0.00000000000E+00  0.00000000000E+00  0.45593999997E+02  0.45594000000E+02  0.51100000000E-03 0.  1.
         11   -1    0    0    0    0 -0.00000000000E+00 -0.00000000000E+00 -0.45593999997E+02  0.45594000000E+02  0.51100000000E-03 0. -1.
    9900012    2    1    2    0    0 -0.21572962721E+02  0.17624859815E+02  0.29616503577E+02  0.50528859722E+02  0.29999999610E+02 0.  0.
         12    1    1    2    0    0  0.21572962721E+02 -0.17624859815E+02 -0.29616503577E+02  0.40659140278E+02  0.00000000000E+00 0. -1.
         11    1    3    3    0    0 -0.43007792407E+01  0.19598518522E+02  0.94109826896E+01  0.22162247760E+02  0.51100000000E-03 0. -1.
        -11    1    3    3    0    0 -0.17887120418E+02 -0.44915887364E+00  0.19772864764E+02  0.26666777116E+02  0.51100000000E-03 0.  1.
        -12    1    3    3    0    0  0.61493693782E+00 -0.15244998337E+01  0.43265612346E+00  0.16998348454E+01  0.00000000000E+00 0.  1.
</event>
<event>
 7    1  0.5897985E-013  0.5052886E+02  0.7816164E-02  0.1300439E+00
        -11   -1    0    0    0    0  0.00000000000E+00  0.00000000000E+00  0.45593999997E+02  0.45594000000E+02  0.51100000000E-03 0.  1.
         11   -1    0    0    0    0 -0.00000000000E+00 -0.00000000000E+00 -0.45593999997E+02  0.45594000000E+02  0.51100000000E-03 0. -1.
    9900012    2    1    2    0    0 -0.23889348725E+02 -0.31824878267E+02  0.83451595516E+01  0.50528861456E+02  0.30000004881E+02 0.  0.
         12    1    1    2    0    0  0.23889348725E+02  0.31824878267E+02 -0.83451595516E+01  0.40659138544E+02  0.00000000000E+00 0. -1.
         11    1    3    3    0    0 -0.10500414080E+02 -0.50950466829E+00 -0.58679497079E+01  0.12039564979E+02  0.51100000000E-03 0. -1.
        -11    1    3    3    0    0 -0.83013796243E+01 -0.11615706890E+02  0.11777289661E+01  0.14325662149E+02  0.51100000000E-03 0.  1.
         12    1    3    3    0    0 -0.50875550212E+01 -0.19699666708E+02  0.13035380293E+02  0.24163634327E+02  0.00000000000E+00 0. -1.
</event>
<event>
 7    1  0.5897985E-013  0.5052885E+02  0.7816164E-02  0.1300439E+00
        -11   -1    0    0    0    0  0.00000000000E+00  0.00000000000E+00  0.45593999997E+02  0.45594000000E+02  0.51100000000E-03 0. -1.
         11   -1    0    0    0    0 -0.00000000000E+00 -0.00000000000E+00 -0.45593999997E+02  0.45594000000E+02  0.51100000000E-03 0.  1.
    9900012    2    1    2    0    0 -0.35103630589E+01  0.26841620136E+02 -0.30337616942E+02  0.50528853156E+02  0.29999979654E+02 0.  0.
         12    1    1    2    0    0  0.35103630589E+01 -0.26841620136E+02  0.30337616942E+02  0.40659146844E+02  0.00000000000E+00 0. -1.
         11    1    3    3    0    0 -0.85327888085E+01 -0.75629766229E+00 -0.11274003444E+02  0.14159224022E+02  0.51100000000E-03 0. -1.
        -11    1    3    3    0    0  0.14864828535E+01  0.27378644040E+02 -0.16563678454E+02  0.32033657689E+02  0.51100000000E-03 0.  1.
        -12    1    3    3    0    0  0.35359428961E+01  0.21927375783E+00 -0.24999350444E+01  0.43359714449E+01  0.00000000000E+00 0.  1.
</event>
<event>
 7    1  0.5897985E-013  0.5052885E+02  0.7816164E-02  0.1300439E+00
        -11   -1    0    0    0    0  0.00000000000E+00  0.00000000000E+00  0.45593999997E+02  0.45594000000E+02  0.51100000000E-03 0.  1.
         11   -1    0    0    0    0 -0.00000000000E+00 -0.00000000000E+00 -0.45593999997E+02  0.45594000000E+02  0.51100000000E-03 0. -1.
    9900012    2    1    2    0    0  0.14538057148E+01  0.26271795039E+01  0.40548125158E+02  0.50528854940E+02  0.29999985075E+02 0.  0.
         12    1    1    2    0    0 -0.14538057148E+01 -0.26271795039E+01 -0.40548125158E+02  0.40659145060E+02  0.00000000000E+00 0. -1.
         11    1    3    3    0    0  0.61359805852E+01  0.77808335475E+01  0.41125246682E+01  0.10728675959E+02  0.51100000000E-03 0. -1.
        -11    1    3    3    0    0 -0.92322999777E+01 -0.31580529993E+01  0.15760888394E+02  0.18536835352E+02  0.51100000000E-03 0.  1.
        -12    1    3    3    0    0  0.45501251073E+01 -0.19956010442E+01  0.20674712096E+02  0.21263343628E+02  0.00000000000E+00 0.  1.
</event>
<event>
 7    1  0.5912925E-013  0.5052885E+02  0.7816164E-02  0.1300439E+00
        -11   -1    0    0    0    0  0.00000000000E+00  0.00000000000E+00  0.45593999997E+02  0.45594000000E+02  0.51100000000E-03 0.  1.
         11   -1    0    0    0    0 -0.00000000000E+00 -0.00000000000E+00 -0.45593999997E+02  0.45594000000E+02  0.51100000000E-03 0. -1.
    9900012    2    1    2    0    0  0.37044733572E+02  0.14711073810E+02  0.80273403985E+01  0.50528853772E+02  0.29999981526E+02 0.  0.
         12    1    1    2    0    0 -0.37044733572E+02 -0.14711073810E+02 -0.80273403985E+01  0.40659146228E+02  0.00000000000E+00 0. -1.
         11    1    3    3    0    0 -0.18518414591E+01 -0.19717984610E+01 -0.33175477947E+01  0.42805875288E+01  0.51100000000E-03 0. -1.
        -11    1    3    3    0    0  0.26547182765E+02  0.84145075614E+01  0.50525726142E+00  0.27853404377E+02  0.51100000000E-03 0.  1.
        -12    1    3    3    0    0  0.12349392267E+02  0.82683647097E+01  0.10839630932E+02  0.18394861866E+02  0.00000000000E+00 0.  1.
</event>
<event>
 7    1  0.5897985E-013  0.5052883E+02  0.7816164E-02  0.1300439E+00
        -11   -1    0    0    0    0  0.00000000000E+00  0.00000000000E+00  0.45593999997E+02  0.45594000000E+02  0.51100000000E-03 0.  1.
         11   -1    0    0    0    0 -0.00000000000E+00 -0.00000000000E+00 -0.45593999997E+02  0.45594000000E+02  0.51100000000E-03 0. -1.
    9900012    2    1    2    0    0  0.34473009590E+02  0.19156187327E+02  0.98904063888E+01  0.50528830780E+02  0.29999911638E+02 0.  0.
         12    1    1    2    0    0 -0.34473009590E+02 -0.19156187327E+02 -0.98904063888E+01  0.40659169220E+02  0.00000000000E+00 0. -1.
         11    1    3    3    0    0  0.15798114981E+02 -0.27539428871E+01  0.26499666857E+01  0.16253829151E+02  0.51100000000E-03 0. -1.
        -11    1    3    3    0    0  0.71735965297E+01  0.19534590354E+02  0.67658018427E+00  0.20821106322E+02  0.51100000000E-03 0.  1.
        -12    1    3    3    0    0  0.11501298080E+02  0.23755398607E+01  0.65638595188E+01  0.13453895307E+02  0.00000000000E+00 0.  1.
</event>
<event>
 7    1  0.5897985E-013  0.5052886E+02  0.7816164E-02  0.1300439E+00
        -11   -1    0    0    0    0  0.00000000000E+00  0.00000000000E+00  0.45593999997E+02  0.45594000000E+02  0.51100000000E-03 0. -1.
         11   -1    0    0    0    0 -0.00000000000E+00 -0.00000000000E+00 -0.45593999997E+02  0.45594000000E+02  0.51100000000E-03 0.  1.
    9900012    2    1    2    0    0  0.51430161820E+01 -0.15784621628E+02 -0.37115506445E+02  0.50528859403E+02  0.29999998641E+02 0.  0.
         12    1    1    2    0    0 -0.51430161820E+01  0.15784621628E+02  0.37115506445E+02  0.40659140597E+02  0.00000000000E+00 0. -1.
         11    1    3    3    0    0  0.44595157008E+01 -0.28095490482E+01 -0.27974433444E+02  0.28466643162E+02  0.51100000000E-03 0. -1.
        -11    1    3    3    0    0 -0.70548389264E+01 -0.82217540697E+01 -0.63682144963E+01  0.12566707938E+02  0.51100000000E-03 0.  1.
         12    1    3    3    0    0  0.77383394075E+01 -0.47533185103E+01 -0.27728585049E+01  0.94955083031E+01  0.00000000000E+00 0. -1.
</event>
<event>
 7    1  0.5897985E-013  0.5052885E+02  0.7816164E-02  0.1300439E+00
        -11   -1    0    0    0    0  0.00000000000E+00  0.00000000000E+00  0.45593999997E+02  0.45594000000E+02  0.51100000000E-03 0.  1.
         11   -1    0    0    0    0 -0.00000000000E+00 -0.00000000000E+00 -0.45593999997E+02  0.45594000000E+02  0.51100000000E-03 0. -1.
    9900012    2    1    2    0    0  0.36647955159E+02  0.16562047032E+02 -0.59826537100E+01  0.50528853862E+02  0.29999981799E+02 0.  0.
         12    1    1    2    0    0 -0.36647955159E+02 -0.16562047032E+02  0.59826537100E+01  0.40659146138E+02  0.00000000000E+00 0. -1.
         11    1    3    3    0    0  0.80948808803E-03  0.78214535376E+00 -0.14938268058E+01  0.16862001057E+01  0.51100000000E-03 0. -1.
        -11    1    3    3    0    0  0.70269057666E+01 -0.78399147526E+01 -0.29193999538E+01  0.10925409115E+02  0.51100000000E-03 0.  1.
        -12    1    3    3    0    0  0.29620239905E+02  0.23619816431E+02 -0.15694269504E+01  0.37917244641E+02  0.00000000000E+00 0.  1.
</event>
<event>
 7    1  0.5897985E-013  0.5052886E+02  0.7816164E-02  0.1300439E+00
        -11   -1    0    0    0    0  0.00000000000E+00  0.00000000000E+00  0.45593999997E+02  0.45594000000E+02  0.51100000000E-03 0. -1.
         11   -1    0    0    0    0 -0.00000000000E+00 -0.00000000000E+00 -0.45593999997E+02  0.45594000000E+02  0.51100000000E-03 0.  1.
    9900012    2    1    2    0    0  0.13742981480E+02  0.11746728115E+02 -0.36418545300E+02  0.50528860768E+02  0.30000002789E+02 0.  0.
         12    1    1    2    0    0 -0.13742981480E+02 -0.11746728115E+02  0.36418545300E+02  0.40659139232E+02  0.00000000000E+00 0. -1.
         11    1    3    3    0    0  0.16881334651E+02  0.64392940909E+01 -0.15487936398E+02  0.23797481844E+02  0.51100000000E-03 0.  1.
        -11    1    3    3    0    0 -0.79304112780E+01  0.71820011354E+01 -0.17615927243E+02  0.20610518098E+02  0.51100000000E-03 0. -1.
         12    1    3    3    0    0  0.47920581069E+01 -0.18745671113E+01 -0.33146816591E+01  0.61208608264E+01  0.00000000000E+00 0. -1.
</event>
<event>
 7    1  0.5897985E-013  0.5052885E+02  0.7816164E-02  0.1300439E+00
        -11   -1    0    0    0    0  0.00000000000E+00  0.00000000000E+00  0.45593999997E+02  0.45594000000E+02  0.51100000000E-03 0. -1.
         11   -1    0    0    0    0 -0.00000000000E+00 -0.00000000000E+00 -0.45593999997E+02  0.45594000000E+02  0.51100000000E-03 0.  1.
    9900012    2    1    2    0    0  0.40461213039E+02 -0.16069785828E+01  0.36707173277E+01  0.50528852119E+02  0.29999976499E+02 0.  0.
         12    1    1    2    0    0 -0.40461213039E+02  0.16069785828E+01 -0.36707173277E+01  0.40659147881E+02  0.00000000000E+00 0. -1.
         11    1    3    3    0    0  0.87196505338E+00 -0.52111946409E+01  0.63187366536E+01  0.82367047901E+01  0.51100000000E-03 0. -1.
        -11    1    3    3    0    0  0.23867773146E+02  0.91112862927E+01 -0.18626768981E+01  0.25615536269E+02  0.51100000000E-03 0.  1.
        -12    1    3    3    0    0  0.15721474839E+02 -0.55070702347E+01 -0.78534242775E+00  0.16676611059E+02  0.00000000000E+00 0.  1.
</event>
<event>
 7    1  0.5897985E-013  0.5052886E+02  0.7816164E-02  0.1300439E+00
        -11   -1    0    0    0    0  0.00000000000E+00  0.00000000000E+00  0.45593999997E+02  0.45594000000E+02  0.51100000000E-03 0.  1.
         11   -1    0    0    0    0 -0.00000000000E+00 -0.00000000000E+00 -0.45593999997E+02  0.45594000000E+02  0.51100000000E-03 0. -1.
    9900012    2    1    2    0    0 -0.35949646210E+02  0.16367406041E+02  0.96382976500E+01  0.50528858042E+02  0.29999994505E+02 0.  0.
         12    1    1    2    0    0  0.35949646210E+02 -0.16367406041E+02 -0.96382976500E+01  0.40659141958E+02  0.00000000000E+00 0. -1.
         11    1    3    3    0    0  0.11554078503E+01  0.46192273640E+01  0.41163847780E+01  0.62941919769E+01  0.51100000000E-03 0. -1.
        -11    1    3    3    0    0 -0.20354438548E+02  0.38642968826E+00 -0.56342216529E+01  0.21123374503E+02  0.51100000000E-03 0.  1.
        -12    1    3    3    0    0 -0.16750615513E+02  0.11361748988E+02  0.11156134525E+02  0.23111291562E+02  0.00000000000E+00 0.  1.
</event>
<event>
 7    1  0.5897985E-013  0.5052886E+02  0.7816164E-02  0.1300439E+00
        -11   -1    0    0    0    0  0.00000000000E+00  0.00000000000E+00  0.45593999997E+02  0.45594000000E+02  0.51100000000E-03 0.  1.
         11   -1    0    0    0    0 -0.00000000000E+00 -0.00000000000E+00 -0.45593999997E+02  0.45594000000E+02  0.51100000000E-03 0. -1.
    9900012    2    1    2    0    0  0.16904717684E+02 -0.78603551946E+01  0.36133240876E+02  0.50528858839E+02  0.29999996926E+02 0.  0.
         12    1    1    2    0    0 -0.16904717684E+02  0.78603551946E+01 -0.36133240876E+02  0.40659141161E+02  0.00000000000E+00 0. -1.
         11    1    3    3    0    0  0.69727952138E+00  0.48141895752E+00 -0.31167078805E+01  0.32298345495E+01  0.51100000000E-03 0. -1.
        -11    1    3    3    0    0  0.19459719518E+02 -0.99067664073E+01  0.37234534442E+02  0.43165208904E+02  0.51100000000E-03 0.  1.
        -12    1    3    3    0    0 -0.32522813557E+01  0.15649922551E+01  0.20154143148E+01  0.41338153848E+01  0.00000000000E+00 0.  1.
</event>
<event>
 7    1  0.5897985E-013  0.5052886E+02  0.7816164E-02  0.1300439E+00
        -11   -1    0    0    0    0  0.00000000000E+00  0.00000000000E+00  0.45593999997E+02  0.45594000000E+02  0.51100000000E-03 0.  1.
         11   -1    0    0    0    0 -0.00000000000E+00 -0.00000000000E+00 -0.45593999997E+02  0.45594000000E+02  0.51100000000E-03 0. -1.
    9900012    2    1    2    0    0  0.44504189777E+01  0.35297180585E+02  0.19684213087E+02  0.50528862882E+02  0.30000009216E+02 0.  0.
         12    1    1    2    0    0 -0.44504189777E+01 -0.35297180585E+02 -0.19684213087E+02  0.40659137118E+02  0.00000000000E+00 0. -1.
         11    1    3    3    0    0 -0.48936158945E+01  0.23862627445E+01  0.10046078811E+02  0.11426522924E+02  0.51100000000E-03 0. -1.
        -11    1    3    3    0    0  0.89297409124E+01  0.19982461404E+02 -0.16299430955E+01  0.21947568231E+02  0.51100000000E-03 0.  1.
        -12    1    3    3    0    0  0.41429395974E+00  0.12928456437E+02  0.11268077372E+02  0.17154771726E+02  0.00000000000E+00 0.  1.
</event>
<event>
 7    1  0.5897985E-013  0.5052889E+02  0.7816164E-02  0.1300439E+00
        -11   -1    0    0    0    0  0.00000000000E+00  0.00000000000E+00  0.45593999997E+02  0.45594000000E+02  0.51100000000E-03 0.  1.
         11   -1    0    0    0    0 -0.00000000000E+00 -0.00000000000E+00 -0.45593999997E+02  0.45594000000E+02  0.51100000000E-03 0. -1.
    9900012    2    1    2    0    0 -0.14141614058E+02  0.37808793777E+02  0.48654647349E+01  0.50528894228E+02  0.30000104496E+02 0.  0.
         12    1    1    2    0    0  0.14141614058E+02 -0.37808793777E+02 -0.48654647349E+01  0.40659105772E+02  0.00000000000E+00 0. -1.
         11    1    3    3    0    0 -0.13920750220E+02  0.23629503677E+02  0.10107116456E+02  0.29228317331E+02  0.51100000000E-03 0. -1.
        -11    1    3    3    0    0  0.54544773620E+01  0.46455441990E+01  0.26995475059E+01  0.76563673628E+01  0.51100000000E-03 0.  1.
         12    1    3    3    0    0 -0.56753412007E+01  0.95337459012E+01 -0.79411992268E+01  0.13644209534E+02  0.00000000000E+00 0. -1.
</event>
<event>
 7    1  0.5897985E-013  0.5052886E+02  0.7816164E-02  0.1300439E+00
        -11   -1    0    0    0    0  0.00000000000E+00  0.00000000000E+00  0.45593999997E+02  0.45594000000E+02  0.51100000000E-03 0.  1.
         11   -1    0    0    0    0 -0.00000000000E+00 -0.00000000000E+00 -0.45593999997E+02  0.45594000000E+02  0.51100000000E-03 0. -1.
    9900012    2    1    2    0    0 -0.24305289807E+01 -0.16185052304E+02  0.37219644830E+02  0.50528863874E+02  0.30000012233E+02 0.  0.
         12    1    1    2    0    0  0.24305289807E+01  0.16185052304E+02 -0.37219644830E+02  0.40659136126E+02  0.00000000000E+00 0. -1.
         11    1    3    3    0    0  0.11939459818E+01 -0.45859225591E+01 -0.97078214903E+00  0.48372110733E+01  0.51100000000E-03 0. -1.
        -11    1    3    3    0    0  0.68487563692E+01 -0.67741672051E+01  0.30103912481E+02  0.31607599593E+02  0.51100000000E-03 0.  1.
         12    1    3    3    0    0 -0.10473231332E+02 -0.48249625401E+01  0.80865144978E+01  0.14084053208E+02  0.00000000000E+00 0. -1.
</event>
<event>
 7    1  0.5897985E-013  0.5052886E+02  0.7816164E-02  0.1300439E+00
        -11   -1    0    0    0    0  0.00000000000E+00  0.00000000000E+00  0.45593999997E+02  0.45594000000E+02  0.51100000000E-03 0.  1.
         11   -1    0    0    0    0 -0.00000000000E+00 -0.00000000000E+00 -0.45593999997E+02  0.45594000000E+02  0.51100000000E-03 0. -1.
    9900012    2    1    2    0    0  0.30383296053E+02 -0.24335886009E+02  0.11738195623E+02  0.50528864946E+02  0.30000015490E+02 0.  0.
         12    1    1    2    0    0 -0.30383296053E+02  0.24335886009E+02 -0.11738195623E+02  0.40659135054E+02  0.00000000000E+00 0. -1.
         11    1    3    3    0    0  0.43788822821E+01 -0.21945645570E+02  0.44037546933E+01  0.22807433551E+02  0.51100000000E-03 0. -1.
        -11    1    3    3    0    0  0.21533994650E+02 -0.25377086606E+01  0.81701202078E+01  0.23171183727E+02  0.51100000000E-03 0.  1.
         12    1    3    3    0    0  0.44704191206E+01  0.14746822127E+00 -0.83567927792E+00  0.45502476686E+01  0.00000000000E+00 0. -1.
</event>
<event>
 7    1  0.5897985E-013  0.5052887E+02  0.7816164E-02  0.1300439E+00
        -11   -1    0    0    0    0  0.00000000000E+00  0.00000000000E+00  0.45593999997E+02  0.45594000000E+02  0.51100000000E-03 0.  1.
         11   -1    0    0    0    0 -0.00000000000E+00 -0.00000000000E+00 -0.45593999997E+02  0.45594000000E+02  0.51100000000E-03 0. -1.
    9900012    2    1    2    0    0  0.67825408503E+01  0.35762512485E+02  0.18116424245E+02  0.50528868344E+02  0.30000025817E+02 0.  0.
         12    1    1    2    0    0 -0.67825408503E+01 -0.35762512485E+02 -0.18116424245E+02  0.40659131656E+02  0.00000000000E+00 0. -1.
         11    1    3    3    0    0  0.91405151422E+01  0.95493856843E+00 -0.19753736191E+01  0.94001609524E+01  0.51100000000E-03 0. -1.
        -11    1    3    3    0    0 -0.15332245101E+01  0.14233677072E+02  0.13038723748E+02  0.19363797604E+02  0.51100000000E-03 0.  1.
         12    1    3    3    0    0 -0.82474978186E+00  0.20573896845E+02  0.70530741157E+01  0.21764909787E+02  0.00000000000E+00 0. -1.
</event>
<event>
 7    1  0.5897985E-013  0.5052886E+02  0.7816164E-02  0.1300439E+00
        -11   -1    0    0    0    0  0.00000000000E+00  0.00000000000E+00  0.45593999997E+02  0.45594000000E+02  0.51100000000E-03 0. -1.
         11   -1    0    0    0    0 -0.00000000000E+00 -0.00000000000E+00 -0.45593999997E+02  0.45594000000E+02  0.51100000000E-03 0.  1.
    9900012    2    1    2    0    0 -0.15754273413E+02  0.33409916041E+02 -0.16992521546E+02  0.50528863153E+02  0.30000010041E+02 0.  0.
         12    1    1    2    0    0  0.15754273413E+02 -0.33409916041E+02  0.16992521546E+02  0.40659136847E+02  0.00000000000E+00 0. -1.
         11    1    3    3    0    0 -0.62839451210E+00  0.94891166607E+01  0.60417068788E+01  0.11266784676E+02  0.51100000000E-03 0. -1.
        -11    1    3    3    0    0 -0.65000635459E-01  0.12600669226E+02 -0.12144694701E+02  0.17500705691E+02  0.51100000000E-03 0.  1.
         12    1    3    3    0    0 -0.15060878266E+02  0.11320130154E+02 -0.10889533723E+02  0.21761372787E+02  0.00000000000E+00 0. -1.
</event>
<event>
 7    1  0.5897985E-013  0.5052887E+02  0.7816164E-02  0.1300439E+00
        -11   -1    0    0    0    0  0.00000000000E+00  0.00000000000E+00  0.45593999997E+02  0.45594000000E+02  0.51100000000E-03 0.  1.
         11   -1    0    0    0    0 -0.00000000000E+00 -0.00000000000E+00 -0.45593999997E+02  0.45594000000E+02  0.51100000000E-03 0. -1.
    9900012    2    1    2    0    0  0.11255867577E+02  0.23226865627E+02  0.31416281159E+02  0.50528873551E+02  0.30000041645E+02 0.  0.
         12    1    1    2    0    0 -0.11255867577E+02 -0.23226865627E+02 -0.31416281159E+02  0.40659126449E+02  0.00000000000E+00 0. -1.
         11    1    3    3    0    0  0.15041222196E+02  0.14696721369E+01  0.11318872807E+02  0.18881609657E+02  0.51100000000E-03 0. -1.
        -11    1    3    3    0    0 -0.35799723801E+01  0.97805881551E+01  0.15794749574E+02  0.18919572439E+02  0.51100000000E-03 0.  1.
         12    1    3    3    0    0 -0.20538223907E+00  0.11976605335E+02  0.43026587769E+01  0.12727691455E+02  0.00000000000E+00 0. -1.
</event>
<event>
 7    1  0.5897985E-013  0.5052885E+02  0.7816164E-02  0.1300439E+00
        -11   -1    0    0    0    0  0.00000000000E+00  0.00000000000E+00  0.45593999997E+02  0.45594000000E+02  0.51100000000E-03 0. -1.
         11   -1    0    0    0    0 -0.00000000000E+00 -0.00000000000E+00 -0.45593999997E+02  0.45594000000E+02  0.51100000000E-03 0.  1.
    9900012    2    1    2    0    0 -0.13488517969E+02 -0.27453152626E+02 -0.26787132534E+02  0.50528853729E+02  0.29999981395E+02 0.  0.
         12    1    1    2    0    0  0.13488517969E+02  0.27453152626E+02  0.26787132534E+02  0.40659146271E+02  0.00000000000E+00 0. -1.
         11    1    3    3    0    0 -0.10342339893E+02 -0.46814430899E+01 -0.29394991322E+01  0.11726916017E+02  0.51100000000E-03 0. -1.
        -11    1    3    3    0    0  0.79181986507E+01 -0.14053891580E+02 -0.15795587541E+02  0.22576765146E+02  0.51100000000E-03 0.  1.
        -12    1    3    3    0    0 -0.11064376726E+02 -0.87178179554E+01 -0.80520458612E+01  0.16225172566E+02  0.00000000000E+00 0.  1.
</event>
<event>
 7    1  0.5897985E-013  0.5052885E+02  0.7816164E-02  0.1300439E+00
        -11   -1    0    0    0    0  0.00000000000E+00  0.00000000000E+00  0.45593999997E+02  0.45594000000E+02  0.51100000000E-03 0. -1.
         11   -1    0    0    0    0 -0.00000000000E+00 -0.00000000000E+00 -0.45593999997E+02  0.45594000000E+02  0.51100000000E-03 0.  1.
    9900012    2    1    2    0    0  0.82722674076E+01  0.28490617581E+02 -0.27803258259E+02  0.50528845213E+02  0.29999955509E+02 0.  0.
         12    1    1    2    0    0 -0.82722674076E+01 -0.28490617581E+02  0.27803258259E+02  0.40659154787E+02  0.00000000000E+00 0. -1.
         11    1    3    3    0    0  0.16847257677E+01  0.34011166121E+01 -0.12642141966E+02  0.13199607906E+02  0.51100000000E-03 0. -1.
        -11    1    3    3    0    0  0.49648248567E-01  0.22821847267E+02 -0.25756586481E+01  0.22966784611E+02  0.51100000000E-03 0.  1.
        -12    1    3    3    0    0  0.65378933913E+01  0.22676537013E+01 -0.12585457645E+02  0.14362452696E+02  0.00000000000E+00 0.  1.
</event>
<event>
 7    1  0.5897985E-013  0.5052888E+02  0.7816164E-02  0.1300439E+00
        -11   -1    0    0    0    0  0.00000000000E+00  0.00000000000E+00  0.45593999997E+02  0.45594000000E+02  0.51100000000E-03 0.  1.
         11   -1    0    0    0    0 -0.00000000000E+00 -0.00000000000E+00 -0.45593999997E+02  0.45594000000E+02  0.51100000000E-03 0. -1.
    9900012    2    1    2    0    0  0.29781171590E+02  0.22559667792E+02  0.16040803770E+02  0.50528878296E+02  0.30000056067E+02 0.  0.
         12    1    1    2    0    0 -0.29781171590E+02 -0.22559667792E+02 -0.16040803770E+02  0.40659121704E+02  0.00000000000E+00 0. -1.
         11    1    3    3    0    0  0.33727934829E+01  0.36379515660E+01  0.82402797762E+01  0.96183490541E+01  0.51100000000E-03 0. -1.
        -11    1    3    3    0    0  0.11239301457E+02  0.18985765763E+01 -0.73244998997E+01  0.13548977426E+02  0.51100000000E-03 0.  1.
        -12    1    3    3    0    0  0.15169076651E+02  0.17023139650E+02  0.15125023893E+02  0.27361551816E+02  0.00000000000E+00 0.  1.
</event>
<event>
 7    1  0.5897985E-013  0.5052886E+02  0.7816164E-02  0.1300439E+00
        -11   -1    0    0    0    0  0.00000000000E+00  0.00000000000E+00  0.45593999997E+02  0.45594000000E+02  0.51100000000E-03 0. -1.
         11   -1    0    0    0    0 -0.00000000000E+00 -0.00000000000E+00 -0.45593999997E+02  0.45594000000E+02  0.51100000000E-03 0.  1.
    9900012    2    1    2    0    0  0.29966089124E+02  0.19627915029E+02 -0.19233937669E+02  0.50528857067E+02  0.29999991540E+02 0.  0.
         12    1    1    2    0    0 -0.29966089124E+02 -0.19627915029E+02  0.19233937669E+02  0.40659142933E+02  0.00000000000E+00 0. -1.
         11    1    3    3    0    0  0.30124269525E+01  0.64216856555E+01  0.39185851024E+01  0.81035839150E+01  0.51100000000E-03 0. -1.
        -11    1    3    3    0    0  0.25089641162E+02  0.59538544920E+01 -0.10749780094E+02  0.27937362962E+02  0.51100000000E-03 0.  1.
         12    1    3    3    0    0  0.18640210103E+01  0.72523748817E+01 -0.12402742677E+02  0.14487910190E+02  0.00000000000E+00 0. -1.
</event>
<event>
 7    1  0.5897985E-013  0.5052886E+02  0.7816164E-02  0.1300439E+00
        -11   -1    0    0    0    0  0.00000000000E+00  0.00000000000E+00  0.45593999997E+02  0.45594000000E+02  0.51100000000E-03 0.  1.
         11   -1    0    0    0    0 -0.00000000000E+00 -0.00000000000E+00 -0.45593999997E+02  0.45594000000E+02  0.51100000000E-03 0. -1.
    9900012    2    1    2    0    0 -0.35958079867E+02 -0.17047186156E+02 -0.83411828700E+01  0.50528863324E+02  0.30000010560E+02 0.  0.
         12    1    1    2    0    0  0.35958079867E+02  0.17047186156E+02  0.83411828700E+01  0.40659136676E+02  0.00000000000E+00 0. -1.
         11    1    3    3    0    0 -0.24216056839E+02 -0.16778308549E+02 -0.91420591213E+01  0.30846495617E+02  0.51100000000E-03 0. -1.
        -11    1    3    3    0    0  0.30773446483E+01 -0.32371554533E+01 -0.58790616697E+00  0.45049816243E+01  0.51100000000E-03 0.  1.
         12    1    3    3    0    0 -0.14819367677E+02  0.29682778461E+01  0.13887824183E+01  0.15177386083E+02  0.00000000000E+00 0. -1.
</event>
<event>
 7    1  0.5897985E-013  0.5052886E+02  0.7816164E-02  0.1300439E+00
        -11   -1    0    0    0    0  0.00000000000E+00  0.00000000000E+00  0.45593999997E+02  0.45594000000E+02  0.51100000000E-03 0.  1.
         11   -1    0    0    0    0 -0.00000000000E+00 -0.00000000000E+00 -0.45593999997E+02  0.45594000000E+02  0.51100000000E-03 0. -1.
    9900012    2    1    2    0    0 -0.38279553233E+02 -0.24406237025E+01  0.13486473981E+02  0.50528858097E+02  0.29999994673E+02 0.  0.
         12    1    1    2    0    0  0.38279553233E+02  0.24406237025E+01 -0.13486473981E+02  0.40659141903E+02  0.00000000000E+00 0. -1.
         11    1    3    3    0    0 -0.12132810895E+02 -0.42228097365E+01 -0.48907046804E+01  0.13746134541E+02  0.51100000000E-03 0. -1.
        -11    1    3    3    0    0 -0.13562781273E+02  0.32388518258E+00  0.19835109788E+02  0.24030928364E+02  0.51100000000E-03 0.  1.
        -12    1    3    3    0    0 -0.12583961065E+02  0.14583008514E+01 -0.14579311258E+01  0.12751795193E+02  0.00000000000E+00 0.  1.
</event>
<event>
 7    1  0.5897985E-013  0.5052887E+02  0.7816164E-02  0.1300439E+00
        -11   -1    0    0    0    0  0.00000000000E+00  0.00000000000E+00  0.45593999997E+02  0.45594000000E+02  0.51100000000E-03 0. -1.
         11   -1    0    0    0    0 -0.00000000000E+00 -0.00000000000E+00 -0.45593999997E+02  0.45594000000E+02  0.51100000000E-03 0.  1.
    9900012    2    1    2    0    0 -0.40187102229E+02 -0.57136032799E+01  0.23487393558E+01  0.50528867882E+02  0.30000024414E+02 0.  0.
         12    1    1    2    0    0  0.40187102229E+02  0.57136032799E+01 -0.23487393558E+01  0.40659132118E+02  0.00000000000E+00 0. -1.
         11    1    3    3    0    0  0.17592702381E+01 -0.50660922490E+01  0.38985265214E+01  0.66301456805E+01  0.51100000000E-03 0. -1.
        -11    1    3    3    0    0 -0.25687711617E+02  0.56196785524E+01 -0.27152171773E+01  0.26435047187E+02  0.51100000000E-03 0.  1.
         12    1    3    3    0    0 -0.16258660850E+02 -0.62671895833E+01  0.11654300117E+01  0.17463675015E+02  0.00000000000E+00 0. -1.
</event>
<event>
 7    1  0.5897985E-013  0.5052887E+02  0.7816164E-02  0.1300439E+00
        -11   -1    0    0    0    0  0.00000000000E+00  0.00000000000E+00  0.45593999997E+02  0.45594000000E+02  0.51100000000E-03 0.  1.
         11   -1    0    0    0    0 -0.00000000000E+00 -0.00000000000E+00 -0.45593999997E+02  0.45594000000E+02  0.51100000000E-03 0. -1.
    9900012    2    1    2    0    0  0.38865564650E+02  0.11787178890E+02 -0.19222330308E+01  0.50528872100E+02  0.30000037235E+02 0.  0.
         12    1    1    2    0    0 -0.38865564650E+02 -0.11787178890E+02  0.19222330308E+01  0.40659127900E+02  0.00000000000E+00 0. -1.
         11    1    3    3    0    0 -0.26925584242E+01  0.94118565311E+00 -0.62986190249E+00  0.29210319373E+01  0.51100000000E-03 0. -1.
        -11    1    3    3    0    0  0.43605618376E+02  0.11131500848E+02 -0.27348565067E+01  0.45087023693E+02  0.51100000000E-03 0.  1.
        -12    1    3    3    0    0 -0.20474953021E+01 -0.28550761085E+00  0.14424853784E+01  0.25208164698E+01  0.00000000000E+00 0.  1.
</event>
<event>
 7    1  0.5897985E-013  0.5052886E+02  0.7816164E-02  0.1300439E+00
        -11   -1    0    0    0    0  0.00000000000E+00  0.00000000000E+00  0.45593999997E+02  0.45594000000E+02  0.51100000000E-03 0.  1.
         11   -1    0    0    0    0 -0.00000000000E+00 -0.00000000000E+00 -0.45593999997E+02  0.45594000000E+02  0.51100000000E-03 0. -1.
    9900012    2    1    2    0    0  0.45873393696E+01 -0.30879337329E+02  0.26049737186E+02  0.50528856331E+02  0.29999989305E+02 0.  0.
         12    1    1    2    0    0 -0.45873393696E+01  0.30879337329E+02 -0.26049737186E+02  0.40659143669E+02  0.00000000000E+00 0. -1.
         11    1    3    3    0    0  0.53200367959E+01  0.24595241777E+01 -0.75285580449E-01  0.58615457748E+01  0.51100000000E-03 0. -1.
        -11    1    3    3    0    0 -0.72829777326E+01 -0.16507934710E+02  0.14923123335E+02  0.23414809061E+02  0.51100000000E-03 0.  1.
         12    1    3    3    0    0  0.65502803063E+01 -0.16830926797E+02  0.11201899431E+02  0.21252501495E+02  0.00000000000E+00 0. -1.
</event>
<event>
 7    1  0.5897985E-013  0.5052887E+02  0.7816164E-02  0.1300439E+00
        -11   -1    0    0    0    0  0.00000000000E+00  0.00000000000E+00  0.45593999997E+02  0.45594000000E+02  0.51100000000E-03 0. -1.
         11   -1    0    0    0    0 -0.00000000000E+00 -0.00000000000E+00 -0.45593999997E+02  0.45594000000E+02  0.51100000000E-03 0.  1.
    9900012    2    1    2    0    0  0.28204309669E+02 -0.15950173286E+02 -0.24561635337E+02  0.50528867665E+02  0.30000023756E+02 0.  0.
         12    1    1    2    0    0 -0.28204309669E+02  0.15950173286E+02  0.24561635337E+02  0.40659132335E+02  0.00000000000E+00 0. -1.
         11    1    3    3    0    0  0.49428334547E+01  0.56630093269E+01  0.33426174891E+01  0.82264432859E+01  0.51100000000E-03 0. -1.
        -11    1    3    3    0    0  0.12906263722E+02 -0.11485813088E+02 -0.16129425708E+02  0.23635860879E+02  0.51100000000E-03 0.  1.
         12    1    3    3    0    0  0.10355212492E+02 -0.10127369525E+02 -0.11774827118E+02  0.18666563501E+02  0.00000000000E+00 0. -1.
</event>
<event>
 7    1  0.5897985E-013  0.5052891E+02  0.7816164E-02  0.1300439E+00
        -11   -1    0    0    0    0  0.00000000000E+00  0.00000000000E+00  0.45593999997E+02  0.45594000000E+02  0.51100000000E-03 0. -1.
         11   -1    0    0    0    0 -0.00000000000E+00 -0.00000000000E+00 -0.45593999997E+02  0.45594000000E+02  0.51100000000E-03 0.  1.
    9900012    2    1    2    0    0  0.32085688606E+02  0.22805169383E+02  0.10178124668E+02  0.50528912631E+02  0.30000160433E+02 0.  0.
         12    1    1    2    0    0 -0.32085688606E+02 -0.22805169383E+02 -0.10178124668E+02  0.40659087369E+02  0.00000000000E+00 0. -1.
         11    1    3    3    0    0 -0.76243655891E+00  0.35923580357E+01  0.70846767291E+01  0.79799116775E+01  0.51100000000E-03 0. -1.
        -11    1    3    3    0    0  0.28977802941E+02  0.22414099036E+02  0.53846897558E+01  0.37028364573E+02  0.51100000000E-03 0.  1.
        -12    1    3    3    0    0  0.38703222236E+01 -0.32012876892E+01 -0.22912418171E+01  0.55206363808E+01  0.00000000000E+00 0.  1.
</event>
<event>
 7    1  0.5897985E-013  0.5052886E+02  0.7816164E-02  0.1300439E+00
        -11   -1    0    0    0    0  0.00000000000E+00  0.00000000000E+00  0.45593999997E+02  0.45594000000E+02  0.51100000000E-03 0.  1.
         11   -1    0    0    0    0 -0.00000000000E+00 -0.00000000000E+00 -0.45593999997E+02  0.45594000000E+02  0.51100000000E-03 0. -1.
    9900012    2    1    2    0    0 -0.31909449278E+02 -0.46080214336E+01  0.24773355491E+02  0.50528856415E+02  0.29999989560E+02 0.  0.
         12    1    1    2    0    0  0.31909449278E+02  0.46080214336E+01 -0.24773355491E+02  0.40659143585E+02  0.00000000000E+00 0. -1.
         11    1    3    3    0    0 -0.87968530767E+01 -0.12108751528E+01 -0.60796990984E+01  0.10761671993E+02  0.51100000000E-03 0. -1.
        -11    1    3    3    0    0 -0.14122752943E+02  0.10969551837E+01  0.12735437714E+02  0.19048538931E+02  0.51100000000E-03 0.  1.
         12    1    3    3    0    0 -0.89898432583E+01 -0.44941014645E+01  0.18117616875E+02  0.20718645492E+02  0.00000000000E+00 0. -1.
</event>
<event>
 7    1  0.5897985E-013  0.5052886E+02  0.7816164E-02  0.1300439E+00
        -11   -1    0    0    0    0  0.00000000000E+00  0.00000000000E+00  0.45593999997E+02  0.45594000000E+02  0.51100000000E-03 0.  1.
         11   -1    0    0    0    0 -0.00000000000E+00 -0.00000000000E+00 -0.45593999997E+02  0.45594000000E+02  0.51100000000E-03 0. -1.
    9900012    2    1    2    0    0 -0.33827495894E+02  0.10910057377E+02  0.19744281531E+02  0.50528862237E+02  0.30000007257E+02 0.  0.
         12    1    1    2    0    0  0.33827495894E+02 -0.10910057377E+02 -0.19744281531E+02  0.40659137763E+02  0.00000000000E+00 0. -1.
         11    1    3    3    0    0  0.84094386091E+00 -0.54645974614E+01  0.29687021212E+01  0.62755242441E+01  0.51100000000E-03 0. -1.
        -11    1    3    3    0    0 -0.26868890688E+02  0.99734976502E+01  0.18364321664E+02  0.34039040125E+02  0.51100000000E-03 0.  1.
        -12    1    3    3    0    0 -0.77995490670E+01  0.64011571884E+01 -0.15887422540E+01  0.10214297869E+02  0.00000000000E+00 0.  1.
</event>
<event>
 7    1  0.5897985E-013  0.5052886E+02  0.7816164E-02  0.1300439E+00
        -11   -1    0    0    0    0  0.00000000000E+00  0.00000000000E+00  0.45593999997E+02  0.45594000000E+02  0.51100000000E-03 0. -1.
         11   -1    0    0    0    0 -0.00000000000E+00 -0.00000000000E+00 -0.45593999997E+02  0.45594000000E+02  0.51100000000E-03 0.  1.
    9900012    2    1    2    0    0  0.12079776620E+02 -0.34993119731E+02 -0.16814460757E+02  0.50528861762E+02  0.30000005813E+02 0.  0.
         12    1    1    2    0    0 -0.12079776620E+02  0.34993119731E+02  0.16814460757E+02  0.40659138238E+02  0.00000000000E+00 0. -1.
         11    1    3    3    0    0 -0.36748091225E+01  0.30273414387E+00  0.31261614932E+01  0.48341241184E+01  0.51100000000E-03 0. -1.
        -11    1    3    3    0    0  0.10386977495E+02 -0.33435988592E+02 -0.19296571544E+02  0.39977647608E+02  0.51100000000E-03 0.  1.
         12    1    3    3    0    0  0.53676082478E+01 -0.18598652824E+01 -0.64405070604E+00  0.57170900362E+01  0.00000000000E+00 0. -1.
</event>
<event>
 7    1  0.5897985E-013  0.5052885E+02  0.7816164E-02  0.1300439E+00
        -11   -1    0    0    0    0  0.00000000000E+00  0.00000000000E+00  0.45593999997E+02  0.45594000000E+02  0.51100000000E-03 0.  1.
         11   -1    0    0    0    0 -0.00000000000E+00 -0.00000000000E+00 -0.45593999997E+02  0.45594000000E+02  0.51100000000E-03 0. -1.
    9900012    2    1    2    0    0 -0.31531048655E+02 -0.21461189294E+02  0.14084623107E+02  0.50528852404E+02  0.29999977367E+02 0.  0.
         12    1    1    2    0    0  0.31531048655E+02  0.21461189294E+02 -0.14084623107E+02  0.40659147596E+02  0.00000000000E+00 0. -1.
         11    1    3    3    0    0 -0.34455955148E+02 -0.19385779809E+02  0.78119723799E+01  0.40299481594E+02  0.51100000000E-03 0. -1.
        -11    1    3    3    0    0 -0.22467012332E+01 -0.38905787644E-01  0.31023882451E+01  0.38306648478E+01  0.51100000000E-03 0.  1.
         12    1    3    3    0    0  0.51716077269E+01 -0.20365036974E+01  0.31702624818E+01  0.63987059624E+01  0.00000000000E+00 0. -1.
</event>
<event>
 7    1  0.5897985E-013  0.5052886E+02  0.7816164E-02  0.1300439E+00
        -11   -1    0    0    0    0  0.00000000000E+00  0.00000000000E+00  0.45593999997E+02  0.45594000000E+02  0.51100000000E-03 0.  1.
         11   -1    0    0    0    0 -0.00000000000E+00 -0.00000000000E+00 -0.45593999997E+02  0.45594000000E+02  0.51100000000E-03 0. -1.
    9900012    2    1    2    0    0 -0.37242954628E+02 -0.10385427756E+02 -0.12580569800E+02  0.50528861844E+02  0.30000006060E+02 0.  0.
         12    1    1    2    0    0  0.37242954628E+02  0.10385427756E+02  0.12580569800E+02  0.40659138156E+02  0.00000000000E+00 0. -1.
         11    1    3    3    0    0  0.49669062024E+01 -0.28580356864E+01 -0.40615839610E+00  0.57448664138E+01  0.51100000000E-03 0. -1.
        -11    1    3    3    0    0 -0.13877830455E+02 -0.23562767221E+01 -0.18901109445E+01  0.14202772187E+02  0.51100000000E-03 0.  1.
         12    1    3    3    0    0 -0.28332030375E+02 -0.51711153478E+01 -0.10284300460E+02  0.30581223243E+02  0.00000000000E+00 0. -1.
</event>
<event>
 7    1  0.5897985E-013  0.5052886E+02  0.7816164E-02  0.1300439E+00
        -11   -1    0    0    0    0  0.00000000000E+00  0.00000000000E+00  0.45593999997E+02  0.45594000000E+02  0.51100000000E-03 0.  1.
         11   -1    0    0    0    0 -0.00000000000E+00 -0.00000000000E+00 -0.45593999997E+02  0.45594000000E+02  0.51100000000E-03 0. -1.
    9900012    2    1    2    0    0 -0.33547197089E+02  0.35110054059E+01  0.22702945802E+02  0.50528864009E+02  0.30000012641E+02 0.  0.
         12    1    1    2    0    0  0.33547197089E+02 -0.35110054059E+01 -0.22702945802E+02  0.40659135991E+02  0.00000000000E+00 0. -1.
         11    1    3    3    0    0 -0.36782420971E+01  0.42730724839E+01  0.21002871563E+01  0.60166286056E+01  0.51100000000E-03 0. -1.
        -11    1    3    3    0    0 -0.13547753343E+02 -0.10823174265E+02  0.14322010894E+01  0.17399250617E+02  0.51100000000E-03 0.  1.
        -12    1    3    3    0    0 -0.16321201649E+02  0.10061107187E+02  0.19170457556E+02  0.27112984786E+02  0.00000000000E+00 0.  1.
</event>
<event>
 7    1  0.5897985E-013  0.5052886E+02  0.7816164E-02  0.1300439E+00
        -11   -1    0    0    0    0  0.00000000000E+00  0.00000000000E+00  0.45593999997E+02  0.45594000000E+02  0.51100000000E-03 0. -1.
         11   -1    0    0    0    0 -0.00000000000E+00 -0.00000000000E+00 -0.45593999997E+02  0.45594000000E+02  0.51100000000E-03 0.  1.
    9900012    2    1    2    0    0 -0.89316407906E+01  0.39588530966E+02 -0.24778193145E+01  0.50528861054E+02  0.30000003659E+02 0.  0.
         12    1    1    2    0    0  0.89316407906E+01 -0.39588530966E+02  0.24778193145E+01  0.40659138946E+02  0.00000000000E+00 0. -1.
         11    1    3    3    0    0 -0.57208404335E+01  0.78556447122E+01  0.32003803907E+01  0.10231402837E+02  0.51100000000E-03 0. -1.
        -11    1    3    3    0    0  0.91505343416E+01  0.49736099841E+01 -0.12290488149E+01  0.10487117634E+02  0.51100000000E-03 0.  1.
        -12    1    3    3    0    0 -0.12361334699E+02  0.26759276270E+02 -0.44491508903E+01  0.29810340583E+02  0.00000000000E+00 0.  1.
</event>
<event>
 7    1  0.5897985E-013  0.5052886E+02  0.7816164E-02  0.1300439E+00
        -11   -1    0    0    0    0  0.00000000000E+00  0.00000000000E+00  0.45593999997E+02  0.45594000000E+02  0.51100000000E-03 0.  1.
         11   -1    0    0    0    0 -0.00000000000E+00 -0.00000000000E+00 -0.45593999997E+02  0.45594000000E+02  0.51100000000E-03 0. -1.
    9900012    2    1    2    0    0 -0.40629032914E-01  0.52787291071E+01  0.40315002346E+02  0.50528855323E+02  0.29999986241E+02 0.  0.
         12    1    1    2    0    0  0.40629032914E-01 -0.52787291071E+01 -0.40315002346E+02  0.40659144677E+02  0.00000000000E+00 0. -1.
         11    1    3    3    0    0 -0.57008859784E+01  0.11392869668E+02  0.24608486255E+02  0.27710560734E+02  0.51100000000E-03 0.  1.
        -11    1    3    3    0    0  0.16362336033E+01 -0.80355990298E+01  0.16370787832E+02  0.18309855452E+02  0.51100000000E-03 0. -1.
         12    1    3    3    0    0  0.40240233422E+01  0.19214584694E+01 -0.66427174088E+00  0.45084391372E+01  0.00000000000E+00 0. -1.
</event>
<event>
 7    1  0.5897985E-013  0.5052885E+02  0.7816164E-02  0.1300439E+00
        -11   -1    0    0    0    0  0.00000000000E+00  0.00000000000E+00  0.45593999997E+02  0.45594000000E+02  0.51100000000E-03 0.  1.
         11   -1    0    0    0    0 -0.00000000000E+00 -0.00000000000E+00 -0.45593999997E+02  0.45594000000E+02  0.51100000000E-03 0. -1.
    9900012    2    1    2    0    0  0.13211279287E+02 -0.30151202520E+02  0.23864894201E+02  0.50528854792E+02  0.29999984626E+02 0.  0.
         12    1    1    2    0    0 -0.13211279287E+02  0.30151202520E+02 -0.23864894201E+02  0.40659145208E+02  0.00000000000E+00 0. -1.
         11    1    3    3    0    0  0.14008995550E+02 -0.97840664674E+01  0.85893322931E+01  0.19124762547E+02  0.51100000000E-03 0. -1.
        -11    1    3    3    0    0 -0.15132932459E+01 -0.20270030785E+02  0.18871587038E+02  0.27736275922E+02  0.51100000000E-03 0.  1.
        -12    1    3    3    0    0  0.71557698237E+00 -0.97105267967E-01 -0.35960251293E+01  0.36678163233E+01  0.00000000000E+00 0.  1.
</event>
<event>
 7    1  0.5897985E-013  0.5052886E+02  0.7816164E-02  0.1300439E+00
        -11   -1    0    0    0    0  0.00000000000E+00  0.00000000000E+00  0.45593999997E+02  0.45594000000E+02  0.51100000000E-03 0.  1.
         11   -1    0    0    0    0 -0.00000000000E+00 -0.00000000000E+00 -0.45593999997E+02  0.45594000000E+02  0.51100000000E-03 0. -1.
    9900012    2    1    2    0    0  0.27240522619E+02  0.28230161360E+02  0.10685409204E+02  0.50528855237E+02  0.29999985978E+02 0.  0.
         12    1    1    2    0    0 -0.27240522619E+02 -0.28230161360E+02 -0.10685409204E+02  0.40659144763E+02  0.00000000000E+00 0. -1.
         11    1    3    3    0    0  0.13955032307E+02  0.55891324464E+01 -0.85539139751E+00  0.15056992492E+02  0.51100000000E-03 0. -1.
        -11    1    3    3    0    0 -0.23970295006E+01  0.11621345536E+02  0.11177387161E+02  0.16301392778E+02  0.51100000000E-03 0.  1.
        -12    1    3    3    0    0  0.15682519813E+02  0.11019683378E+02  0.36341344053E+00  0.19170469967E+02  0.00000000000E+00 0.  1.
</event>
<event>
 7    1  0.5897985E-013  0.5052882E+02  0.7816164E-02  0.1300439E+00
        -11   -1    0    0    0    0  0.00000000000E+00  0.00000000000E+00  0.45593999997E+02  0.45594000000E+02  0.51100000000E-03 0.  1.
         11   -1    0    0    0    0 -0.00000000000E+00 -0.00000000000E+00 -0.45593999997E+02  0.45594000000E+02  0.51100000000E-03 0. -1.
    9900012    2    1    2    0    0 -0.29434054591E+02  0.27933750623E+02 -0.25516483537E+01  0.50528820189E+02  0.29999879447E+02 0.  0.
         12    1    1    2    0    0  0.29434054591E+02 -0.27933750623E+02  0.25516483537E+01  0.40659179811E+02  0.00000000000E+00 0. -1.
         11    1    3    3    0    0  0.44793261680E+01 -0.77269919360E+00 -0.26892121803E+01  0.52814097905E+01  0.51100000000E-03 0. -1.
        -11    1    3    3    0    0 -0.15611686276E+02  0.10489408130E+02  0.37342191460E+01  0.19175422399E+02  0.51100000000E-03 0.  1.
        -12    1    3    3    0    0 -0.18301694483E+02  0.18217041687E+02 -0.35966553194E+01  0.26071988000E+02  0.00000000000E+00 0.  1.
</event>
<event>
 7    1  0.5897985E-013  0.5052886E+02  0.7816164E-02  0.1300439E+00
        -11   -1    0    0    0    0  0.00000000000E+00  0.00000000000E+00  0.45593999997E+02  0.45594000000E+02  0.51100000000E-03 0.  1.
         11   -1    0    0    0    0 -0.00000000000E+00 -0.00000000000E+00 -0.45593999997E+02  0.45594000000E+02  0.51100000000E-03 0. -1.
    9900012    2    1    2    0    0 -0.10059701966E+02 -0.39285963375E+02 -0.29294078866E+01  0.50528856471E+02  0.29999989730E+02 0.  0.
         12    1    1    2    0    0  0.10059701966E+02  0.39285963375E+02  0.29294078866E+01  0.40659143529E+02  0.00000000000E+00 0. -1.
         11    1    3    3    0    0 -0.11625456913E+02 -0.39354596905E+01  0.59016826313E+01  0.13618698526E+02  0.51100000000E-03 0. -1.
        -11    1    3    3    0    0  0.19813147495E+01 -0.41720672374E+01 -0.57375429236E+00  0.46541322950E+01  0.51100000000E-03 0.  1.
         12    1    3    3    0    0 -0.41555980290E+00 -0.31178436447E+02 -0.82573362255E+01  0.32256025650E+02  0.00000000000E+00 0. -1.
</event>
<event>
 7    1  0.5897985E-013  0.5052887E+02  0.7816164E-02  0.1300439E+00
        -11   -1    0    0    0    0  0.00000000000E+00  0.00000000000E+00  0.45593999997E+02  0.45594000000E+02  0.51100000000E-03 0.  1.
         11   -1    0    0    0    0 -0.00000000000E+00 -0.00000000000E+00 -0.45593999997E+02  0.45594000000E+02  0.51100000000E-03 0. -1.
    9900012    2    1    2    0    0  0.24804986955E+02 -0.28944809240E+02  0.14144807678E+02  0.50528868872E+02  0.30000027424E+02 0.  0.
         12    1    1    2    0    0 -0.24804986955E+02  0.28944809240E+02 -0.14144807678E+02  0.40659131128E+02  0.00000000000E+00 0. -1.
         11    1    3    3    0    0  0.16796504846E+02 -0.90220394827E+00 -0.11681322431E+01  0.16861230091E+02  0.51100000000E-03 0. -1.
        -11    1    3    3    0    0  0.66018699534E+01 -0.20798407853E+02  0.78980918554E+01  0.23206428233E+02  0.51100000000E-03 0.  1.
        -12    1    3    3    0    0  0.14066121562E+01 -0.72441974389E+01  0.74148480656E+01  0.10461210548E+02  0.00000000000E+00 0.  1.
</event>
<event>
 7    1  0.5897985E-013  0.5052890E+02  0.7816164E-02  0.1300439E+00
        -11   -1    0    0    0    0  0.00000000000E+00  0.00000000000E+00  0.45593999997E+02  0.45594000000E+02  0.51100000000E-03 0.  1.
         11   -1    0    0    0    0 -0.00000000000E+00 -0.00000000000E+00 -0.45593999997E+02  0.45594000000E+02  0.51100000000E-03 0. -1.
    9900012    2    1    2    0    0  0.33352010419E+02 -0.22518482704E+02 -0.58072156020E+01  0.50528899969E+02  0.30000121944E+02 0.  0.
         12    1    1    2    0    0 -0.33352010419E+02  0.22518482704E+02  0.58072156020E+01  0.40659100031E+02  0.00000000000E+00 0. -1.
         11    1    3    3    0    0  0.87286357780E+01  0.61534102610E+01 -0.45717928737E+01  0.11617006100E+02  0.51100000000E-03 0. -1.
        -11    1    3    3    0    0  0.12267110931E+02 -0.20526578090E+02 -0.25795637214E+01  0.24051539825E+02  0.51100000000E-03 0.  1.
         12    1    3    3    0    0  0.12356263711E+02 -0.81453148749E+01  0.13441409932E+01  0.14860354044E+02  0.00000000000E+00 0. -1.
</event>
<event>
 7    1  0.5897985E-013  0.5052886E+02  0.7816164E-02  0.1300439E+00
        -11   -1    0    0    0    0  0.00000000000E+00  0.00000000000E+00  0.45593999997E+02  0.45594000000E+02  0.51100000000E-03 0.  1.
         11   -1    0    0    0    0 -0.00000000000E+00 -0.00000000000E+00 -0.45593999997E+02  0.45594000000E+02  0.51100000000E-03 0. -1.
    9900012    2    1    2    0    0 -0.35234029802E+02 -0.15585498692E+02  0.12993124892E+02  0.50528856870E+02  0.29999990943E+02 0.  0.
         12    1    1    2    0    0  0.35234029802E+02  0.15585498692E+02 -0.12993124892E+02  0.40659143130E+02  0.00000000000E+00 0. -1.
         11    1    3    3    0    0 -0.15829741200E+02 -0.17687014890E+02 -0.45380503623E+01  0.24166197539E+02  0.51100000000E-03 0. -1.
        -11    1    3    3    0    0 -0.90140526654E+01  0.13103332842E+01  0.98579673221E+01  0.13421983414E+02  0.51100000000E-03 0.  1.
         12    1    3    3    0    0 -0.10390235937E+02  0.79118291385E+00  0.76732079322E+01  0.12940675917E+02  0.00000000000E+00 0. -1.
</event>
<event>
 7    1  0.5897985E-013  0.5052883E+02  0.7816164E-02  0.1300439E+00
        -11   -1    0    0    0    0  0.00000000000E+00  0.00000000000E+00  0.45593999997E+02  0.45594000000E+02  0.51100000000E-03 0.  1.
         11   -1    0    0    0    0 -0.00000000000E+00 -0.00000000000E+00 -0.45593999997E+02  0.45594000000E+02  0.51100000000E-03 0. -1.
    9900012    2    1    2    0    0 -0.39465164764E+01 -0.13889928049E+02  0.38008722987E+02  0.50528829858E+02  0.29999908837E+02 0.  0.
         12    1    1    2    0    0  0.39465164764E+01  0.13889928049E+02 -0.38008722987E+02  0.40659170142E+02  0.00000000000E+00 0. -1.
         11    1    3    3    0    0 -0.11407426366E+02  0.44384544014E+01  0.21316964768E+02  0.24581339283E+02  0.51100000000E-03 0. -1.
        -11    1    3    3    0    0  0.21039234087E+01 -0.70608035320E+01  0.67945334561E+01  0.10022331334E+02  0.51100000000E-03 0.  1.
         12    1    3    3    0    0  0.53569864809E+01 -0.11267578919E+02  0.98972247630E+01  0.15925159241E+02  0.00000000000E+00 0. -1.
</event>
<event>
 7    1  0.5897985E-013  0.5052888E+02  0.7816164E-02  0.1300439E+00
        -11   -1    0    0    0    0  0.00000000000E+00  0.00000000000E+00  0.45593999997E+02  0.45594000000E+02  0.51100000000E-03 0.  1.
         11   -1    0    0    0    0 -0.00000000000E+00 -0.00000000000E+00 -0.45593999997E+02  0.45594000000E+02  0.51100000000E-03 0. -1.
    9900012    2    1    2    0    0  0.28402664605E+02  0.17061547842E+01  0.29043796189E+02  0.50528875343E+02  0.30000047093E+02 0.  0.
         12    1    1    2    0    0 -0.28402664605E+02 -0.17061547842E+01 -0.29043796189E+02  0.40659124657E+02  0.00000000000E+00 0. -1.
         11    1    3    3    0    0  0.92760119235E+00  0.39105462390E+01 -0.15290431175E+01  0.43000917404E+01  0.51100000000E-03 0. -1.
        -11    1    3    3    0    0  0.19993061192E+02 -0.11207913526E+02  0.21382977701E+02  0.31345997465E+02  0.51100000000E-03 0.  1.
        -12    1    3    3    0    0  0.74820022203E+01  0.90035220708E+01  0.91898616056E+01  0.14882786138E+02  0.00000000000E+00 0.  1.
</event>
<event>
 7    1  0.5897985E-013  0.5052886E+02  0.7816164E-02  0.1300439E+00
        -11   -1    0    0    0    0  0.00000000000E+00  0.00000000000E+00  0.45593999997E+02  0.45594000000E+02  0.51100000000E-03 0.  1.
         11   -1    0    0    0    0 -0.00000000000E+00 -0.00000000000E+00 -0.45593999997E+02  0.45594000000E+02  0.51100000000E-03 0. -1.
    9900012    2    1    2    0    0 -0.13144374957E+02  0.18381920217E+02  0.33800832154E+02  0.50528857877E+02  0.29999994001E+02 0.  0.
         12    1    1    2    0    0  0.13144374957E+02 -0.18381920217E+02 -0.33800832154E+02  0.40659142123E+02  0.00000000000E+00 0. -1.
         11    1    3    3    0    0 -0.75813766316E+01  0.20527591097E+02  0.76141042561E+01  0.23169675262E+02  0.51100000000E-03 0. -1.
        -11    1    3    3    0    0  0.73513433226E+00 -0.70943616627E+00  0.78842657787E+01  0.79501804565E+01  0.51100000000E-03 0.  1.
         12    1    3    3    0    0 -0.62981326576E+01 -0.14362347132E+01  0.18302462120E+02  0.19409002158E+02  0.00000000000E+00 0. -1.
</event>
<event>
 7    1  0.5897985E-013  0.5052886E+02  0.7816164E-02  0.1300439E+00
        -11   -1    0    0    0    0  0.00000000000E+00  0.00000000000E+00  0.45593999997E+02  0.45594000000E+02  0.51100000000E-03 0.  1.
         11   -1    0    0    0    0 -0.00000000000E+00 -0.00000000000E+00 -0.45593999997E+02  0.45594000000E+02  0.51100000000E-03 0. -1.
    9900012    2    1    2    0    0 -0.84200859171E+00  0.38245045312E+02  0.13775829540E+02  0.50528856515E+02  0.29999989863E+02 0.  0.
         12    1    1    2    0    0  0.84200859171E+00 -0.38245045312E+02 -0.13775829540E+02  0.40659143485E+02  0.00000000000E+00 0. -1.
         11    1    3    3    0    0 -0.59638242482E+01  0.61560114074E+00  0.58782504987E+01  0.83964274317E+01  0.51100000000E-03 0. -1.
        -11    1    3    3    0    0  0.46980318455E+01  0.22956803037E+02  0.12744530147E+02  0.26674132747E+02  0.51100000000E-03 0.  1.
         12    1    3    3    0    0  0.42378381101E+00  0.14672641135E+02 -0.48469511059E+01  0.15458296336E+02  0.00000000000E+00 0. -1.
</event>
<event>
 7    1  0.5897985E-013  0.5052888E+02  0.7816164E-02  0.1300439E+00
        -11   -1    0    0    0    0  0.00000000000E+00  0.00000000000E+00  0.45593999997E+02  0.45594000000E+02  0.51100000000E-03 0.  1.
         11   -1    0    0    0    0 -0.00000000000E+00 -0.00000000000E+00 -0.45593999997E+02  0.45594000000E+02  0.51100000000E-03 0. -1.
    9900012    2    1    2    0    0 -0.17907892061E+02 -0.12617057785E+02  0.34253195927E+02  0.50528878312E+02  0.30000056116E+02 0.  0.
         12    1    1    2    0    0  0.17907892061E+02  0.12617057785E+02 -0.34253195927E+02  0.40659121688E+02  0.00000000000E+00 0. -1.
         11    1    3    3    0    0 -0.47199473338E+01 -0.16502255991E+02  0.79458900687E+01  0.18914003407E+02  0.51100000000E-03 0.  1.
        -11    1    3    3    0    0 -0.60969811961E+01  0.74251278279E+01  0.14537253635E+02  0.17425195737E+02  0.51100000000E-03 0. -1.
        -12    1    3    3    0    0 -0.70909635315E+01 -0.35399296220E+01  0.11770052224E+02  0.14189679168E+02  0.00000000000E+00 0.  1.
</event>
<event>
 7    1  0.5897985E-013  0.5052886E+02  0.7816164E-02  0.1300439E+00
        -11   -1    0    0    0    0  0.00000000000E+00  0.00000000000E+00  0.45593999997E+02  0.45594000000E+02  0.51100000000E-03 0. -1.
         11   -1    0    0    0    0 -0.00000000000E+00 -0.00000000000E+00 -0.45593999997E+02  0.45594000000E+02  0.51100000000E-03 0.  1.
    9900012    2    1    2    0    0  0.32279736018E+02 -0.20938926158E+02  0.13143270323E+02  0.50528861534E+02  0.30000005118E+02 0.  0.
         12    1    1    2    0    0 -0.32279736018E+02  0.20938926158E+02 -0.13143270323E+02  0.40659138466E+02  0.00000000000E+00 0. -1.
         11    1    3    3    0    0  0.27931118769E+02 -0.25292460794E+02  0.13436515356E+02  0.40004948617E+02  0.51100000000E-03 0. -1.
        -11    1    3    3    0    0 -0.12563325299E+01 -0.28319270492E+00 -0.25926491028E+01  0.28948919090E+01  0.51100000000E-03 0.  1.
         12    1    3    3    0    0  0.56049497792E+01  0.46367273410E+01  0.22994040694E+01  0.76290210077E+01  0.00000000000E+00 0. -1.
</event>
<event>
 7    1  0.5897985E-013  0.5052885E+02  0.7816164E-02  0.1300439E+00
        -11   -1    0    0    0    0  0.00000000000E+00  0.00000000000E+00  0.45593999997E+02  0.45594000000E+02  0.51100000000E-03 0. -1.
         11   -1    0    0    0    0 -0.00000000000E+00 -0.00000000000E+00 -0.45593999997E+02  0.45594000000E+02  0.51100000000E-03 0.  1.
    9900012    2    1    2    0    0 -0.19183971056E+02  0.35426898225E+02  0.54842105082E+01  0.50528850621E+02  0.29999971947E+02 0.  0.
         12    1    1    2    0    0  0.19183971056E+02 -0.35426898225E+02 -0.54842105082E+01  0.40659149379E+02  0.00000000000E+00 0. -1.
         11    1    3    3    0    0 -0.18495181666E+01  0.15287570190E+02 -0.10442596209E+02  0.18605868311E+02  0.51100000000E-03 0. -1.
        -11    1    3    3    0    0 -0.15441574706E+02  0.16507089965E+02  0.99959977961E+01  0.24715303371E+02  0.51100000000E-03 0.  1.
         12    1    3    3    0    0 -0.18928781829E+01  0.36322380705E+01  0.59308089215E+01  0.72076789384E+01  0.00000000000E+00 0. -1.
</event>
<event>
 7    1  0.5897985E-013  0.5052886E+02  0.7816164E-02  0.1300439E+00
        -11   -1    0    0    0    0  0.00000000000E+00  0.00000000000E+00  0.45593999997E+02  0.45594000000E+02  0.51100000000E-03 0.  1.
         11   -1    0    0    0    0 -0.00000000000E+00 -0.00000000000E+00 -0.45593999997E+02  0.45594000000E+02  0.51100000000E-03 0. -1.
    9900012    2    1    2    0    0 -0.29424585489E+02 -0.19105166452E+02  0.20551197497E+02  0.50528864065E+02  0.30000012813E+02 0.  0.
         12    1    1    2    0    0  0.29424585489E+02  0.19105166452E+02 -0.20551197497E+02  0.40659135935E+02  0.00000000000E+00 0. -1.
         11    1    3    3    0    0  0.19466698161E+01 -0.75327646540E+01  0.82063553215E-01  0.77806684413E+01  0.51100000000E-03 0. -1.
        -11    1    3    3    0    0 -0.27766035782E+02 -0.15774106603E+02  0.16573369836E+02  0.35978490382E+02  0.51100000000E-03 0.  1.
        -12    1    3    3    0    0 -0.36052195234E+01  0.42017048052E+01  0.38957641081E+01  0.67697052423E+01  0.00000000000E+00 0.  1.
</event>
<event>
 7    1  0.5897985E-013  0.5052884E+02  0.7816164E-02  0.1300439E+00
        -11   -1    0    0    0    0  0.00000000000E+00  0.00000000000E+00  0.45593999997E+02  0.45594000000E+02  0.51100000000E-03 0.  1.
         11   -1    0    0    0    0 -0.00000000000E+00 -0.00000000000E+00 -0.45593999997E+02  0.45594000000E+02  0.51100000000E-03 0. -1.
    9900012    2    1    2    0    0  0.36695414480E+00 -0.60007031084E+01  0.40212242181E+02  0.50528837264E+02  0.29999931349E+02 0.  0.
         12    1    1    2    0    0 -0.36695414480E+00  0.60007031084E+01 -0.40212242181E+02  0.40659162736E+02  0.00000000000E+00 0. -1.
         11    1    3    3    0    0 -0.13735229278E+02 -0.26452891478E+01  0.14350259326E+02  0.20039561397E+02  0.51100000000E-03 0. -1.
        -11    1    3    3    0    0  0.10027770122E+02 -0.27522959028E+01  0.23601963581E+02  0.25791161112E+02  0.51100000000E-03 0.  1.
         12    1    3    3    0    0  0.40744133009E+01 -0.60311805777E+00  0.22600192742E+01  0.46981147557E+01  0.00000000000E+00 0. -1.
</event>
<event>
 7    1  0.5897985E-013  0.5052886E+02  0.7816164E-02  0.1300439E+00
        -11   -1    0    0    0    0  0.00000000000E+00  0.00000000000E+00  0.45593999997E+02  0.45594000000E+02  0.51100000000E-03 0.  1.
         11   -1    0    0    0    0 -0.00000000000E+00 -0.00000000000E+00 -0.45593999997E+02  0.45594000000E+02  0.51100000000E-03 0. -1.
    9900012    2    1    2    0    0  0.22329955673E+02  0.18557472466E+02  0.28463293018E+02  0.50528858911E+02  0.29999997145E+02 0.  0.
         12    1    1    2    0    0 -0.22329955673E+02 -0.18557472466E+02 -0.28463293018E+02  0.40659141089E+02  0.00000000000E+00 0. -1.
         11    1    3    3    0    0  0.14074438306E+02  0.88093704925E+01  0.78997652288E+00  0.16622842274E+02  0.51100000000E-03 0. -1.
        -11    1    3    3    0    0  0.30245556065E+01  0.77380938090E+01  0.27014932254E+02  0.28263626755E+02  0.51100000000E-03 0.  1.
        -12    1    3    3    0    0  0.52309617606E+01  0.20100081647E+01  0.65838424132E+00  0.56423898813E+01  0.00000000000E+00 0.  1.
</event>
<event>
 7    1  0.5897985E-013  0.5052886E+02  0.7816164E-02  0.1300439E+00
        -11   -1    0    0    0    0  0.00000000000E+00  0.00000000000E+00  0.45593999997E+02  0.45594000000E+02  0.51100000000E-03 0.  1.
         11   -1    0    0    0    0 -0.00000000000E+00 -0.00000000000E+00 -0.45593999997E+02  0.45594000000E+02  0.51100000000E-03 0. -1.
    9900012    2    1    2    0    0  0.71540880499E+01 -0.31772442237E+02  0.24341258446E+02  0.50528856818E+02  0.29999990785E+02 0.  0.
         12    1    1    2    0    0 -0.71540880499E+01  0.31772442237E+02 -0.24341258446E+02  0.40659143182E+02  0.00000000000E+00 0. -1.
         11    1    3    3    0    0 -0.53331705392E+01 -0.91682613254E+01  0.11840096486E+02  0.15896150754E+02  0.51100000000E-03 0. -1.
        -11    1    3    3    0    0  0.12789828906E+02 -0.36095342848E+01  0.46957196427E+01  0.14094617569E+02  0.51100000000E-03 0.  1.
        -12    1    3    3    0    0 -0.30257031667E+00 -0.18994646627E+02  0.78054423171E+01  0.20538088496E+02  0.00000000000E+00 0.  1.
</event>
<event>
 7    1  0.5897985E-013  0.5052882E+02  0.7816164E-02  0.1300439E+00
        -11   -1    0    0    0    0  0.00000000000E+00  0.00000000000E+00  0.45593999997E+02  0.45594000000E+02  0.51100000000E-03 0.  1.
         11   -1    0    0    0    0 -0.00000000000E+00 -0.00000000000E+00 -0.45593999997E+02  0.45594000000E+02  0.51100000000E-03 0. -1.
    9900012    2    1    2    0    0 -0.54024088448E+01  0.16621749848E+02  0.36711039726E+02  0.50528818662E+02  0.29999874804E+02 0.  0.
         12    1    1    2    0    0  0.54024088448E+01 -0.16621749848E+02 -0.36711039726E+02  0.40659181338E+02  0.00000000000E+00 0. -1.
         11    1    3    3    0    0 -0.13442916377E+02  0.12690777557E+02  0.85918042010E+01  0.20385949461E+02  0.51100000000E-03 0. -1.
        -11    1    3    3    0    0  0.59047163510E+01  0.55605536747E+01  0.22425080199E+02  0.23846795478E+02  0.51100000000E-03 0.  1.
         12    1    3    3    0    0  0.21357911810E+01 -0.16295813839E+01  0.56941553259E+01  0.62960737234E+01  0.00000000000E+00 0. -1.
</event>
<event>
 7    1  0.5897985E-013  0.5052886E+02  0.7816164E-02  0.1300439E+00
        -11   -1    0    0    0    0  0.00000000000E+00  0.00000000000E+00  0.45593999997E+02  0.45594000000E+02  0.51100000000E-03 0. -1.
         11   -1    0    0    0    0 -0.00000000000E+00 -0.00000000000E+00 -0.45593999997E+02  0.45594000000E+02  0.51100000000E-03 0.  1.
    9900012    2    1    2    0    0 -0.16569848815E+02 -0.21251323350E+02 -0.30446460446E+02  0.50528860959E+02  0.30000003371E+02 0.  0.
         12    1    1    2    0    0  0.16569848815E+02  0.21251323350E+02  0.30446460446E+02  0.40659139041E+02  0.00000000000E+00 0. -1.
         11    1    3    3    0    0 -0.85711881150E+01 -0.17112406502E+01  0.37363001021E+01  0.95054483839E+01  0.51100000000E-03 0. -1.
        -11    1    3    3    0    0 -0.95349466145E+01 -0.14756386593E+02 -0.24999406893E+02  0.30555465918E+02  0.51100000000E-03 0.  1.
         12    1    3    3    0    0  0.15362859146E+01 -0.47836961068E+01 -0.91833536554E+01  0.10467946657E+02  0.00000000000E+00 0. -1.
</event>
<event>
 7    1  0.5897985E-013  0.5052887E+02  0.7816164E-02  0.1300439E+00
        -11   -1    0    0    0    0  0.00000000000E+00  0.00000000000E+00  0.45593999997E+02  0.45594000000E+02  0.51100000000E-03 0.  1.
         11   -1    0    0    0    0 -0.00000000000E+00 -0.00000000000E+00 -0.45593999997E+02  0.45594000000E+02  0.51100000000E-03 0. -1.
    9900012    2    1    2    0    0 -0.75202863258E+01  0.37533753146E+02  0.13705028389E+02  0.50528866526E+02  0.30000020294E+02 0.  0.
         12    1    1    2    0    0  0.75202863258E+01 -0.37533753146E+02 -0.13705028389E+02  0.40659133474E+02  0.00000000000E+00 0. -1.
         11    1    3    3    0    0 -0.78419325015E+01  0.48876914854E+01  0.70116974408E+01  0.11599540279E+02  0.51100000000E-03 0. -1.
        -11    1    3    3    0    0  0.76009372883E+01  0.54644765326E+01 -0.18067924505E+01  0.95341098513E+01  0.51100000000E-03 0.  1.
        -12    1    3    3    0    0 -0.72792911126E+01  0.27181585128E+02  0.85001233987E+01  0.29395216396E+02  0.00000000000E+00 0.  1.
</event>
<event>
 7    1  0.5897985E-013  0.5052886E+02  0.7816164E-02  0.1300439E+00
        -11   -1    0    0    0    0  0.00000000000E+00  0.00000000000E+00  0.45593999997E+02  0.45594000000E+02  0.51100000000E-03 0.  1.
         11   -1    0    0    0    0 -0.00000000000E+00 -0.00000000000E+00 -0.45593999997E+02  0.45594000000E+02  0.51100000000E-03 0. -1.
    9900012    2    1    2    0    0 -0.37499653622E+02 -0.15703964180E+02 -0.57221913123E+00  0.50528856533E+02  0.29999989918E+02 0.  0.
         12    1    1    2    0    0  0.37499653622E+02  0.15703964180E+02  0.57221913123E+00  0.40659143467E+02  0.00000000000E+00 0. -1.
         11    1    3    3    0    0 -0.49774385555E+00  0.14607869102E+01  0.72833160398E+01  0.74450211644E+01  0.51100000000E-03 0. -1.
        -11    1    3    3    0    0 -0.24041684152E+02 -0.12689413758E+02  0.19155524751E+00  0.27185667033E+02  0.51100000000E-03 0.  1.
         12    1    3    3    0    0 -0.12960225614E+02 -0.44753373327E+01 -0.80470904185E+01  0.15898168335E+02  0.00000000000E+00 0. -1.
</event>
<event>
 7    1  0.5897985E-013  0.5052886E+02  0.7816164E-02  0.1300439E+00
        -11   -1    0    0    0    0  0.00000000000E+00  0.00000000000E+00  0.45593999997E+02  0.45594000000E+02  0.51100000000E-03 0. -1.
         11   -1    0    0    0    0 -0.00000000000E+00 -0.00000000000E+00 -0.45593999997E+02  0.45594000000E+02  0.51100000000E-03 0.  1.
    9900012    2    1    2    0    0 -0.49231159898E+01 -0.36039943553E+02 -0.18167305355E+02  0.50528860975E+02  0.30000003420E+02 0.  0.
         12    1    1    2    0    0  0.49231159898E+01  0.36039943553E+02  0.18167305355E+02  0.40659139025E+02  0.00000000000E+00 0. -1.
         11    1    3    3    0    0  0.72804701170E+00  0.70612565288E+00  0.32039574438E+01  0.33606561043E+01  0.51100000000E-03 0. -1.
        -11    1    3    3    0    0 -0.96136803150E+01 -0.31251306317E+02 -0.10467421617E+02  0.34331238127E+02  0.51100000000E-03 0.  1.
        -12    1    3    3    0    0  0.39625173135E+01 -0.54947628888E+01 -0.10903841182E+02  0.12836966744E+02  0.00000000000E+00 0.  1.
</event>
<event>
 7    1  0.5897985E-013  0.5052886E+02  0.7816164E-02  0.1300439E+00
        -11   -1    0    0    0    0  0.00000000000E+00  0.00000000000E+00  0.45593999997E+02  0.45594000000E+02  0.51100000000E-03 0. -1.
         11   -1    0    0    0    0 -0.00000000000E+00 -0.00000000000E+00 -0.45593999997E+02  0.45594000000E+02  0.51100000000E-03 0.  1.
    9900012    2    1    2    0    0 -0.36091734314E+02 -0.80111145664E+01 -0.16922601731E+02  0.50528859678E+02  0.29999999478E+02 0.  0.
         12    1    1    2    0    0  0.36091734314E+02  0.80111145664E+01  0.16922601731E+02  0.40659140322E+02  0.00000000000E+00 0. -1.
         11    1    3    3    0    0 -0.10312491510E+02  0.41222101189E+00  0.68576819883E+01  0.12391336079E+02  0.51100000000E-03 0. -1.
        -11    1    3    3    0    0 -0.17153464547E+02 -0.53256246864E+01 -0.75194673238E+01  0.19471672074E+02  0.51100000000E-03 0.  1.
         12    1    3    3    0    0 -0.86257782567E+01 -0.30977108918E+01 -0.16260816396E+02  0.18665851525E+02  0.00000000000E+00 0. -1.
</event>
<event>
 7    1  0.5897985E-013  0.5052886E+02  0.7816164E-02  0.1300439E+00
        -11   -1    0    0    0    0  0.00000000000E+00  0.00000000000E+00  0.45593999997E+02  0.45594000000E+02  0.51100000000E-03 0. -1.
         11   -1    0    0    0    0 -0.00000000000E+00 -0.00000000000E+00 -0.45593999997E+02  0.45594000000E+02  0.51100000000E-03 0.  1.
    9900012    2    1    2    0    0 -0.13651549120E+02  0.37651668803E+02  0.70108704276E+01  0.50528864973E+02  0.30000015571E+02 0.  0.
         12    1    1    2    0    0  0.13651549120E+02 -0.37651668803E+02 -0.70108704276E+01  0.40659135027E+02  0.00000000000E+00 0. -1.
         11    1    3    3    0    0 -0.30196018606E+01 -0.44523376615E+01 -0.63919791717E+00  0.54175529796E+01  0.51100000000E-03 0. -1.
        -11    1    3    3    0    0 -0.12222315365E+02  0.32601290933E+02  0.56868946634E+01  0.35278462758E+02  0.51100000000E-03 0.  1.
        -12    1    3    3    0    0  0.15903681055E+01  0.95027155311E+01  0.19631736814E+01  0.98328492351E+01  0.00000000000E+00 0.  1.
</event>
<event>
 7    1  0.5897985E-013  0.5052886E+02  0.7816164E-02  0.1300439E+00
        -11   -1    0    0    0    0  0.00000000000E+00  0.00000000000E+00  0.45593999997E+02  0.45594000000E+02  0.51100000000E-03 0. -1.
         11   -1    0    0    0    0 -0.00000000000E+00 -0.00000000000E+00 -0.45593999997E+02  0.45594000000E+02  0.51100000000E-03 0.  1.
    9900012    2    1    2    0    0  0.87755142118E+01 -0.23821524481E+02 -0.31759897717E+02  0.50528858577E+02  0.29999996130E+02 0.  0.
         12    1    1    2    0    0 -0.87755142118E+01  0.23821524481E+02  0.31759897717E+02  0.40659141423E+02  0.00000000000E+00 0. -1.
         11    1    3    3    0    0  0.54692697742E+00 -0.19447494353E+02 -0.10992220960E+02  0.22345762185E+02  0.51100000000E-03 0. -1.
        -11    1    3    3    0    0  0.96548131333E+00 -0.65146696042E+01 -0.19401549083E+02  0.20488855051E+02  0.51100000000E-03 0.  1.
         12    1    3    3    0    0  0.72631059211E+01  0.21406394765E+01 -0.13661276735E+01  0.76942413407E+01  0.00000000000E+00 0. -1.
</event>
<event>
 7    1  0.5897985E-013  0.5052886E+02  0.7816164E-02  0.1300439E+00
        -11   -1    0    0    0    0  0.00000000000E+00  0.00000000000E+00  0.45593999997E+02  0.45594000000E+02  0.51100000000E-03 0.  1.
         11   -1    0    0    0    0 -0.00000000000E+00 -0.00000000000E+00 -0.45593999997E+02  0.45594000000E+02  0.51100000000E-03 0. -1.
    9900012    2    1    2    0    0  0.12270930033E+02 -0.25859899996E+02  0.28876552254E+02  0.50528862998E+02  0.30000009568E+02 0.  0.
         12    1    1    2    0    0 -0.12270930033E+02  0.25859899996E+02 -0.28876552254E+02  0.40659137002E+02  0.00000000000E+00 0. -1.
         11    1    3    3    0    0  0.12609615337E+02 -0.18493411833E+02  0.23796349562E+02  0.32669174047E+02  0.51100000000E-03 0. -1.
        -11    1    3    3    0    0  0.36766141732E+00 -0.10788092028E+02 -0.10068890508E+01  0.10841214431E+02  0.51100000000E-03 0.  1.
         12    1    3    3    0    0 -0.70634672154E+00  0.34216038648E+01  0.60870917428E+01  0.70184745198E+01  0.00000000000E+00 0. -1.
</event>
<event>
 7    1  0.5897985E-013  0.5052886E+02  0.7816164E-02  0.1300439E+00
        -11   -1    0    0    0    0  0.00000000000E+00  0.00000000000E+00  0.45593999997E+02  0.45594000000E+02  0.51100000000E-03 0. -1.
         11   -1    0    0    0    0 -0.00000000000E+00 -0.00000000000E+00 -0.45593999997E+02  0.45594000000E+02  0.51100000000E-03 0.  1.
    9900012    2    1    2    0    0  0.15509095684E+01  0.32073974021E+02 -0.24940338619E+02  0.50528860555E+02  0.30000002142E+02 0.  0.
         12    1    1    2    0    0 -0.15509095684E+01 -0.32073974021E+02  0.24940338619E+02  0.40659139445E+02  0.00000000000E+00 0. -1.
         11    1    3    3    0    0  0.83161383558E+01  0.15100684309E+02 -0.11973336868E+02  0.20989273922E+02  0.51100000000E-03 0.  1.
        -11    1    3    3    0    0 -0.10990247254E+02  0.54623046521E+01 -0.12119717384E+02  0.17248474035E+02  0.51100000000E-03 0. -1.
         12    1    3    3    0    0  0.42250184665E+01  0.11510985060E+02 -0.84728436784E+00  0.12291112598E+02  0.00000000000E+00 0. -1.
</event>
<event>
 7    1  0.5897985E-013  0.5052886E+02  0.7816164E-02  0.1300439E+00
        -11   -1    0    0    0    0  0.00000000000E+00  0.00000000000E+00  0.45593999997E+02  0.45594000000E+02  0.51100000000E-03 0. -1.
         11   -1    0    0    0    0 -0.00000000000E+00 -0.00000000000E+00 -0.45593999997E+02  0.45594000000E+02  0.51100000000E-03 0.  1.
    9900012    2    1    2    0    0 -0.13208430039E+02 -0.25113600329E+02 -0.29120616521E+02  0.50528857705E+02  0.29999993481E+02 0.  0.
         12    1    1    2    0    0  0.13208430039E+02  0.25113600329E+02  0.29120616521E+02  0.40659142295E+02  0.00000000000E+00 0. -1.
         11    1    3    3    0    0 -0.83387632001E+01 -0.28028426729E+01 -0.13723291240E+02  0.16300908609E+02  0.51100000000E-03 0.  1.
        -11    1    3    3    0    0  0.57641773848E+01 -0.15390080390E+01  0.50769991288E+00  0.59876578167E+01  0.51100000000E-03 0. -1.
         12    1    3    3    0    0 -0.10633844224E+02 -0.20771749617E+02 -0.15905025194E+02  0.28240291280E+02  0.00000000000E+00 0. -1.
</event>
<event>
 7    1  0.5897985E-013  0.5052890E+02  0.7816164E-02  0.1300439E+00
        -11   -1    0    0    0    0  0.00000000000E+00  0.00000000000E+00  0.45593999997E+02  0.45594000000E+02  0.51100000000E-03 0.  1.
         11   -1    0    0    0    0 -0.00000000000E+00 -0.00000000000E+00 -0.45593999997E+02  0.45594000000E+02  0.51100000000E-03 0. -1.
    9900012    2    1    2    0    0 -0.20684305748E+02  0.13975575642E+02  0.32093689591E+02  0.50528903473E+02  0.30000132598E+02 0.  0.
         12    1    1    2    0    0  0.20684305748E+02 -0.13975575642E+02 -0.32093689591E+02  0.40659096527E+02  0.00000000000E+00 0. -1.
         11    1    3    3    0    0 -0.11565592053E+02 -0.49426549955E+01  0.20714855762E+02  0.24234232141E+02  0.51100000000E-03 0. -1.
        -11    1    3    3    0    0 -0.96877411091E+01  0.14885206883E+02  0.45340486550E+01  0.18329738384E+02  0.51100000000E-03 0.  1.
        -12    1    3    3    0    0  0.56902741480E+00  0.40330237546E+01  0.68447851741E+01  0.79649329492E+01  0.00000000000E+00 0.  1.
</event>
<event>
 7    1  0.8392190E-013  0.5052887E+02  0.7816164E-02  0.1300439E+00
        -11   -1    0    0    0    0  0.00000000000E+00  0.00000000000E+00  0.45593999997E+02  0.45594000000E+02  0.51100000000E-03 0. -1.
         11   -1    0    0    0    0 -0.00000000000E+00 -0.00000000000E+00 -0.45593999997E+02  0.45594000000E+02  0.51100000000E-03 0.  1.
    9900012    2    1    2    0    0  0.14650556333E+01 -0.40627070397E+02  0.67798824294E+00  0.50528869351E+02  0.30000028880E+02 0.  0.
         12    1    1    2    0    0 -0.14650556333E+01  0.40627070397E+02 -0.67798824294E+00  0.40659130649E+02  0.00000000000E+00 0. -1.
         11    1    3    3    0    0 -0.90944497280E+00 -0.69531621584E+01 -0.91152935635E+01  0.11500527430E+02  0.51100000000E-03 0.  1.
        -11    1    3    3    0    0 -0.48419876357E+01 -0.17910006107E+02  0.11137273628E+02  0.21639131848E+02  0.51100000000E-03 0. -1.
        -12    1    3    3    0    0  0.72164882418E+01 -0.15763902131E+02 -0.13439918214E+01  0.17389210073E+02  0.00000000000E+00 0.  1.
</event>
<event>
 7    1  0.5897985E-013  0.5052886E+02  0.7816164E-02  0.1300439E+00
        -11   -1    0    0    0    0  0.00000000000E+00  0.00000000000E+00  0.45593999997E+02  0.45594000000E+02  0.51100000000E-03 0. -1.
         11   -1    0    0    0    0 -0.00000000000E+00 -0.00000000000E+00 -0.45593999997E+02  0.45594000000E+02  0.51100000000E-03 0.  1.
    9900012    2    1    2    0    0  0.23747245970E+02 -0.24917768391E+02 -0.21641129952E+02  0.50528863531E+02  0.30000011189E+02 0.  0.
         12    1    1    2    0    0 -0.23747245970E+02  0.24917768391E+02  0.21641129952E+02  0.40659136469E+02  0.00000000000E+00 0. -1.
         11    1    3    3    0    0 -0.23595195825E+01 -0.60834956379E+01 -0.12604571519E+00  0.65262653654E+01  0.51100000000E-03 0. -1.
        -11    1    3    3    0    0  0.25266393165E+02 -0.81651399320E+01 -0.10245491593E+02  0.28461030057E+02  0.51100000000E-03 0.  1.
        -12    1    3    3    0    0  0.84037238806E+00 -0.10669132821E+02 -0.11269592644E+02  0.15541568108E+02  0.00000000000E+00 0.  1.
</event>
<event>
 7    1  0.5897985E-013  0.5052887E+02  0.7816164E-02  0.1300439E+00
        -11   -1    0    0    0    0  0.00000000000E+00  0.00000000000E+00  0.45593999997E+02  0.45594000000E+02  0.51100000000E-03 0.  1.
         11   -1    0    0    0    0 -0.00000000000E+00 -0.00000000000E+00 -0.45593999997E+02  0.45594000000E+02  0.51100000000E-03 0. -1.
    9900012    2    1    2    0    0  0.25879775832E+01 -0.38155993681E+02  0.13805340025E+02  0.50528869476E+02  0.30000029260E+02 0.  0.
         12    1    1    2    0    0 -0.25879775832E+01  0.38155993681E+02 -0.13805340025E+02  0.40659130524E+02  0.00000000000E+00 0. -1.
         11    1    3    3    0    0  0.30610029580E+01 -0.84183505351E+01  0.35991539227E+00  0.89648147885E+01  0.51100000000E-03 0. -1.
        -11    1    3    3    0    0 -0.48121318837E+01 -0.17947083594E+02  0.20078502932E+02  0.27356913259E+02  0.51100000000E-03 0.  1.
        -12    1    3    3    0    0  0.43391065089E+01 -0.11790559551E+02 -0.66330783000E+01  0.14207141428E+02  0.00000000000E+00 0.  1.
</event>
<event>
 7    1  0.5897985E-013  0.5052886E+02  0.7816164E-02  0.1300439E+00
        -11   -1    0    0    0    0  0.00000000000E+00  0.00000000000E+00  0.45593999997E+02  0.45594000000E+02  0.51100000000E-03 0.  1.
         11   -1    0    0    0    0 -0.00000000000E+00 -0.00000000000E+00 -0.45593999997E+02  0.45594000000E+02  0.51100000000E-03 0. -1.
    9900012    2    1    2    0    0  0.40266798226E+02  0.50328024989E+01 -0.25341081310E+01  0.50528857801E+02  0.29999993771E+02 0.  0.
         12    1    1    2    0    0 -0.40266798226E+02 -0.50328024989E+01  0.25341081310E+01  0.40659142199E+02  0.00000000000E+00 0. -1.
         11    1    3    3    0    0 -0.19875227767E+01 -0.51567892004E+01  0.23950122301E+01  0.60231889800E+01  0.51100000000E-03 0. -1.
        -11    1    3    3    0    0  0.14559879850E+02  0.75017030200E+01 -0.10559848347E+01  0.16412822843E+02  0.51100000000E-03 0.  1.
         12    1    3    3    0    0  0.27694441153E+02  0.26878886793E+01 -0.38731355264E+01  0.28092845978E+02  0.00000000000E+00 0. -1.
</event>
<event>
 7    1  0.5897985E-013  0.5052887E+02  0.7816164E-02  0.1300439E+00
        -11   -1    0    0    0    0  0.00000000000E+00  0.00000000000E+00  0.45593999997E+02  0.45594000000E+02  0.51100000000E-03 0.  1.
         11   -1    0    0    0    0 -0.00000000000E+00 -0.00000000000E+00 -0.45593999997E+02  0.45594000000E+02  0.51100000000E-03 0. -1.
    9900012    2    1    2    0    0 -0.37123292175E+01  0.11720235105E+02  0.38755902134E+02  0.50528865118E+02  0.30000016012E+02 0.  0.
         12    1    1    2    0    0  0.37123292175E+01 -0.11720235105E+02 -0.38755902134E+02  0.40659134882E+02  0.00000000000E+00 0. -1.
         11    1    3    3    0    0 -0.89748760495E+01 -0.34105662350E+01  0.10914115301E+02  0.14536102477E+02  0.51100000000E-03 0. -1.
        -11    1    3    3    0    0 -0.14484304951E+01  0.15961903872E+02  0.20269966341E+02  0.25840895144E+02  0.51100000000E-03 0.  1.
         12    1    3    3    0    0  0.67109773271E+01 -0.83110253240E+00  0.75718204928E+01  0.10151867497E+02  0.00000000000E+00 0. -1.
</event>
<event>
 7    1  0.5897985E-013  0.5052886E+02  0.7816164E-02  0.1300439E+00
        -11   -1    0    0    0    0  0.00000000000E+00  0.00000000000E+00  0.45593999997E+02  0.45594000000E+02  0.51100000000E-03 0.  1.
         11   -1    0    0    0    0 -0.00000000000E+00 -0.00000000000E+00 -0.45593999997E+02  0.45594000000E+02  0.51100000000E-03 0. -1.
    9900012    2    1    2    0    0 -0.25543839959E+02 -0.94779649616E+01  0.30180226453E+02  0.50528860210E+02  0.30000001095E+02 0.  0.
         12    1    1    2    0    0  0.25543839959E+02  0.94779649616E+01 -0.30180226453E+02  0.40659139790E+02  0.00000000000E+00 0. -1.
         11    1    3    3    0    0 -0.18985063668E+02  0.25197874729E+01  0.12953168580E+02  0.23120695230E+02  0.51100000000E-03 0.  1.
        -11    1    3    3    0    0 -0.94679148835E+01 -0.13127123076E+02  0.17986282680E+02  0.24196469524E+02  0.51100000000E-03 0. -1.
         12    1    3    3    0    0  0.29091385928E+01  0.11293706418E+01 -0.75922480649E+00  0.32116954565E+01  0.00000000000E+00 0. -1.
</event>
<event>
 7    1  0.5897985E-013  0.5052884E+02  0.7816164E-02  0.1300439E+00
        -11   -1    0    0    0    0  0.00000000000E+00  0.00000000000E+00  0.45593999997E+02  0.45594000000E+02  0.51100000000E-03 0.  1.
         11   -1    0    0    0    0 -0.00000000000E+00 -0.00000000000E+00 -0.45593999997E+02  0.45594000000E+02  0.51100000000E-03 0. -1.
    9900012    2    1    2    0    0 -0.39188244440E+02 -0.12269317468E+01  0.10767707502E+02  0.50528838810E+02  0.29999936047E+02 0.  0.
         12    1    1    2    0    0  0.39188244440E+02  0.12269317468E+01 -0.10767707502E+02  0.40659161190E+02  0.00000000000E+00 0. -1.
         11    1    3    3    0    0 -0.16831248063E+02 -0.68430422039E+01 -0.35079647079E+01  0.18504700879E+02  0.51100000000E-03 0. -1.
        -11    1    3    3    0    0 -0.16953827323E+02  0.11391230248E+02  0.12405293404E+02  0.23897357431E+02  0.51100000000E-03 0.  1.
         12    1    3    3    0    0 -0.54031690540E+01 -0.57751197908E+01  0.18703788055E+01  0.81267805003E+01  0.00000000000E+00 0. -1.
</event>
<event>
 7    1  0.5897985E-013  0.5052882E+02  0.7816164E-02  0.1300439E+00
        -11   -1    0    0    0    0  0.00000000000E+00  0.00000000000E+00  0.45593999997E+02  0.45594000000E+02  0.51100000000E-03 0.  1.
         11   -1    0    0    0    0 -0.00000000000E+00 -0.00000000000E+00 -0.45593999997E+02  0.45594000000E+02  0.51100000000E-03 0. -1.
    9900012    2    1    2    0    0 -0.36905397958E+02 -0.12102949603E+02 -0.12028257440E+02  0.50528821890E+02  0.29999884616E+02 0.  0.
         12    1    1    2    0    0  0.36905397958E+02  0.12102949603E+02  0.12028257440E+02  0.40659178110E+02  0.00000000000E+00 0. -1.
         11    1    3    3    0    0 -0.20526498259E+01  0.26898628494E+01  0.48567145130E+01  0.59191561542E+01  0.51100000000E-03 0. -1.
        -11    1    3    3    0    0 -0.27227609558E+02 -0.17293302709E+02 -0.93038746171E+01  0.33570271431E+02  0.51100000000E-03 0.  1.
        -12    1    3    3    0    0 -0.76251385743E+01  0.25004902560E+01 -0.75810973357E+01  0.11039394305E+02  0.00000000000E+00 0.  1.
</event>
<event>
 7    1  0.5897985E-013  0.5052887E+02  0.7816164E-02  0.1300439E+00
        -11   -1    0    0    0    0  0.00000000000E+00  0.00000000000E+00  0.45593999997E+02  0.45594000000E+02  0.51100000000E-03 0.  1.
         11   -1    0    0    0    0 -0.00000000000E+00 -0.00000000000E+00 -0.45593999997E+02  0.45594000000E+02  0.51100000000E-03 0. -1.
    9900012    2    1    2    0    0  0.33133597383E+02 -0.23191343148E+02 -0.41822353500E+01  0.50528871073E+02  0.30000034114E+02 0.  0.
         12    1    1    2    0    0 -0.33133597383E+02  0.23191343148E+02  0.41822353500E+01  0.40659128927E+02  0.00000000000E+00 0. -1.
         11    1    3    3    0    0  0.12661978039E+02 -0.22297525373E+02 -0.93972426845E+01  0.27309586155E+02  0.51100000000E-03 0. -1.
        -11    1    3    3    0    0  0.15963271646E+02 -0.21318737685E+01 -0.14648803876E+00  0.16105663179E+02  0.51100000000E-03 0.  1.
         12    1    3    3    0    0  0.45083476987E+01  0.12380559938E+01  0.53614953732E+01  0.71136217395E+01  0.00000000000E+00 0. -1.
</event>
<event>
 7    1  0.5897985E-013  0.5052886E+02  0.7816164E-02  0.1300439E+00
        -11   -1    0    0    0    0  0.00000000000E+00  0.00000000000E+00  0.45593999997E+02  0.45594000000E+02  0.51100000000E-03 0.  1.
         11   -1    0    0    0    0 -0.00000000000E+00 -0.00000000000E+00 -0.45593999997E+02  0.45594000000E+02  0.51100000000E-03 0. -1.
    9900012    2    1    2    0    0 -0.13427880889E+02 -0.26689894875E+02  0.27577297690E+02  0.50528858082E+02  0.29999994627E+02 0.  0.
         12    1    1    2    0    0  0.13427880889E+02  0.26689894875E+02 -0.27577297690E+02  0.40659141918E+02  0.00000000000E+00 0. -1.
         11    1    3    3    0    0 -0.66386431629E+01 -0.16382719992E+02  0.68581437913E+00  0.17689981317E+02  0.51100000000E-03 0.  1.
        -11    1    3    3    0    0 -0.45286190908E+01 -0.74495897147E+01  0.27756936686E+02  0.29093853513E+02  0.51100000000E-03 0. -1.
         12    1    3    3    0    0 -0.22606186358E+01 -0.28575851684E+01 -0.86545337586E+00  0.37450232519E+01  0.00000000000E+00 0. -1.
</event>
<event>
 7    1  0.5897985E-013  0.5052884E+02  0.7816164E-02  0.1300439E+00
        -11   -1    0    0    0    0  0.00000000000E+00  0.00000000000E+00  0.45593999997E+02  0.45594000000E+02  0.51100000000E-03 0. -1.
         11   -1    0    0    0    0 -0.00000000000E+00 -0.00000000000E+00 -0.45593999997E+02  0.45594000000E+02  0.51100000000E-03 0.  1.
    9900012    2    1    2    0    0  0.50258096046E+01  0.70749660139E+01 -0.39722198812E+02  0.50528843777E+02  0.29999951146E+02 0.  0.
         12    1    1    2    0    0 -0.50258096046E+01 -0.70749660139E+01  0.39722198812E+02  0.40659156223E+02  0.00000000000E+00 0. -1.
         11    1    3    3    0    0  0.20561760187E+01  0.14389574783E+02 -0.10056819119E+02  0.17675614086E+02  0.51100000000E-03 0. -1.
        -11    1    3    3    0    0 -0.28227749780E+01 -0.61309043731E+01 -0.22873928831E+02  0.23848955269E+02  0.51100000000E-03 0.  1.
         12    1    3    3    0    0  0.57924085639E+01 -0.11837043958E+01 -0.67914508618E+01  0.90042744225E+01  0.00000000000E+00 0. -1.
</event>
<event>
 7    1  0.5897985E-013  0.5052884E+02  0.7816164E-02  0.1300439E+00
        -11   -1    0    0    0    0  0.00000000000E+00  0.00000000000E+00  0.45593999997E+02  0.45594000000E+02  0.51100000000E-03 0.  1.
         11   -1    0    0    0    0 -0.00000000000E+00 -0.00000000000E+00 -0.45593999997E+02  0.45594000000E+02  0.51100000000E-03 0. -1.
    9900012    2    1    2    0    0  0.13873557956E+02  0.13239252457E+02  0.35852666960E+02  0.50528841818E+02  0.29999945188E+02 0.  0.
         12    1    1    2    0    0 -0.13873557956E+02 -0.13239252457E+02 -0.35852666960E+02  0.40659158182E+02  0.00000000000E+00 0. -1.
         11    1    3    3    0    0 -0.55428869706E+00 -0.27944138471E+01  0.22749570582E+02  0.22927253360E+02  0.51100000000E-03 0. -1.
        -11    1    3    3    0    0  0.12800928922E+01  0.29414339524E+01  0.75982830748E+01  0.82477013437E+01  0.51100000000E-03 0.  1.
         12    1    3    3    0    0  0.13147753761E+02  0.13092232352E+02  0.55048133030E+01  0.19353887114E+02  0.00000000000E+00 0. -1.
</event>
<event>
 7    1  0.5897985E-013  0.5052885E+02  0.7816164E-02  0.1300439E+00
        -11   -1    0    0    0    0  0.00000000000E+00  0.00000000000E+00  0.45593999997E+02  0.45594000000E+02  0.51100000000E-03 0.  1.
         11   -1    0    0    0    0 -0.00000000000E+00 -0.00000000000E+00 -0.45593999997E+02  0.45594000000E+02  0.51100000000E-03 0. -1.
    9900012    2    1    2    0    0 -0.25687197568E+02 -0.30085156098E+02  0.93924103154E+01  0.50528854560E+02  0.29999983922E+02 0.  0.
         12    1    1    2    0    0  0.25687197568E+02  0.30085156098E+02 -0.93924103154E+01  0.40659145440E+02  0.00000000000E+00 0. -1.
         11    1    3    3    0    0 -0.76602831382E+01 -0.52698025885E+01 -0.66832785532E+01  0.11450631841E+02  0.51100000000E-03 0. -1.
        -11    1    3    3    0    0 -0.21410817786E+02 -0.22999214964E+02  0.15942046132E+02  0.35235434471E+02  0.51100000000E-03 0.  1.
        -12    1    3    3    0    0  0.33839033561E+01 -0.18161385455E+01  0.13364273640E+00  0.38427882483E+01  0.00000000000E+00 0.  1.
</event>
<event>
 7    1  0.5897985E-013  0.5052886E+02  0.7816164E-02  0.1300439E+00
        -11   -1    0    0    0    0  0.00000000000E+00  0.00000000000E+00  0.45593999997E+02  0.45594000000E+02  0.51100000000E-03 0.  1.
         11   -1    0    0    0    0 -0.00000000000E+00 -0.00000000000E+00 -0.45593999997E+02  0.45594000000E+02  0.51100000000E-03 0. -1.
    9900012    2    1    2    0    0 -0.21748441695E+02 -0.34176382372E+02 -0.34850917944E+01  0.50528859662E+02  0.29999999428E+02 0.  0.
         12    1    1    2    0    0  0.21748441695E+02  0.34176382372E+02  0.34850917944E+01  0.40659140338E+02  0.00000000000E+00 0. -1.
         11    1    3    3    0    0  0.34794554673E+01  0.24902783499E+01 -0.34214041324E+01  0.54785128554E+01  0.51100000000E-03 0. -1.
        -11    1    3    3    0    0 -0.13591126831E+02 -0.23514613993E+02 -0.26951896208E+01  0.27293219802E+02  0.51100000000E-03 0.  1.
         12    1    3    3    0    0 -0.11636770331E+02 -0.13152046729E+02  0.26315019588E+01  0.17757127004E+02  0.00000000000E+00 0. -1.
</event>
<event>
 7    1  0.5897985E-013  0.5052886E+02  0.7816164E-02  0.1300439E+00
        -11   -1    0    0    0    0  0.00000000000E+00  0.00000000000E+00  0.45593999997E+02  0.45594000000E+02  0.51100000000E-03 0.  1.
         11   -1    0    0    0    0 -0.00000000000E+00 -0.00000000000E+00 -0.45593999997E+02  0.45594000000E+02  0.51100000000E-03 0. -1.
    9900012    2    1    2    0    0  0.36861689153E+02  0.10888711246E+02  0.13259630152E+02  0.50528856483E+02  0.29999989765E+02 0.  0.
         12    1    1    2    0    0 -0.36861689153E+02 -0.10888711246E+02 -0.13259630152E+02  0.40659143517E+02  0.00000000000E+00 0. -1.
         11    1    3    3    0    0  0.13471819588E+02 -0.43542800727E+01  0.23456890011E+01  0.14351025577E+02  0.51100000000E-03 0. -1.
        -11    1    3    3    0    0  0.21870259592E+02  0.17127554448E+02  0.30453284468E+01  0.27945221445E+02  0.51100000000E-03 0.  1.
        -12    1    3    3    0    0  0.15196099729E+01 -0.18845631291E+01  0.78686127036E+01  0.82326094609E+01  0.00000000000E+00 0.  1.
</event>
<event>
 7    1  0.5897985E-013  0.5052887E+02  0.7816164E-02  0.1300439E+00
        -11   -1    0    0    0    0  0.00000000000E+00  0.00000000000E+00  0.45593999997E+02  0.45594000000E+02  0.51100000000E-03 0. -1.
         11   -1    0    0    0    0 -0.00000000000E+00 -0.00000000000E+00 -0.45593999997E+02  0.45594000000E+02  0.51100000000E-03 0.  1.
    9900012    2    1    2    0    0  0.12571860651E+02 -0.25434285482E+02 -0.29124048449E+02  0.50528871182E+02  0.30000034444E+02 0.  0.
         12    1    1    2    0    0 -0.12571860651E+02  0.25434285482E+02  0.29124048449E+02  0.40659128818E+02  0.00000000000E+00 0. -1.
         11    1    3    3    0    0  0.19090470702E+02 -0.13715586044E+02 -0.20294240969E+02  0.31055105682E+02  0.51100000000E-03 0. -1.
        -11    1    3    3    0    0 -0.50556610740E+01 -0.16508907061E+01 -0.75281680746E+01  0.92172915675E+01  0.51100000000E-03 0.  1.
         12    1    3    3    0    0 -0.14629489773E+01 -0.10067808732E+02 -0.13016394049E+01  0.10256473932E+02  0.00000000000E+00 0. -1.
</event>
<event>
 7    1  0.5897985E-013  0.5052886E+02  0.7816164E-02  0.1300439E+00
        -11   -1    0    0    0    0  0.00000000000E+00  0.00000000000E+00  0.45593999997E+02  0.45594000000E+02  0.51100000000E-03 0.  1.
         11   -1    0    0    0    0 -0.00000000000E+00 -0.00000000000E+00 -0.45593999997E+02  0.45594000000E+02  0.51100000000E-03 0. -1.
    9900012    2    1    2    0    0  0.21506576086E+02  0.40821593634E+01  0.34263226247E+02  0.50528861878E+02  0.30000006164E+02 0.  0.
         12    1    1    2    0    0 -0.21506576086E+02 -0.40821593634E+01 -0.34263226247E+02  0.40659138122E+02  0.00000000000E+00 0. -1.
         11    1    3    3    0    0 -0.59259140798E+01  0.39673402486E+01  0.39635044873E+01  0.81587753009E+01  0.51100000000E-03 0. -1.
        -11    1    3    3    0    0  0.10241543604E+02  0.35129000580E+01  0.59020695456E+01  0.12331427630E+02  0.51100000000E-03 0.  1.
         12    1    3    3    0    0  0.17190946562E+02 -0.33980809432E+01  0.24397652214E+02  0.30038658947E+02  0.00000000000E+00 0. -1.
</event>
<event>
 7    1  0.5897985E-013  0.5052886E+02  0.7816164E-02  0.1300439E+00
        -11   -1    0    0    0    0  0.00000000000E+00  0.00000000000E+00  0.45593999997E+02  0.45594000000E+02  0.51100000000E-03 0.  1.
         11   -1    0    0    0    0 -0.00000000000E+00 -0.00000000000E+00 -0.45593999997E+02  0.45594000000E+02  0.51100000000E-03 0. -1.
    9900012    2    1    2    0    0 -0.29879077446E+02 -0.26552866532E+02  0.74398764499E+01  0.50528858941E+02  0.29999997238E+02 0.  0.
         12    1    1    2    0    0  0.29879077446E+02  0.26552866532E+02 -0.74398764499E+01  0.40659141059E+02  0.00000000000E+00 0. -1.
         11    1    3    3    0    0 -0.14899955150E+01  0.12438091384E+01 -0.47443039882E+01  0.51259699961E+01  0.51100000000E-03 0. -1.
        -11    1    3    3    0    0 -0.18350504578E+02 -0.27310779383E+02  0.55697518988E+01  0.33371272455E+02  0.51100000000E-03 0.  1.
        -12    1    3    3    0    0 -0.10038577353E+02 -0.48589628667E+00  0.66144285393E+01  0.12031616490E+02  0.00000000000E+00 0.  1.
</event>
<event>
 7    1  0.5897985E-013  0.5052886E+02  0.7816164E-02  0.1300439E+00
        -11   -1    0    0    0    0  0.00000000000E+00  0.00000000000E+00  0.45593999997E+02  0.45594000000E+02  0.51100000000E-03 0. -1.
         11   -1    0    0    0    0 -0.00000000000E+00 -0.00000000000E+00 -0.45593999997E+02  0.45594000000E+02  0.51100000000E-03 0.  1.
    9900012    2    1    2    0    0 -0.38151217364E+02 -0.75499951632E+01 -0.11859512964E+02  0.50528857596E+02  0.29999993148E+02 0.  0.
         12    1    1    2    0    0  0.38151217364E+02  0.75499951632E+01  0.11859512964E+02  0.40659142404E+02  0.00000000000E+00 0. -1.
         11    1    3    3    0    0 -0.10233460796E+02 -0.22822420127E+01  0.65446956294E+01  0.12359829676E+02  0.51100000000E-03 0. -1.
        -11    1    3    3    0    0 -0.22869176882E+02  0.24566630748E+01 -0.82188369270E+01  0.24425063468E+02  0.51100000000E-03 0.  1.
         12    1    3    3    0    0 -0.50485796854E+01 -0.77244162253E+01 -0.10185371667E+02  0.13743964452E+02  0.00000000000E+00 0. -1.
</event>
<event>
 7    1  0.5897985E-013  0.5052887E+02  0.7816164E-02  0.1300439E+00
        -11   -1    0    0    0    0  0.00000000000E+00  0.00000000000E+00  0.45593999997E+02  0.45594000000E+02  0.51100000000E-03 0. -1.
         11   -1    0    0    0    0 -0.00000000000E+00 -0.00000000000E+00 -0.45593999997E+02  0.45594000000E+02  0.51100000000E-03 0.  1.
    9900012    2    1    2    0    0 -0.36781388423E+02  0.16823604563E+02 -0.41545957340E+01  0.50528869776E+02  0.30000030172E+02 0.  0.
         12    1    1    2    0    0  0.36781388423E+02 -0.16823604563E+02  0.41545957340E+01  0.40659130224E+02  0.00000000000E+00 0. -1.
         11    1    3    3    0    0 -0.27785327130E+02  0.51214577191E+01  0.59321816826E+01  0.28869439078E+02  0.51100000000E-03 0.  1.
        -11    1    3    3    0    0 -0.18354845302E+01  0.10783812266E+02 -0.93724632975E+01  0.14404953279E+02  0.51100000000E-03 0. -1.
         12    1    3    3    0    0 -0.71605767631E+01  0.91833457859E+00 -0.71431411909E+00  0.72544774201E+01  0.00000000000E+00 0. -1.
</event>
<event>
 7    1  0.5897985E-013  0.5052886E+02  0.7816164E-02  0.1300439E+00
        -11   -1    0    0    0    0  0.00000000000E+00  0.00000000000E+00  0.45593999997E+02  0.45594000000E+02  0.51100000000E-03 0. -1.
         11   -1    0    0    0    0 -0.00000000000E+00 -0.00000000000E+00 -0.45593999997E+02  0.45594000000E+02  0.51100000000E-03 0.  1.
    9900012    2    1    2    0    0 -0.24186653201E+02  0.12376521896E+01 -0.32659450152E+02  0.50528860066E+02  0.30000000656E+02 0.  0.
         12    1    1    2    0    0  0.24186653201E+02 -0.12376521896E+01  0.32659450152E+02  0.40659139934E+02  0.00000000000E+00 0. -1.
         11    1    3    3    0    0 -0.46016609733E+00  0.86990575610E+01 -0.41068909554E+01  0.96307792451E+01  0.51100000000E-03 0. -1.
        -11    1    3    3    0    0 -0.65684819034E+01 -0.99248356782E+01 -0.12757207623E+02  0.17446881221E+02  0.51100000000E-03 0.  1.
        -12    1    3    3    0    0 -0.17158005200E+02  0.24634303068E+01 -0.15795351573E+02  0.23451199599E+02  0.00000000000E+00 0.  1.
</event>
<event>
 7    1  0.5897985E-013  0.5052883E+02  0.7816164E-02  0.1300439E+00
        -11   -1    0    0    0    0  0.00000000000E+00  0.00000000000E+00  0.45593999997E+02  0.45594000000E+02  0.51100000000E-03 0. -1.
         11   -1    0    0    0    0 -0.00000000000E+00 -0.00000000000E+00 -0.45593999997E+02  0.45594000000E+02  0.51100000000E-03 0.  1.
    9900012    2    1    2    0    0 -0.16289390760E+02 -0.35645444769E+02 -0.10827108203E+02  0.50528828142E+02  0.29999903620E+02 0.  0.
         12    1    1    2    0    0  0.16289390760E+02  0.35645444769E+02  0.10827108203E+02  0.40659171858E+02  0.00000000000E+00 0. -1.
         11    1    3    3    0    0 -0.82176696323E+01 -0.16372602960E+02  0.68352192470E+01  0.19552811672E+02  0.51100000000E-03 0. -1.
        -11    1    3    3    0    0 -0.10427160274E+02 -0.16298935384E+02 -0.18837660367E+02  0.27004414720E+02  0.51100000000E-03 0.  1.
        -12    1    3    3    0    0  0.23554391456E+01 -0.29739064253E+01  0.11753329163E+01  0.39716017498E+01  0.00000000000E+00 0.  1.
</event>
<event>
 7    1  0.5897985E-013  0.5052887E+02  0.7816164E-02  0.1300439E+00
        -11   -1    0    0    0    0  0.00000000000E+00  0.00000000000E+00  0.45593999997E+02  0.45594000000E+02  0.51100000000E-03 0.  1.
         11   -1    0    0    0    0 -0.00000000000E+00 -0.00000000000E+00 -0.45593999997E+02  0.45594000000E+02  0.51100000000E-03 0. -1.
    9900012    2    1    2    0    0 -0.39253006876E+02 -0.95198358934E+01 -0.46625367325E+01  0.50528867287E+02  0.30000022604E+02 0.  0.
         12    1    1    2    0    0  0.39253006876E+02  0.95198358934E+01  0.46625367325E+01  0.40659132713E+02  0.00000000000E+00 0. -1.
         11    1    3    3    0    0 -0.11875400778E+02 -0.13082220378E+02  0.56122681764E+00  0.17677234214E+02  0.51100000000E-03 0. -1.
        -11    1    3    3    0    0 -0.21749553507E+02  0.37545092424E+01 -0.11106368148E+02  0.24708112657E+02  0.51100000000E-03 0.  1.
        -12    1    3    3    0    0 -0.56280525916E+01 -0.19212475781E+00  0.58826045983E+01  0.81435204154E+01  0.00000000000E+00 0.  1.
</event>
<event>
 7    1  0.5897985E-013  0.5052886E+02  0.7816164E-02  0.1300439E+00
        -11   -1    0    0    0    0  0.00000000000E+00  0.00000000000E+00  0.45593999997E+02  0.45594000000E+02  0.51100000000E-03 0.  1.
         11   -1    0    0    0    0 -0.00000000000E+00 -0.00000000000E+00 -0.45593999997E+02  0.45594000000E+02  0.51100000000E-03 0. -1.
    9900012    2    1    2    0    0  0.67604355666E+01 -0.39887247979E+02  0.40582846390E+01  0.50528859397E+02  0.29999998623E+02 0.  0.
         12    1    1    2    0    0 -0.67604355666E+01  0.39887247979E+02 -0.40582846390E+01  0.40659140603E+02  0.00000000000E+00 0. -1.
         11    1    3    3    0    0  0.72587626404E+01 -0.24852293627E+02 -0.86574902626E+01  0.27299785191E+02  0.51100000000E-03 0. -1.
        -11    1    3    3    0    0 -0.21197131583E+01 -0.14668439169E+02  0.14539235630E+02  0.20761639254E+02  0.51100000000E-03 0.  1.
        -12    1    3    3    0    0  0.16213860844E+01 -0.36651518295E+00 -0.18234607284E+01  0.24674349519E+01  0.00000000000E+00 0.  1.
</event>
<event>
 7    1  0.5897985E-013  0.5052886E+02  0.7816164E-02  0.1300439E+00
        -11   -1    0    0    0    0  0.00000000000E+00  0.00000000000E+00  0.45593999997E+02  0.45594000000E+02  0.51100000000E-03 0.  1.
         11   -1    0    0    0    0 -0.00000000000E+00 -0.00000000000E+00 -0.45593999997E+02  0.45594000000E+02  0.51100000000E-03 0. -1.
    9900012    2    1    2    0    0  0.35784173656E+02  0.19047758878E+02 -0.31370553397E+01  0.50528864265E+02  0.30000013419E+02 0.  0.
         12    1    1    2    0    0 -0.35784173656E+02 -0.19047758878E+02  0.31370553397E+01  0.40659135735E+02  0.00000000000E+00 0. -1.
         11    1    3    3    0    0  0.30702865414E+02  0.16303866934E+02 -0.71978780859E+01  0.35500584091E+02  0.51100000000E-03 0. -1.
        -11    1    3    3    0    0  0.74651138074E+01  0.53250357820E+01  0.60548001752E+01  0.10988381849E+02  0.51100000000E-03 0.  1.
         12    1    3    3    0    0 -0.23838055651E+01 -0.25811438377E+01 -0.19939774291E+01  0.40398983243E+01  0.00000000000E+00 0. -1.
</event>
<event>
 7    1  0.5897985E-013  0.5052880E+02  0.7816164E-02  0.1300439E+00
        -11   -1    0    0    0    0  0.00000000000E+00  0.00000000000E+00  0.45593999997E+02  0.45594000000E+02  0.51100000000E-03 0.  1.
         11   -1    0    0    0    0 -0.00000000000E+00 -0.00000000000E+00 -0.45593999997E+02  0.45594000000E+02  0.51100000000E-03 0. -1.
    9900012    2    1    2    0    0  0.17907951010E+02  0.64619683362E+01  0.35926579183E+02  0.50528796417E+02  0.29999807190E+02 0.  0.
         12    1    1    2    0    0 -0.17907951010E+02 -0.64619683362E+01 -0.35926579183E+02  0.40659203583E+02  0.00000000000E+00 0. -1.
         11    1    3    3    0    0  0.34911428880E+01  0.13316543264E+02  0.89570812101E+01  0.16423997907E+02  0.51100000000E-03 0. -1.
        -11    1    3    3    0    0  0.14696787518E+02 -0.87820763392E+00  0.21054091217E+02  0.25691274185E+02  0.51100000000E-03 0.  1.
        -12    1    3    3    0    0 -0.27997939596E+00 -0.59763672940E+01  0.59154067564E+01  0.84135243263E+01  0.00000000000E+00 0.  1.
</event>
<event>
 7    1  0.5897985E-013  0.5052886E+02  0.7816164E-02  0.1300439E+00
        -11   -1    0    0    0    0  0.00000000000E+00  0.00000000000E+00  0.45593999997E+02  0.45594000000E+02  0.51100000000E-03 0. -1.
         11   -1    0    0    0    0 -0.00000000000E+00 -0.00000000000E+00 -0.45593999997E+02  0.45594000000E+02  0.51100000000E-03 0.  1.
    9900012    2    1    2    0    0 -0.37849887367E+01 -0.26271463237E+02  0.30800159748E+02  0.50528858828E+02  0.29999996893E+02 0.  0.
         12    1    1    2    0    0  0.37849887367E+01  0.26271463237E+02 -0.30800159748E+02  0.40659141172E+02  0.00000000000E+00 0. -1.
         11    1    3    3    0    0 -0.49769198542E+01 -0.15092464573E+02  0.24938580348E+02  0.29571692683E+02  0.51100000000E-03 0. -1.
        -11    1    3    3    0    0  0.43882853792E+01 -0.68080024626E+01 -0.45000715370E+01  0.92658831311E+01  0.51100000000E-03 0.  1.
        -12    1    3    3    0    0 -0.31963542618E+01 -0.43709962018E+01  0.10361650937E+02  0.11691283014E+02  0.00000000000E+00 0.  1.
</event>
<event>
 7    1  0.5897985E-013  0.5052888E+02  0.7816164E-02  0.1300439E+00
        -11   -1    0    0    0    0  0.00000000000E+00  0.00000000000E+00  0.45593999997E+02  0.45594000000E+02  0.51100000000E-03 0.  1.
         11   -1    0    0    0    0 -0.00000000000E+00 -0.00000000000E+00 -0.45593999997E+02  0.45594000000E+02  0.51100000000E-03 0. -1.
    9900012    2    1    2    0    0  0.22781394216E+02  0.10797386081E+02  0.31899665565E+02  0.50528878861E+02  0.30000057787E+02 0.  0.
         12    1    1    2    0    0 -0.22781394216E+02 -0.10797386081E+02 -0.31899665565E+02  0.40659121139E+02  0.00000000000E+00 0. -1.
         11    1    3    3    0    0  0.12615988039E+01 -0.15802084793E+01  0.14915021242E+01  0.25126219827E+01  0.51100000000E-03 0. -1.
        -11    1    3    3    0    0  0.23571981984E+02  0.31441099204E+01  0.10540816208E+02  0.26012161933E+02  0.51100000000E-03 0.  1.
        -12    1    3    3    0    0 -0.20521865712E+01  0.92334846398E+01  0.19867347233E+02  0.22004094946E+02  0.00000000000E+00 0.  1.
</event>
<event>
 7    1  0.5897985E-013  0.5052886E+02  0.7816164E-02  0.1300439E+00
        -11   -1    0    0    0    0  0.00000000000E+00  0.00000000000E+00  0.45593999997E+02  0.45594000000E+02  0.51100000000E-03 0.  1.
         11   -1    0    0    0    0 -0.00000000000E+00 -0.00000000000E+00 -0.45593999997E+02  0.45594000000E+02  0.51100000000E-03 0. -1.
    9900012    2    1    2    0    0  0.91033542302E+01  0.35362219124E+01  0.39468841588E+02  0.50528863512E+02  0.30000011130E+02 0.  0.
         12    1    1    2    0    0 -0.91033542302E+01 -0.35362219124E+01 -0.39468841588E+02  0.40659136488E+02  0.00000000000E+00 0. -1.
         11    1    3    3    0    0  0.53112483591E+00  0.14266877299E+02  0.10778456691E+02  0.17888572060E+02  0.51100000000E-03 0. -1.
        -11    1    3    3    0    0  0.85618138450E+01 -0.67664450362E+01  0.24758544479E+02  0.27056883777E+02  0.51100000000E-03 0.  1.
         12    1    3    3    0    0  0.10415549291E-01 -0.39642103503E+01  0.39318404180E+01  0.55834076743E+01  0.00000000000E+00 0. -1.
</event>
<event>
 7    1  0.5897985E-013  0.5052886E+02  0.7816164E-02  0.1300439E+00
        -11   -1    0    0    0    0  0.00000000000E+00  0.00000000000E+00  0.45593999997E+02  0.45594000000E+02  0.51100000000E-03 0. -1.
         11   -1    0    0    0    0 -0.00000000000E+00 -0.00000000000E+00 -0.45593999997E+02  0.45594000000E+02  0.51100000000E-03 0.  1.
    9900012    2    1    2    0    0  0.13490159223E+02 -0.32006489975E+02  0.21136837315E+02  0.50528859723E+02  0.29999999614E+02 0.  0.
         12    1    1    2    0    0 -0.13490159223E+02  0.32006489975E+02 -0.21136837315E+02  0.40659140277E+02  0.00000000000E+00 0. -1.
         11    1    3    3    0    0  0.12184740214E+02 -0.20132788253E+02  0.19974369144E+02  0.30867012812E+02  0.51100000000E-03 0.  1.
        -11    1    3    3    0    0 -0.66974127934E+01 -0.44742948505E+01 -0.20265439922E+01  0.83055122267E+01  0.51100000000E-03 0. -1.
         12    1    3    3    0    0  0.80028318021E+01 -0.73994068710E+01  0.31890121634E+01  0.11356334685E+02  0.00000000000E+00 0. -1.
</event>
<event>
 7    1  0.5897985E-013  0.5052880E+02  0.7816164E-02  0.1300439E+00
        -11   -1    0    0    0    0  0.00000000000E+00  0.00000000000E+00  0.45593999997E+02  0.45594000000E+02  0.51100000000E-03 0. -1.
         11   -1    0    0    0    0 -0.00000000000E+00 -0.00000000000E+00 -0.45593999997E+02  0.45594000000E+02  0.51100000000E-03 0.  1.
    9900012    2    1    2    0    0 -0.35644733773E+02 -0.12553551655E+02 -0.15001066213E+02  0.50528798183E+02  0.29999812555E+02 0.  0.
         12    1    1    2    0    0  0.35644733773E+02  0.12553551655E+02  0.15001066213E+02  0.40659201817E+02  0.00000000000E+00 0. -1.
         11    1    3    3    0    0 -0.17492823108E+02  0.15237641233E+01 -0.69868500901E+01  0.18898063177E+02  0.51100000000E-03 0.  1.
        -11    1    3    3    0    0 -0.16776380739E+02 -0.10227039286E+02  0.30060049132E+01  0.19876502435E+02  0.51100000000E-03 0. -1.
        -12    1    3    3    0    0 -0.13755299262E+01 -0.38502764921E+01 -0.11020221036E+02  0.11754232571E+02  0.00000000000E+00 0.  1.
</event>
<event>
 7    1  0.5897985E-013  0.5052891E+02  0.7816164E-02  0.1300439E+00
        -11   -1    0    0    0    0  0.00000000000E+00  0.00000000000E+00  0.45593999997E+02  0.45594000000E+02  0.51100000000E-03 0. -1.
         11   -1    0    0    0    0 -0.00000000000E+00 -0.00000000000E+00 -0.45593999997E+02  0.45594000000E+02  0.51100000000E-03 0.  1.
    9900012    2    1    2    0    0 -0.35679720198E+02 -0.28000258020E+01 -0.19294536493E+02  0.50528908564E+02  0.30000148070E+02 0.  0.
         12    1    1    2    0    0  0.35679720198E+02  0.28000258020E+01  0.19294536493E+02  0.40659091436E+02  0.00000000000E+00 0. -1.
         11    1    3    3    0    0 -0.18585768950E+02 -0.65635824834E+00  0.20762461880E+01  0.18712894274E+02  0.51100000000E-03 0. -1.
        -11    1    3    3    0    0 -0.10640312055E+01 -0.56048566589E+01 -0.11059855067E+02  0.12444556036E+02  0.51100000000E-03 0.  1.
        -12    1    3    3    0    0 -0.16029920043E+02  0.34611891052E+01 -0.10310927614E+02  0.19371458253E+02  0.00000000000E+00 0.  1.
</event>
<event>
 7    1  0.5897985E-013  0.5052889E+02  0.7816164E-02  0.1300439E+00
        -11   -1    0    0    0    0  0.00000000000E+00  0.00000000000E+00  0.45593999997E+02  0.45594000000E+02  0.51100000000E-03 0.  1.
         11   -1    0    0    0    0 -0.00000000000E+00 -0.00000000000E+00 -0.45593999997E+02  0.45594000000E+02  0.51100000000E-03 0. -1.
    9900012    2    1    2    0    0 -0.14847081345E+02  0.21015194865E+01  0.37793000570E+02  0.50528891541E+02  0.30000096327E+02 0.  0.
         12    1    1    2    0    0  0.14847081345E+02 -0.21015194865E+01 -0.37793000570E+02  0.40659108459E+02  0.00000000000E+00 0. -1.
         11    1    3    3    0    0  0.55524708868E+01 -0.42017778597E+01  0.99734530583E+01  0.12163660481E+02  0.51100000000E-03 0. -1.
        -11    1    3    3    0    0 -0.21651537853E+02  0.52928743442E+01  0.28848109585E+02  0.36455685937E+02  0.51100000000E-03 0.  1.
        -12    1    3    3    0    0  0.12519856212E+01  0.10104230020E+01 -0.10285620734E+01  0.19095451232E+01  0.00000000000E+00 0.  1.
</event>
<event>
 7    1  0.5897985E-013  0.5052886E+02  0.7816164E-02  0.1300439E+00
        -11   -1    0    0    0    0  0.00000000000E+00  0.00000000000E+00  0.45593999997E+02  0.45594000000E+02  0.51100000000E-03 0.  1.
         11   -1    0    0    0    0 -0.00000000000E+00 -0.00000000000E+00 -0.45593999997E+02  0.45594000000E+02  0.51100000000E-03 0. -1.
    9900012    2    1    2    0    0  0.24197538358E+02 -0.28875942781E+01  0.32546996310E+02  0.50528855492E+02  0.29999986753E+02 0.  0.
         12    1    1    2    0    0 -0.24197538358E+02  0.28875942781E+01 -0.32546996310E+02  0.40659144508E+02  0.00000000000E+00 0. -1.
         11    1    3    3    0    0  0.12564604601E+02 -0.11638532810E+02  0.39977620341E+01  0.17587121319E+02  0.51100000000E-03 0. -1.
        -11    1    3    3    0    0  0.28795519851E+01  0.17188691405E+01  0.14874961702E+02  0.15248305369E+02  0.51100000000E-03 0.  1.
         12    1    3    3    0    0  0.87533817717E+01  0.70320693914E+01  0.13674272575E+02  0.17693428803E+02  0.00000000000E+00 0. -1.
</event>
<event>
 7    1  0.5897985E-013  0.5052887E+02  0.7816164E-02  0.1300439E+00
        -11   -1    0    0    0    0  0.00000000000E+00  0.00000000000E+00  0.45593999997E+02  0.45594000000E+02  0.51100000000E-03 0. -1.
         11   -1    0    0    0    0 -0.00000000000E+00 -0.00000000000E+00 -0.45593999997E+02  0.45594000000E+02  0.51100000000E-03 0.  1.
    9900012    2    1    2    0    0  0.14516079382E+02  0.28301588705E+02 -0.25327220475E+02  0.50528873338E+02  0.30000040999E+02 0.  0.
         12    1    1    2    0    0 -0.14516079382E+02 -0.28301588705E+02  0.25327220475E+02  0.40659126662E+02  0.00000000000E+00 0. -1.
         11    1    3    3    0    0  0.14164285288E+02  0.20774748855E+02 -0.28242628144E+01  0.25302047909E+02  0.51100000000E-03 0.  1.
        -11    1    3    3    0    0 -0.39856527830E+00  0.79094895813E+01 -0.22946636012E+02  0.24274822023E+02  0.51100000000E-03 0. -1.
         12    1    3    3    0    0  0.75035937310E+00 -0.38264973104E+00  0.44367835119E+00  0.95200340587E+00  0.00000000000E+00 0. -1.
</event>
<event>
 7    1  0.5897985E-013  0.5052891E+02  0.7816164E-02  0.1300439E+00
        -11   -1    0    0    0    0  0.00000000000E+00  0.00000000000E+00  0.45593999997E+02  0.45594000000E+02  0.51100000000E-03 0.  1.
         11   -1    0    0    0    0 -0.00000000000E+00 -0.00000000000E+00 -0.45593999997E+02  0.45594000000E+02  0.51100000000E-03 0. -1.
    9900012    2    1    2    0    0 -0.31263845514E+00  0.20749036943E+02  0.34964859896E+02  0.50528908711E+02  0.30000148519E+02 0.  0.
         12    1    1    2    0    0  0.31263845514E+00 -0.20749036943E+02 -0.34964859896E+02  0.40659091289E+02  0.00000000000E+00 0. -1.
         11    1    3    3    0    0  0.27982071770E+01  0.13402389128E+01  0.25280673537E+02  0.25470348613E+02  0.51100000000E-03 0. -1.
        -11    1    3    3    0    0 -0.52328666668E+01  0.18622104150E+02  0.11183713839E+02  0.22343704080E+02  0.51100000000E-03 0.  1.
         12    1    3    3    0    0  0.21220210346E+01  0.78669388039E+00 -0.14995274800E+01  0.27148560176E+01  0.00000000000E+00 0. -1.
</event>
<event>
 7    1  0.5897985E-013  0.5052886E+02  0.7816164E-02  0.1300439E+00
        -11   -1    0    0    0    0  0.00000000000E+00  0.00000000000E+00  0.45593999997E+02  0.45594000000E+02  0.51100000000E-03 0. -1.
         11   -1    0    0    0    0 -0.00000000000E+00 -0.00000000000E+00 -0.45593999997E+02  0.45594000000E+02  0.51100000000E-03 0.  1.
    9900012    2    1    2    0    0 -0.38618682507E+02 -0.40656472860E+01 -0.12051293485E+02  0.50528858334E+02  0.29999995391E+02 0.  0.
         12    1    1    2    0    0  0.38618682507E+02  0.40656472860E+01  0.12051293485E+02  0.40659141666E+02  0.00000000000E+00 0. -1.
         11    1    3    3    0    0 -0.13227029560E+02  0.92611240702E+01 -0.69032299850E+01  0.17560675229E+02  0.51100000000E-03 0. -1.
        -11    1    3    3    0    0 -0.23794761387E+02 -0.61167014060E+01 -0.12080158066E+01  0.24598048866E+02  0.51100000000E-03 0.  1.
         12    1    3    3    0    0 -0.15968915593E+01 -0.72100699502E+01 -0.39400476931E+01  0.83701342381E+01  0.00000000000E+00 0. -1.
</event>
<event>
 7    1  0.5897985E-013  0.5052886E+02  0.7816164E-02  0.1300439E+00
        -11   -1    0    0    0    0  0.00000000000E+00  0.00000000000E+00  0.45593999997E+02  0.45594000000E+02  0.51100000000E-03 0. -1.
         11   -1    0    0    0    0 -0.00000000000E+00 -0.00000000000E+00 -0.45593999997E+02  0.45594000000E+02  0.51100000000E-03 0.  1.
    9900012    2    1    2    0    0 -0.61449438092E+01  0.88331650933E+01 -0.39209444702E+02  0.50528859653E+02  0.29999999400E+02 0.  0.
         12    1    1    2    0    0  0.61449438092E+01 -0.88331650933E+01  0.39209444702E+02  0.40659140347E+02  0.00000000000E+00 0. -1.
         11    1    3    3    0    0 -0.98230323431E+01 -0.76073104844E+01 -0.25522356994E+02  0.28385803565E+02  0.51100000000E-03 0. -1.
        -11    1    3    3    0    0  0.37431093494E+01  0.68161841890E+01 -0.63924231090E+01  0.10066494324E+02  0.51100000000E-03 0.  1.
         12    1    3    3    0    0 -0.65020815524E-01  0.96242913887E+01 -0.72946645982E+01  0.12076561764E+02  0.00000000000E+00 0. -1.
</event>
<event>
 7    1  0.5897985E-013  0.5052886E+02  0.7816164E-02  0.1300439E+00
        -11   -1    0    0    0    0  0.00000000000E+00  0.00000000000E+00  0.45593999997E+02  0.45594000000E+02  0.51100000000E-03 0.  1.
         11   -1    0    0    0    0 -0.00000000000E+00 -0.00000000000E+00 -0.45593999997E+02  0.45594000000E+02  0.51100000000E-03 0. -1.
    9900012    2    1    2    0    0 -0.31432266199E+02  0.62632909010E+01  0.25018976917E+02  0.50528863544E+02  0.30000011230E+02 0.  0.
         12    1    1    2    0    0  0.31432266199E+02 -0.62632909010E+01 -0.25018976917E+02  0.40659136456E+02  0.00000000000E+00 0. -1.
         11    1    3    3    0    0 -0.29097872556E+02 -0.99690679531E+00  0.11793656386E+02  0.31412900879E+02  0.51100000000E-03 0.  1.
        -11    1    3    3    0    0  0.28867898042E+01  0.59402783310E+01  0.11836301633E+02  0.13554279716E+02  0.51100000000E-03 0. -1.
         12    1    3    3    0    0 -0.52211834478E+01  0.13199193653E+01  0.13890188984E+01  0.55616829491E+01  0.00000000000E+00 0. -1.
</event>
<event>
 7    1  0.5897985E-013  0.5052884E+02  0.7816164E-02  0.1300439E+00
        -11   -1    0    0    0    0  0.00000000000E+00  0.00000000000E+00  0.45593999997E+02  0.45594000000E+02  0.51100000000E-03 0.  1.
         11   -1    0    0    0    0 -0.00000000000E+00 -0.00000000000E+00 -0.45593999997E+02  0.45594000000E+02  0.51100000000E-03 0. -1.
    9900012    2    1    2    0    0 -0.43268508674E+01 -0.32068945952E+02  0.24617649529E+02  0.50528836196E+02  0.29999928103E+02 0.  0.
         12    1    1    2    0    0  0.43268508674E+01  0.32068945952E+02 -0.24617649529E+02  0.40659163804E+02  0.00000000000E+00 0. -1.
         11    1    3    3    0    0  0.44616092809E+01 -0.14064095080E+02  0.66686966035E+01  0.16191857288E+02  0.51100000000E-03 0. -1.
        -11    1    3    3    0    0 -0.64782263668E+01 -0.12464770121E+02  0.22690945662E+02  0.26687392647E+02  0.51100000000E-03 0.  1.
        -12    1    3    3    0    0 -0.23102337815E+01 -0.55400807504E+01 -0.47419927364E+01  0.76495862606E+01  0.00000000000E+00 0.  1.
</event>
<event>
 7    1  0.5897985E-013  0.5052886E+02  0.7816164E-02  0.1300439E+00
        -11   -1    0    0    0    0  0.00000000000E+00  0.00000000000E+00  0.45593999997E+02  0.45594000000E+02  0.51100000000E-03 0. -1.
         11   -1    0    0    0    0 -0.00000000000E+00 -0.00000000000E+00 -0.45593999997E+02  0.45594000000E+02  0.51100000000E-03 0.  1.
    9900012    2    1    2    0    0  0.90659266202E+01  0.19422717737E+02 -0.34550441065E+02  0.50528856286E+02  0.29999989167E+02 0.  0.
         12    1    1    2    0    0 -0.90659266202E+01 -0.19422717737E+02  0.34550441065E+02  0.40659143714E+02  0.00000000000E+00 0. -1.
         11    1    3    3    0    0 -0.64519792554E-01  0.10200403778E+02 -0.12919280342E+01  0.10282095037E+02  0.51100000000E-03 0. -1.
        -11    1    3    3    0    0 -0.13615650277E+01  0.74653925359E+01 -0.26681643207E+02  0.27739791447E+02  0.51100000000E-03 0.  1.
         12    1    3    3    0    0  0.10492011440E+02  0.17569214230E+01 -0.65768698238E+01  0.12506969802E+02  0.00000000000E+00 0. -1.
</event>
<event>
 7    1  0.5897985E-013  0.5052886E+02  0.7816164E-02  0.1300439E+00
        -11   -1    0    0    0    0  0.00000000000E+00  0.00000000000E+00  0.45593999997E+02  0.45594000000E+02  0.51100000000E-03 0. -1.
         11   -1    0    0    0    0 -0.00000000000E+00 -0.00000000000E+00 -0.45593999997E+02  0.45594000000E+02  0.51100000000E-03 0.  1.
    9900012    2    1    2    0    0  0.27872635572E+02 -0.28089675072E+02 -0.93408828585E+01  0.50528858937E+02  0.29999997226E+02 0.  0.
         12    1    1    2    0    0 -0.27872635572E+02  0.28089675072E+02  0.93408828585E+01  0.40659141063E+02  0.00000000000E+00 0. -1.
         11    1    3    3    0    0  0.15872759608E+02 -0.13911808917E+01 -0.76974588513E+00  0.15952190784E+02  0.51100000000E-03 0. -1.
        -11    1    3    3    0    0  0.57649527494E+01 -0.25797601958E+02 -0.97366649613E+01  0.28170083276E+02  0.51100000000E-03 0.  1.
        -12    1    3    3    0    0  0.62349232146E+01 -0.90089222313E+00  0.11655279879E+01  0.64065848765E+01  0.00000000000E+00 0.  1.
</event>
<event>
 7    1  0.5897985E-013  0.5052886E+02  0.7816164E-02  0.1300439E+00
        -11   -1    0    0    0    0  0.00000000000E+00  0.00000000000E+00  0.45593999997E+02  0.45594000000E+02  0.51100000000E-03 0.  1.
         11   -1    0    0    0    0 -0.00000000000E+00 -0.00000000000E+00 -0.45593999997E+02  0.45594000000E+02  0.51100000000E-03 0. -1.
    9900012    2    1    2    0    0 -0.13012023690E+02  0.59696466597E+01  0.38055438897E+02  0.50528857468E+02  0.29999992761E+02 0.  0.
         12    1    1    2    0    0  0.13012023690E+02 -0.59696466597E+01 -0.38055438897E+02  0.40659142532E+02  0.00000000000E+00 0. -1.
         11    1    3    3    0    0 -0.98630831382E+01 -0.37898909238E+01 -0.49066666424E+00  0.10577543961E+02  0.51100000000E-03 0. -1.
        -11    1    3    3    0    0 -0.77113730717E+00  0.55476695361E+01  0.18455394009E+02  0.19286597894E+02  0.51100000000E-03 0.  1.
         12    1    3    3    0    0 -0.23778032446E+01  0.42118680475E+01  0.20090711552E+02  0.20664715613E+02  0.00000000000E+00 0. -1.
</event>
<event>
 7    1  0.5897985E-013  0.5052886E+02  0.7816164E-02  0.1300439E+00
        -11   -1    0    0    0    0  0.00000000000E+00  0.00000000000E+00  0.45593999997E+02  0.45594000000E+02  0.51100000000E-03 0.  1.
         11   -1    0    0    0    0 -0.00000000000E+00 -0.00000000000E+00 -0.45593999997E+02  0.45594000000E+02  0.51100000000E-03 0. -1.
    9900012    2    1    2    0    0 -0.37961137989E+02 -0.75179271523E+00 -0.14544845622E+02  0.50528859283E+02  0.29999998276E+02 0.  0.
         12    1    1    2    0    0  0.37961137989E+02  0.75179271523E+00  0.14544845622E+02  0.40659140717E+02  0.00000000000E+00 0. -1.
         11    1    3    3    0    0 -0.24019318886E+02  0.42041064304E+01 -0.99097169918E+01  0.26321183137E+02  0.51100000000E-03 0. -1.
        -11    1    3    3    0    0  0.44456121677E+01 -0.24677960157E+01 -0.88746136381E-02  0.50846399814E+01  0.51100000000E-03 0.  1.
        -12    1    3    3    0    0 -0.18387431270E+02 -0.24881031299E+01 -0.46262540168E+01  0.19123036164E+02  0.00000000000E+00 0.  1.
</event>
<event>
 7    1  0.5897985E-013  0.5052885E+02  0.7816164E-02  0.1300439E+00
        -11   -1    0    0    0    0  0.00000000000E+00  0.00000000000E+00  0.45593999997E+02  0.45594000000E+02  0.51100000000E-03 0.  1.
         11   -1    0    0    0    0 -0.00000000000E+00 -0.00000000000E+00 -0.45593999997E+02  0.45594000000E+02  0.51100000000E-03 0. -1.
    9900012    2    1    2    0    0  0.37951385189E+02 -0.98853706904E+01  0.10730245545E+02  0.50528851449E+02  0.29999974465E+02 0.  0.
         12    1    1    2    0    0 -0.37951385189E+02  0.98853706904E+01 -0.10730245545E+02  0.40659148551E+02  0.00000000000E+00 0. -1.
         11    1    3    3    0    0  0.18684215450E+02  0.22942823577E+01 -0.11918759987E+01  0.18862242899E+02  0.51100000000E-03 0. -1.
        -11    1    3    3    0    0  0.88780466880E+01 -0.15839391811E+02  0.90255377486E+01  0.20277237925E+02  0.51100000000E-03 0.  1.
        -12    1    3    3    0    0  0.10389123051E+02  0.36597387630E+01  0.28965837949E+01  0.11389370626E+02  0.00000000000E+00 0.  1.
</event>
<event>
 7    1  0.5897985E-013  0.5052886E+02  0.7816164E-02  0.1300439E+00
        -11   -1    0    0    0    0  0.00000000000E+00  0.00000000000E+00  0.45593999997E+02  0.45594000000E+02  0.51100000000E-03 0.  1.
         11   -1    0    0    0    0 -0.00000000000E+00 -0.00000000000E+00 -0.45593999997E+02  0.45594000000E+02  0.51100000000E-03 0. -1.
    9900012    2    1    2    0    0  0.31505751606E+02 -0.23414283420E+02  0.10598342605E+02  0.50528856892E+02  0.29999991007E+02 0.  0.
         12    1    1    2    0    0 -0.31505751606E+02  0.23414283420E+02 -0.10598342605E+02  0.40659143108E+02  0.00000000000E+00 0. -1.
         11    1    3    3    0    0 -0.97873734571E+00  0.33683313456E+01  0.76828361571E+00  0.35907997467E+01  0.51100000000E-03 0. -1.
        -11    1    3    3    0    0  0.16983406434E+02 -0.20623422306E+02 -0.15252081566E+01  0.26759818794E+02  0.51100000000E-03 0.  1.
         12    1    3    3    0    0  0.15501082518E+02 -0.61591924599E+01  0.11355267146E+02  0.20178238351E+02  0.00000000000E+00 0. -1.
</event>
<event>
 7    1  0.5897985E-013  0.5052885E+02  0.7816164E-02  0.1300439E+00
        -11   -1    0    0    0    0  0.00000000000E+00  0.00000000000E+00  0.45593999997E+02  0.45594000000E+02  0.51100000000E-03 0. -1.
         11   -1    0    0    0    0 -0.00000000000E+00 -0.00000000000E+00 -0.45593999997E+02  0.45594000000E+02  0.51100000000E-03 0.  1.
    9900012    2    1    2    0    0  0.36841736976E+01  0.28012422898E+02 -0.29238625963E+02  0.50528853173E+02  0.29999979706E+02 0.  0.
         12    1    1    2    0    0 -0.36841736976E+01 -0.28012422898E+02  0.29238625963E+02  0.40659146827E+02  0.00000000000E+00 0. -1.
         11    1    3    3    0    0  0.12892378673E+02  0.27639843094E+02 -0.17452399228E+02  0.35139160394E+02  0.51100000000E-03 0. -1.
        -11    1    3    3    0    0 -0.53172328302E+01  0.11953668739E+01 -0.90431478895E+01  0.10558427484E+02  0.51100000000E-03 0.  1.
         12    1    3    3    0    0 -0.38909721449E+01 -0.82278707035E+00 -0.27430788454E+01  0.48312652947E+01  0.00000000000E+00 0. -1.
</event>
<event>
 7    1  0.5897985E-013  0.5052886E+02  0.7816164E-02  0.1300439E+00
        -11   -1    0    0    0    0  0.00000000000E+00  0.00000000000E+00  0.45593999997E+02  0.45594000000E+02  0.51100000000E-03 0.  1.
         11   -1    0    0    0    0 -0.00000000000E+00 -0.00000000000E+00 -0.45593999997E+02  0.45594000000E+02  0.51100000000E-03 0. -1.
    9900012    2    1    2    0    0  0.22845829729E+02 -0.24036042110E+02  0.23526634829E+02  0.50528858314E+02  0.29999995330E+02 0.  0.
         12    1    1    2    0    0 -0.22845829729E+02  0.24036042110E+02 -0.23526634829E+02  0.40659141686E+02  0.00000000000E+00 0. -1.
         11    1    3    3    0    0  0.97616413129E+01 -0.12547529115E+02  0.51592802889E+01  0.16713715966E+02  0.51100000000E-03 0. -1.
        -11    1    3    3    0    0  0.76614175033E+01  0.36425998947E+01 -0.11170519065E+01  0.85564979621E+01  0.51100000000E-03 0.  1.
        -12    1    3    3    0    0  0.54227709123E+01 -0.15131112890E+02  0.19484406446E+02  0.25258644386E+02  0.00000000000E+00 0.  1.
</event>
<event>
 7    1  0.5897985E-013  0.5052895E+02  0.7816164E-02  0.1300438E+00
        -11   -1    0    0    0    0  0.00000000000E+00  0.00000000000E+00  0.45593999997E+02  0.45594000000E+02  0.51100000000E-03 0. -1.
         11   -1    0    0    0    0 -0.00000000000E+00 -0.00000000000E+00 -0.45593999997E+02  0.45594000000E+02  0.51100000000E-03 0.  1.
    9900012    2    1    2    0    0  0.10126693830E+02  0.91530257158E+01 -0.38299228854E+02  0.50528945185E+02  0.30000259382E+02 0.  0.
         12    1    1    2    0    0 -0.10126693830E+02 -0.91530257158E+01  0.38299228854E+02  0.40659054815E+02  0.00000000000E+00 0. -1.
         11    1    3    3    0    0 -0.17498105510E+01  0.15624971674E+02 -0.20455077472E+02  0.25799452929E+02  0.51100000000E-03 0. -1.
        -11    1    3    3    0    0  0.47981050996E+01 -0.13858957739E+01 -0.14597639231E+02  0.15428337273E+02  0.51100000000E-03 0.  1.
         12    1    3    3    0    0  0.70783992811E+01 -0.50860501845E+01 -0.32465121509E+01  0.93011549825E+01  0.00000000000E+00 0. -1.
</event>
<event>
 7    1  0.5897985E-013  0.5052886E+02  0.7816164E-02  0.1300439E+00
        -11   -1    0    0    0    0  0.00000000000E+00  0.00000000000E+00  0.45593999997E+02  0.45594000000E+02  0.51100000000E-03 0.  1.
         11   -1    0    0    0    0 -0.00000000000E+00 -0.00000000000E+00 -0.45593999997E+02  0.45594000000E+02  0.51100000000E-03 0. -1.
    9900012    2    1    2    0    0  0.17794701707E+02  0.35255428677E+02  0.96731154100E+01  0.50528858078E+02  0.29999994615E+02 0.  0.
         12    1    1    2    0    0 -0.17794701707E+02 -0.35255428677E+02 -0.96731154100E+01  0.40659141922E+02  0.00000000000E+00 0. -1.
         11    1    3    3    0    0 -0.34126087305E+01  0.21675685150E+02  0.94097493442E+01  0.23875188126E+02  0.51100000000E-03 0. -1.
        -11    1    3    3    0    0  0.52906115258E+01  0.83039395419E+01 -0.58916078558E+00  0.98637261177E+01  0.51100000000E-03 0.  1.
         12    1    3    3    0    0  0.15916698912E+02  0.52758039854E+01  0.85252685132E+00  0.16789943835E+02  0.00000000000E+00 0. -1.
</event>
<event>
 7    1  0.5897985E-013  0.5052884E+02  0.7816164E-02  0.1300439E+00
        -11   -1    0    0    0    0  0.00000000000E+00  0.00000000000E+00  0.45593999997E+02  0.45594000000E+02  0.51100000000E-03 0.  1.
         11   -1    0    0    0    0 -0.00000000000E+00 -0.00000000000E+00 -0.45593999997E+02  0.45594000000E+02  0.51100000000E-03 0. -1.
    9900012    2    1    2    0    0  0.35437219964E+01  0.19837196301E+02  0.35314227262E+02  0.50528843961E+02  0.29999951704E+02 0.  0.
         12    1    1    2    0    0 -0.35437219964E+01 -0.19837196301E+02 -0.35314227262E+02  0.40659156039E+02  0.00000000000E+00 0. -1.
         11    1    3    3    0    0  0.83542094382E+01  0.49373106131E+01  0.21882115833E+02  0.23937352506E+02  0.51100000000E-03 0. -1.
        -11    1    3    3    0    0  0.22128456860E+01  0.15721857094E+02  0.91502921915E+01  0.18324882646E+02  0.51100000000E-03 0.  1.
         12    1    3    3    0    0 -0.70233331279E+01 -0.82197140669E+00  0.42818192377E+01  0.82666088091E+01  0.00000000000E+00 0. -1.
</event>
<event>
 7    1  0.5897985E-013  0.5052886E+02  0.7816164E-02  0.1300439E+00
        -11   -1    0    0    0    0  0.00000000000E+00  0.00000000000E+00  0.45593999997E+02  0.45594000000E+02  0.51100000000E-03 0. -1.
         11   -1    0    0    0    0 -0.00000000000E+00 -0.00000000000E+00 -0.45593999997E+02  0.45594000000E+02  0.51100000000E-03 0.  1.
    9900012    2    1    2    0    0  0.15257301851E+00 -0.33728008360E+02  0.22706028815E+02  0.50528861163E+02  0.30000003990E+02 0.  0.
         12    1    1    2    0    0 -0.15257301851E+00  0.33728008360E+02 -0.22706028815E+02  0.40659138837E+02  0.00000000000E+00 0. -1.
         11    1    3    3    0    0 -0.13364077940E+01 -0.30781839753E+02  0.18586091230E+02  0.35982640702E+02  0.51100000000E-03 0. -1.
        -11    1    3    3    0    0  0.75191873498E+01 -0.12849384108E+01  0.29731554877E+01  0.81871178651E+01  0.51100000000E-03 0.  1.
         12    1    3    3    0    0 -0.60302065373E+01 -0.16612301961E+01  0.11467820970E+01  0.63591025959E+01  0.00000000000E+00 0. -1.
</event>
<event>
 7    1  0.5897985E-013  0.5052886E+02  0.7816164E-02  0.1300439E+00
        -11   -1    0    0    0    0  0.00000000000E+00  0.00000000000E+00  0.45593999997E+02  0.45594000000E+02  0.51100000000E-03 0.  1.
         11   -1    0    0    0    0 -0.00000000000E+00 -0.00000000000E+00 -0.45593999997E+02  0.45594000000E+02  0.51100000000E-03 0. -1.
    9900012    2    1    2    0    0 -0.36112059359E+02 -0.18668751381E+02  0.75005767786E+00  0.50528859628E+02  0.29999999326E+02 0.  0.
         12    1    1    2    0    0  0.36112059359E+02  0.18668751381E+02 -0.75005767786E+00  0.40659140372E+02  0.00000000000E+00 0. -1.
         11    1    3    3    0    0 -0.14742881369E+02  0.28406509302E+01 -0.99557238676E+01  0.18014946204E+02  0.51100000000E-03 0. -1.
        -11    1    3    3    0    0 -0.17218726828E+02 -0.15254544760E+02  0.64786753602E+01  0.23898931443E+02  0.51100000000E-03 0.  1.
         12    1    3    3    0    0 -0.41504511617E+01 -0.62548575512E+01  0.42271061852E+01  0.86149819809E+01  0.00000000000E+00 0. -1.
</event>
<event>
 7    1  0.5897985E-013  0.5052886E+02  0.7816164E-02  0.1300439E+00
        -11   -1    0    0    0    0  0.00000000000E+00  0.00000000000E+00  0.45593999997E+02  0.45594000000E+02  0.51100000000E-03 0. -1.
         11   -1    0    0    0    0 -0.00000000000E+00 -0.00000000000E+00 -0.45593999997E+02  0.45594000000E+02  0.51100000000E-03 0.  1.
    9900012    2    1    2    0    0  0.38011929866E+02 -0.61819127266E+01 -0.13040042178E+02  0.50528861333E+02  0.30000004509E+02 0.  0.
         12    1    1    2    0    0 -0.38011929866E+02  0.61819127266E+01  0.13040042178E+02  0.40659138667E+02  0.00000000000E+00 0. -1.
         11    1    3    3    0    0 -0.68148280859E+00 -0.91355137730E+00  0.63221407911E+00  0.13033379609E+01  0.51100000000E-03 0. -1.
        -11    1    3    3    0    0  0.16009349606E+02  0.43655841775E+01 -0.17690378043E+02  0.24255042271E+02  0.51100000000E-03 0.  1.
        -12    1    3    3    0    0  0.22684063069E+02 -0.96339455267E+01  0.40181217861E+01  0.24970481101E+02  0.00000000000E+00 0.  1.
</event>
<event>
 7    1  0.5897985E-013  0.5052886E+02  0.7816164E-02  0.1300439E+00
        -11   -1    0    0    0    0  0.00000000000E+00  0.00000000000E+00  0.45593999997E+02  0.45594000000E+02  0.51100000000E-03 0.  1.
         11   -1    0    0    0    0 -0.00000000000E+00 -0.00000000000E+00 -0.45593999997E+02  0.45594000000E+02  0.51100000000E-03 0. -1.
    9900012    2    1    2    0    0  0.28997396167E+02 -0.84845746480E+01  0.27208978485E+02  0.50528862015E+02  0.30000006582E+02 0.  0.
         12    1    1    2    0    0 -0.28997396167E+02  0.84845746480E+01 -0.27208978485E+02  0.40659137985E+02  0.00000000000E+00 0. -1.
         11    1    3    3    0    0  0.50702810100E+01 -0.13716163649E+02  0.17696392816E+02  0.22956550563E+02  0.51100000000E-03 0. -1.
        -11    1    3    3    0    0  0.14618453011E+02  0.14178931597E+01  0.95385766800E+01  0.17512682113E+02  0.51100000000E-03 0.  1.
         12    1    3    3    0    0  0.93086621458E+01  0.38136958414E+01 -0.25991011061E-01  0.10059629340E+02  0.00000000000E+00 0. -1.
</event>
<event>
 7    1  0.5897985E-013  0.5052886E+02  0.7816164E-02  0.1300439E+00
        -11   -1    0    0    0    0  0.00000000000E+00  0.00000000000E+00  0.45593999997E+02  0.45594000000E+02  0.51100000000E-03 0.  1.
         11   -1    0    0    0    0 -0.00000000000E+00 -0.00000000000E+00 -0.45593999997E+02  0.45594000000E+02  0.51100000000E-03 0. -1.
    9900012    2    1    2    0    0 -0.10104208384E+02 -0.32114665986E+01  0.39252476175E+02  0.50528862889E+02  0.30000009237E+02 0.  0.
         12    1    1    2    0    0  0.10104208384E+02  0.32114665986E+01 -0.39252476175E+02  0.40659137111E+02  0.00000000000E+00 0. -1.
         11    1    3    3    0    0 -0.10333187001E+02  0.16590825988E+01  0.85193553404E+01  0.13494692451E+02  0.51100000000E-03 0. -1.
        -11    1    3    3    0    0  0.94673442065E+01 -0.38237948269E+01  0.99062285450E+01  0.14226221475E+02  0.51100000000E-03 0.  1.
        -12    1    3    3    0    0 -0.92383655900E+01 -0.10467543705E+01  0.20826892289E+02  0.22807948963E+02  0.00000000000E+00 0.  1.
</event>
<event>
 7    1  0.5897985E-013  0.5052886E+02  0.7816164E-02  0.1300439E+00
        -11   -1    0    0    0    0  0.00000000000E+00  0.00000000000E+00  0.45593999997E+02  0.45594000000E+02  0.51100000000E-03 0.  1.
         11   -1    0    0    0    0 -0.00000000000E+00 -0.00000000000E+00 -0.45593999997E+02  0.45594000000E+02  0.51100000000E-03 0. -1.
    9900012    2    1    2    0    0  0.23113995588E+02 -0.73783368661E+01  0.32626198718E+02  0.50528862162E+02  0.30000007026E+02 0.  0.
         12    1    1    2    0    0 -0.23113995588E+02  0.73783368661E+01 -0.32626198718E+02  0.40659137838E+02  0.00000000000E+00 0. -1.
         11    1    3    3    0    0  0.33035503983E+01  0.17926163806E+01 -0.36138473688E+01  0.52140974087E+01  0.51100000000E-03 0. -1.
        -11    1    3    3    0    0  0.21409491186E+02 -0.11022631141E+02  0.35217610633E+02  0.42663155170E+02  0.51100000000E-03 0.  1.
        -12    1    3    3    0    0 -0.15990459959E+01  0.18516778945E+01  0.10224354543E+01  0.26516095830E+01  0.00000000000E+00 0.  1.
</event>
<event>
 7    1  0.5897985E-013  0.5052886E+02  0.7816164E-02  0.1300439E+00
        -11   -1    0    0    0    0  0.00000000000E+00  0.00000000000E+00  0.45593999997E+02  0.45594000000E+02  0.51100000000E-03 0. -1.
         11   -1    0    0    0    0 -0.00000000000E+00 -0.00000000000E+00 -0.45593999997E+02  0.45594000000E+02  0.51100000000E-03 0.  1.
    9900012    2    1    2    0    0  0.34646384187E+02 -0.16834202988E+02 -0.13015507066E+02  0.50528858941E+02  0.29999997237E+02 0.  0.
         12    1    1    2    0    0 -0.34646384187E+02  0.16834202988E+02  0.13015507066E+02  0.40659141059E+02  0.00000000000E+00 0. -1.
         11    1    3    3    0    0  0.32241361578E+02 -0.21579710087E+02 -0.61799764129E+01  0.39285893048E+02  0.51100000000E-03 0.  1.
        -11    1    3    3    0    0 -0.20319812422E+01  0.30405631687E+01 -0.48916383540E+01  0.61075443673E+01  0.51100000000E-03 0. -1.
         12    1    3    3    0    0  0.44370038512E+01  0.17049439302E+01 -0.19438922987E+01  0.51354215260E+01  0.00000000000E+00 0. -1.
</event>
<event>
 7    1  0.5897985E-013  0.5052886E+02  0.7816164E-02  0.1300439E+00
        -11   -1    0    0    0    0  0.00000000000E+00  0.00000000000E+00  0.45593999997E+02  0.45594000000E+02  0.51100000000E-03 0.  1.
         11   -1    0    0    0    0 -0.00000000000E+00 -0.00000000000E+00 -0.45593999997E+02  0.45594000000E+02  0.51100000000E-03 0. -1.
    9900012    2    1    2    0    0  0.37034909644E+02 -0.16416297749E+02 -0.34765484597E+01  0.50528858921E+02  0.29999997177E+02 0.  0.
         12    1    1    2    0    0 -0.37034909644E+02  0.16416297749E+02  0.34765484597E+01  0.40659141079E+02  0.00000000000E+00 0. -1.
         11    1    3    3    0    0  0.57099798102E+00  0.19944540233E+01 -0.72481642596E+01  0.75392155389E+01  0.51100000000E-03 0. -1.
        -11    1    3    3    0    0  0.28770130260E+02 -0.19119141363E+02  0.57381720435E+01  0.35016975602E+02  0.51100000000E-03 0.  1.
        -12    1    3    3    0    0  0.76937814022E+01  0.70838959087E+00 -0.19665562436E+01  0.79726677804E+01  0.00000000000E+00 0.  1.
</event>
<event>
 7    1  0.5897985E-013  0.5052891E+02  0.7816164E-02  0.1300439E+00
        -11   -1    0    0    0    0  0.00000000000E+00  0.00000000000E+00  0.45593999997E+02  0.45594000000E+02  0.51100000000E-03 0.  1.
         11   -1    0    0    0    0 -0.00000000000E+00 -0.00000000000E+00 -0.45593999997E+02  0.45594000000E+02  0.51100000000E-03 0. -1.
    9900012    2    1    2    0    0 -0.35523738529E+02 -0.71059210967E+01  0.18458912310E+02  0.50528910520E+02  0.30000154015E+02 0.  0.
         12    1    1    2    0    0  0.35523738529E+02  0.71059210967E+01 -0.18458912310E+02  0.40659089480E+02  0.00000000000E+00 0. -1.
         11    1    3    3    0    0 -0.18788850950E+02 -0.12152775259E+02  0.65704987615E+00  0.22386214091E+02  0.51100000000E-03 0. -1.
        -11    1    3    3    0    0 -0.18072862708E+02  0.67976382151E+01  0.14390596952E+02  0.24081643064E+02  0.51100000000E-03 0.  1.
        -12    1    3    3    0    0  0.13379751289E+01 -0.17507840525E+01  0.34112654815E+01  0.40610533645E+01  0.00000000000E+00 0.  1.
</event>
<event>
 7    1  0.5897985E-013  0.5052889E+02  0.7816164E-02  0.1300439E+00
        -11   -1    0    0    0    0  0.00000000000E+00  0.00000000000E+00  0.45593999997E+02  0.45594000000E+02  0.51100000000E-03 0.  1.
         11   -1    0    0    0    0 -0.00000000000E+00 -0.00000000000E+00 -0.45593999997E+02  0.45594000000E+02  0.51100000000E-03 0. -1.
    9900012    2    1    2    0    0 -0.13750271407E+02  0.21780591006E+02  0.31459486104E+02  0.50528888177E+02  0.30000086102E+02 0.  0.
         12    1    1    2    0    0  0.13750271407E+02 -0.21780591006E+02 -0.31459486104E+02  0.40659111823E+02  0.00000000000E+00 0. -1.
         11    1    3    3    0    0 -0.11821834670E+02  0.59431866293E+01 -0.71213368632E+00  0.13250825518E+02  0.51100000000E-03 0. -1.
        -11    1    3    3    0    0 -0.59926058941E+01  0.10808331214E+02  0.20618585634E+02  0.24038665163E+02  0.51100000000E-03 0.  1.
        -12    1    3    3    0    0  0.40641691569E+01  0.50290731629E+01  0.11553034156E+02  0.13239397495E+02  0.00000000000E+00 0.  1.
</event>
<event>
 7    1  0.5897985E-013  0.5052885E+02  0.7816164E-02  0.1300439E+00
        -11   -1    0    0    0    0  0.00000000000E+00  0.00000000000E+00  0.45593999997E+02  0.45594000000E+02  0.51100000000E-03 0.  1.
         11   -1    0    0    0    0 -0.00000000000E+00 -0.00000000000E+00 -0.45593999997E+02  0.45594000000E+02  0.51100000000E-03 0. -1.
    9900012    2    1    2    0    0 -0.29890905770E+02  0.23801623715E+02  0.13899027197E+02  0.50528849785E+02  0.29999969405E+02 0.  0.
         12    1    1    2    0    0  0.29890905770E+02 -0.23801623715E+02 -0.13899027197E+02  0.40659150215E+02  0.00000000000E+00 0. -1.
         11    1    3    3    0    0 -0.72167550074E+00 -0.59676951445E+01  0.19012085445E+01  0.63046645476E+01  0.51100000000E-03 0. -1.
        -11    1    3    3    0    0 -0.20449108445E+02  0.18487118587E+02  0.11739354085E+02  0.29962510317E+02  0.51100000000E-03 0.  1.
         12    1    3    3    0    0 -0.87201218238E+01  0.11282200272E+02  0.25846456686E+00  0.14261674920E+02  0.00000000000E+00 0. -1.
</event>
<event>
 7    1  0.5897985E-013  0.5052887E+02  0.7816164E-02  0.1300439E+00
        -11   -1    0    0    0    0  0.00000000000E+00  0.00000000000E+00  0.45593999997E+02  0.45594000000E+02  0.51100000000E-03 0. -1.
         11   -1    0    0    0    0 -0.00000000000E+00 -0.00000000000E+00 -0.45593999997E+02  0.45594000000E+02  0.51100000000E-03 0.  1.
    9900012    2    1    2    0    0  0.32901667455E+02 -0.18660113149E+02 -0.14914611640E+02  0.50528865916E+02  0.30000018438E+02 0.  0.
         12    1    1    2    0    0 -0.32901667455E+02  0.18660113149E+02  0.14914611640E+02  0.40659134084E+02  0.00000000000E+00 0. -1.
         11    1    3    3    0    0 -0.68962709980E+00 -0.30354948328E+01  0.31732921031E+01  0.44451768749E+01  0.51100000000E-03 0. -1.
        -11    1    3    3    0    0  0.26999566268E+02 -0.16817173108E+02 -0.21668652976E+02  0.38487977500E+02  0.51100000000E-03 0.  1.
        -12    1    3    3    0    0  0.65917282869E+01  0.11925547912E+01  0.35807492331E+01  0.75957115406E+01  0.00000000000E+00 0.  1.
</event>
<event>
 7    1  0.5897985E-013  0.5052885E+02  0.7816164E-02  0.1300439E+00
        -11   -1    0    0    0    0  0.00000000000E+00  0.00000000000E+00  0.45593999997E+02  0.45594000000E+02  0.51100000000E-03 0. -1.
         11   -1    0    0    0    0 -0.00000000000E+00 -0.00000000000E+00 -0.45593999997E+02  0.45594000000E+02  0.51100000000E-03 0.  1.
    9900012    2    1    2    0    0 -0.55303430617E+00  0.35797051850E+02 -0.19272554834E+02  0.50528854191E+02  0.29999982800E+02 0.  0.
         12    1    1    2    0    0  0.55303430617E+00 -0.35797051850E+02  0.19272554834E+02  0.40659145809E+02  0.00000000000E+00 0. -1.
         11    1    3    3    0    0 -0.11318144877E+02  0.80723797148E+01 -0.16290093060E+01  0.13997049307E+02  0.51100000000E-03 0. -1.
        -11    1    3    3    0    0  0.38618691465E+01  0.13797800548E+02 -0.15038076853E+02  0.20771063742E+02  0.51100000000E-03 0.  1.
         12    1    3    3    0    0  0.69032414244E+01  0.13926871586E+02 -0.26054686751E+01  0.15760741143E+02  0.00000000000E+00 0. -1.
</event>
<event>
 7    1  0.5897985E-013  0.5052886E+02  0.7816164E-02  0.1300439E+00
        -11   -1    0    0    0    0  0.00000000000E+00  0.00000000000E+00  0.45593999997E+02  0.45594000000E+02  0.51100000000E-03 0.  1.
         11   -1    0    0    0    0 -0.00000000000E+00 -0.00000000000E+00 -0.45593999997E+02  0.45594000000E+02  0.51100000000E-03 0. -1.
    9900012    2    1    2    0    0 -0.24263578471E+02 -0.18103572129E+02  0.27142310764E+02  0.50528860835E+02  0.30000002994E+02 0.  0.
         12    1    1    2    0    0  0.24263578471E+02  0.18103572129E+02 -0.27142310764E+02  0.40659139165E+02  0.00000000000E+00 0. -1.
         11    1    3    3    0    0  0.10349084000E+01  0.11841781491E+01  0.31633181443E+01  0.35326895177E+01  0.51100000000E-03 0. -1.
        -11    1    3    3    0    0 -0.22360314984E+02 -0.24489226912E+02  0.15452920828E+02  0.36585498265E+02  0.51100000000E-03 0.  1.
        -12    1    3    3    0    0 -0.29381718873E+01  0.52014766335E+01  0.85260717915E+01  0.10410673052E+02  0.00000000000E+00 0.  1.
</event>
<event>
 7    1  0.5897985E-013  0.5052886E+02  0.7816164E-02  0.1300439E+00
        -11   -1    0    0    0    0  0.00000000000E+00  0.00000000000E+00  0.45593999997E+02  0.45594000000E+02  0.51100000000E-03 0.  1.
         11   -1    0    0    0    0 -0.00000000000E+00 -0.00000000000E+00 -0.45593999997E+02  0.45594000000E+02  0.51100000000E-03 0. -1.
    9900012    2    1    2    0    0 -0.15363974729E+02  0.16422526233E+02  0.33873510436E+02  0.50528858389E+02  0.29999995559E+02 0.  0.
         12    1    1    2    0    0  0.15363974729E+02 -0.16422526233E+02 -0.33873510436E+02  0.40659141611E+02  0.00000000000E+00 0. -1.
         11    1    3    3    0    0 -0.22541450838E+02  0.99365961409E+01  0.18220914995E+02  0.30640735831E+02  0.51100000000E-03 0. -1.
        -11    1    3    3    0    0  0.28598736731E+01  0.14008391727E+01  0.11718826166E+02  0.12143809731E+02  0.51100000000E-03 0.  1.
         12    1    3    3    0    0  0.43176024363E+01  0.50850909191E+01  0.39337692744E+01  0.77443128267E+01  0.00000000000E+00 0. -1.
</event>
<event>
 7    1  0.5897985E-013  0.5052881E+02  0.7816164E-02  0.1300439E+00
        -11   -1    0    0    0    0  0.00000000000E+00  0.00000000000E+00  0.45593999997E+02  0.45594000000E+02  0.51100000000E-03 0. -1.
         11   -1    0    0    0    0 -0.00000000000E+00 -0.00000000000E+00 -0.45593999997E+02  0.45594000000E+02  0.51100000000E-03 0.  1.
    9900012    2    1    2    0    0 -0.14279414568E+02  0.34208779683E+02 -0.16704116900E+02  0.50528809044E+02  0.29999845570E+02 0.  0.
         12    1    1    2    0    0  0.14279414568E+02 -0.34208779683E+02  0.16704116900E+02  0.40659190956E+02  0.00000000000E+00 0. -1.
         11    1    3    3    0    0 -0.18073294538E+02  0.14655251677E+02 -0.11132845481E+02  0.25794585206E+02  0.51100000000E-03 0. -1.
        -11    1    3    3    0    0  0.68368897249E+01  0.15511803471E+02  0.33806433121E+00  0.16955040424E+02  0.51100000000E-03 0.  1.
         12    1    3    3    0    0 -0.30430097554E+01  0.40417245347E+01 -0.59093357496E+01  0.77791834140E+01  0.00000000000E+00 0. -1.
</event>
<event>
 7    1  0.5897985E-013  0.5052887E+02  0.7816164E-02  0.1300439E+00
        -11   -1    0    0    0    0  0.00000000000E+00  0.00000000000E+00  0.45593999997E+02  0.45594000000E+02  0.51100000000E-03 0.  1.
         11   -1    0    0    0    0 -0.00000000000E+00 -0.00000000000E+00 -0.45593999997E+02  0.45594000000E+02  0.51100000000E-03 0. -1.
    9900012    2    1    2    0    0 -0.21724563469E+02 -0.10223016315E+02  0.32813078757E+02  0.50528869930E+02  0.30000030640E+02 0.  0.
         12    1    1    2    0    0  0.21724563469E+02  0.10223016315E+02 -0.32813078757E+02  0.40659130070E+02  0.00000000000E+00 0. -1.
         11    1    3    3    0    0  0.40455385188E+01  0.34100261206E+00  0.44552863205E+00  0.40842576696E+01  0.51100000000E-03 0. -1.
        -11    1    3    3    0    0 -0.15931118005E+02 -0.13952773556E+02  0.14166724107E+02  0.25478941952E+02  0.51100000000E-03 0.  1.
         12    1    3    3    0    0 -0.98389839828E+01  0.33887546293E+01  0.18200826019E+02  0.20965670309E+02  0.00000000000E+00 0. -1.
</event>
<event>
 7    1  0.5897985E-013  0.5052883E+02  0.7816164E-02  0.1300439E+00
        -11   -1    0    0    0    0  0.00000000000E+00  0.00000000000E+00  0.45593999997E+02  0.45594000000E+02  0.51100000000E-03 0. -1.
         11   -1    0    0    0    0 -0.00000000000E+00 -0.00000000000E+00 -0.45593999997E+02  0.45594000000E+02  0.51100000000E-03 0.  1.
    9900012    2    1    2    0    0 -0.11870808943E+02 -0.23824956142E+02 -0.30734723253E+02  0.50528833093E+02  0.29999918669E+02 0.  0.
         12    1    1    2    0    0  0.11870808943E+02  0.23824956142E+02  0.30734723253E+02  0.40659166907E+02  0.00000000000E+00 0. -1.
         11    1    3    3    0    0 -0.50593454049E+01 -0.18802845712E+02 -0.26483612681E+02  0.32871351108E+02  0.51100000000E-03 0. -1.
        -11    1    3    3    0    0  0.45042899848E+01  0.13934218760E+00  0.22233024289E-01  0.45064996484E+01  0.51100000000E-03 0.  1.
         12    1    3    3    0    0 -0.11315753523E+02 -0.51614526183E+01 -0.42733435960E+01  0.13150982336E+02  0.00000000000E+00 0. -1.
</event>
<event>
 7    1  0.5897985E-013  0.5052886E+02  0.7816164E-02  0.1300439E+00
        -11   -1    0    0    0    0  0.00000000000E+00  0.00000000000E+00  0.45593999997E+02  0.45594000000E+02  0.51100000000E-03 0.  1.
         11   -1    0    0    0    0 -0.00000000000E+00 -0.00000000000E+00 -0.45593999997E+02  0.45594000000E+02  0.51100000000E-03 0. -1.
    9900012    2    1    2    0    0 -0.29523296511E+02 -0.19483482991E+02  0.20048303868E+02  0.50528860384E+02  0.30000001623E+02 0.  0.
         12    1    1    2    0    0  0.29523296511E+02  0.19483482991E+02 -0.20048303868E+02  0.40659139616E+02  0.00000000000E+00 0. -1.
         11    1    3    3    0    0 -0.11239009581E+02 -0.22310401127E+02  0.19506565349E+02  0.31695037889E+02  0.51100000000E-03 0.  1.
        -11    1    3    3    0    0 -0.92686877365E+01  0.28272543575E+01 -0.78092420211E+00  0.97217170514E+01  0.51100000000E-03 0. -1.
        -12    1    3    3    0    0 -0.90155991942E+01 -0.33622200718E-03  0.13226627207E+01  0.91121054436E+01  0.00000000000E+00 0.  1.
</event>
<event>
 7    1  0.5897985E-013  0.5052886E+02  0.7816164E-02  0.1300439E+00
        -11   -1    0    0    0    0  0.00000000000E+00  0.00000000000E+00  0.45593999997E+02  0.45594000000E+02  0.51100000000E-03 0.  1.
         11   -1    0    0    0    0 -0.00000000000E+00 -0.00000000000E+00 -0.45593999997E+02  0.45594000000E+02  0.51100000000E-03 0. -1.
    9900012    2    1    2    0    0 -0.19809354007E+02  0.35437790719E+02 -0.22176950418E+01  0.50528859717E+02  0.29999999595E+02 0.  0.
         12    1    1    2    0    0  0.19809354007E+02 -0.35437790719E+02  0.22176950418E+01  0.40659140283E+02  0.00000000000E+00 0. -1.
         11    1    3    3    0    0 -0.11355419933E+02  0.76426811535E+01  0.62617751613E+01  0.15052108341E+02  0.51100000000E-03 0.  1.
        -11    1    3    3    0    0 -0.59963503234E+00  0.23426984620E+02 -0.11354960811E+02  0.26040704787E+02  0.51100000000E-03 0. -1.
         12    1    3    3    0    0 -0.78542990420E+01  0.43681249464E+01  0.28754906079E+01  0.94360465887E+01  0.00000000000E+00 0. -1.
</event>
<event>
 7    1  0.5897985E-013  0.5052886E+02  0.7816164E-02  0.1300439E+00
        -11   -1    0    0    0    0  0.00000000000E+00  0.00000000000E+00  0.45593999997E+02  0.45594000000E+02  0.51100000000E-03 0.  1.
         11   -1    0    0    0    0 -0.00000000000E+00 -0.00000000000E+00 -0.45593999997E+02  0.45594000000E+02  0.51100000000E-03 0. -1.
    9900012    2    1    2    0    0 -0.31297056242E+02 -0.22927243368E+02  0.12165587667E+02  0.50528859070E+02  0.29999997630E+02 0.  0.
         12    1    1    2    0    0  0.31297056242E+02  0.22927243368E+02 -0.12165587667E+02  0.40659140930E+02  0.00000000000E+00 0. -1.
         11    1    3    3    0    0 -0.19077160390E+01 -0.69999040861E+01 -0.54501963892E+01  0.90742866740E+01  0.51100000000E-03 0. -1.
        -11    1    3    3    0    0 -0.21969472470E+02 -0.72418264080E+01  0.19016826115E+02  0.29945641521E+02  0.51100000000E-03 0.  1.
        -12    1    3    3    0    0 -0.74198677327E+01 -0.86855128734E+01 -0.14010420589E+01  0.11508930875E+02  0.00000000000E+00 0.  1.
</event>
<event>
 7    1  0.5897985E-013  0.5052884E+02  0.7816164E-02  0.1300439E+00
        -11   -1    0    0    0    0  0.00000000000E+00  0.00000000000E+00  0.45593999997E+02  0.45594000000E+02  0.51100000000E-03 0.  1.
         11   -1    0    0    0    0 -0.00000000000E+00 -0.00000000000E+00 -0.45593999997E+02  0.45594000000E+02  0.51100000000E-03 0. -1.
    9900012    2    1    2    0    0 -0.26146988969E+00 -0.67704576030E+01  0.40090645320E+02  0.50528839841E+02  0.29999939180E+02 0.  0.
         12    1    1    2    0    0  0.26146988969E+00  0.67704576030E+01 -0.40090645320E+02  0.40659160159E+02  0.00000000000E+00 0. -1.
         11    1    3    3    0    0  0.14925302737E+01 -0.43621954244E+01 -0.17648110083E+01  0.49366946123E+01  0.51100000000E-03 0. -1.
        -11    1    3    3    0    0  0.55148529196E+01  0.43984555994E+01  0.25369684928E+02  0.26332127297E+02  0.51100000000E-03 0.  1.
         12    1    3    3    0    0 -0.72688530830E+01 -0.68067177779E+01  0.16485771400E+02  0.19260017931E+02  0.00000000000E+00 0. -1.
</event>
<event>
 7    1  0.5897985E-013  0.5052886E+02  0.7816164E-02  0.1300439E+00
        -11   -1    0    0    0    0  0.00000000000E+00  0.00000000000E+00  0.45593999997E+02  0.45594000000E+02  0.51100000000E-03 0. -1.
         11   -1    0    0    0    0 -0.00000000000E+00 -0.00000000000E+00 -0.45593999997E+02  0.45594000000E+02  0.51100000000E-03 0.  1.
    9900012    2    1    2    0    0  0.31336279086E+02  0.14388765154E+02 -0.21544524070E+02  0.50528862441E+02  0.30000007876E+02 0.  0.
         12    1    1    2    0    0 -0.31336279086E+02 -0.14388765154E+02  0.21544524070E+02  0.40659137559E+02  0.00000000000E+00 0. -1.
         11    1    3    3    0    0  0.10124640795E+02  0.13427433051E+02 -0.14163254973E+01  0.16876323289E+02  0.51100000000E-03 0. -1.
        -11    1    3    3    0    0  0.17199479183E+02 -0.64996067395E+01 -0.15170312041E+02  0.23837058116E+02  0.51100000000E-03 0.  1.
        -12    1    3    3    0    0  0.40121591092E+01  0.74609388418E+01 -0.49578865318E+01  0.98154810367E+01  0.00000000000E+00 0.  1.
</event>
<event>
 7    1  0.5897985E-013  0.5052887E+02  0.7816164E-02  0.1300439E+00
        -11   -1    0    0    0    0  0.00000000000E+00  0.00000000000E+00  0.45593999997E+02  0.45594000000E+02  0.51100000000E-03 0.  1.
         11   -1    0    0    0    0 -0.00000000000E+00 -0.00000000000E+00 -0.45593999997E+02  0.45594000000E+02  0.51100000000E-03 0. -1.
    9900012    2    1    2    0    0 -0.18640261061E+02  0.21007610533E+02  0.29400445074E+02  0.50528865684E+02  0.30000017734E+02 0.  0.
         12    1    1    2    0    0  0.18640261061E+02 -0.21007610533E+02 -0.29400445074E+02  0.40659134316E+02  0.00000000000E+00 0. -1.
         11    1    3    3    0    0 -0.45466877571E+01 -0.80394825511E+00 -0.38547182779E+01  0.60147781023E+01  0.51100000000E-03 0. -1.
        -11    1    3    3    0    0 -0.12411016792E+02  0.64513598630E+01  0.18050369304E+02  0.22835700431E+02  0.51100000000E-03 0.  1.
         12    1    3    3    0    0 -0.16825565123E+01  0.15360198925E+02  0.15204794048E+02  0.21678387151E+02  0.00000000000E+00 0. -1.
</event>
<event>
 7    1  0.5897985E-013  0.5052884E+02  0.7816164E-02  0.1300439E+00
        -11   -1    0    0    0    0  0.00000000000E+00  0.00000000000E+00  0.45593999997E+02  0.45594000000E+02  0.51100000000E-03 0.  1.
         11   -1    0    0    0    0 -0.00000000000E+00 -0.00000000000E+00 -0.45593999997E+02  0.45594000000E+02  0.51100000000E-03 0. -1.
    9900012    2    1    2    0    0 -0.23746945254E+02  0.20327521158E+02 -0.26000808417E+02  0.50528836658E+02  0.29999929506E+02 0.  0.
         12    1    1    2    0    0  0.23746945254E+02 -0.20327521158E+02  0.26000808417E+02  0.40659163342E+02  0.00000000000E+00 0. -1.
         11    1    3    3    0    0 -0.13192896247E+01  0.20022601997E+02 -0.11718775333E+02  0.23237358099E+02  0.51100000000E-03 0. -1.
        -11    1    3    3    0    0 -0.15590045961E+02 -0.45839471921E-01 -0.64042315470E+01  0.16854252173E+02  0.51100000000E-03 0.  1.
         12    1    3    3    0    0 -0.68376096683E+01  0.35075863288E+00 -0.78778015366E+01  0.10437226387E+02  0.00000000000E+00 0. -1.
</event>
<event>
 7    1  0.5897985E-013  0.5052887E+02  0.7816164E-02  0.1300439E+00
        -11   -1    0    0    0    0  0.00000000000E+00  0.00000000000E+00  0.45593999997E+02  0.45594000000E+02  0.51100000000E-03 0.  1.
         11   -1    0    0    0    0 -0.00000000000E+00 -0.00000000000E+00 -0.45593999997E+02  0.45594000000E+02  0.51100000000E-03 0. -1.
    9900012    2    1    2    0    0 -0.50135838331E+01  0.29674940010E+02  0.27339104305E+02  0.50528871730E+02  0.30000036111E+02 0.  0.
         12    1    1    2    0    0  0.50135838331E+01 -0.29674940010E+02 -0.27339104305E+02  0.40659128270E+02  0.00000000000E+00 0. -1.
         11    1    3    3    0    0  0.98816253603E+01  0.11600936610E+02  0.16664064070E+02  0.22581392375E+02  0.51100000000E-03 0. -1.
        -11    1    3    3    0    0 -0.12757029807E+02  0.15879710542E+02  0.12944817120E+02  0.24134525206E+02  0.51100000000E-03 0.  1.
        -12    1    3    3    0    0 -0.21381793865E+01  0.21942928585E+01 -0.22697768849E+01  0.38129541494E+01  0.00000000000E+00 0.  1.
</event>
<event>
 7    1  0.5897985E-013  0.5052889E+02  0.7816164E-02  0.1300439E+00
        -11   -1    0    0    0    0  0.00000000000E+00  0.00000000000E+00  0.45593999997E+02  0.45594000000E+02  0.51100000000E-03 0.  1.
         11   -1    0    0    0    0 -0.00000000000E+00 -0.00000000000E+00 -0.45593999997E+02  0.45594000000E+02  0.51100000000E-03 0. -1.
    9900012    2    1    2    0    0  0.35753013645E+02 -0.97785935666E+01  0.16711210059E+02  0.50528887632E+02  0.30000084448E+02 0.  0.
         12    1    1    2    0    0 -0.35753013645E+02  0.97785935666E+01 -0.16711210059E+02  0.40659112368E+02  0.00000000000E+00 0. -1.
         11    1    3    3    0    0 -0.23302967429E+01 -0.31388338843E+01  0.10315588968E+02  0.11031497500E+02  0.51100000000E-03 0. -1.
        -11    1    3    3    0    0  0.29744698789E+02 -0.51409816444E+01  0.70561244928E+01  0.30999446631E+02  0.51100000000E-03 0.  1.
         12    1    3    3    0    0  0.83386115995E+01 -0.14987780379E+01 -0.66050340206E+00  0.84979435017E+01  0.00000000000E+00 0. -1.
</event>
<event>
 7    1  0.5897985E-013  0.5052887E+02  0.7816164E-02  0.1300439E+00
        -11   -1    0    0    0    0  0.00000000000E+00  0.00000000000E+00  0.45593999997E+02  0.45594000000E+02  0.51100000000E-03 0.  1.
         11   -1    0    0    0    0 -0.00000000000E+00 -0.00000000000E+00 -0.45593999997E+02  0.45594000000E+02  0.51100000000E-03 0. -1.
    9900012    2    1    2    0    0 -0.37205327780E+02  0.15784173043E+02 -0.44484418585E+01  0.50528866108E+02  0.30000019021E+02 0.  0.
         12    1    1    2    0    0  0.37205327780E+02 -0.15784173043E+02  0.44484418585E+01  0.40659133892E+02  0.00000000000E+00 0. -1.
         11    1    3    3    0    0 -0.34252493750E+02  0.92585184190E+01 -0.91969657044E+01  0.36654299472E+02  0.51100000000E-03 0. -1.
        -11    1    3    3    0    0  0.82928626741E+00  0.60300557960E+01  0.71323040878E+01  0.93765159030E+01  0.51100000000E-03 0.  1.
        -12    1    3    3    0    0 -0.37821202980E+01  0.49559882847E+00 -0.23837802420E+01  0.44980507322E+01  0.00000000000E+00 0.  1.
</event>
<event>
 7    1  0.5897985E-013  0.5052886E+02  0.7816164E-02  0.1300439E+00
        -11   -1    0    0    0    0  0.00000000000E+00  0.00000000000E+00  0.45593999997E+02  0.45594000000E+02  0.51100000000E-03 0. -1.
         11   -1    0    0    0    0 -0.00000000000E+00 -0.00000000000E+00 -0.45593999997E+02  0.45594000000E+02  0.51100000000E-03 0.  1.
    9900012    2    1    2    0    0 -0.12943652595E+02  0.23193591024E+02 -0.30784490013E+02  0.50528860407E+02  0.30000001693E+02 0.  0.
         12    1    1    2    0    0  0.12943652595E+02 -0.23193591024E+02  0.30784490013E+02  0.40659139593E+02  0.00000000000E+00 0. -1.
         11    1    3    3    0    0 -0.72645120062E+01  0.24850565209E+02 -0.29835584916E+02  0.39502985373E+02  0.51100000000E-03 0.  1.
        -11    1    3    3    0    0 -0.10998276286E+01 -0.34883776835E+01  0.29818835124E+01  0.47191131814E+01  0.51100000000E-03 0. -1.
         12    1    3    3    0    0 -0.45793129607E+01  0.18314034992E+01 -0.39307886093E+01  0.63067618521E+01  0.00000000000E+00 0. -1.
</event>
<event>
 7    1  0.5897985E-013  0.5052887E+02  0.7816164E-02  0.1300439E+00
        -11   -1    0    0    0    0  0.00000000000E+00  0.00000000000E+00  0.45593999997E+02  0.45594000000E+02  0.51100000000E-03 0.  1.
         11   -1    0    0    0    0 -0.00000000000E+00 -0.00000000000E+00 -0.45593999997E+02  0.45594000000E+02  0.51100000000E-03 0. -1.
    9900012    2    1    2    0    0 -0.20363031288E+02 -0.25764416483E+02  0.23973044106E+02  0.50528867647E+02  0.30000023701E+02 0.  0.
         12    1    1    2    0    0  0.20363031288E+02  0.25764416483E+02 -0.23973044106E+02  0.40659132353E+02  0.00000000000E+00 0. -1.
         11    1    3    3    0    0  0.19798119090E+01 -0.91628704795E+01  0.28063437009E+01  0.97853674355E+01  0.51100000000E-03 0. -1.
        -11    1    3    3    0    0 -0.73850300679E+01  0.44752185050E+01  0.78474431443E+01  0.11668273820E+02  0.51100000000E-03 0.  1.
        -12    1    3    3    0    0 -0.14957813129E+02 -0.21076764509E+02  0.13319257261E+02  0.29075226392E+02  0.00000000000E+00 0.  1.
</event>
<event>
 7    1  0.5897985E-013  0.5052885E+02  0.7816164E-02  0.1300439E+00
        -11   -1    0    0    0    0  0.00000000000E+00  0.00000000000E+00  0.45593999997E+02  0.45594000000E+02  0.51100000000E-03 0.  1.
         11   -1    0    0    0    0 -0.00000000000E+00 -0.00000000000E+00 -0.45593999997E+02  0.45594000000E+02  0.51100000000E-03 0. -1.
    9900012    2    1    2    0    0 -0.19943875763E+02  0.33749772364E+02 -0.10787095963E+02  0.50528846610E+02  0.29999959756E+02 0.  0.
         12    1    1    2    0    0  0.19943875763E+02 -0.33749772364E+02  0.10787095963E+02  0.40659153390E+02  0.00000000000E+00 0. -1.
         11    1    3    3    0    0 -0.23408936451E+02  0.25609657444E+02 -0.70535287706E+01  0.35406004131E+02  0.51100000000E-03 0.  1.
        -11    1    3    3    0    0 -0.89787350000E+00 -0.27138504028E+01 -0.14452317973E+01  0.32031010037E+01  0.51100000000E-03 0. -1.
         12    1    3    3    0    0  0.43629341877E+01  0.10853965323E+02 -0.22883353955E+01  0.11919741476E+02  0.00000000000E+00 0. -1.
</event>
<event>
 7    1  0.5897985E-013  0.5052885E+02  0.7816164E-02  0.1300439E+00
        -11   -1    0    0    0    0  0.00000000000E+00  0.00000000000E+00  0.45593999997E+02  0.45594000000E+02  0.51100000000E-03 0. -1.
         11   -1    0    0    0    0 -0.00000000000E+00 -0.00000000000E+00 -0.45593999997E+02  0.45594000000E+02  0.51100000000E-03 0.  1.
    9900012    2    1    2    0    0 -0.39311562245E+02 -0.57442266085E+00 -0.10365200047E+02  0.50528852696E+02  0.29999978254E+02 0.  0.
         12    1    1    2    0    0  0.39311562245E+02  0.57442266085E+00  0.10365200047E+02  0.40659147304E+02  0.00000000000E+00 0. -1.
         11    1    3    3    0    0 -0.12345355616E+02 -0.85686517564E+01 -0.72866216754E+01  0.16701031522E+02  0.51100000000E-03 0. -1.
        -11    1    3    3    0    0 -0.28801560381E+02  0.10434932318E+02 -0.27808486396E+01  0.30759564566E+02  0.51100000000E-03 0.  1.
         12    1    3    3    0    0  0.18353537523E+01 -0.24407032227E+01 -0.29772973166E+00  0.30682566077E+01  0.00000000000E+00 0. -1.
</event>
<event>
 7    1  0.5897985E-013  0.5052885E+02  0.7816164E-02  0.1300439E+00
        -11   -1    0    0    0    0  0.00000000000E+00  0.00000000000E+00  0.45593999997E+02  0.45594000000E+02  0.51100000000E-03 0.  1.
         11   -1    0    0    0    0 -0.00000000000E+00 -0.00000000000E+00 -0.45593999997E+02  0.45594000000E+02  0.51100000000E-03 0. -1.
    9900012    2    1    2    0    0 -0.33144211932E+02  0.35173959506E+01  0.23286376372E+02  0.50528853632E+02  0.29999981100E+02 0.  0.
         12    1    1    2    0    0  0.33144211932E+02 -0.35173959506E+01 -0.23286376372E+02  0.40659146368E+02  0.00000000000E+00 0. -1.
         11    1    3    3    0    0 -0.18312475488E+02 -0.24672992126E+01  0.25956638266E+02  0.31861911340E+02  0.51100000000E-03 0. -1.
        -11    1    3    3    0    0 -0.13395677767E+02  0.79248582494E+01 -0.37700434463E+01  0.16014393181E+02  0.51100000000E-03 0.  1.
         12    1    3    3    0    0 -0.14360586759E+01 -0.19401630862E+01  0.10997815516E+01  0.26525491103E+01  0.00000000000E+00 0. -1.
</event>
<event>
 7    1  0.5897985E-013  0.5052885E+02  0.7816164E-02  0.1300439E+00
        -11   -1    0    0    0    0  0.00000000000E+00  0.00000000000E+00  0.45593999997E+02  0.45594000000E+02  0.51100000000E-03 0. -1.
         11   -1    0    0    0    0 -0.00000000000E+00 -0.00000000000E+00 -0.45593999997E+02  0.45594000000E+02  0.51100000000E-03 0.  1.
    9900012    2    1    2    0    0  0.67758359594E+01 -0.10631021797E+02 -0.38655343347E+02  0.50528854083E+02  0.29999982472E+02 0.  0.
         12    1    1    2    0    0 -0.67758359594E+01  0.10631021797E+02  0.38655343347E+02  0.40659145917E+02  0.00000000000E+00 0. -1.
         11    1    3    3    0    0 -0.27961536514E+01 -0.12532844797E+02 -0.25759541135E+02  0.28782714148E+02  0.51100000000E-03 0. -1.
        -11    1    3    3    0    0  0.40503740251E+01  0.80615201586E+01 -0.84203993998E+01  0.12340857479E+02  0.51100000000E-03 0.  1.
         12    1    3    3    0    0  0.55216155857E+01 -0.61596971579E+01 -0.44754028117E+01  0.94052824562E+01  0.00000000000E+00 0. -1.
</event>
<event>
 7    1  0.5897985E-013  0.5052886E+02  0.7816164E-02  0.1300439E+00
        -11   -1    0    0    0    0  0.00000000000E+00  0.00000000000E+00  0.45593999997E+02  0.45594000000E+02  0.51100000000E-03 0. -1.
         11   -1    0    0    0    0 -0.00000000000E+00 -0.00000000000E+00 -0.45593999997E+02  0.45594000000E+02  0.51100000000E-03 0.  1.
    9900012    2    1    2    0    0 -0.19175089771E+02 -0.29960912101E+02 -0.19693289043E+02  0.50528856441E+02  0.29999989637E+02 0.  0.
         12    1    1    2    0    0  0.19175089771E+02  0.29960912101E+02  0.19693289043E+02  0.40659143559E+02  0.00000000000E+00 0. -1.
         11    1    3    3    0    0 -0.14495360279E+00 -0.10187268738E+00  0.50282518993E+01  0.50313722795E+01  0.51100000000E-03 0. -1.
        -11    1    3    3    0    0 -0.16874746080E+02 -0.31294435575E+02 -0.23610031675E+02  0.42679413646E+02  0.51100000000E-03 0.  1.
         12    1    3    3    0    0 -0.21553900891E+01  0.14353961617E+01 -0.11115092669E+01  0.28180705150E+01  0.00000000000E+00 0. -1.
</event>
<event>
 7    1  0.5897985E-013  0.5052886E+02  0.7816164E-02  0.1300439E+00
        -11   -1    0    0    0    0  0.00000000000E+00  0.00000000000E+00  0.45593999997E+02  0.45594000000E+02  0.51100000000E-03 0.  1.
         11   -1    0    0    0    0 -0.00000000000E+00 -0.00000000000E+00 -0.45593999997E+02  0.45594000000E+02  0.51100000000E-03 0. -1.
    9900012    2    1    2    0    0 -0.30221212659E+01 -0.40521903983E+02  0.14169562382E+01  0.50528859769E+02  0.29999999755E+02 0.  0.
         12    1    1    2    0    0  0.30221212659E+01  0.40521903983E+02 -0.14169562382E+01  0.40659140231E+02  0.00000000000E+00 0. -1.
         11    1    3    3    0    0 -0.55135886188E+01 -0.17230920290E+02 -0.13075427755E+02  0.22321986577E+02  0.51100000000E-03 0. -1.
        -11    1    3    3    0    0  0.17463201873E+01 -0.47874686150E+01  0.58879077212E+01  0.77869729376E+01  0.51100000000E-03 0.  1.
         12    1    3    3    0    0  0.74514716558E+00 -0.18503515078E+02  0.86044762717E+01  0.20419900255E+02  0.00000000000E+00 0. -1.
</event>
<event>
 7    1  0.5897985E-013  0.5052886E+02  0.7816164E-02  0.1300439E+00
        -11   -1    0    0    0    0  0.00000000000E+00  0.00000000000E+00  0.45593999997E+02  0.45594000000E+02  0.51100000000E-03 0. -1.
         11   -1    0    0    0    0 -0.00000000000E+00 -0.00000000000E+00 -0.45593999997E+02  0.45594000000E+02  0.51100000000E-03 0.  1.
    9900012    2    1    2    0    0  0.46716336600E+01 -0.38737076049E+02 -0.11435926001E+02  0.50528860494E+02  0.30000001956E+02 0.  0.
         12    1    1    2    0    0 -0.46716336600E+01  0.38737076049E+02  0.11435926001E+02  0.40659139506E+02  0.00000000000E+00 0. -1.
         11    1    3    3    0    0  0.44815202989E+01  0.11489571163E+01 -0.18058015974E+01  0.49663916796E+01  0.51100000000E-03 0. -1.
        -11    1    3    3    0    0  0.27722015211E+00 -0.34695709733E+02 -0.15260278345E+02  0.37904422174E+02  0.51100000000E-03 0.  1.
         12    1    3    3    0    0 -0.87106791006E-01 -0.51903234330E+01  0.56301539423E+01  0.76580466404E+01  0.00000000000E+00 0. -1.
</event>
<event>
 7    1  0.5897985E-013  0.5052886E+02  0.7816164E-02  0.1300439E+00
        -11   -1    0    0    0    0  0.00000000000E+00  0.00000000000E+00  0.45593999997E+02  0.45594000000E+02  0.51100000000E-03 0.  1.
         11   -1    0    0    0    0 -0.00000000000E+00 -0.00000000000E+00 -0.45593999997E+02  0.45594000000E+02  0.51100000000E-03 0. -1.
    9900012    2    1    2    0    0  0.24597244989E+02  0.32065125359E+02  0.44686472561E+01  0.50528861622E+02  0.30000005385E+02 0.  0.
         12    1    1    2    0    0 -0.24597244989E+02 -0.32065125359E+02 -0.44686472561E+01  0.40659138378E+02  0.00000000000E+00 0. -1.
         11    1    3    3    0    0  0.10032882758E+02 -0.24410225730E+01 -0.30998796994E+01  0.10780843290E+02  0.51100000000E-03 0. -1.
        -11    1    3    3    0    0  0.15743290674E+02  0.30760763126E+02  0.87529199218E+01  0.35646729959E+02  0.51100000000E-03 0.  1.
         12    1    3    3    0    0 -0.11789284420E+01  0.37453848064E+01 -0.11843929664E+01  0.41012883730E+01  0.00000000000E+00 0. -1.
</event>
<event>
 7    1  0.5897985E-013  0.5052886E+02  0.7816164E-02  0.1300439E+00
        -11   -1    0    0    0    0  0.00000000000E+00  0.00000000000E+00  0.45593999997E+02  0.45594000000E+02  0.51100000000E-03 0.  1.
         11   -1    0    0    0    0 -0.00000000000E+00 -0.00000000000E+00 -0.45593999997E+02  0.45594000000E+02  0.51100000000E-03 0. -1.
    9900012    2    1    2    0    0  0.14820799867E+02  0.29049828651E+02  0.24282029960E+02  0.50528860409E+02  0.30000001698E+02 0.  0.
         12    1    1    2    0    0 -0.14820799867E+02 -0.29049828651E+02 -0.24282029960E+02  0.40659139591E+02  0.00000000000E+00 0. -1.
         11    1    3    3    0    0 -0.73882597672E+01  0.12363995000E+02  0.74584514127E+01  0.16219841321E+02  0.51100000000E-03 0. -1.
        -11    1    3    3    0    0  0.16767411592E+02  0.14228373166E+02  0.17758017939E+02  0.28265524864E+02  0.51100000000E-03 0.  1.
         12    1    3    3    0    0  0.54416480426E+01  0.24574604846E+01 -0.93443939184E+00  0.60434942236E+01  0.00000000000E+00 0. -1.
</event>
<event>
 7    1  0.5897985E-013  0.5052886E+02  0.7816164E-02  0.1300439E+00
        -11   -1    0    0    0    0  0.00000000000E+00  0.00000000000E+00  0.45593999997E+02  0.45594000000E+02  0.51100000000E-03 0. -1.
         11   -1    0    0    0    0 -0.00000000000E+00 -0.00000000000E+00 -0.45593999997E+02  0.45594000000E+02  0.51100000000E-03 0.  1.
    9900012    2    1    2    0    0  0.20851946842E+02  0.20286493574E+02  0.28404582236E+02  0.50528858339E+02  0.29999995407E+02 0.  0.
         12    1    1    2    0    0 -0.20851946842E+02 -0.20286493574E+02 -0.28404582236E+02  0.40659141661E+02  0.00000000000E+00 0. -1.
         11    1    3    3    0    0  0.89261302422E+00  0.11665506073E+01  0.98810351580E+01  0.99896173293E+01  0.51100000000E-03 0. -1.
        -11    1    3    3    0    0  0.21865098655E+02  0.20222709921E+02  0.21574788534E+02  0.36776514738E+02  0.51100000000E-03 0.  1.
        -12    1    3    3    0    0 -0.19057648371E+01 -0.11027669547E+01 -0.30512414560E+01  0.37627262714E+01  0.00000000000E+00 0.  1.
</event>
<event>
 7    1  0.5897985E-013  0.5052893E+02  0.7816164E-02  0.1300439E+00
        -11   -1    0    0    0    0  0.00000000000E+00  0.00000000000E+00  0.45593999997E+02  0.45594000000E+02  0.51100000000E-03 0. -1.
         11   -1    0    0    0    0 -0.00000000000E+00 -0.00000000000E+00 -0.45593999997E+02  0.45594000000E+02  0.51100000000E-03 0.  1.
    9900012    2    1    2    0    0 -0.34152083937E+01  0.17408429429E+02 -0.36584737839E+02  0.50528928364E+02  0.30000208254E+02 0.  0.
         12    1    1    2    0    0  0.34152083937E+01 -0.17408429429E+02  0.36584737839E+02  0.40659071636E+02  0.00000000000E+00 0. -1.
         11    1    3    3    0    0  0.29711988536E+00  0.54256540488E+01 -0.15422518899E+01  0.56484106824E+01  0.51100000000E-03 0. -1.
        -11    1    3    3    0    0 -0.69615549549E+01 -0.59721635503E+01 -0.75297178004E+01  0.11867039870E+02  0.51100000000E-03 0.  1.
        -12    1    3    3    0    0  0.32492266759E+01  0.17954938930E+02 -0.27512768149E+02  0.33013477811E+02  0.00000000000E+00 0.  1.
</event>
<event>
 7    1  0.5897985E-013  0.5052887E+02  0.7816164E-02  0.1300439E+00
        -11   -1    0    0    0    0  0.00000000000E+00  0.00000000000E+00  0.45593999997E+02  0.45594000000E+02  0.51100000000E-03 0. -1.
         11   -1    0    0    0    0 -0.00000000000E+00 -0.00000000000E+00 -0.45593999997E+02  0.45594000000E+02  0.51100000000E-03 0.  1.
    9900012    2    1    2    0    0  0.32735163096E+02 -0.18976790425E+02 -0.14881378457E+02  0.50528869382E+02  0.30000028975E+02 0.  0.
         12    1    1    2    0    0 -0.32735163096E+02  0.18976790425E+02  0.14881378457E+02  0.40659130618E+02  0.00000000000E+00 0. -1.
         11    1    3    3    0    0  0.55862771216E+01 -0.93458499524E+01  0.11186825586E+01  0.10945449024E+02  0.51100000000E-03 0. -1.
        -11    1    3    3    0    0  0.85701447747E+01  0.28802751463E+01 -0.14559688815E+02  0.17138491912E+02  0.51100000000E-03 0.  1.
        -12    1    3    3    0    0  0.18578741200E+02 -0.12511215619E+02 -0.14403722004E+01  0.22444928446E+02  0.00000000000E+00 0.  1.
</event>
<event>
 7    1  0.5897985E-013  0.5052886E+02  0.7816164E-02  0.1300439E+00
        -11   -1    0    0    0    0  0.00000000000E+00  0.00000000000E+00  0.45593999997E+02  0.45594000000E+02  0.51100000000E-03 0. -1.
         11   -1    0    0    0    0 -0.00000000000E+00 -0.00000000000E+00 -0.45593999997E+02  0.45594000000E+02  0.51100000000E-03 0.  1.
    9900012    2    1    2    0    0  0.29828458417E+02 -0.10693044441E+02 -0.25477203944E+02  0.50528855251E+02  0.29999986021E+02 0.  0.
         12    1    1    2    0    0 -0.29828458417E+02  0.10693044441E+02  0.25477203944E+02  0.40659144749E+02  0.00000000000E+00 0. -1.
         11    1    3    3    0    0  0.66019114515E+01 -0.44996974002E+01 -0.19751151154E+02  0.21305879087E+02  0.51100000000E-03 0. -1.
        -11    1    3    3    0    0  0.15336313210E+02 -0.10870600786E+02 -0.67948095932E+01  0.19988544269E+02  0.51100000000E-03 0.  1.
        -12    1    3    3    0    0  0.78902337548E+01  0.46772537454E+01  0.10687568037E+01  0.92344318943E+01  0.00000000000E+00 0.  1.
</event>
<event>
 7    1  0.5897985E-013  0.5052887E+02  0.7816164E-02  0.1300439E+00
        -11   -1    0    0    0    0  0.00000000000E+00  0.00000000000E+00  0.45593999997E+02  0.45594000000E+02  0.51100000000E-03 0. -1.
         11   -1    0    0    0    0 -0.00000000000E+00 -0.00000000000E+00 -0.45593999997E+02  0.45594000000E+02  0.51100000000E-03 0.  1.
    9900012    2    1    2    0    0  0.27520922227E+02  0.30111475881E+01 -0.29777451302E+02  0.50528870938E+02  0.30000033703E+02 0.  0.
         12    1    1    2    0    0 -0.27520922227E+02 -0.30111475881E+01  0.29777451302E+02  0.40659129062E+02  0.00000000000E+00 0. -1.
         11    1    3    3    0    0  0.48926826105E+00 -0.61322208269E+01 -0.16816385511E+02  0.17906265318E+02  0.51100000000E-03 0. -1.
        -11    1    3    3    0    0  0.13585362618E+02  0.11768026171E+01 -0.94878434522E+01  0.16612227890E+02  0.51100000000E-03 0.  1.
         12    1    3    3    0    0  0.13446291349E+02  0.79665657979E+01 -0.34732223385E+01  0.16010377730E+02  0.00000000000E+00 0. -1.
</event>
<event>
 7    1  0.5897985E-013  0.5052886E+02  0.7816164E-02  0.1300439E+00
        -11   -1    0    0    0    0  0.00000000000E+00  0.00000000000E+00  0.45593999997E+02  0.45594000000E+02  0.51100000000E-03 0.  1.
         11   -1    0    0    0    0 -0.00000000000E+00 -0.00000000000E+00 -0.45593999997E+02  0.45594000000E+02  0.51100000000E-03 0. -1.
    9900012    2    1    2    0    0 -0.36059757262E+02 -0.18067862580E+02 -0.51392862497E+01  0.50528855701E+02  0.29999987388E+02 0.  0.
         12    1    1    2    0    0  0.36059757262E+02  0.18067862580E+02  0.51392862497E+01  0.40659144299E+02  0.00000000000E+00 0. -1.
         11    1    3    3    0    0 -0.29406470435E+02 -0.25657779664E+01  0.54912168902E+00  0.29523300203E+02  0.51100000000E-03 0. -1.
        -11    1    3    3    0    0 -0.29770474136E+01 -0.16204558215E+02 -0.45158211352E+01  0.17083417662E+02  0.51100000000E-03 0.  1.
        -12    1    3    3    0    0 -0.36762394138E+01  0.70247360111E+00 -0.11725868035E+01  0.39221378353E+01  0.00000000000E+00 0.  1.
</event>
<event>
 7    1  0.5897985E-013  0.5052887E+02  0.7816164E-02  0.1300439E+00
        -11   -1    0    0    0    0  0.00000000000E+00  0.00000000000E+00  0.45593999997E+02  0.45594000000E+02  0.51100000000E-03 0. -1.
         11   -1    0    0    0    0 -0.00000000000E+00 -0.00000000000E+00 -0.45593999997E+02  0.45594000000E+02  0.51100000000E-03 0.  1.
    9900012    2    1    2    0    0 -0.24459486518E+02 -0.30703861609E+02 -0.10591107553E+02  0.50528866246E+02  0.30000019442E+02 0.  0.
         12    1    1    2    0    0  0.24459486518E+02  0.30703861609E+02  0.10591107553E+02  0.40659133754E+02  0.00000000000E+00 0. -1.
         11    1    3    3    0    0 -0.18912664201E+01 -0.32017349945E+01  0.52661916413E+01  0.64467643288E+01  0.51100000000E-03 0. -1.
        -11    1    3    3    0    0 -0.26173275384E+02 -0.24371169705E+02 -0.16268796417E+02  0.39289540520E+02  0.51100000000E-03 0.  1.
        -12    1    3    3    0    0  0.36050552863E+01 -0.31309569091E+01  0.41149722303E+00  0.47925613975E+01  0.00000000000E+00 0.  1.
</event>
<event>
 7    1  0.5897985E-013  0.5052886E+02  0.7816164E-02  0.1300439E+00
        -11   -1    0    0    0    0  0.00000000000E+00  0.00000000000E+00  0.45593999997E+02  0.45594000000E+02  0.51100000000E-03 0.  1.
         11   -1    0    0    0    0 -0.00000000000E+00 -0.00000000000E+00 -0.45593999997E+02  0.45594000000E+02  0.51100000000E-03 0. -1.
    9900012    2    1    2    0    0  0.39273233697E+02 -0.10321434161E+02 -0.20608145179E+01  0.50528857798E+02  0.29999993762E+02 0.  0.
         12    1    1    2    0    0 -0.39273233697E+02  0.10321434161E+02  0.20608145179E+01  0.40659142202E+02  0.00000000000E+00 0. -1.
         11    1    3    3    0    0  0.14690487298E+02 -0.83931015472E+01 -0.92897683876E+01  0.19301667482E+02  0.51100000000E-03 0. -1.
        -11    1    3    3    0    0  0.93346362394E+01 -0.66507286775E+01  0.97737246209E+01  0.15062978420E+02  0.51100000000E-03 0.  1.
        -12    1    3    3    0    0  0.15248110160E+02  0.47223960639E+01 -0.25447707513E+01  0.16164211895E+02  0.00000000000E+00 0.  1.
</event>
<event>
 7    1  0.5897985E-013  0.5052887E+02  0.7816164E-02  0.1300439E+00
        -11   -1    0    0    0    0  0.00000000000E+00  0.00000000000E+00  0.45593999997E+02  0.45594000000E+02  0.51100000000E-03 0. -1.
         11   -1    0    0    0    0 -0.00000000000E+00 -0.00000000000E+00 -0.45593999997E+02  0.45594000000E+02  0.51100000000E-03 0.  1.
    9900012    2    1    2    0    0 -0.64662683824E+01 -0.15609903391E+02 -0.36982205271E+02  0.50528865511E+02  0.30000017207E+02 0.  0.
         12    1    1    2    0    0  0.64662683824E+01  0.15609903391E+02  0.36982205271E+02  0.40659134489E+02  0.00000000000E+00 0. -1.
         11    1    3    3    0    0  0.31397737806E+01 -0.11047175438E+02 -0.13143794960E+01  0.11559665145E+02  0.51100000000E-03 0. -1.
        -11    1    3    3    0    0 -0.47446866378E+01 -0.72658002718E+01 -0.29080209515E+02  0.30347363816E+02  0.51100000000E-03 0.  1.
         12    1    3    3    0    0 -0.48613555253E+01  0.27030723188E+01 -0.65876162601E+01  0.86218365500E+01  0.00000000000E+00 0. -1.
</event>
<event>
 7    1  0.5897985E-013  0.5052885E+02  0.7816164E-02  0.1300439E+00
        -11   -1    0    0    0    0  0.00000000000E+00  0.00000000000E+00  0.45593999997E+02  0.45594000000E+02  0.51100000000E-03 0.  1.
         11   -1    0    0    0    0 -0.00000000000E+00 -0.00000000000E+00 -0.45593999997E+02  0.45594000000E+02  0.51100000000E-03 0. -1.
    9900012    2    1    2    0    0 -0.15713873911E+02 -0.35456463705E+02  0.12209818038E+02  0.50528852096E+02  0.29999976430E+02 0.  0.
         12    1    1    2    0    0  0.15713873911E+02  0.35456463705E+02 -0.12209818038E+02  0.40659147904E+02  0.00000000000E+00 0. -1.
         11    1    3    3    0    0  0.19023839430E+01 -0.36491367638E+00 -0.14023282528E+01  0.23913911114E+01  0.51100000000E-03 0. -1.
        -11    1    3    3    0    0 -0.22760299454E+02 -0.25316158125E+02  0.14610913110E+02  0.37046158716E+02  0.51100000000E-03 0.  1.
        -12    1    3    3    0    0  0.51440415996E+01 -0.97753919032E+01 -0.99876681933E+00  0.11091302268E+02  0.00000000000E+00 0.  1.
</event>
<event>
 7    1  0.5897985E-013  0.5052885E+02  0.7816164E-02  0.1300439E+00
        -11   -1    0    0    0    0  0.00000000000E+00  0.00000000000E+00  0.45593999997E+02  0.45594000000E+02  0.51100000000E-03 0. -1.
         11   -1    0    0    0    0 -0.00000000000E+00 -0.00000000000E+00 -0.45593999997E+02  0.45594000000E+02  0.51100000000E-03 0.  1.
    9900012    2    1    2    0    0  0.39199531434E+02 -0.10148774072E+02 -0.36831920973E+01  0.50528846248E+02  0.29999958655E+02 0.  0.
         12    1    1    2    0    0 -0.39199531434E+02  0.10148774072E+02  0.36831920973E+01  0.40659153752E+02  0.00000000000E+00 0. -1.
         11    1    3    3    0    0  0.24566216676E+02  0.13057995043E+01  0.71758502794E+01  0.25626098837E+02  0.51100000000E-03 0. -1.
        -11    1    3    3    0    0  0.34490709006E+01  0.17205612461E+01 -0.56744105610E+01  0.68596907040E+01  0.51100000000E-03 0.  1.
         12    1    3    3    0    0  0.11184243857E+02 -0.13175134823E+02 -0.51846318158E+01  0.18043056706E+02  0.00000000000E+00 0. -1.
</event>
<event>
 7    1  0.5897985E-013  0.5052886E+02  0.7816164E-02  0.1300439E+00
        -11   -1    0    0    0    0  0.00000000000E+00  0.00000000000E+00  0.45593999997E+02  0.45594000000E+02  0.51100000000E-03 0.  1.
         11   -1    0    0    0    0 -0.00000000000E+00 -0.00000000000E+00 -0.45593999997E+02  0.45594000000E+02  0.51100000000E-03 0. -1.
    9900012    2    1    2    0    0  0.16095197105E+02  0.92888648873E+01  0.36163893170E+02  0.50528861421E+02  0.30000004776E+02 0.  0.
         12    1    1    2    0    0 -0.16095197105E+02 -0.92888648873E+01 -0.36163893170E+02  0.40659138579E+02  0.00000000000E+00 0. -1.
         11    1    3    3    0    0 -0.11326307687E+01 -0.18220950640E+01  0.11503404710E+01  0.24343718575E+01  0.51100000000E-03 0. -1.
        -11    1    3    3    0    0  0.17355271717E+02  0.90276625145E+00  0.33546284872E+02  0.37780599152E+02  0.51100000000E-03 0.  1.
        -12    1    3    3    0    0 -0.12744384358E+00  0.10208193700E+02  0.14672678270E+01  0.10313890412E+02  0.00000000000E+00 0.  1.
</event>
<event>
 7    1  0.5897985E-013  0.5052886E+02  0.7816164E-02  0.1300439E+00
        -11   -1    0    0    0    0  0.00000000000E+00  0.00000000000E+00  0.45593999997E+02  0.45594000000E+02  0.51100000000E-03 0.  1.
         11   -1    0    0    0    0 -0.00000000000E+00 -0.00000000000E+00 -0.45593999997E+02  0.45594000000E+02  0.51100000000E-03 0. -1.
    9900012    2    1    2    0    0  0.36719738585E+01  0.15804822018E+02  0.37281228593E+02  0.50528858390E+02  0.29999995563E+02 0.  0.
         12    1    1    2    0    0 -0.36719738585E+01 -0.15804822018E+02 -0.37281228593E+02  0.40659141610E+02  0.00000000000E+00 0. -1.
         11    1    3    3    0    0  0.83514994360E+01  0.77365228086E+01  0.53473160542E+01  0.12577564043E+02  0.51100000000E-03 0.  1.
        -11    1    3    3    0    0 -0.82618237612E+01 -0.14097385771E+01  0.66054535388E+01  0.10671321916E+02  0.51100000000E-03 0. -1.
        -12    1    3    3    0    0  0.35822981836E+01  0.94780377864E+01  0.25328459000E+02  0.27279972432E+02  0.00000000000E+00 0.  1.
</event>
<event>
 7    1  0.5897985E-013  0.5052881E+02  0.7816164E-02  0.1300439E+00
        -11   -1    0    0    0    0  0.00000000000E+00  0.00000000000E+00  0.45593999997E+02  0.45594000000E+02  0.51100000000E-03 0.  1.
         11   -1    0    0    0    0 -0.00000000000E+00 -0.00000000000E+00 -0.45593999997E+02  0.45594000000E+02  0.51100000000E-03 0. -1.
    9900012    2    1    2    0    0 -0.37172016268E+02 -0.15935266765E+02  0.41807235281E+01  0.50528807073E+02  0.29999839577E+02 0.  0.
         12    1    1    2    0    0  0.37172016268E+02  0.15935266765E+02 -0.41807235281E+01  0.40659192927E+02  0.00000000000E+00 0. -1.
         11    1    3    3    0    0 -0.28487717564E+02 -0.18373665464E+02 -0.47979616230E+01  0.34236852521E+02  0.51100000000E-03 0. -1.
        -11    1    3    3    0    0 -0.16482649043E+01 -0.17686610602E+01  0.76046843286E+01  0.79797345282E+01  0.51100000000E-03 0.  1.
         12    1    3    3    0    0 -0.70360338001E+01  0.42070597593E+01  0.13740008224E+01  0.83122200233E+01  0.00000000000E+00 0. -1.
</event>
<event>
 7    1  0.5897985E-013  0.5052886E+02  0.7816164E-02  0.1300439E+00
        -11   -1    0    0    0    0  0.00000000000E+00  0.00000000000E+00  0.45593999997E+02  0.45594000000E+02  0.51100000000E-03 0.  1.
         11   -1    0    0    0    0 -0.00000000000E+00 -0.00000000000E+00 -0.45593999997E+02  0.45594000000E+02  0.51100000000E-03 0. -1.
    9900012    2    1    2    0    0  0.36048070149E+02 -0.12556528020E+02  0.14001286738E+02  0.50528858498E+02  0.29999995890E+02 0.  0.
         12    1    1    2    0    0 -0.36048070149E+02  0.12556528020E+02 -0.14001286738E+02  0.40659141502E+02  0.00000000000E+00 0. -1.
         11    1    3    3    0    0  0.14472386290E+02 -0.50015377566E+00  0.11267414797E+02  0.18348153999E+02  0.51100000000E-03 0. -1.
        -11    1    3    3    0    0  0.21035837741E+02 -0.54553618487E+01 -0.46898571304E+01  0.22232008514E+02  0.51100000000E-03 0.  1.
        -12    1    3    3    0    0  0.53984611778E+00 -0.66010123959E+01  0.74237290710E+01  0.99486959849E+01  0.00000000000E+00 0.  1.
</event>
<event>
 7    1  0.5897985E-013  0.5052885E+02  0.7816164E-02  0.1300439E+00
        -11   -1    0    0    0    0  0.00000000000E+00  0.00000000000E+00  0.45593999997E+02  0.45594000000E+02  0.51100000000E-03 0. -1.
         11   -1    0    0    0    0 -0.00000000000E+00 -0.00000000000E+00 -0.45593999997E+02  0.45594000000E+02  0.51100000000E-03 0.  1.
    9900012    2    1    2    0    0 -0.35189482498E+02  0.18514295602E+02 -0.84904258500E+01  0.50528854027E+02  0.29999982301E+02 0.  0.
         12    1    1    2    0    0  0.35189482498E+02 -0.18514295602E+02  0.84904258500E+01  0.40659145973E+02  0.00000000000E+00 0. -1.
         11    1    3    3    0    0 -0.17523900630E+02  0.24314703139E+01  0.91993466635E+01  0.19940589772E+02  0.51100000000E-03 0. -1.
        -11    1    3    3    0    0 -0.11097160488E+02  0.12482316805E+02 -0.15495384378E+02  0.22782935302E+02  0.51100000000E-03 0.  1.
         12    1    3    3    0    0 -0.65684213808E+01  0.36005084822E+01 -0.21943881357E+01  0.78053289525E+01  0.00000000000E+00 0. -1.
</event>
<event>
 7    1  0.5897985E-013  0.5052885E+02  0.7816164E-02  0.1300439E+00
        -11   -1    0    0    0    0  0.00000000000E+00  0.00000000000E+00  0.45593999997E+02  0.45594000000E+02  0.51100000000E-03 0. -1.
         11   -1    0    0    0    0 -0.00000000000E+00 -0.00000000000E+00 -0.45593999997E+02  0.45594000000E+02  0.51100000000E-03 0.  1.
    9900012    2    1    2    0    0  0.20353844444E+02 -0.34753652119E+02 -0.55741360337E+01  0.50528852053E+02  0.29999976300E+02 0.  0.
         12    1    1    2    0    0 -0.20353844444E+02  0.34753652119E+02  0.55741360337E+01  0.40659147947E+02  0.00000000000E+00 0. -1.
         11    1    3    3    0    0 -0.78312426296E+01 -0.63736138089E+01 -0.70763652013E+00  0.10121860689E+02  0.51100000000E-03 0. -1.
        -11    1    3    3    0    0  0.24453049281E+02 -0.23918413976E+02 -0.31944211468E+01  0.34354715440E+02  0.51100000000E-03 0.  1.
         12    1    3    3    0    0  0.37320377934E+01 -0.44616243344E+01 -0.16720783668E+01  0.60522759238E+01  0.00000000000E+00 0. -1.
</event>
<event>
 7    1  0.5897985E-013  0.5052885E+02  0.7816164E-02  0.1300439E+00
        -11   -1    0    0    0    0  0.00000000000E+00  0.00000000000E+00  0.45593999997E+02  0.45594000000E+02  0.51100000000E-03 0.  1.
         11   -1    0    0    0    0 -0.00000000000E+00 -0.00000000000E+00 -0.45593999997E+02  0.45594000000E+02  0.51100000000E-03 0. -1.
    9900012    2    1    2    0    0 -0.13413353212E+02 -0.34219549757E+02  0.17385939063E+02  0.50528849652E+02  0.29999969001E+02 0.  0.
         12    1    1    2    0    0  0.13413353212E+02  0.34219549757E+02 -0.17385939063E+02  0.40659150348E+02  0.00000000000E+00 0. -1.
         11    1    3    3    0    0  0.27712414019E+01 -0.32549944445E+01  0.35174653082E+01  0.55360030886E+01  0.51100000000E-03 0. -1.
        -11    1    3    3    0    0 -0.12152965079E+02 -0.35489405337E+01 -0.23620234182E+01  0.12879002058E+02  0.51100000000E-03 0.  1.
        -12    1    3    3    0    0 -0.40316295343E+01 -0.27415614778E+02  0.16230497173E+02  0.32113844505E+02  0.00000000000E+00 0.  1.
</event>
<event>
 7    1  0.5897985E-013  0.5052886E+02  0.7816164E-02  0.1300439E+00
        -11   -1    0    0    0    0  0.00000000000E+00  0.00000000000E+00  0.45593999997E+02  0.45594000000E+02  0.51100000000E-03 0. -1.
         11   -1    0    0    0    0 -0.00000000000E+00 -0.00000000000E+00 -0.45593999997E+02  0.45594000000E+02  0.51100000000E-03 0.  1.
    9900012    2    1    2    0    0  0.34987871484E+02  0.15130195015E+02 -0.14145375109E+02  0.50528860940E+02  0.30000003313E+02 0.  0.
         12    1    1    2    0    0 -0.34987871484E+02 -0.15130195015E+02  0.14145375109E+02  0.40659139060E+02  0.00000000000E+00 0. -1.
         11    1    3    3    0    0  0.15020553242E+02  0.50385567185E+01  0.76719994468E+01  0.17602944336E+02  0.51100000000E-03 0. -1.
        -11    1    3    3    0    0  0.19140862338E+02  0.54168869586E+01 -0.17076993396E+02  0.26217150476E+02  0.51100000000E-03 0.  1.
         12    1    3    3    0    0  0.82645590294E+00  0.46747513375E+01 -0.47403811598E+01  0.67087661285E+01  0.00000000000E+00 0. -1.
</event>
<event>
 7    1  0.5897985E-013  0.5052891E+02  0.7816164E-02  0.1300439E+00
        -11   -1    0    0    0    0  0.00000000000E+00  0.00000000000E+00  0.45593999997E+02  0.45594000000E+02  0.51100000000E-03 0. -1.
         11   -1    0    0    0    0 -0.00000000000E+00 -0.00000000000E+00 -0.45593999997E+02  0.45594000000E+02  0.51100000000E-03 0.  1.
    9900012    2    1    2    0    0  0.17861641637E+02  0.27621399672E+02 -0.23899407544E+02  0.50528909469E+02  0.30000150822E+02 0.  0.
         12    1    1    2    0    0 -0.17861641637E+02 -0.27621399672E+02  0.23899407544E+02  0.40659090531E+02  0.00000000000E+00 0. -1.
         11    1    3    3    0    0 -0.43734854480E+00  0.33407590369E+01 -0.17155609514E+02  0.17483331569E+02  0.51100000000E-03 0. -1.
        -11    1    3    3    0    0 -0.12116589851E+01  0.21632873668E-01 -0.12449462869E+00  0.12182301306E+01  0.51100000000E-03 0.  1.
         12    1    3    3    0    0  0.19510649167E+02  0.24259007762E+02 -0.66193034014E+01  0.31827347769E+02  0.00000000000E+00 0. -1.
</event>
<event>
 7    1  0.5897985E-013  0.5052886E+02  0.7816164E-02  0.1300439E+00
        -11   -1    0    0    0    0  0.00000000000E+00  0.00000000000E+00  0.45593999997E+02  0.45594000000E+02  0.51100000000E-03 0. -1.
         11   -1    0    0    0    0 -0.00000000000E+00 -0.00000000000E+00 -0.45593999997E+02  0.45594000000E+02  0.51100000000E-03 0.  1.
    9900012    2    1    2    0    0 -0.30644636724E+02  0.16739746362E+02 -0.20829139074E+02  0.50528857083E+02  0.29999991589E+02 0.  0.
         12    1    1    2    0    0  0.30644636724E+02 -0.16739746362E+02  0.20829139074E+02  0.40659142917E+02  0.00000000000E+00 0. -1.
         11    1    3    3    0    0 -0.18171083805E+01 -0.54056986524E+01 -0.79959306330E+00  0.57587160127E+01  0.51100000000E-03 0. -1.
        -11    1    3    3    0    0 -0.19002191423E+02  0.46514715171E+01 -0.66870482275E+01  0.20674527333E+02  0.51100000000E-03 0.  1.
         12    1    3    3    0    0 -0.98253369199E+01  0.17493973497E+02 -0.13342497783E+02  0.24095613738E+02  0.00000000000E+00 0. -1.
</event>
<event>
 7    1  0.5897985E-013  0.5052886E+02  0.7816164E-02  0.1300439E+00
        -11   -1    0    0    0    0  0.00000000000E+00  0.00000000000E+00  0.45593999997E+02  0.45594000000E+02  0.51100000000E-03 0. -1.
         11   -1    0    0    0    0 -0.00000000000E+00 -0.00000000000E+00 -0.45593999997E+02  0.45594000000E+02  0.51100000000E-03 0.  1.
    9900012    2    1    2    0    0  0.19767080057E+02  0.24263442446E+02 -0.25955998406E+02  0.50528856544E+02  0.29999989952E+02 0.  0.
         12    1    1    2    0    0 -0.19767080057E+02 -0.24263442446E+02  0.25955998406E+02  0.40659143456E+02  0.00000000000E+00 0. -1.
         11    1    3    3    0    0  0.18646688851E+02  0.27888879607E+02 -0.13753935169E+02  0.36258231393E+02  0.51100000000E-03 0.  1.
        -11    1    3    3    0    0 -0.21380974333E+01 -0.12240382785E+01 -0.16403180006E+01  0.29597928552E+01  0.51100000000E-03 0. -1.
         12    1    3    3    0    0  0.32584886385E+01 -0.24013988824E+01 -0.10561745236E+02  0.11310832296E+02  0.00000000000E+00 0. -1.
</event>
<event>
 7    1  0.5897985E-013  0.5052890E+02  0.7816164E-02  0.1300439E+00
        -11   -1    0    0    0    0  0.00000000000E+00  0.00000000000E+00  0.45593999997E+02  0.45594000000E+02  0.51100000000E-03 0.  1.
         11   -1    0    0    0    0 -0.00000000000E+00 -0.00000000000E+00 -0.45593999997E+02  0.45594000000E+02  0.51100000000E-03 0. -1.
    9900012    2    1    2    0    0 -0.17462041022E+02  0.11643859192E+02  0.34823265897E+02  0.50528902848E+02  0.30000130695E+02 0.  0.
         12    1    1    2    0    0  0.17462041022E+02 -0.11643859192E+02 -0.34823265897E+02  0.40659097152E+02  0.00000000000E+00 0. -1.
         11    1    3    3    0    0 -0.10782939098E+01  0.16612741397E+00 -0.31788244715E+01  0.33608393825E+01  0.51100000000E-03 0. -1.
        -11    1    3    3    0    0 -0.55555161239E+01  0.15370375029E+02  0.24144679619E+02  0.29156092710E+02  0.51100000000E-03 0.  1.
        -12    1    3    3    0    0 -0.10828230988E+02 -0.38926432513E+01  0.13857410749E+02  0.18011970755E+02  0.00000000000E+00 0.  1.
</event>
<event>
 7    1  0.5897985E-013  0.5052886E+02  0.7816164E-02  0.1300439E+00
        -11   -1    0    0    0    0  0.00000000000E+00  0.00000000000E+00  0.45593999997E+02  0.45594000000E+02  0.51100000000E-03 0.  1.
         11   -1    0    0    0    0 -0.00000000000E+00 -0.00000000000E+00 -0.45593999997E+02  0.45594000000E+02  0.51100000000E-03 0. -1.
    9900012    2    1    2    0    0 -0.20834828878E+02  0.82601794624E+01  0.33924107288E+02  0.50528859399E+02  0.29999998629E+02 0.  0.
         12    1    1    2    0    0  0.20834828878E+02 -0.82601794624E+01 -0.33924107288E+02  0.40659140601E+02  0.00000000000E+00 0. -1.
         11    1    3    3    0    0 -0.89265763747E+01  0.11572571001E+02  0.33402036512E+02  0.36459624364E+02  0.51100000000E-03 0. -1.
        -11    1    3    3    0    0 -0.30935716450E+01  0.55577846818E+00  0.27639874972E+01  0.41855348970E+01  0.51100000000E-03 0.  1.
         12    1    3    3    0    0 -0.88146808580E+01 -0.38681700071E+01 -0.22419167210E+01  0.98837001379E+01  0.00000000000E+00 0. -1.
</event>
<event>
 7    1  0.5897985E-013  0.5052884E+02  0.7816164E-02  0.1300439E+00
        -11   -1    0    0    0    0  0.00000000000E+00  0.00000000000E+00  0.45593999997E+02  0.45594000000E+02  0.51100000000E-03 0.  1.
         11   -1    0    0    0    0 -0.00000000000E+00 -0.00000000000E+00 -0.45593999997E+02  0.45594000000E+02  0.51100000000E-03 0. -1.
    9900012    2    1    2    0    0 -0.17432040123E+02 -0.35453209567E+02  0.96104676955E+01  0.50528841367E+02  0.29999943818E+02 0.  0.
         12    1    1    2    0    0  0.17432040123E+02  0.35453209567E+02 -0.96104676955E+01  0.40659158633E+02  0.00000000000E+00 0. -1.
         11    1    3    3    0    0 -0.38617888193E-01 -0.73264496619E+01 -0.15584965732E+01  0.74904784774E+01  0.51100000000E-03 0. -1.
        -11    1    3    3    0    0 -0.19594544726E+02 -0.20544928945E+02  0.17118756797E+02  0.33152558316E+02  0.51100000000E-03 0.  1.
        -12    1    3    3    0    0  0.22011224907E+01 -0.75818309602E+01 -0.59497925285E+01  0.98858045732E+01  0.00000000000E+00 0.  1.
</event>
<event>
 7    1  0.5897985E-013  0.5052885E+02  0.7816164E-02  0.1300439E+00
        -11   -1    0    0    0    0  0.00000000000E+00  0.00000000000E+00  0.45593999997E+02  0.45594000000E+02  0.51100000000E-03 0. -1.
         11   -1    0    0    0    0 -0.00000000000E+00 -0.00000000000E+00 -0.45593999997E+02  0.45594000000E+02  0.51100000000E-03 0.  1.
    9900012    2    1    2    0    0 -0.34477066990E+02 -0.80909059178E+01 -0.19975875493E+02  0.50528849634E+02  0.29999968948E+02 0.  0.
         12    1    1    2    0    0  0.34477066990E+02  0.80909059178E+01  0.19975875493E+02  0.40659150366E+02  0.00000000000E+00 0. -1.
         11    1    3    3    0    0 -0.17308205099E+00  0.26390303034E+01  0.19532578348E+01  0.32878039432E+01  0.51100000000E-03 0. -1.
        -11    1    3    3    0    0 -0.22147450271E+02  0.25676365895E+01 -0.18341159788E+02  0.28870407926E+02  0.51100000000E-03 0.  1.
        -12    1    3    3    0    0 -0.12156534668E+02 -0.13297572811E+02 -0.35879735396E+01  0.18370637765E+02  0.00000000000E+00 0.  1.
</event>
<event>
 7    1  0.5897985E-013  0.5052881E+02  0.7816164E-02  0.1300439E+00
        -11   -1    0    0    0    0  0.00000000000E+00  0.00000000000E+00  0.45593999997E+02  0.45594000000E+02  0.51100000000E-03 0. -1.
         11   -1    0    0    0    0 -0.00000000000E+00 -0.00000000000E+00 -0.45593999997E+02  0.45594000000E+02  0.51100000000E-03 0.  1.
    9900012    2    1    2    0    0  0.29288881630E+02  0.21875587506E+02 -0.17798588761E+02  0.50528810661E+02  0.29999850484E+02 0.  0.
         12    1    1    2    0    0 -0.29288881630E+02 -0.21875587506E+02  0.17798588761E+02  0.40659189339E+02  0.00000000000E+00 0. -1.
         11    1    3    3    0    0  0.12477248894E+02  0.26917863829E+01 -0.63445315190E+01  0.14254140955E+02  0.51100000000E-03 0. -1.
        -11    1    3    3    0    0 -0.38114889778E+01  0.11795563643E+02 -0.55807468631E+01  0.13594392436E+02  0.51100000000E-03 0.  1.
        -12    1    3    3    0    0  0.20623121713E+02  0.73882374801E+01 -0.58733103784E+01  0.22680277270E+02  0.00000000000E+00 0.  1.
</event>
<event>
 7    1  0.5897985E-013  0.5052886E+02  0.7816164E-02  0.1300439E+00
        -11   -1    0    0    0    0  0.00000000000E+00  0.00000000000E+00  0.45593999997E+02  0.45594000000E+02  0.51100000000E-03 0.  1.
         11   -1    0    0    0    0 -0.00000000000E+00 -0.00000000000E+00 -0.45593999997E+02  0.45594000000E+02  0.51100000000E-03 0. -1.
    9900012    2    1    2    0    0  0.14412574926E+02  0.31259606125E+02  0.21639778246E+02  0.50528864574E+02  0.30000014358E+02 0.  0.
         12    1    1    2    0    0 -0.14412574926E+02 -0.31259606125E+02 -0.21639778246E+02  0.40659135426E+02  0.00000000000E+00 0. -1.
         11    1    3    3    0    0 -0.20873576456E+01  0.19744131521E+02  0.33772707660E+01  0.20139358221E+02  0.51100000000E-03 0. -1.
        -11    1    3    3    0    0  0.16883071713E+02  0.13798152556E+02  0.15331946830E+02  0.26655125554E+02  0.51100000000E-03 0.  1.
         12    1    3    3    0    0 -0.38313914136E+00 -0.22826779515E+01  0.29305606498E+01  0.37343807992E+01  0.00000000000E+00 0. -1.
</event>
<event>
 7    1  0.5897985E-013  0.5052887E+02  0.7816164E-02  0.1300439E+00
        -11   -1    0    0    0    0  0.00000000000E+00  0.00000000000E+00  0.45593999997E+02  0.45594000000E+02  0.51100000000E-03 0.  1.
         11   -1    0    0    0    0 -0.00000000000E+00 -0.00000000000E+00 -0.45593999997E+02  0.45594000000E+02  0.51100000000E-03 0. -1.
    9900012    2    1    2    0    0 -0.14806533666E+02  0.15039250709E+01  0.37837414851E+02  0.50528865818E+02  0.30000018139E+02 0.  0.
         12    1    1    2    0    0  0.14806533666E+02 -0.15039250709E+01 -0.37837414851E+02  0.40659134182E+02  0.00000000000E+00 0. -1.
         11    1    3    3    0    0 -0.11137470332E+02  0.74439723120E+01  0.96581007021E+01  0.16514686755E+02  0.51100000000E-03 0. -1.
        -11    1    3    3    0    0  0.15868249398E+01 -0.88163980310E+01  0.26223837732E+02  0.27711668179E+02  0.51100000000E-03 0.  1.
        -12    1    3    3    0    0 -0.52558882745E+01  0.28763507899E+01  0.19554764172E+01  0.63025108837E+01  0.00000000000E+00 0.  1.
</event>
<event>
 7    1  0.5897985E-013  0.5052887E+02  0.7816164E-02  0.1300439E+00
        -11   -1    0    0    0    0  0.00000000000E+00  0.00000000000E+00  0.45593999997E+02  0.45594000000E+02  0.51100000000E-03 0.  1.
         11   -1    0    0    0    0 -0.00000000000E+00 -0.00000000000E+00 -0.45593999997E+02  0.45594000000E+02  0.51100000000E-03 0. -1.
    9900012    2    1    2    0    0 -0.11348387655E+02 -0.15875388793E+02  0.35670034082E+02  0.50528865687E+02  0.30000017743E+02 0.  0.
         12    1    1    2    0    0  0.11348387655E+02  0.15875388793E+02 -0.35670034082E+02  0.40659134313E+02  0.00000000000E+00 0. -1.
         11    1    3    3    0    0 -0.24954113486E+01 -0.14837502934E+02  0.89445596197E+01  0.17503820102E+02  0.51100000000E-03 0. -1.
        -11    1    3    3    0    0 -0.43413046287E+01 -0.41811555755E+01  0.26856773969E+02  0.27524812372E+02  0.51100000000E-03 0.  1.
         12    1    3    3    0    0 -0.45116716772E+01  0.31432697170E+01 -0.13129950706E+00  0.55002332130E+01  0.00000000000E+00 0. -1.
</event>
<event>
 7    1  0.5897985E-013  0.5052886E+02  0.7816164E-02  0.1300439E+00
        -11   -1    0    0    0    0  0.00000000000E+00  0.00000000000E+00  0.45593999997E+02  0.45594000000E+02  0.51100000000E-03 0.  1.
         11   -1    0    0    0    0 -0.00000000000E+00 -0.00000000000E+00 -0.45593999997E+02  0.45594000000E+02  0.51100000000E-03 0. -1.
    9900012    2    1    2    0    0 -0.30707711878E+02  0.27840195960E+01  0.26503800185E+02  0.50528858861E+02  0.29999996995E+02 0.  0.
         12    1    1    2    0    0  0.30707711878E+02 -0.27840195960E+01 -0.26503800185E+02  0.40659141139E+02  0.00000000000E+00 0. -1.
         11    1    3    3    0    0 -0.78640973516E+01 -0.13098315595E+01  0.18118554626E+02  0.19794991989E+02  0.51100000000E-03 0.  1.
        -11    1    3    3    0    0 -0.19086824262E+02 -0.10263226068E+01 -0.12930354212E+01  0.19158082873E+02  0.51100000000E-03 0. -1.
        -12    1    3    3    0    0 -0.37567902638E+01  0.51201737623E+01  0.96782809810E+01  0.11575783999E+02  0.00000000000E+00 0.  1.
</event>
<event>
 7    1  0.5897985E-013  0.5052886E+02  0.7816164E-02  0.1300439E+00
        -11   -1    0    0    0    0  0.00000000000E+00  0.00000000000E+00  0.45593999997E+02  0.45594000000E+02  0.51100000000E-03 0.  1.
         11   -1    0    0    0    0 -0.00000000000E+00 -0.00000000000E+00 -0.45593999997E+02  0.45594000000E+02  0.51100000000E-03 0. -1.
    9900012    2    1    2    0    0  0.49348844813E+01  0.39460529674E+02  0.84663337321E+01  0.50528864570E+02  0.30000014348E+02 0.  0.
         12    1    1    2    0    0 -0.49348844813E+01 -0.39460529674E+02 -0.84663337321E+01  0.40659135430E+02  0.00000000000E+00 0. -1.
         11    1    3    3    0    0  0.40650836581E+01  0.21890910489E+01  0.21505085630E+01  0.50933007087E+01  0.51100000000E-03 0. -1.
        -11    1    3    3    0    0 -0.24444424222E+01  0.23633404897E+02 -0.83045024862E+01  0.25168986622E+02  0.51100000000E-03 0.  1.
        -12    1    3    3    0    0  0.33142432454E+01  0.13638033729E+02  0.14620327655E+02  0.20266577240E+02  0.00000000000E+00 0.  1.
</event>
<event>
 7    1  0.5897985E-013  0.5052885E+02  0.7816164E-02  0.1300439E+00
        -11   -1    0    0    0    0  0.00000000000E+00  0.00000000000E+00  0.45593999997E+02  0.45594000000E+02  0.51100000000E-03 0.  1.
         11   -1    0    0    0    0 -0.00000000000E+00 -0.00000000000E+00 -0.45593999997E+02  0.45594000000E+02  0.51100000000E-03 0. -1.
    9900012    2    1    2    0    0 -0.40268602739E+02 -0.13733801687E+01  0.54516139321E+01  0.50528848089E+02  0.29999964252E+02 0.  0.
         12    1    1    2    0    0  0.40268602739E+02  0.13733801687E+01 -0.54516139321E+01  0.40659151911E+02  0.00000000000E+00 0. -1.
         11    1    3    3    0    0 -0.29452732241E+01  0.30981713623E+01 -0.10573766312E+01  0.44035605771E+01  0.51100000000E-03 0. -1.
        -11    1    3    3    0    0 -0.29470211567E+02 -0.10503676994E+02  0.13427054328E+02  0.34045651534E+02  0.51100000000E-03 0.  1.
        -12    1    3    3    0    0 -0.78531179477E+01  0.60321254629E+01 -0.69180637651E+01  0.12079635978E+02  0.00000000000E+00 0.  1.
</event>
<event>
 7    1  0.5897985E-013  0.5052886E+02  0.7816164E-02  0.1300439E+00
        -11   -1    0    0    0    0  0.00000000000E+00  0.00000000000E+00  0.45593999997E+02  0.45594000000E+02  0.51100000000E-03 0. -1.
         11   -1    0    0    0    0 -0.00000000000E+00 -0.00000000000E+00 -0.45593999997E+02  0.45594000000E+02  0.51100000000E-03 0.  1.
    9900012    2    1    2    0    0 -0.40191510317E+02 -0.49991875702E+01  0.35800091357E+01  0.50528857813E+02  0.29999993809E+02 0.  0.
         12    1    1    2    0    0  0.40191510317E+02  0.49991875702E+01 -0.35800091357E+01  0.40659142187E+02  0.00000000000E+00 0. -1.
         11    1    3    3    0    0 -0.17016329615E+02  0.10800729529E+02  0.26049153686E+01  0.20322323102E+02  0.51100000000E-03 0. -1.
        -11    1    3    3    0    0 -0.14312331388E+02 -0.42481715318E+01 -0.27428424839E+01  0.15179360206E+02  0.51100000000E-03 0.  1.
         12    1    3    3    0    0 -0.88628493149E+01 -0.11551745568E+02  0.37179362510E+01  0.15027174505E+02  0.00000000000E+00 0. -1.
</event>
<event>
 7    1  0.5897985E-013  0.5052886E+02  0.7816164E-02  0.1300439E+00
        -11   -1    0    0    0    0  0.00000000000E+00  0.00000000000E+00  0.45593999997E+02  0.45594000000E+02  0.51100000000E-03 0. -1.
         11   -1    0    0    0    0 -0.00000000000E+00 -0.00000000000E+00 -0.45593999997E+02  0.45594000000E+02  0.51100000000E-03 0.  1.
    9900012    2    1    2    0    0 -0.17036608335E+02  0.34360124204E+02 -0.13501901732E+02  0.50528861922E+02  0.30000006297E+02 0.  0.
         12    1    1    2    0    0  0.17036608335E+02 -0.34360124204E+02  0.13501901732E+02  0.40659138078E+02  0.00000000000E+00 0. -1.
         11    1    3    3    0    0 -0.25609267577E+01  0.23735623299E+02 -0.29048819203E+01  0.24049459422E+02  0.51100000000E-03 0. -1.
        -11    1    3    3    0    0 -0.17597213430E+02  0.95968785658E+01 -0.61822506242E+01  0.20975753187E+02  0.51100000000E-03 0.  1.
         12    1    3    3    0    0  0.31215318526E+01  0.10276223390E+01 -0.44147691876E+01  0.55036493128E+01  0.00000000000E+00 0. -1.
</event>
<event>
 7    1  0.5897985E-013  0.5052886E+02  0.7816164E-02  0.1300439E+00
        -11   -1    0    0    0    0  0.00000000000E+00  0.00000000000E+00  0.45593999997E+02  0.45594000000E+02  0.51100000000E-03 0.  1.
         11   -1    0    0    0    0 -0.00000000000E+00 -0.00000000000E+00 -0.45593999997E+02  0.45594000000E+02  0.51100000000E-03 0. -1.
    9900012    2    1    2    0    0 -0.23191583392E+02  0.15203424697E+02  0.29735034293E+02  0.50528856783E+02  0.29999990677E+02 0.  0.
         12    1    1    2    0    0  0.23191583392E+02 -0.15203424697E+02 -0.29735034293E+02  0.40659143217E+02  0.00000000000E+00 0. -1.
         11    1    3    3    0    0 -0.83709355403E+00  0.69283487231E+01  0.31303689124E+01  0.76486568387E+01  0.51100000000E-03 0. -1.
        -11    1    3    3    0    0 -0.25032672087E+02  0.19290297779E+01  0.25707976295E+02  0.35934048939E+02  0.51100000000E-03 0.  1.
        -12    1    3    3    0    0  0.26781822490E+01  0.63460461958E+01  0.89668908603E+00  0.69461510058E+01  0.00000000000E+00 0.  1.
</event>
<event>
 7    1  0.5897985E-013  0.5052887E+02  0.7816164E-02  0.1300439E+00
        -11   -1    0    0    0    0  0.00000000000E+00  0.00000000000E+00  0.45593999997E+02  0.45594000000E+02  0.51100000000E-03 0.  1.
         11   -1    0    0    0    0 -0.00000000000E+00 -0.00000000000E+00 -0.45593999997E+02  0.45594000000E+02  0.51100000000E-03 0. -1.
    9900012    2    1    2    0    0  0.29455227834E+02  0.17526420616E+02  0.21871884913E+02  0.50528865529E+02  0.30000017261E+02 0.  0.
         12    1    1    2    0    0 -0.29455227834E+02 -0.17526420616E+02 -0.21871884913E+02  0.40659134471E+02  0.00000000000E+00 0. -1.
         11    1    3    3    0    0  0.27578892687E+01  0.58870990338E+01 -0.58121688528E+01  0.87203896293E+01  0.51100000000E-03 0. -1.
        -11    1    3    3    0    0  0.26978753258E+02  0.11218464985E+02  0.28520687310E+02  0.40830585214E+02  0.51100000000E-03 0.  1.
        -12    1    3    3    0    0 -0.28141469293E+00  0.42085659678E+00 -0.83663354506E+00  0.97789068570E+00  0.00000000000E+00 0.  1.
</event>
<event>
 7    1  0.5897985E-013  0.5052889E+02  0.7816164E-02  0.1300439E+00
        -11   -1    0    0    0    0  0.00000000000E+00  0.00000000000E+00  0.45593999997E+02  0.45594000000E+02  0.51100000000E-03 0. -1.
         11   -1    0    0    0    0 -0.00000000000E+00 -0.00000000000E+00 -0.45593999997E+02  0.45594000000E+02  0.51100000000E-03 0.  1.
    9900012    2    1    2    0    0 -0.65714874444E+01  0.89860999603E+01 -0.39105353091E+02  0.50528891794E+02  0.30000097096E+02 0.  0.
         12    1    1    2    0    0  0.65714874444E+01 -0.89860999603E+01  0.39105353091E+02  0.40659108206E+02  0.00000000000E+00 0. -1.
         11    1    3    3    0    0 -0.28804533475E+01 -0.74193160124E+01 -0.15575945442E+01  0.81098312315E+01  0.51100000000E-03 0. -1.
        -11    1    3    3    0    0  0.32945311858E+01  0.30598071777E+01 -0.11208099852E+02  0.12076334637E+02  0.51100000000E-03 0.  1.
         12    1    3    3    0    0 -0.69855652827E+01  0.13345608795E+02 -0.26339658695E+02  0.30342725925E+02  0.00000000000E+00 0. -1.
</event>
<event>
 7    1  0.5897985E-013  0.5052884E+02  0.7816164E-02  0.1300439E+00
        -11   -1    0    0    0    0  0.00000000000E+00  0.00000000000E+00  0.45593999997E+02  0.45594000000E+02  0.51100000000E-03 0.  1.
         11   -1    0    0    0    0 -0.00000000000E+00 -0.00000000000E+00 -0.45593999997E+02  0.45594000000E+02  0.51100000000E-03 0. -1.
    9900012    2    1    2    0    0 -0.25877555400E+02  0.27632974275E+02  0.14830313006E+02  0.50528839598E+02  0.29999938441E+02 0.  0.
         12    1    1    2    0    0  0.25877555400E+02 -0.27632974275E+02 -0.14830313006E+02  0.40659160402E+02  0.00000000000E+00 0. -1.
         11    1    3    3    0    0 -0.14385856059E+01 -0.37106021108E+01 -0.44013105621E-02  0.39797130805E+01  0.51100000000E-03 0. -1.
        -11    1    3    3    0    0 -0.43035390043E+01  0.20270598946E+02  0.38406466513E+01  0.21075298255E+02  0.51100000000E-03 0.  1.
         12    1    3    3    0    0 -0.20135430790E+02  0.11072977440E+02  0.10994067665E+02  0.25473828262E+02  0.00000000000E+00 0. -1.
</event>
<event>
 7    1  0.5897985E-013  0.5052886E+02  0.7816164E-02  0.1300439E+00
        -11   -1    0    0    0    0  0.00000000000E+00  0.00000000000E+00  0.45593999997E+02  0.45594000000E+02  0.51100000000E-03 0.  1.
         11   -1    0    0    0    0 -0.00000000000E+00 -0.00000000000E+00 -0.45593999997E+02  0.45594000000E+02  0.51100000000E-03 0. -1.
    9900012    2    1    2    0    0  0.44831956446E+00  0.10175051359E+02  0.39362835170E+02  0.50528862611E+02  0.30000008393E+02 0.  0.
         12    1    1    2    0    0 -0.44831956446E+00 -0.10175051359E+02 -0.39362835170E+02  0.40659137389E+02  0.00000000000E+00 0. -1.
         11    1    3    3    0    0 -0.59607616943E+01 -0.75495932051E+00  0.94172654374E+01  0.11170744475E+02  0.51100000000E-03 0. -1.
        -11    1    3    3    0    0  0.79757518420E+01 -0.10286622024E+01  0.25106003265E+02  0.26362514363E+02  0.51100000000E-03 0.  1.
        -12    1    3    3    0    0 -0.15666705832E+01  0.11958672882E+02  0.48395664677E+01  0.12995603773E+02  0.00000000000E+00 0.  1.
</event>
<event>
 7    1  0.5897985E-013  0.5052886E+02  0.7816164E-02  0.1300439E+00
        -11   -1    0    0    0    0  0.00000000000E+00  0.00000000000E+00  0.45593999997E+02  0.45594000000E+02  0.51100000000E-03 0. -1.
         11   -1    0    0    0    0 -0.00000000000E+00 -0.00000000000E+00 -0.45593999997E+02  0.45594000000E+02  0.51100000000E-03 0.  1.
    9900012    2    1    2    0    0 -0.11507186359E+02  0.24956341387E+02 -0.29965500059E+02  0.50528861949E+02  0.30000006379E+02 0.  0.
         12    1    1    2    0    0  0.11507186359E+02 -0.24956341387E+02  0.29965500059E+02  0.40659138051E+02  0.00000000000E+00 0. -1.
         11    1    3    3    0    0  0.21654817209E+01  0.11268059474E+02  0.26258217968E+01  0.11770871496E+02  0.51100000000E-03 0. -1.
        -11    1    3    3    0    0 -0.47738656058E+01  0.46210344367E+01 -0.19117561498E+02  0.20239192424E+02  0.51100000000E-03 0.  1.
         12    1    3    3    0    0 -0.88988024739E+01  0.90672474758E+01 -0.13473760358E+02  0.18518798029E+02  0.00000000000E+00 0. -1.
</event>
<event>
 7    1  0.5897985E-013  0.5052885E+02  0.7816164E-02  0.1300439E+00
        -11   -1    0    0    0    0  0.00000000000E+00  0.00000000000E+00  0.45593999997E+02  0.45594000000E+02  0.51100000000E-03 0.  1.
         11   -1    0    0    0    0 -0.00000000000E+00 -0.00000000000E+00 -0.45593999997E+02  0.45594000000E+02  0.51100000000E-03 0. -1.
    9900012    2    1    2    0    0 -0.24826240156E+02 -0.23454554391E+02 -0.22061456631E+02  0.50528853543E+02  0.29999980828E+02 0.  0.
         12    1    1    2    0    0  0.24826240156E+02  0.23454554391E+02  0.22061456631E+02  0.40659146457E+02  0.00000000000E+00 0. -1.
         11    1    3    3    0    0 -0.21903339419E+02 -0.26232386135E+01 -0.85579286185E+01  0.23661694805E+02  0.51100000000E-03 0. -1.
        -11    1    3    3    0    0  0.28773799099E+01 -0.22224522535E+01 -0.30700466740E+01  0.47585497797E+01  0.51100000000E-03 0.  1.
         12    1    3    3    0    0 -0.58002806468E+01 -0.18608863524E+02 -0.10433481339E+02  0.22108608958E+02  0.00000000000E+00 0. -1.
</event>
<event>
 7    1  0.5897985E-013  0.5052873E+02  0.7816164E-02  0.1300439E+00
        -11   -1    0    0    0    0  0.00000000000E+00  0.00000000000E+00  0.45593999997E+02  0.45594000000E+02  0.51100000000E-03 0.  1.
         11   -1    0    0    0    0 -0.00000000000E+00 -0.00000000000E+00 -0.45593999997E+02  0.45594000000E+02  0.51100000000E-03 0. -1.
    9900012    2    1    2    0    0 -0.34487593513E+02 -0.20361858262E+02  0.70126200133E+01  0.50528730237E+02  0.29999606025E+02 0.  0.
         12    1    1    2    0    0  0.34487593513E+02  0.20361858262E+02 -0.70126200133E+01  0.40659269763E+02  0.00000000000E+00 0. -1.
         11    1    3    3    0    0 -0.34942026074E+02 -0.10509250875E+02  0.20679079969E+01  0.36546761605E+02  0.51100000000E-03 0. -1.
        -11    1    3    3    0    0  0.20324736210E+01 -0.25192729247E+01  0.55831764007E+01  0.64536457969E+01  0.51100000000E-03 0.  1.
         12    1    3    3    0    0 -0.15780410602E+01 -0.73333344629E+01 -0.63846438429E+00  0.75283228346E+01  0.00000000000E+00 0. -1.
</event>
<event>
 7    1  0.5897985E-013  0.5052886E+02  0.7816164E-02  0.1300439E+00
        -11   -1    0    0    0    0  0.00000000000E+00  0.00000000000E+00  0.45593999997E+02  0.45594000000E+02  0.51100000000E-03 0. -1.
         11   -1    0    0    0    0 -0.00000000000E+00 -0.00000000000E+00 -0.45593999997E+02  0.45594000000E+02  0.51100000000E-03 0.  1.
    9900012    2    1    2    0    0 -0.24124495196E+02 -0.97493840905E+01 -0.31242976748E+02  0.50528863823E+02  0.30000012075E+02 0.  0.
         12    1    1    2    0    0  0.24124495196E+02  0.97493840905E+01  0.31242976748E+02  0.40659136177E+02  0.00000000000E+00 0. -1.
         11    1    3    3    0    0 -0.24133476160E+01 -0.28015069758E+01 -0.26230689429E+02  0.26490031261E+02  0.51100000000E-03 0.  1.
        -11    1    3    3    0    0 -0.19571323233E+02 -0.79745355240E+01 -0.46303944050E+01  0.21634936157E+02  0.51100000000E-03 0. -1.
        -12    1    3    3    0    0 -0.21398243463E+01  0.10266584093E+01 -0.38189291444E+00  0.24038964039E+01  0.00000000000E+00 0.  1.
</event>
<event>
 7    1  0.5897985E-013  0.5052885E+02  0.7816164E-02  0.1300439E+00
        -11   -1    0    0    0    0  0.00000000000E+00  0.00000000000E+00  0.45593999997E+02  0.45594000000E+02  0.51100000000E-03 0.  1.
         11   -1    0    0    0    0 -0.00000000000E+00 -0.00000000000E+00 -0.45593999997E+02  0.45594000000E+02  0.51100000000E-03 0. -1.
    9900012    2    1    2    0    0 -0.23100255574E+02 -0.15447375815E+01  0.33423917099E+02  0.50528852739E+02  0.29999978386E+02 0.  0.
         12    1    1    2    0    0  0.23100255574E+02  0.15447375815E+01 -0.33423917099E+02  0.40659147261E+02  0.00000000000E+00 0. -1.
         11    1    3    3    0    0  0.29513173622E+00  0.59058047754E+01  0.13303718586E+02  0.14558659322E+02  0.51100000000E-03 0. -1.
        -11    1    3    3    0    0 -0.15372935442E+02  0.31107054048E+00  0.32093579625E+01  0.15707446889E+02  0.51100000000E-03 0.  1.
        -12    1    3    3    0    0 -0.80224518679E+01 -0.77616128974E+01  0.16910840550E+02  0.20262746528E+02  0.00000000000E+00 0.  1.
</event>
<event>
 7    1  0.5897985E-013  0.5052886E+02  0.7816164E-02  0.1300439E+00
        -11   -1    0    0    0    0  0.00000000000E+00  0.00000000000E+00  0.45593999997E+02  0.45594000000E+02  0.51100000000E-03 0.  1.
         11   -1    0    0    0    0 -0.00000000000E+00 -0.00000000000E+00 -0.45593999997E+02  0.45594000000E+02  0.51100000000E-03 0. -1.
    9900012    2    1    2    0    0 -0.29366898127E+02 -0.20093449110E+02  0.19672416294E+02  0.50528863689E+02  0.30000011669E+02 0.  0.
         12    1    1    2    0    0  0.29366898127E+02  0.20093449110E+02 -0.19672416294E+02  0.40659136311E+02  0.00000000000E+00 0. -1.
         11    1    3    3    0    0 -0.70303092556E+01  0.67159078501E+01  0.73680483269E+01  0.12199049262E+02  0.51100000000E-03 0. -1.
        -11    1    3    3    0    0 -0.16888246354E+02 -0.20804922506E+02  0.13711276307E+02  0.30100776794E+02  0.51100000000E-03 0.  1.
        -12    1    3    3    0    0 -0.54483425166E+01 -0.60044344538E+01 -0.14069083397E+01  0.82290376329E+01  0.00000000000E+00 0.  1.
</event>
<event>
 7    1  0.5897985E-013  0.5052886E+02  0.7816164E-02  0.1300439E+00
        -11   -1    0    0    0    0  0.00000000000E+00  0.00000000000E+00  0.45593999997E+02  0.45594000000E+02  0.51100000000E-03 0.  1.
         11   -1    0    0    0    0 -0.00000000000E+00 -0.00000000000E+00 -0.45593999997E+02  0.45594000000E+02  0.51100000000E-03 0. -1.
    9900012    2    1    2    0    0  0.94168299795E+01  0.13795266318E+02  0.37069929997E+02  0.50528858720E+02  0.29999996564E+02 0.  0.
         12    1    1    2    0    0 -0.94168299795E+01 -0.13795266318E+02 -0.37069929997E+02  0.40659141280E+02  0.00000000000E+00 0. -1.
         11    1    3    3    0    0 -0.35992028678E+01 -0.24159809772E+01 -0.16910662464E+01  0.46530560578E+01  0.51100000000E-03 0. -1.
        -11    1    3    3    0    0  0.13397722404E+02  0.68185922957E+01  0.21738933235E+02  0.26430538870E+02  0.51100000000E-03 0.  1.
         12    1    3    3    0    0 -0.38168955700E+00  0.93926549991E+01  0.17022063009E+02  0.19445263792E+02  0.00000000000E+00 0. -1.
</event>
<event>
 7    1  0.5897985E-013  0.5052886E+02  0.7816164E-02  0.1300439E+00
        -11   -1    0    0    0    0  0.00000000000E+00  0.00000000000E+00  0.45593999997E+02  0.45594000000E+02  0.51100000000E-03 0.  1.
         11   -1    0    0    0    0 -0.00000000000E+00 -0.00000000000E+00 -0.45593999997E+02  0.45594000000E+02  0.51100000000E-03 0. -1.
    9900012    2    1    2    0    0 -0.87940922970E+00  0.16365445553E+02  0.37209736425E+02  0.50528860147E+02  0.30000000904E+02 0.  0.
         12    1    1    2    0    0  0.87940922970E+00 -0.16365445553E+02 -0.37209736425E+02  0.40659139853E+02  0.00000000000E+00 0. -1.
         11    1    3    3    0    0  0.82869815596E+00 -0.53095754397E+01  0.31629961644E+01  0.62356136010E+01  0.51100000000E-03 0. -1.
        -11    1    3    3    0    0  0.81378606567E+01  0.10852503355E+02  0.18553968581E+02  0.22983719358E+02  0.51100000000E-03 0.  1.
         12    1    3    3    0    0 -0.98459680424E+01  0.10822517637E+02  0.15492771680E+02  0.21309527189E+02  0.00000000000E+00 0. -1.
</event>
<event>
 7    1  0.5897985E-013  0.5052886E+02  0.7816164E-02  0.1300439E+00
        -11   -1    0    0    0    0  0.00000000000E+00  0.00000000000E+00  0.45593999997E+02  0.45594000000E+02  0.51100000000E-03 0.  1.
         11   -1    0    0    0    0 -0.00000000000E+00 -0.00000000000E+00 -0.45593999997E+02  0.45594000000E+02  0.51100000000E-03 0. -1.
    9900012    2    1    2    0    0  0.56312280102E+01  0.22348429660E+02  0.33496309338E+02  0.50528858636E+02  0.29999996311E+02 0.  0.
         12    1    1    2    0    0 -0.56312280102E+01 -0.22348429660E+02 -0.33496309338E+02  0.40659141364E+02  0.00000000000E+00 0. -1.
         11    1    3    3    0    0 -0.80503469204E+00  0.13365080360E+01  0.12426729365E+02  0.12524293894E+02  0.51100000000E-03 0. -1.
        -11    1    3    3    0    0  0.12722216686E+02  0.15829326707E+02  0.65196529518E+01  0.21329047242E+02  0.51100000000E-03 0.  1.
        -12    1    3    3    0    0 -0.62859539835E+01  0.51825949172E+01  0.14549927021E+02  0.16675517500E+02  0.00000000000E+00 0.  1.
</event>
<event>
 7    1  0.5897985E-013  0.5052885E+02  0.7816164E-02  0.1300439E+00
        -11   -1    0    0    0    0  0.00000000000E+00  0.00000000000E+00  0.45593999997E+02  0.45594000000E+02  0.51100000000E-03 0.  1.
         11   -1    0    0    0    0 -0.00000000000E+00 -0.00000000000E+00 -0.45593999997E+02  0.45594000000E+02  0.51100000000E-03 0. -1.
    9900012    2    1    2    0    0  0.51002179949E+01 -0.33714627908E+02  0.22146740519E+02  0.50528850056E+02  0.29999970230E+02 0.  0.
         12    1    1    2    0    0 -0.51002179949E+01  0.33714627908E+02 -0.22146740519E+02  0.40659149944E+02  0.00000000000E+00 0. -1.
         11    1    3    3    0    0  0.67637380765E+01 -0.27598446234E+02  0.80263666353E+01  0.29527020658E+02  0.51100000000E-03 0. -1.
        -11    1    3    3    0    0  0.47760295916E+01 -0.10362613920E+01  0.11328396415E+02  0.12337619783E+02  0.51100000000E-03 0.  1.
        -12    1    3    3    0    0 -0.64395496732E+01 -0.50799202817E+01  0.27919774691E+01  0.86642096149E+01  0.00000000000E+00 0.  1.
</event>
<event>
 7    1  0.5897985E-013  0.5052889E+02  0.7816164E-02  0.1300439E+00
        -11   -1    0    0    0    0  0.00000000000E+00  0.00000000000E+00  0.45593999997E+02  0.45594000000E+02  0.51100000000E-03 0.  1.
         11   -1    0    0    0    0 -0.00000000000E+00 -0.00000000000E+00 -0.45593999997E+02  0.45594000000E+02  0.51100000000E-03 0. -1.
    9900012    2    1    2    0    0  0.91363518296E+01  0.17843134730E+02  0.35373897802E+02  0.50528892441E+02  0.30000099064E+02 0.  0.
         12    1    1    2    0    0 -0.91363518296E+01 -0.17843134730E+02 -0.35373897802E+02  0.40659107559E+02  0.00000000000E+00 0. -1.
         11    1    3    3    0    0  0.14792280315E+02 -0.12797363524E+01  0.18317384979E+02  0.23579140671E+02  0.51100000000E-03 0. -1.
        -11    1    3    3    0    0 -0.22962287501E+01  0.10134610652E+02  0.12705319121E+02  0.16413656929E+02  0.51100000000E-03 0.  1.
         12    1    3    3    0    0 -0.33596997353E+01  0.89882604302E+01  0.43511937019E+01  0.10536094841E+02  0.00000000000E+00 0. -1.
</event>
<event>
 7    1  0.5897985E-013  0.5052887E+02  0.7816164E-02  0.1300439E+00
        -11   -1    0    0    0    0  0.00000000000E+00  0.00000000000E+00  0.45593999997E+02  0.45594000000E+02  0.51100000000E-03 0. -1.
         11   -1    0    0    0    0 -0.00000000000E+00 -0.00000000000E+00 -0.45593999997E+02  0.45594000000E+02  0.51100000000E-03 0.  1.
    9900012    2    1    2    0    0  0.36304031810E+02 -0.83430683516E+01 -0.16296476919E+02  0.50528872179E+02  0.30000037475E+02 0.  0.
         12    1    1    2    0    0 -0.36304031810E+02  0.83430683516E+01  0.16296476919E+02  0.40659127821E+02  0.00000000000E+00 0. -1.
         11    1    3    3    0    0  0.27037152041E+02 -0.11107791714E+01  0.56372912739E+00  0.27065831072E+02  0.51100000000E-03 0. -1.
        -11    1    3    3    0    0  0.84215238453E+01 -0.22767834518E+01 -0.16190880670E+02  0.18391585682E+02  0.51100000000E-03 0.  1.
        -12    1    3    3    0    0  0.84535592384E+00 -0.49555057283E+01 -0.66932537654E+00  0.50714554244E+01  0.00000000000E+00 0.  1.
</event>
<event>
 7    1  0.7416716E-013  0.5052886E+02  0.7816164E-02  0.1300439E+00
        -11   -1    0    0    0    0  0.00000000000E+00  0.00000000000E+00  0.45593999997E+02  0.45594000000E+02  0.51100000000E-03 0.  1.
         11   -1    0    0    0    0 -0.00000000000E+00 -0.00000000000E+00 -0.45593999997E+02  0.45594000000E+02  0.51100000000E-03 0. -1.
    9900012    2    1    2    0    0  0.36537008882E+02  0.12827176896E+02  0.12396622581E+02  0.50528859127E+02  0.29999997801E+02 0.  0.
         12    1    1    2    0    0 -0.36537008882E+02 -0.12827176896E+02 -0.12396622581E+02  0.40659140873E+02  0.00000000000E+00 0. -1.
         11    1    3    3    0    0  0.60054257113E+01  0.23328036395E+00 -0.82005169448E+01  0.10167007235E+02  0.51100000000E-03 0.  1.
        -11    1    3    3    0    0  0.12069791958E+02  0.61627674073E+01  0.14582897314E+02  0.19907799335E+02  0.51100000000E-03 0. -1.
        -12    1    3    3    0    0  0.18461791212E+02  0.64311291251E+01  0.60142422119E+01  0.20454052556E+02  0.00000000000E+00 0.  1.
</event>
<event>
 7    1  0.5897985E-013  0.5052885E+02  0.7816164E-02  0.1300439E+00
        -11   -1    0    0    0    0  0.00000000000E+00  0.00000000000E+00  0.45593999997E+02  0.45594000000E+02  0.51100000000E-03 0. -1.
         11   -1    0    0    0    0 -0.00000000000E+00 -0.00000000000E+00 -0.45593999997E+02  0.45594000000E+02  0.51100000000E-03 0.  1.
    9900012    2    1    2    0    0 -0.18665314384E+02 -0.23045683880E+02 -0.27814910637E+02  0.50528846537E+02  0.29999959535E+02 0.  0.
         12    1    1    2    0    0  0.18665314384E+02  0.23045683880E+02  0.27814910637E+02  0.40659153463E+02  0.00000000000E+00 0. -1.
         11    1    3    3    0    0  0.74923828079E+00  0.31508786601E+00  0.18349805938E+01  0.20069360741E+01  0.51100000000E-03 0. -1.
        -11    1    3    3    0    0 -0.16445875085E+02 -0.86061590973E+01 -0.27702582028E+02  0.33346151697E+02  0.51100000000E-03 0.  1.
        -12    1    3    3    0    0 -0.29686775797E+01 -0.14754612649E+02 -0.19473092025E+01  0.15175758766E+02  0.00000000000E+00 0.  1.
</event>
<event>
 7    1  0.5897985E-013  0.5052885E+02  0.7816164E-02  0.1300439E+00
        -11   -1    0    0    0    0  0.00000000000E+00  0.00000000000E+00  0.45593999997E+02  0.45594000000E+02  0.51100000000E-03 0. -1.
         11   -1    0    0    0    0 -0.00000000000E+00 -0.00000000000E+00 -0.45593999997E+02  0.45594000000E+02  0.51100000000E-03 0.  1.
    9900012    2    1    2    0    0 -0.36133928809E+02 -0.14345102584E+02 -0.11904765397E+02  0.50528853200E+02  0.29999979786E+02 0.  0.
         12    1    1    2    0    0  0.36133928809E+02  0.14345102584E+02  0.11904765397E+02  0.40659146800E+02  0.00000000000E+00 0. -1.
         11    1    3    3    0    0  0.31815180444E+01 -0.62056482737E+01  0.39817026909E+00  0.69850316669E+01  0.51100000000E-03 0. -1.
        -11    1    3    3    0    0 -0.29739513915E+02 -0.96098158923E+01 -0.55706042784E+01  0.31746163259E+02  0.51100000000E-03 0.  1.
         12    1    3    3    0    0 -0.95759329386E+01  0.14703615815E+01 -0.67323313880E+01  0.11797658274E+02  0.00000000000E+00 0. -1.
</event>
<event>
 7    1  0.5897985E-013  0.5052885E+02  0.7816164E-02  0.1300439E+00
        -11   -1    0    0    0    0  0.00000000000E+00  0.00000000000E+00  0.45593999997E+02  0.45594000000E+02  0.51100000000E-03 0.  1.
         11   -1    0    0    0    0 -0.00000000000E+00 -0.00000000000E+00 -0.45593999997E+02  0.45594000000E+02  0.51100000000E-03 0. -1.
    9900012    2    1    2    0    0 -0.16326893090E+02 -0.26053950979E+02  0.26604330048E+02  0.50528853712E+02  0.29999981342E+02 0.  0.
         12    1    1    2    0    0  0.16326893090E+02  0.26053950979E+02 -0.26604330048E+02  0.40659146288E+02  0.00000000000E+00 0. -1.
         11    1    3    3    0    0 -0.16953786591E+02 -0.18355459596E+02  0.94717350963E+01  0.26722042264E+02  0.51100000000E-03 0. -1.
        -11    1    3    3    0    0  0.20701978355E+01  0.39610330930E+01  0.69319020135E+01  0.82478341416E+01  0.51100000000E-03 0.  1.
        -12    1    3    3    0    0 -0.14433043348E+01 -0.11659524476E+02  0.10200692938E+02  0.15558977307E+02  0.00000000000E+00 0.  1.
</event>
<event>
 7    1  0.5897985E-013  0.5052884E+02  0.7816164E-02  0.1300439E+00
        -11   -1    0    0    0    0  0.00000000000E+00  0.00000000000E+00  0.45593999997E+02  0.45594000000E+02  0.51100000000E-03 0. -1.
         11   -1    0    0    0    0 -0.00000000000E+00 -0.00000000000E+00 -0.45593999997E+02  0.45594000000E+02  0.51100000000E-03 0.  1.
    9900012    2    1    2    0    0 -0.32761006230E+02 -0.23091309023E+02  0.68319247999E+01  0.50528840170E+02  0.29999940180E+02 0.  0.
         12    1    1    2    0    0  0.32761006230E+02  0.23091309023E+02 -0.68319247999E+01  0.40659159830E+02  0.00000000000E+00 0. -1.
         11    1    3    3    0    0 -0.14869817368E+02  0.79768419547E+00  0.52029799899E+01  0.15773990290E+02  0.51100000000E-03 0. -1.
        -11    1    3    3    0    0 -0.16652990221E+02 -0.25402583413E+02  0.50721046071E+01  0.30795122548E+02  0.51100000000E-03 0.  1.
        -12    1    3    3    0    0 -0.12381986424E+01  0.15135901946E+01 -0.34431597971E+01  0.39597273320E+01  0.00000000000E+00 0.  1.
</event>
<event>
 7    1  0.5897985E-013  0.5052884E+02  0.7816164E-02  0.1300439E+00
        -11   -1    0    0    0    0  0.00000000000E+00  0.00000000000E+00  0.45593999997E+02  0.45594000000E+02  0.51100000000E-03 0.  1.
         11   -1    0    0    0    0 -0.00000000000E+00 -0.00000000000E+00 -0.45593999997E+02  0.45594000000E+02  0.51100000000E-03 0. -1.
    9900012    2    1    2    0    0  0.28888629262E+01 -0.27901936127E+02  0.29433033036E+02  0.50528843561E+02  0.29999950488E+02 0.  0.
         12    1    1    2    0    0 -0.28888629262E+01  0.27901936127E+02 -0.29433033036E+02  0.40659156439E+02  0.00000000000E+00 0. -1.
         11    1    3    3    0    0 -0.69867775796E+01 -0.21521390185E+02  0.59658781978E+01  0.23400363232E+02  0.51100000000E-03 0. -1.
        -11    1    3    3    0    0  0.81396813481E+01 -0.71399407335E+01  0.22568491582E+02  0.25031379880E+02  0.51100000000E-03 0.  1.
         12    1    3    3    0    0  0.17359591577E+01  0.75939479177E+00  0.89866325607E+00  0.20971004494E+01  0.00000000000E+00 0. -1.
</event>
<event>
 7    1  0.5897985E-013  0.5052883E+02  0.7816164E-02  0.1300439E+00
        -11   -1    0    0    0    0  0.00000000000E+00  0.00000000000E+00  0.45593999997E+02  0.45594000000E+02  0.51100000000E-03 0.  1.
         11   -1    0    0    0    0 -0.00000000000E+00 -0.00000000000E+00 -0.45593999997E+02  0.45594000000E+02  0.51100000000E-03 0. -1.
    9900012    2    1    2    0    0  0.65148641335E+01  0.92516875752E+01  0.39052922117E+02  0.50528832478E+02  0.29999916801E+02 0.  0.
         12    1    1    2    0    0 -0.65148641335E+01 -0.92516875752E+01 -0.39052922117E+02  0.40659167522E+02  0.00000000000E+00 0. -1.
         11    1    3    3    0    0  0.80104631410E+01  0.10145130902E+02  0.22667717490E+02  0.26094379035E+02  0.51100000000E-03 0. -1.
        -11    1    3    3    0    0 -0.75162319081E+01 -0.62192821837E+01  0.11273651748E+02  0.14908669859E+02  0.51100000000E-03 0.  1.
        -12    1    3    3    0    0  0.60206329006E+01  0.53258388570E+01  0.51115528786E+01  0.95257835838E+01  0.00000000000E+00 0.  1.
</event>
<event>
 7    1  0.5897985E-013  0.5052886E+02  0.7816164E-02  0.1300439E+00
        -11   -1    0    0    0    0  0.00000000000E+00  0.00000000000E+00  0.45593999997E+02  0.45594000000E+02  0.51100000000E-03 0. -1.
         11   -1    0    0    0    0 -0.00000000000E+00 -0.00000000000E+00 -0.45593999997E+02  0.45594000000E+02  0.51100000000E-03 0.  1.
    9900012    2    1    2    0    0  0.37904955883E+02  0.82341870064E+01 -0.12189252524E+02  0.50528863349E+02  0.30000010635E+02 0.  0.
         12    1    1    2    0    0 -0.37904955883E+02 -0.82341870064E+01  0.12189252524E+02  0.40659136651E+02  0.00000000000E+00 0. -1.
         11    1    3    3    0    0  0.69300164261E+01 -0.70335626305E+01 -0.96591243856E+01  0.13812849637E+02  0.51100000000E-03 0. -1.
        -11    1    3    3    0    0  0.25953569280E+02  0.69581337003E+01 -0.27011633729E+01  0.27005548814E+02  0.51100000000E-03 0.  1.
         12    1    3    3    0    0  0.50213701770E+01  0.83096159366E+01  0.17103523398E+00  0.97104648972E+01  0.00000000000E+00 0. -1.
</event>
<event>
 7    1  0.5897985E-013  0.5052887E+02  0.7816164E-02  0.1300439E+00
        -11   -1    0    0    0    0  0.00000000000E+00  0.00000000000E+00  0.45593999997E+02  0.45594000000E+02  0.51100000000E-03 0.  1.
         11   -1    0    0    0    0 -0.00000000000E+00 -0.00000000000E+00 -0.45593999997E+02  0.45594000000E+02  0.51100000000E-03 0. -1.
    9900012    2    1    2    0    0  0.14571840296E+02  0.11924064032E+02  0.36036695303E+02  0.50528865221E+02  0.30000016326E+02 0.  0.
         12    1    1    2    0    0 -0.14571840296E+02 -0.11924064032E+02 -0.36036695303E+02  0.40659134779E+02  0.00000000000E+00 0. -1.
         11    1    3    3    0    0  0.16706573088E+02  0.17549172035E+02  0.23988186053E+02  0.34095690252E+02  0.51100000000E-03 0. -1.
        -11    1    3    3    0    0  0.17524467515E+01  0.19460644150E+01  0.34905126634E+01  0.43637043024E+01  0.51100000000E-03 0.  1.
         12    1    3    3    0    0 -0.38871795432E+01 -0.75711724180E+01  0.85579965866E+01  0.12069470666E+02  0.00000000000E+00 0. -1.
</event>
<event>
 7    1  0.5897985E-013  0.5052886E+02  0.7816164E-02  0.1300439E+00
        -11   -1    0    0    0    0  0.00000000000E+00  0.00000000000E+00  0.45593999997E+02  0.45594000000E+02  0.51100000000E-03 0.  1.
         11   -1    0    0    0    0 -0.00000000000E+00 -0.00000000000E+00 -0.45593999997E+02  0.45594000000E+02  0.51100000000E-03 0. -1.
    9900012    2    1    2    0    0  0.16732448565E+02 -0.28882495241E+02  0.23216210184E+02  0.50528858572E+02  0.29999996117E+02 0.  0.
         12    1    1    2    0    0 -0.16732448565E+02  0.28882495241E+02 -0.23216210184E+02  0.40659141428E+02  0.00000000000E+00 0. -1.
         11    1    3    3    0    0 -0.66765623106E+00 -0.53974376709E+01 -0.63959175185E+00  0.54760547956E+01  0.51100000000E-03 0. -1.
        -11    1    3    3    0    0  0.83551241841E+01 -0.54535366255E+01  0.22759112201E+02  0.24850077470E+02  0.51100000000E-03 0.  1.
        -12    1    3    3    0    0  0.90449806117E+01 -0.18031520945E+02  0.10966897351E+01  0.20202726307E+02  0.00000000000E+00 0.  1.
</event>
<event>
 7    1  0.6288556E-013  0.5052886E+02  0.7816164E-02  0.1300439E+00
        -11   -1    0    0    0    0  0.00000000000E+00  0.00000000000E+00  0.45593999997E+02  0.45594000000E+02  0.51100000000E-03 0. -1.
         11   -1    0    0    0    0 -0.00000000000E+00 -0.00000000000E+00 -0.45593999997E+02  0.45594000000E+02  0.51100000000E-03 0.  1.
    9900012    2    1    2    0    0  0.15254734262E+02  0.20182860713E+02 -0.31829399861E+02  0.50528862288E+02  0.30000007411E+02 0.  0.
         12    1    1    2    0    0 -0.15254734262E+02 -0.20182860713E+02  0.31829399861E+02  0.40659137712E+02  0.00000000000E+00 0. -1.
         11    1    3    3    0    0  0.10379482044E+02 -0.71413448138E+00 -0.33605853782E+01  0.10933305535E+02  0.51100000000E-03 0. -1.
        -11    1    3    3    0    0 -0.58231180325E+01  0.77699835297E+01 -0.15396590437E+02  0.18202646649E+02  0.51100000000E-03 0.  1.
        -12    1    3    3    0    0  0.10698370250E+02  0.13127011665E+02 -0.13072224046E+02  0.21392910105E+02  0.00000000000E+00 0.  1.
</event>
<event>
 7    1  0.5897985E-013  0.5052886E+02  0.7816164E-02  0.1300439E+00
        -11   -1    0    0    0    0  0.00000000000E+00  0.00000000000E+00  0.45593999997E+02  0.45594000000E+02  0.51100000000E-03 0.  1.
         11   -1    0    0    0    0 -0.00000000000E+00 -0.00000000000E+00 -0.45593999997E+02  0.45594000000E+02  0.51100000000E-03 0. -1.
    9900012    2    1    2    0    0 -0.10210797610E+01  0.40598145371E+02 -0.19782264255E+01  0.50528863374E+02  0.30000010710E+02 0.  0.
         12    1    1    2    0    0  0.10210797610E+01 -0.40598145371E+02  0.19782264255E+01  0.40659136626E+02  0.00000000000E+00 0. -1.
         11    1    3    3    0    0  0.83668765939E+01  0.22433065490E+02 -0.25331053310E+01  0.24076205558E+02  0.51100000000E-03 0.  1.
        -11    1    3    3    0    0 -0.71257663493E+01 -0.28921803421E+00  0.29281564936E+01  0.77093640365E+01  0.51100000000E-03 0. -1.
         12    1    3    3    0    0 -0.22621900056E+01  0.18454297915E+02 -0.23732775881E+01  0.18743293779E+02  0.00000000000E+00 0. -1.
</event>
<event>
 7    1  0.5897985E-013  0.5052885E+02  0.7816164E-02  0.1300439E+00
        -11   -1    0    0    0    0  0.00000000000E+00  0.00000000000E+00  0.45593999997E+02  0.45594000000E+02  0.51100000000E-03 0.  1.
         11   -1    0    0    0    0 -0.00000000000E+00 -0.00000000000E+00 -0.45593999997E+02  0.45594000000E+02  0.51100000000E-03 0. -1.
    9900012    2    1    2    0    0 -0.88745213130E+00  0.23389725907E+01  0.40582112784E+02  0.50528852910E+02  0.29999978905E+02 0.  0.
         12    1    1    2    0    0  0.88745213130E+00 -0.23389725907E+01 -0.40582112784E+02  0.40659147090E+02  0.00000000000E+00 0. -1.
         11    1    3    3    0    0 -0.10867786622E+01 -0.10590094882E+02  0.49376042398E+01  0.11735038703E+02  0.51100000000E-03 0. -1.
        -11    1    3    3    0    0 -0.22606652641E+01  0.70012429890E+01  0.27257315701E+02  0.28232769441E+02  0.51100000000E-03 0.  1.
         12    1    3    3    0    0  0.24599917950E+01  0.59278244840E+01  0.83871928432E+01  0.10561044765E+02  0.00000000000E+00 0. -1.
</event>
<event>
 7    1  0.5897985E-013  0.5052888E+02  0.7816164E-02  0.1300439E+00
        -11   -1    0    0    0    0  0.00000000000E+00  0.00000000000E+00  0.45593999997E+02  0.45594000000E+02  0.51100000000E-03 0.  1.
         11   -1    0    0    0    0 -0.00000000000E+00 -0.00000000000E+00 -0.45593999997E+02  0.45594000000E+02  0.51100000000E-03 0. -1.
    9900012    2    1    2    0    0  0.21003621255E+02 -0.26781140286E+02  0.22243712385E+02  0.50528876528E+02  0.30000050695E+02 0.  0.
         12    1    1    2    0    0 -0.21003621255E+02  0.26781140286E+02 -0.22243712385E+02  0.40659123472E+02  0.00000000000E+00 0. -1.
         11    1    3    3    0    0  0.14614106954E+02 -0.20898147428E+02 -0.13329752577E-01  0.25501075780E+02  0.51100000000E-03 0. -1.
        -11    1    3    3    0    0  0.17016129639E+01  0.13194394551E+01  0.88097122240E+01  0.90690372634E+01  0.51100000000E-03 0.  1.
         12    1    3    3    0    0  0.46879013365E+01 -0.72024323134E+01  0.13447329914E+02  0.15958763485E+02  0.00000000000E+00 0. -1.
</event>
<event>
 7    1  0.5897985E-013  0.5052886E+02  0.7816164E-02  0.1300439E+00
        -11   -1    0    0    0    0  0.00000000000E+00  0.00000000000E+00  0.45593999997E+02  0.45594000000E+02  0.51100000000E-03 0.  1.
         11   -1    0    0    0    0 -0.00000000000E+00 -0.00000000000E+00 -0.45593999997E+02  0.45594000000E+02  0.51100000000E-03 0. -1.
    9900012    2    1    2    0    0 -0.14712794590E+02  0.13502037318E+02  0.35417429068E+02  0.50528860582E+02  0.30000002226E+02 0.  0.
         12    1    1    2    0    0  0.14712794590E+02 -0.13502037318E+02 -0.35417429068E+02  0.40659139418E+02  0.00000000000E+00 0. -1.
         11    1    3    3    0    0 -0.26989858771E+01  0.56947449601E+01  0.17078196217E+02  0.18203830125E+02  0.51100000000E-03 0.  1.
        -11    1    3    3    0    0 -0.79981096454E+01  0.13371727684E+02  0.34905055420E+01  0.15967356962E+02  0.51100000000E-03 0. -1.
        -12    1    3    3    0    0 -0.40156990679E+01 -0.55644353257E+01  0.14848727309E+02  0.16357673496E+02  0.00000000000E+00 0.  1.
</event>
<event>
 7    1  0.5897985E-013  0.5052886E+02  0.7816164E-02  0.1300439E+00
        -11   -1    0    0    0    0  0.00000000000E+00  0.00000000000E+00  0.45593999997E+02  0.45594000000E+02  0.51100000000E-03 0. -1.
         11   -1    0    0    0    0 -0.00000000000E+00 -0.00000000000E+00 -0.45593999997E+02  0.45594000000E+02  0.51100000000E-03 0.  1.
    9900012    2    1    2    0    0  0.22265487548E+01  0.40178480453E+02 -0.58222131612E+01  0.50528856170E+02  0.29999988815E+02 0.  0.
         12    1    1    2    0    0 -0.22265487548E+01 -0.40178480453E+02  0.58222131612E+01  0.40659143830E+02  0.00000000000E+00 0. -1.
         11    1    3    3    0    0 -0.48982707355E+01  0.23469090480E+02  0.93522973437E+01  0.25734349225E+02  0.51100000000E-03 0. -1.
        -11    1    3    3    0    0  0.57926677371E+01  0.11148996554E+02 -0.58561986529E+01  0.13861824793E+02  0.51100000000E-03 0.  1.
         12    1    3    3    0    0  0.13321517531E+01  0.55603934194E+01 -0.93183118520E+01  0.10932682152E+02  0.00000000000E+00 0. -1.
</event>
<event>
 7    1  0.5897985E-013  0.5052886E+02  0.7816164E-02  0.1300439E+00
        -11   -1    0    0    0    0  0.00000000000E+00  0.00000000000E+00  0.45593999997E+02  0.45594000000E+02  0.51100000000E-03 0.  1.
         11   -1    0    0    0    0 -0.00000000000E+00 -0.00000000000E+00 -0.45593999997E+02  0.45594000000E+02  0.51100000000E-03 0. -1.
    9900012    2    1    2    0    0  0.36252729149E+02 -0.43600601076E+01  0.17885619509E+02  0.50528857361E+02  0.29999992436E+02 0.  0.
         12    1    1    2    0    0 -0.36252729149E+02  0.43600601076E+01 -0.17885619509E+02  0.40659142639E+02  0.00000000000E+00 0. -1.
         11    1    3    3    0    0  0.15802363901E+02 -0.26534363471E+00  0.20552645602E+02  0.25926749769E+02  0.51100000000E-03 0. -1.
        -11    1    3    3    0    0  0.83731491488E+01  0.43003826929E+01  0.93452270778E+00  0.94591887033E+01  0.51100000000E-03 0.  1.
         12    1    3    3    0    0  0.12077216099E+02 -0.83950991658E+01 -0.36015488009E+01  0.15142918889E+02  0.00000000000E+00 0. -1.
</event>
<event>
 7    1  0.5897985E-013  0.5052886E+02  0.7816164E-02  0.1300439E+00
        -11   -1    0    0    0    0  0.00000000000E+00  0.00000000000E+00  0.45593999997E+02  0.45594000000E+02  0.51100000000E-03 0. -1.
         11   -1    0    0    0    0 -0.00000000000E+00 -0.00000000000E+00 -0.45593999997E+02  0.45594000000E+02  0.51100000000E-03 0.  1.
    9900012    2    1    2    0    0 -0.39760829702E+02 -0.20464809004E+01 -0.82494884428E+01  0.50528859303E+02  0.29999998337E+02 0.  0.
         12    1    1    2    0    0  0.39760829702E+02  0.20464809004E+01  0.82494884428E+01  0.40659140697E+02  0.00000000000E+00 0. -1.
         11    1    3    3    0    0 -0.35079396883E+02 -0.38085769715E+01  0.23221436424E+01  0.35361867818E+02  0.51100000000E-03 0. -1.
        -11    1    3    3    0    0 -0.46112551274E+01  0.47199106612E+01 -0.10250819567E+02  0.12191002115E+02  0.51100000000E-03 0.  1.
        -12    1    3    3    0    0 -0.70177691097E-01 -0.29578145901E+01 -0.32081251779E+00  0.29759893698E+01  0.00000000000E+00 0.  1.
</event>
<event>
 7    1  0.5897985E-013  0.5052885E+02  0.7816164E-02  0.1300439E+00
        -11   -1    0    0    0    0  0.00000000000E+00  0.00000000000E+00  0.45593999997E+02  0.45594000000E+02  0.51100000000E-03 0.  1.
         11   -1    0    0    0    0 -0.00000000000E+00 -0.00000000000E+00 -0.45593999997E+02  0.45594000000E+02  0.51100000000E-03 0. -1.
    9900012    2    1    2    0    0 -0.14043143489E+02  0.37697962554E+02 -0.59008702371E+01  0.50528849378E+02  0.29999968168E+02 0.  0.
         12    1    1    2    0    0  0.14043143489E+02 -0.37697962554E+02  0.59008702371E+01  0.40659150622E+02  0.00000000000E+00 0. -1.
         11    1    3    3    0    0 -0.65707584809E+01 -0.14728948182E+01  0.28013834816E+01  0.72932870389E+01  0.51100000000E-03 0. -1.
        -11    1    3    3    0    0 -0.11615506447E+02  0.31552828709E+02 -0.60130218493E+01  0.34156367219E+02  0.51100000000E-03 0.  1.
         12    1    3    3    0    0  0.41431214394E+01  0.76180286635E+01 -0.26892318693E+01  0.90791951199E+01  0.00000000000E+00 0. -1.
</event>
<event>
 7    1  0.5897985E-013  0.5052885E+02  0.7816164E-02  0.1300439E+00
        -11   -1    0    0    0    0  0.00000000000E+00  0.00000000000E+00  0.45593999997E+02  0.45594000000E+02  0.51100000000E-03 0.  1.
         11   -1    0    0    0    0 -0.00000000000E+00 -0.00000000000E+00 -0.45593999997E+02  0.45594000000E+02  0.51100000000E-03 0. -1.
    9900012    2    1    2    0    0  0.36438653187E+02  0.16953679344E+02  0.61614645693E+01  0.50528851767E+02  0.29999975430E+02 0.  0.
         12    1    1    2    0    0 -0.36438653187E+02 -0.16953679344E+02 -0.61614645693E+01  0.40659148233E+02  0.00000000000E+00 0. -1.
         11    1    3    3    0    0 -0.42251246039E+01 -0.15335207676E+01  0.13726692642E+01  0.46997430816E+01  0.51100000000E-03 0. -1.
        -11    1    3    3    0    0  0.32137289437E+02  0.11200748726E+02  0.59642754968E+01  0.34551913505E+02  0.51100000000E-03 0.  1.
         12    1    3    3    0    0  0.85264883538E+01  0.72864513856E+01 -0.11754801918E+01  0.11277195180E+02  0.00000000000E+00 0. -1.
</event>
<event>
 7    1  0.5897985E-013  0.5052887E+02  0.7816164E-02  0.1300439E+00
        -11   -1    0    0    0    0  0.00000000000E+00  0.00000000000E+00  0.45593999997E+02  0.45594000000E+02  0.51100000000E-03 0.  1.
         11   -1    0    0    0    0 -0.00000000000E+00 -0.00000000000E+00 -0.45593999997E+02  0.45594000000E+02  0.51100000000E-03 0. -1.
    9900012    2    1    2    0    0 -0.31259013458E+02  0.25950115283E+02 -0.16219231700E+01  0.50528867688E+02  0.30000023824E+02 0.  0.
         12    1    1    2    0    0  0.31259013458E+02 -0.25950115283E+02  0.16219231700E+01  0.40659132312E+02  0.00000000000E+00 0. -1.
         11    1    3    3    0    0 -0.13779427795E+02  0.19174465906E+02  0.83558540537E+01  0.25047017195E+02  0.51100000000E-03 0. -1.
        -11    1    3    3    0    0 -0.15353998753E+02  0.39087788763E+00 -0.27442550769E+01  0.15602211363E+02  0.51100000000E-03 0.  1.
         12    1    3    3    0    0 -0.21255869102E+01  0.63847714896E+01 -0.72335221467E+01  0.98796391298E+01  0.00000000000E+00 0. -1.
</event>
<event>
 7    1  0.5897985E-013  0.5052881E+02  0.7816164E-02  0.1300439E+00
        -11   -1    0    0    0    0  0.00000000000E+00  0.00000000000E+00  0.45593999997E+02  0.45594000000E+02  0.51100000000E-03 0.  1.
         11   -1    0    0    0    0 -0.00000000000E+00 -0.00000000000E+00 -0.45593999997E+02  0.45594000000E+02  0.51100000000E-03 0. -1.
    9900012    2    1    2    0    0 -0.35889427600E+02  0.10774024075E+02 -0.15780986204E+02  0.50528805052E+02  0.29999833435E+02 0.  0.
         12    1    1    2    0    0  0.35889427600E+02 -0.10774024075E+02  0.15780986204E+02  0.40659194948E+02  0.00000000000E+00 0. -1.
         11    1    3    3    0    0 -0.79774781258E+01 -0.14073114177E+01 -0.65529796119E+01  0.10419319782E+02  0.51100000000E-03 0. -1.
        -11    1    3    3    0    0 -0.54966777119E+01  0.12103461844E+02  0.42476211371E+01  0.13955269258E+02  0.51100000000E-03 0.  1.
        -12    1    3    3    0    0 -0.22415271763E+02  0.77873649123E-01 -0.13475627729E+02  0.26154216012E+02  0.00000000000E+00 0.  1.
</event>
<event>
 7    1  0.5897985E-013  0.5052886E+02  0.7816164E-02  0.1300439E+00
        -11   -1    0    0    0    0  0.00000000000E+00  0.00000000000E+00  0.45593999997E+02  0.45594000000E+02  0.51100000000E-03 0. -1.
         11   -1    0    0    0    0 -0.00000000000E+00 -0.00000000000E+00 -0.45593999997E+02  0.45594000000E+02  0.51100000000E-03 0.  1.
    9900012    2    1    2    0    0  0.28446479147E+02  0.12151266196E+02 -0.26387684565E+02  0.50528863970E+02  0.30000012523E+02 0.  0.
         12    1    1    2    0    0 -0.28446479147E+02 -0.12151266196E+02  0.26387684565E+02  0.40659136030E+02  0.00000000000E+00 0. -1.
         11    1    3    3    0    0  0.16204311930E+01  0.11306412285E+02 -0.58318732902E+01  0.12824644336E+02  0.51100000000E-03 0. -1.
        -11    1    3    3    0    0  0.21574965392E+02  0.47486425704E+01 -0.79080186786E+01  0.23464132151E+02  0.51100000000E-03 0.  1.
         12    1    3    3    0    0  0.52510825621E+01 -0.39037886595E+01 -0.12647792597E+02  0.14240087483E+02  0.00000000000E+00 0. -1.
</event>
<event>
 7    1  0.5897985E-013  0.5052887E+02  0.7816164E-02  0.1300439E+00
        -11   -1    0    0    0    0  0.00000000000E+00  0.00000000000E+00  0.45593999997E+02  0.45594000000E+02  0.51100000000E-03 0.  1.
         11   -1    0    0    0    0 -0.00000000000E+00 -0.00000000000E+00 -0.45593999997E+02  0.45594000000E+02  0.51100000000E-03 0. -1.
    9900012    2    1    2    0    0  0.20956084072E+02 -0.32345762677E+02  0.12952166969E+02  0.50528874924E+02  0.30000045819E+02 0.  0.
         12    1    1    2    0    0 -0.20956084072E+02  0.32345762677E+02 -0.12952166969E+02  0.40659125076E+02  0.00000000000E+00 0. -1.
         11    1    3    3    0    0 -0.10561081802E+01  0.25171609249E-01  0.16146709393E+01  0.19295493260E+01  0.51100000000E-03 0. -1.
        -11    1    3    3    0    0 -0.28847309010E+00 -0.19574102175E+00 -0.58386791155E+01  0.58490773073E+01  0.51100000000E-03 0.  1.
        -12    1    3    3    0    0  0.22300665342E+02 -0.32175193264E+02  0.17176175145E+02  0.42750248291E+02  0.00000000000E+00 0.  1.
</event>
<event>
 7    1  0.5897985E-013  0.5052886E+02  0.7816164E-02  0.1300439E+00
        -11   -1    0    0    0    0  0.00000000000E+00  0.00000000000E+00  0.45593999997E+02  0.45594000000E+02  0.51100000000E-03 0.  1.
         11   -1    0    0    0    0 -0.00000000000E+00 -0.00000000000E+00 -0.45593999997E+02  0.45594000000E+02  0.51100000000E-03 0. -1.
    9900012    2    1    2    0    0  0.13271021396E+02  0.33158307735E+02  0.19431229335E+02  0.50528855220E+02  0.29999985927E+02 0.  0.
         12    1    1    2    0    0 -0.13271021396E+02 -0.33158307735E+02 -0.19431229335E+02  0.40659144780E+02  0.00000000000E+00 0. -1.
         11    1    3    3    0    0  0.13789858422E+02  0.11814680547E+02 -0.15776927366E+01  0.18227341725E+02  0.51100000000E-03 0. -1.
        -11    1    3    3    0    0  0.51703803001E+01  0.10622955022E+02  0.13874701852E+02  0.18223264186E+02  0.51100000000E-03 0.  1.
         12    1    3    3    0    0 -0.56892173258E+01  0.10720672166E+02  0.71342202190E+01  0.14078249309E+02  0.00000000000E+00 0. -1.
</event>
<event>
 7    1  0.5897985E-013  0.5052886E+02  0.7816164E-02  0.1300439E+00
        -11   -1    0    0    0    0  0.00000000000E+00  0.00000000000E+00  0.45593999997E+02  0.45594000000E+02  0.51100000000E-03 0.  1.
         11   -1    0    0    0    0 -0.00000000000E+00 -0.00000000000E+00 -0.45593999997E+02  0.45594000000E+02  0.51100000000E-03 0. -1.
    9900012    2    1    2    0    0  0.33135021071E+02 -0.14890388305E+02  0.18262317826E+02  0.50528861573E+02  0.30000005237E+02 0.  0.
         12    1    1    2    0    0 -0.33135021071E+02  0.14890388305E+02 -0.18262317826E+02  0.40659138427E+02  0.00000000000E+00 0. -1.
         11    1    3    3    0    0  0.68454932420E+01 -0.93617697786E+01  0.56778153734E+01  0.12912826909E+02  0.51100000000E-03 0. -1.
        -11    1    3    3    0    0  0.46817400720E-01  0.26504313349E+01 -0.45207580970E+01  0.52406328018E+01  0.51100000000E-03 0.  1.
        -12    1    3    3    0    0  0.26242710428E+02 -0.81790498612E+01  0.17105260550E+02  0.32375401862E+02  0.00000000000E+00 0.  1.
</event>
<event>
 7    1  0.5897985E-013  0.5052884E+02  0.7816164E-02  0.1300439E+00
        -11   -1    0    0    0    0  0.00000000000E+00  0.00000000000E+00  0.45593999997E+02  0.45594000000E+02  0.51100000000E-03 0.  1.
         11   -1    0    0    0    0 -0.00000000000E+00 -0.00000000000E+00 -0.45593999997E+02  0.45594000000E+02  0.51100000000E-03 0. -1.
    9900012    2    1    2    0    0 -0.11893760035E+02  0.26485684025E+02  0.28464268927E+02  0.50528836315E+02  0.29999928463E+02 0.  0.
         12    1    1    2    0    0  0.11893760035E+02 -0.26485684025E+02 -0.28464268927E+02  0.40659163685E+02  0.00000000000E+00 0. -1.
         11    1    3    3    0    0 -0.93622303351E+01 -0.20620770430E+01  0.27080973140E+01  0.99617925045E+01  0.51100000000E-03 0. -1.
        -11    1    3    3    0    0  0.38082459932E+01  0.12319549881E+02  0.16167884236E+02  0.20680293222E+02  0.51100000000E-03 0.  1.
         12    1    3    3    0    0 -0.63397756936E+01  0.16228211187E+02  0.95882873767E+01  0.19886750589E+02  0.00000000000E+00 0. -1.
</event>
<event>
 7    1  0.5897985E-013  0.5052879E+02  0.7816164E-02  0.1300439E+00
        -11   -1    0    0    0    0  0.00000000000E+00  0.00000000000E+00  0.45593999997E+02  0.45594000000E+02  0.51100000000E-03 0.  1.
         11   -1    0    0    0    0 -0.00000000000E+00 -0.00000000000E+00 -0.45593999997E+02  0.45594000000E+02  0.51100000000E-03 0. -1.
    9900012    2    1    2    0    0 -0.19982787787E+02  0.23692078506E+02  0.26316253846E+02  0.50528786922E+02  0.29999778327E+02 0.  0.
         12    1    1    2    0    0  0.19982787787E+02 -0.23692078506E+02 -0.26316253846E+02  0.40659213078E+02  0.00000000000E+00 0. -1.
         11    1    3    3    0    0 -0.91269149573E+01  0.12547562465E+02  0.26636057331E+02  0.30825662213E+02  0.51100000000E-03 0. -1.
        -11    1    3    3    0    0  0.19960992169E+01  0.50343204473E+01 -0.74286093549E+00  0.54663184211E+01  0.51100000000E-03 0.  1.
         12    1    3    3    0    0 -0.12851972047E+02  0.61101955929E+01  0.42305745030E+00  0.14236806288E+02  0.00000000000E+00 0. -1.
</event>
<event>
 7    1  0.5897985E-013  0.5052887E+02  0.7816164E-02  0.1300439E+00
        -11   -1    0    0    0    0  0.00000000000E+00  0.00000000000E+00  0.45593999997E+02  0.45594000000E+02  0.51100000000E-03 0.  1.
         11   -1    0    0    0    0 -0.00000000000E+00 -0.00000000000E+00 -0.45593999997E+02  0.45594000000E+02  0.51100000000E-03 0. -1.
    9900012    2    1    2    0    0 -0.64079056301E+01  0.20921207971E+02  0.34269618102E+02  0.50528869138E+02  0.30000028233E+02 0.  0.
         12    1    1    2    0    0  0.64079056301E+01 -0.20921207971E+02 -0.34269618102E+02  0.40659130862E+02  0.00000000000E+00 0. -1.
         11    1    3    3    0    0 -0.26184132164E+00  0.22775179379E+02  0.11505735855E+02  0.25517823466E+02  0.51100000000E-03 0. -1.
        -11    1    3    3    0    0 -0.86917773208E+00  0.13602363090E+01  0.15009495473E+02  0.15096048071E+02  0.51100000000E-03 0.  1.
         12    1    3    3    0    0 -0.52768865764E+01 -0.32142077168E+01  0.77543867751E+01  0.99149976018E+01  0.00000000000E+00 0. -1.
</event>
<event>
 7    1  0.5897985E-013  0.5052886E+02  0.7816164E-02  0.1300439E+00
        -11   -1    0    0    0    0  0.00000000000E+00  0.00000000000E+00  0.45593999997E+02  0.45594000000E+02  0.51100000000E-03 0.  1.
         11   -1    0    0    0    0 -0.00000000000E+00 -0.00000000000E+00 -0.45593999997E+02  0.45594000000E+02  0.51100000000E-03 0. -1.
    9900012    2    1    2    0    0  0.19891333590E+02 -0.58504609285E+01  0.34975317802E+02  0.50528857112E+02  0.29999991677E+02 0.  0.
         12    1    1    2    0    0 -0.19891333590E+02  0.58504609285E+01 -0.34975317802E+02  0.40659142888E+02  0.00000000000E+00 0. -1.
         11    1    3    3    0    0  0.25580355553E+01  0.74584577471E+01  0.41238623912E+01  0.88982233705E+01  0.51100000000E-03 0. -1.
        -11    1    3    3    0    0  0.42380700846E+01 -0.12692081405E+02  0.89263864277E+01  0.16085103150E+02  0.51100000000E-03 0.  1.
        -12    1    3    3    0    0  0.13095227950E+02 -0.61683727079E+00  0.21925068983E+02  0.25545530591E+02  0.00000000000E+00 0.  1.
</event>
<event>
 7    1  0.5897985E-013  0.5052886E+02  0.7816164E-02  0.1300439E+00
        -11   -1    0    0    0    0  0.00000000000E+00  0.00000000000E+00  0.45593999997E+02  0.45594000000E+02  0.51100000000E-03 0. -1.
         11   -1    0    0    0    0 -0.00000000000E+00 -0.00000000000E+00 -0.45593999997E+02  0.45594000000E+02  0.51100000000E-03 0.  1.
    9900012    2    1    2    0    0 -0.17680240955E+02  0.78550009342E+01 -0.35761346950E+02  0.50528857171E+02  0.29999991858E+02 0.  0.
         12    1    1    2    0    0  0.17680240955E+02 -0.78550009342E+01  0.35761346950E+02  0.40659142829E+02  0.00000000000E+00 0. -1.
         11    1    3    3    0    0 -0.51624211086E+01  0.75670389836E+01 -0.31134378911E+02  0.32453970806E+02  0.51100000000E-03 0. -1.
        -11    1    3    3    0    0 -0.11159602778E+02 -0.41509536105E+01 -0.58706856620E+00  0.11921065380E+02  0.51100000000E-03 0.  1.
         12    1    3    3    0    0 -0.13582170691E+01  0.44389155612E+01 -0.40398994728E+01  0.61538209851E+01  0.00000000000E+00 0. -1.
</event>
<event>
 7    1  0.5897985E-013  0.5052886E+02  0.7816164E-02  0.1300439E+00
        -11   -1    0    0    0    0  0.00000000000E+00  0.00000000000E+00  0.45593999997E+02  0.45594000000E+02  0.51100000000E-03 0.  1.
         11   -1    0    0    0    0 -0.00000000000E+00 -0.00000000000E+00 -0.45593999997E+02  0.45594000000E+02  0.51100000000E-03 0. -1.
    9900012    2    1    2    0    0  0.31508801559E+02  0.11249599536E+02  0.23104270708E+02  0.50528863384E+02  0.30000010743E+02 0.  0.
         12    1    1    2    0    0 -0.31508801559E+02 -0.11249599536E+02 -0.23104270708E+02  0.40659136616E+02  0.00000000000E+00 0. -1.
         11    1    3    3    0    0  0.43007052810E+01  0.75220642998E+01 -0.10074001823E+01  0.87230942120E+01  0.51100000000E-03 0. -1.
        -11    1    3    3    0    0  0.29549694043E+02  0.82977723850E+00  0.17887934858E+02  0.34552151337E+02  0.51100000000E-03 0.  1.
        -12    1    3    3    0    0 -0.23415977646E+01  0.28977579978E+01  0.62237360319E+01  0.72536178352E+01  0.00000000000E+00 0.  1.
</event>
<event>
 7    1  0.5897985E-013  0.5052880E+02  0.7816164E-02  0.1300439E+00
        -11   -1    0    0    0    0  0.00000000000E+00  0.00000000000E+00  0.45593999997E+02  0.45594000000E+02  0.51100000000E-03 0.  1.
         11   -1    0    0    0    0 -0.00000000000E+00 -0.00000000000E+00 -0.45593999997E+02  0.45594000000E+02  0.51100000000E-03 0. -1.
    9900012    2    1    2    0    0 -0.23743208034E+01 -0.33734791456E+02  0.22572031327E+02  0.50528804827E+02  0.29999832753E+02 0.  0.
         12    1    1    2    0    0  0.23743208034E+01  0.33734791456E+02 -0.22572031327E+02  0.40659195173E+02  0.00000000000E+00 0. -1.
         11    1    3    3    0    0 -0.29774109806E+01 -0.89220809456E+01 -0.15895126777E+01  0.95391328411E+01  0.51100000000E-03 0. -1.
        -11    1    3    3    0    0  0.68936830571E+01 -0.69622883125E+01  0.18991347480E+02  0.21369782498E+02  0.51100000000E-03 0.  1.
        -12    1    3    3    0    0 -0.62905928800E+01 -0.17850422198E+02  0.51701965242E+01  0.19619889488E+02  0.00000000000E+00 0.  1.
</event>
<event>
 7    1  0.5897985E-013  0.5052887E+02  0.7816164E-02  0.1300439E+00
        -11   -1    0    0    0    0  0.00000000000E+00  0.00000000000E+00  0.45593999997E+02  0.45594000000E+02  0.51100000000E-03 0.  1.
         11   -1    0    0    0    0 -0.00000000000E+00 -0.00000000000E+00 -0.45593999997E+02  0.45594000000E+02  0.51100000000E-03 0. -1.
    9900012    2    1    2    0    0 -0.31218028522E+02  0.26044676446E+02  0.52415588724E+00  0.50528865536E+02  0.30000017283E+02 0.  0.
         12    1    1    2    0    0  0.31218028522E+02 -0.26044676446E+02 -0.52415588724E+00  0.40659134464E+02  0.00000000000E+00 0. -1.
         11    1    3    3    0    0 -0.32286878988E+01 -0.51233049671E+00  0.61668257878E+01  0.69797312731E+01  0.51100000000E-03 0. -1.
        -11    1    3    3    0    0 -0.18360925168E+02  0.27294618574E+02 -0.74405411794E+01  0.33726568599E+02  0.51100000000E-03 0.  1.
         12    1    3    3    0    0 -0.96284154550E+01 -0.73761163146E+00  0.17978712789E+01  0.98225656643E+01  0.00000000000E+00 0. -1.
</event>
<event>
 7    1  0.5897985E-013  0.5052886E+02  0.7816164E-02  0.1300439E+00
        -11   -1    0    0    0    0  0.00000000000E+00  0.00000000000E+00  0.45593999997E+02  0.45594000000E+02  0.51100000000E-03 0.  1.
         11   -1    0    0    0    0 -0.00000000000E+00 -0.00000000000E+00 -0.45593999997E+02  0.45594000000E+02  0.51100000000E-03 0. -1.
    9900012    2    1    2    0    0  0.11905200477E+02 -0.31966578059E+01  0.38745495828E+02  0.50528857529E+02  0.29999992945E+02 0.  0.
         12    1    1    2    0    0 -0.11905200477E+02  0.31966578059E+01 -0.38745495828E+02  0.40659142471E+02  0.00000000000E+00 0. -1.
         11    1    3    3    0    0 -0.10424117220E+01  0.83056785460E+01  0.63117086075E+01  0.10483729495E+02  0.51100000000E-03 0. -1.
        -11    1    3    3    0    0  0.54941506801E+01 -0.14342820907E+02  0.23440298039E+02  0.28024092772E+02  0.51100000000E-03 0.  1.
         12    1    3    3    0    0  0.74534615188E+01  0.28404845550E+01  0.89934891818E+01  0.12021035263E+02  0.00000000000E+00 0. -1.
</event>
<event>
 7    1  0.5897985E-013  0.5052887E+02  0.7816164E-02  0.1300439E+00
        -11   -1    0    0    0    0  0.00000000000E+00  0.00000000000E+00  0.45593999997E+02  0.45594000000E+02  0.51100000000E-03 0.  1.
         11   -1    0    0    0    0 -0.00000000000E+00 -0.00000000000E+00 -0.45593999997E+02  0.45594000000E+02  0.51100000000E-03 0. -1.
    9900012    2    1    2    0    0  0.33335941164E+02 -0.19458616820E+01  0.23196837746E+02  0.50528872705E+02  0.30000039074E+02 0.  0.
         12    1    1    2    0    0 -0.33335941164E+02  0.19458616820E+01 -0.23196837746E+02  0.40659127295E+02  0.00000000000E+00 0. -1.
         11    1    3    3    0    0  0.11348940378E+02  0.10494649196E+02  0.22877655693E+01  0.15625939364E+02  0.51100000000E-03 0. -1.
        -11    1    3    3    0    0  0.33831653776E+01 -0.34672435765E+01  0.10947423339E+02  0.11971368511E+02  0.51100000000E-03 0.  1.
         12    1    3    3    0    0  0.18603835409E+02 -0.89732673019E+01  0.99616488376E+01  0.22931564830E+02  0.00000000000E+00 0. -1.
</event>
<event>
 7    1  0.5897985E-013  0.5052886E+02  0.7816164E-02  0.1300439E+00
        -11   -1    0    0    0    0  0.00000000000E+00  0.00000000000E+00  0.45593999997E+02  0.45594000000E+02  0.51100000000E-03 0.  1.
         11   -1    0    0    0    0 -0.00000000000E+00 -0.00000000000E+00 -0.45593999997E+02  0.45594000000E+02  0.51100000000E-03 0. -1.
    9900012    2    1    2    0    0  0.13172971417E+02  0.38428810342E+02  0.16926779873E+01  0.50528858358E+02  0.29999995466E+02 0.  0.
         12    1    1    2    0    0 -0.13172971417E+02 -0.38428810342E+02 -0.16926779873E+01  0.40659141642E+02  0.00000000000E+00 0. -1.
         11    1    3    3    0    0  0.18150628553E+01  0.36538952626E+02 -0.46360215427E+01  0.36876580755E+02  0.51100000000E-03 0. -1.
        -11    1    3    3    0    0  0.28685341705E+01 -0.87885841362E+00  0.26205285321E+01  0.39834721597E+01  0.51100000000E-03 0.  1.
         12    1    3    3    0    0  0.84893743909E+01  0.27687161296E+01  0.37081709979E+01  0.96688054435E+01  0.00000000000E+00 0. -1.
</event>
<event>
 7    1  0.5897985E-013  0.5052886E+02  0.7816164E-02  0.1300439E+00
        -11   -1    0    0    0    0  0.00000000000E+00  0.00000000000E+00  0.45593999997E+02  0.45594000000E+02  0.51100000000E-03 0.  1.
         11   -1    0    0    0    0 -0.00000000000E+00 -0.00000000000E+00 -0.45593999997E+02  0.45594000000E+02  0.51100000000E-03 0. -1.
    9900012    2    1    2    0    0  0.18897257542E+02 -0.24362933807E+02  0.26504838948E+02  0.50528863586E+02  0.30000011356E+02 0.  0.
         12    1    1    2    0    0 -0.18897257542E+02  0.24362933807E+02 -0.26504838948E+02  0.40659136414E+02  0.00000000000E+00 0. -1.
         11    1    3    3    0    0  0.53922319153E+01 -0.17725376406E+02  0.35042155660E+01  0.18855891938E+02  0.51100000000E-03 0. -1.
        -11    1    3    3    0    0  0.79117591469E+01  0.46501313629E+01  0.97815186266E+01  0.13412597116E+02  0.51100000000E-03 0.  1.
        -12    1    3    3    0    0  0.55932664794E+01 -0.11287688764E+02  0.13219104755E+02  0.18260374532E+02  0.00000000000E+00 0.  1.
</event>
<event>
 7    1  0.5897985E-013  0.5052886E+02  0.7816164E-02  0.1300439E+00
        -11   -1    0    0    0    0  0.00000000000E+00  0.00000000000E+00  0.45593999997E+02  0.45594000000E+02  0.51100000000E-03 0.  1.
         11   -1    0    0    0    0 -0.00000000000E+00 -0.00000000000E+00 -0.45593999997E+02  0.45594000000E+02  0.51100000000E-03 0. -1.
    9900012    2    1    2    0    0 -0.20764289186E+02  0.23855583462E+02  0.25552320274E+02  0.50528860326E+02  0.30000001445E+02 0.  0.
         12    1    1    2    0    0  0.20764289186E+02 -0.23855583462E+02 -0.25552320274E+02  0.40659139674E+02  0.00000000000E+00 0. -1.
         11    1    3    3    0    0  0.49457678881E+01  0.69119546077E+01 -0.65967264160E+00  0.85247231484E+01  0.51100000000E-03 0. -1.
        -11    1    3    3    0    0 -0.42770942653E+01  0.16106901869E+01  0.10177321410E+02  0.11156421002E+02  0.51100000000E-03 0.  1.
         12    1    3    3    0    0 -0.21432962808E+02  0.15332938667E+02  0.16034671505E+02  0.30847716175E+02  0.00000000000E+00 0. -1.
</event>
<event>
 7    1  0.5897985E-013  0.5052887E+02  0.7816164E-02  0.1300439E+00
        -11   -1    0    0    0    0  0.00000000000E+00  0.00000000000E+00  0.45593999997E+02  0.45594000000E+02  0.51100000000E-03 0. -1.
         11   -1    0    0    0    0 -0.00000000000E+00 -0.00000000000E+00 -0.45593999997E+02  0.45594000000E+02  0.51100000000E-03 0.  1.
    9900012    2    1    2    0    0  0.87205632888E+01 -0.30792498340E+02 -0.25078652196E+02  0.50528868503E+02  0.30000026302E+02 0.  0.
         12    1    1    2    0    0 -0.87205632888E+01  0.30792498340E+02  0.25078652196E+02  0.40659131497E+02  0.00000000000E+00 0. -1.
         11    1    3    3    0    0 -0.11085677163E+01 -0.92992217839E+01  0.25279280738E+01  0.97002509645E+01  0.51100000000E-03 0. -1.
        -11    1    3    3    0    0  0.72466704405E+01 -0.23243726900E+02 -0.16800279271E+02  0.29580981331E+02  0.51100000000E-03 0.  1.
         12    1    3    3    0    0  0.25824605646E+01  0.17504503431E+01 -0.10806300999E+02  0.11247636208E+02  0.00000000000E+00 0. -1.
</event>
<event>
 7    1  0.5897985E-013  0.5052887E+02  0.7816164E-02  0.1300439E+00
        -11   -1    0    0    0    0  0.00000000000E+00  0.00000000000E+00  0.45593999997E+02  0.45594000000E+02  0.51100000000E-03 0.  1.
         11   -1    0    0    0    0 -0.00000000000E+00 -0.00000000000E+00 -0.45593999997E+02  0.45594000000E+02  0.51100000000E-03 0. -1.
    9900012    2    1    2    0    0 -0.14031370204E+02 -0.71884793876E+01  0.37478147109E+02  0.50528866998E+02  0.30000021728E+02 0.  0.
         12    1    1    2    0    0  0.14031370204E+02  0.71884793876E+01 -0.37478147109E+02  0.40659133002E+02  0.00000000000E+00 0. -1.
         11    1    3    3    0    0  0.49043249088E+01 -0.21221487841E+01  0.82879945003E-01  0.53444164901E+01  0.51100000000E-03 0. -1.
        -11    1    3    3    0    0 -0.14640949346E+02 -0.10711787002E+02  0.28837734261E+02  0.34069263216E+02  0.51100000000E-03 0.  1.
        -12    1    3    3    0    0 -0.42947457669E+01  0.56454563982E+01  0.85575329031E+01  0.11115187292E+02  0.00000000000E+00 0.  1.
</event>
<event>
 7    1  0.5897985E-013  0.5052887E+02  0.7816164E-02  0.1300439E+00
        -11   -1    0    0    0    0  0.00000000000E+00  0.00000000000E+00  0.45593999997E+02  0.45594000000E+02  0.51100000000E-03 0. -1.
         11   -1    0    0    0    0 -0.00000000000E+00 -0.00000000000E+00 -0.45593999997E+02  0.45594000000E+02  0.51100000000E-03 0.  1.
    9900012    2    1    2    0    0  0.24534996046E+02 -0.32192808787E+02 -0.38498909682E+01  0.50528872746E+02  0.30000039199E+02 0.  0.
         12    1    1    2    0    0 -0.24534996046E+02  0.32192808787E+02  0.38498909682E+01  0.40659127254E+02  0.00000000000E+00 0. -1.
         11    1    3    3    0    0 -0.13090342230E+01  0.71532677390E+00  0.31799727774E+01  0.35124763510E+01  0.51100000000E-03 0. -1.
        -11    1    3    3    0    0  0.19876087525E+02 -0.31753954255E+02 -0.11814740877E+02  0.39280536763E+02  0.51100000000E-03 0.  1.
        -12    1    3    3    0    0  0.59679427439E+01 -0.11541813057E+01  0.47848771313E+01  0.77358596318E+01  0.00000000000E+00 0.  1.
</event>
<event>
 7    1  0.5897985E-013  0.5052886E+02  0.7816164E-02  0.1300439E+00
        -11   -1    0    0    0    0  0.00000000000E+00  0.00000000000E+00  0.45593999997E+02  0.45594000000E+02  0.51100000000E-03 0.  1.
         11   -1    0    0    0    0 -0.00000000000E+00 -0.00000000000E+00 -0.45593999997E+02  0.45594000000E+02  0.51100000000E-03 0. -1.
    9900012    2    1    2    0    0 -0.24662419985E+02 -0.31986049177E+02  0.46715091705E+01  0.50528864502E+02  0.30000014142E+02 0.  0.
         12    1    1    2    0    0  0.24662419985E+02  0.31986049177E+02 -0.46715091705E+01  0.40659135498E+02  0.00000000000E+00 0. -1.
         11    1    3    3    0    0 -0.17024735111E+02 -0.11199338586E+02 -0.43434401826E+00  0.20382724189E+02  0.51100000000E-03 0. -1.
        -11    1    3    3    0    0 -0.30413371546E+01 -0.13905338993E+02  0.12579103010E+02  0.18995842097E+02  0.51100000000E-03 0.  1.
        -12    1    3    3    0    0 -0.45963477194E+01 -0.68813715980E+01 -0.74732498208E+01  0.11150298216E+02  0.00000000000E+00 0.  1.
</event>
<event>
 7    1  0.5897985E-013  0.5052886E+02  0.7816164E-02  0.1300439E+00
        -11   -1    0    0    0    0  0.00000000000E+00  0.00000000000E+00  0.45593999997E+02  0.45594000000E+02  0.51100000000E-03 0.  1.
         11   -1    0    0    0    0 -0.00000000000E+00 -0.00000000000E+00 -0.45593999997E+02  0.45594000000E+02  0.51100000000E-03 0. -1.
    9900012    2    1    2    0    0 -0.11854858558E+02  0.36932179282E+02 -0.12191888695E+02  0.50528859725E+02  0.29999999620E+02 0.  0.
         12    1    1    2    0    0  0.11854858558E+02 -0.36932179282E+02  0.12191888695E+02  0.40659140275E+02  0.00000000000E+00 0. -1.
         11    1    3    3    0    0  0.41295963087E+00  0.22877057735E+01 -0.10378789188E+02  0.10635948412E+02  0.51100000000E-03 0. -1.
        -11    1    3    3    0    0 -0.77740181142E+01  0.29426159785E+02 -0.70496699170E+01  0.31241512183E+02  0.51100000000E-03 0.  1.
        -12    1    3    3    0    0 -0.44938000748E+01  0.52183137239E+01  0.52365704096E+01  0.86513991290E+01  0.00000000000E+00 0.  1.
</event>
<event>
 7    1  0.5897985E-013  0.5052887E+02  0.7816164E-02  0.1300439E+00
        -11   -1    0    0    0    0  0.00000000000E+00  0.00000000000E+00  0.45593999997E+02  0.45594000000E+02  0.51100000000E-03 0. -1.
         11   -1    0    0    0    0 -0.00000000000E+00 -0.00000000000E+00 -0.45593999997E+02  0.45594000000E+02  0.51100000000E-03 0.  1.
    9900012    2    1    2    0    0 -0.88152958654E+01 -0.39028935859E+02 -0.72247742807E+01  0.50528872625E+02  0.30000038832E+02 0.  0.
         12    1    1    2    0    0  0.88152958654E+01  0.39028935859E+02  0.72247742807E+01  0.40659127375E+02  0.00000000000E+00 0. -1.
         11    1    3    3    0    0 -0.71689606748E+01 -0.60539185114E+01  0.52974529871E+01  0.10775292799E+02  0.51100000000E-03 0. -1.
        -11    1    3    3    0    0  0.22841528324E+01 -0.31802480469E+02 -0.66172334660E+01  0.32563828048E+02  0.51100000000E-03 0.  1.
        -12    1    3    3    0    0 -0.39304880229E+01 -0.11725368787E+01 -0.59049938018E+01  0.71897517780E+01  0.00000000000E+00 0.  1.
</event>
<event>
 7    1  0.5897985E-013  0.5052886E+02  0.7816164E-02  0.1300439E+00
        -11   -1    0    0    0    0  0.00000000000E+00  0.00000000000E+00  0.45593999997E+02  0.45594000000E+02  0.51100000000E-03 0. -1.
         11   -1    0    0    0    0 -0.00000000000E+00 -0.00000000000E+00 -0.45593999997E+02  0.45594000000E+02  0.51100000000E-03 0.  1.
    9900012    2    1    2    0    0  0.23373997600E+02 -0.53122755945E+01 -0.32842073083E+02  0.50528858345E+02  0.29999995424E+02 0.  0.
         12    1    1    2    0    0 -0.23373997600E+02  0.53122755945E+01  0.32842073083E+02  0.40659141655E+02  0.00000000000E+00 0. -1.
         11    1    3    3    0    0  0.17618103711E+02 -0.13545564956E+02 -0.31686704909E+02  0.38703064176E+02  0.51100000000E-03 0. -1.
        -11    1    3    3    0    0  0.18568064488E+01  0.53678441775E+01  0.20310084916E+01  0.60321204445E+01  0.51100000000E-03 0.  1.
         12    1    3    3    0    0  0.38990874400E+01  0.28654451842E+01 -0.31863766655E+01  0.57936737242E+01  0.00000000000E+00 0. -1.
</event>
<event>
 7    1  0.5897985E-013  0.5052886E+02  0.7816164E-02  0.1300439E+00
        -11   -1    0    0    0    0  0.00000000000E+00  0.00000000000E+00  0.45593999997E+02  0.45594000000E+02  0.51100000000E-03 0.  1.
         11   -1    0    0    0    0 -0.00000000000E+00 -0.00000000000E+00 -0.45593999997E+02  0.45594000000E+02  0.51100000000E-03 0. -1.
    9900012    2    1    2    0    0  0.31142306919E+01 -0.24380062756E+02  0.32389502422E+02  0.50528858839E+02  0.29999996927E+02 0.  0.
         12    1    1    2    0    0 -0.31142306919E+01  0.24380062756E+02 -0.32389502422E+02  0.40659141161E+02  0.00000000000E+00 0. -1.
         11    1    3    3    0    0 -0.95618490159E+00 -0.56089585951E+01 -0.20554057208E+01  0.60497437157E+01  0.51100000000E-03 0. -1.
        -11    1    3    3    0    0 -0.13207851064E+01 -0.73424593269E+01  0.30262562861E+02  0.31168556165E+02  0.51100000000E-03 0.  1.
        -12    1    3    3    0    0  0.53912006999E+01 -0.11428644834E+02  0.41823452824E+01  0.13310558958E+02  0.00000000000E+00 0.  1.
</event>
<event>
 7    1  0.5897985E-013  0.5052886E+02  0.7816164E-02  0.1300439E+00
        -11   -1    0    0    0    0  0.00000000000E+00  0.00000000000E+00  0.45593999997E+02  0.45594000000E+02  0.51100000000E-03 0. -1.
         11   -1    0    0    0    0 -0.00000000000E+00 -0.00000000000E+00 -0.45593999997E+02  0.45594000000E+02  0.51100000000E-03 0.  1.
    9900012    2    1    2    0    0 -0.38532767684E+02  0.22244424468E+01  0.12784508397E+02  0.50528856077E+02  0.29999988532E+02 0.  0.
         12    1    1    2    0    0  0.38532767684E+02 -0.22244424468E+01 -0.12784508397E+02  0.40659143923E+02  0.00000000000E+00 0. -1.
         11    1    3    3    0    0 -0.25910153516E+02  0.52910207062E+01  0.15941121154E+02  0.30877990531E+02  0.51100000000E-03 0. -1.
        -11    1    3    3    0    0 -0.94641690719E+01 -0.85280601202E+01 -0.38379057165E+01  0.13305180427E+02  0.51100000000E-03 0.  1.
        -12    1    3    3    0    0 -0.31584450957E+01  0.54614818608E+01  0.68129296025E+00  0.63456851195E+01  0.00000000000E+00 0.  1.
</event>
<event>
 7    1  0.5897985E-013  0.5052890E+02  0.7816164E-02  0.1300439E+00
        -11   -1    0    0    0    0  0.00000000000E+00  0.00000000000E+00  0.45593999997E+02  0.45594000000E+02  0.51100000000E-03 0. -1.
         11   -1    0    0    0    0 -0.00000000000E+00 -0.00000000000E+00 -0.45593999997E+02  0.45594000000E+02  0.51100000000E-03 0.  1.
    9900012    2    1    2    0    0  0.91884339996E+01 -0.45230788972E+01 -0.39348151592E+02  0.50528897750E+02  0.30000115199E+02 0.  0.
         12    1    1    2    0    0 -0.91884339996E+01  0.45230788972E+01  0.39348151592E+02  0.40659102250E+02  0.00000000000E+00 0. -1.
         11    1    3    3    0    0  0.42688625942E+01 -0.15973127141E+02 -0.15747317567E+02  0.22832914604E+02  0.51100000000E-03 0. -1.
        -11    1    3    3    0    0  0.36735384998E+01  0.21481177348E+01 -0.12248125543E+02  0.12966336201E+02  0.51100000000E-03 0.  1.
         12    1    3    3    0    0  0.12460329056E+01  0.93019305091E+01 -0.11352708482E+02  0.14729646944E+02  0.00000000000E+00 0. -1.
</event>
<event>
 7    1  0.5897985E-013  0.5052885E+02  0.7816164E-02  0.1300439E+00
        -11   -1    0    0    0    0  0.00000000000E+00  0.00000000000E+00  0.45593999997E+02  0.45594000000E+02  0.51100000000E-03 0.  1.
         11   -1    0    0    0    0 -0.00000000000E+00 -0.00000000000E+00 -0.45593999997E+02  0.45594000000E+02  0.51100000000E-03 0. -1.
    9900012    2    1    2    0    0  0.33672884789E+02 -0.21517738054E+02  0.75026678690E+01  0.50528852860E+02  0.29999978753E+02 0.  0.
         12    1    1    2    0    0 -0.33672884789E+02  0.21517738054E+02 -0.75026678690E+01  0.40659147140E+02  0.00000000000E+00 0. -1.
         11    1    3    3    0    0  0.16984355906E+02 -0.43034655802E+01  0.12490365243E+01  0.17565541667E+02  0.51100000000E-03 0. -1.
        -11    1    3    3    0    0 -0.46572607021E+01 -0.75402344615E+01  0.26642950783E+01  0.92543871492E+01  0.51100000000E-03 0.  1.
        -12    1    3    3    0    0  0.21345789586E+02 -0.96740380122E+01  0.35893362663E+01  0.23708924044E+02  0.00000000000E+00 0.  1.
</event>
<event>
 7    1  0.5897985E-013  0.5052886E+02  0.7816164E-02  0.1300439E+00
        -11   -1    0    0    0    0  0.00000000000E+00  0.00000000000E+00  0.45593999997E+02  0.45594000000E+02  0.51100000000E-03 0.  1.
         11   -1    0    0    0    0 -0.00000000000E+00 -0.00000000000E+00 -0.45593999997E+02  0.45594000000E+02  0.51100000000E-03 0. -1.
    9900012    2    1    2    0    0  0.26754046645E+02 -0.16328465223E+02  0.25899181263E+02  0.50528863530E+02  0.30000011185E+02 0.  0.
         12    1    1    2    0    0 -0.26754046645E+02  0.16328465223E+02 -0.25899181263E+02  0.40659136470E+02  0.00000000000E+00 0. -1.
         11    1    3    3    0    0  0.29964355974E+01 -0.17789872164E+02  0.12977929454E+02  0.22223519772E+02  0.51100000000E-03 0. -1.
        -11    1    3    3    0    0  0.13549927285E+02  0.32876116812E+01  0.10998523638E+02  0.17758841248E+02  0.51100000000E-03 0.  1.
        -12    1    3    3    0    0  0.10207683763E+02 -0.18262047403E+01  0.19227281704E+01  0.10546502509E+02  0.00000000000E+00 0.  1.
</event>
<event>
 7    1  0.5897985E-013  0.5052887E+02  0.7816164E-02  0.1300439E+00
        -11   -1    0    0    0    0  0.00000000000E+00  0.00000000000E+00  0.45593999997E+02  0.45594000000E+02  0.51100000000E-03 0.  1.
         11   -1    0    0    0    0 -0.00000000000E+00 -0.00000000000E+00 -0.45593999997E+02  0.45594000000E+02  0.51100000000E-03 0. -1.
    9900012    2    1    2    0    0  0.33549821672E+02 -0.15481132755E+02  0.16967868932E+02  0.50528873328E+02  0.30000040969E+02 0.  0.
         12    1    1    2    0    0 -0.33549821672E+02  0.15481132755E+02 -0.16967868932E+02  0.40659126672E+02  0.00000000000E+00 0. -1.
         11    1    3    3    0    0 -0.11915582804E+01 -0.81174862039E+01  0.10452610417E+02  0.13287981720E+02  0.51100000000E-03 0.  1.
        -11    1    3    3    0    0  0.21481041808E+02 -0.21501228413E+01  0.77541309218E+01  0.22938716878E+02  0.51100000000E-03 0. -1.
        -12    1    3    3    0    0  0.13260338144E+02 -0.52135237103E+01 -0.12388724065E+01  0.14302174730E+02  0.00000000000E+00 0.  1.
</event>
<event>
 7    1  0.5897985E-013  0.5052886E+02  0.7816164E-02  0.1300439E+00
        -11   -1    0    0    0    0  0.00000000000E+00  0.00000000000E+00  0.45593999997E+02  0.45594000000E+02  0.51100000000E-03 0.  1.
         11   -1    0    0    0    0 -0.00000000000E+00 -0.00000000000E+00 -0.45593999997E+02  0.45594000000E+02  0.51100000000E-03 0. -1.
    9900012    2    1    2    0    0 -0.22287613269E+02  0.13336547368E+02  0.31282019282E+02  0.50528856732E+02  0.29999990522E+02 0.  0.
         12    1    1    2    0    0  0.22287613269E+02 -0.13336547368E+02 -0.31282019282E+02  0.40659143268E+02  0.00000000000E+00 0. -1.
         11    1    3    3    0    0 -0.13510905148E+02 -0.29003070624E+01  0.35237427914E+01  0.14260894169E+02  0.51100000000E-03 0. -1.
        -11    1    3    3    0    0 -0.72763221977E+01  0.64001225437E+01  0.23546872424E+02  0.25462946305E+02  0.51100000000E-03 0.  1.
        -12    1    3    3    0    0 -0.15003859235E+01  0.98367318869E+01  0.42114040664E+01  0.10805016258E+02  0.00000000000E+00 0.  1.
</event>
<event>
 7    1  0.5897985E-013  0.5052886E+02  0.7816164E-02  0.1300439E+00
        -11   -1    0    0    0    0  0.00000000000E+00  0.00000000000E+00  0.45593999997E+02  0.45594000000E+02  0.51100000000E-03 0.  1.
         11   -1    0    0    0    0 -0.00000000000E+00 -0.00000000000E+00 -0.45593999997E+02  0.45594000000E+02  0.51100000000E-03 0. -1.
    9900012    2    1    2    0    0 -0.35429923577E+02 -0.57923866490E+01  0.19087555187E+02  0.50528856001E+02  0.29999988300E+02 0.  0.
         12    1    1    2    0    0  0.35429923577E+02  0.57923866490E+01 -0.19087555187E+02  0.40659143999E+02  0.00000000000E+00 0. -1.
         11    1    3    3    0    0 -0.14710089532E+02  0.59631881887E+01 -0.19784656579E+01  0.15995645471E+02  0.51100000000E-03 0. -1.
        -11    1    3    3    0    0 -0.17629818009E+02 -0.14269472707E+02  0.14714809959E+02  0.27036160356E+02  0.51100000000E-03 0.  1.
         12    1    3    3    0    0 -0.30900160354E+01  0.25138978694E+01  0.63512108858E+01  0.74970501741E+01  0.00000000000E+00 0. -1.
</event>
<event>
 7    1  0.5897985E-013  0.5052885E+02  0.7816164E-02  0.1300439E+00
        -11   -1    0    0    0    0  0.00000000000E+00  0.00000000000E+00  0.45593999997E+02  0.45594000000E+02  0.51100000000E-03 0.  1.
         11   -1    0    0    0    0 -0.00000000000E+00 -0.00000000000E+00 -0.45593999997E+02  0.45594000000E+02  0.51100000000E-03 0. -1.
    9900012    2    1    2    0    0  0.15351547977E+02  0.25147841749E+01  0.37565573430E+02  0.50528850084E+02  0.29999970316E+02 0.  0.
         12    1    1    2    0    0 -0.15351547977E+02 -0.25147841749E+01 -0.37565573430E+02  0.40659149916E+02  0.00000000000E+00 0. -1.
         11    1    3    3    0    0 -0.13622900382E+01 -0.11444186220E+02  0.11223406168E+02  0.16086953679E+02  0.51100000000E-03 0. -1.
        -11    1    3    3    0    0  0.66277326389E+01  0.72954854764E+01  0.14392635110E+02  0.17444165040E+02  0.51100000000E-03 0.  1.
         12    1    3    3    0    0  0.10086105377E+02  0.66634849184E+01  0.11949532152E+02  0.16997731365E+02  0.00000000000E+00 0. -1.
</event>
<event>
 7    1  0.5897985E-013  0.5052885E+02  0.7816164E-02  0.1300439E+00
        -11   -1    0    0    0    0  0.00000000000E+00  0.00000000000E+00  0.45593999997E+02  0.45594000000E+02  0.51100000000E-03 0.  1.
         11   -1    0    0    0    0 -0.00000000000E+00 -0.00000000000E+00 -0.45593999997E+02  0.45594000000E+02  0.51100000000E-03 0. -1.
    9900012    2    1    2    0    0 -0.16445637129E+02 -0.20084232455E+02  0.31294260413E+02  0.50528854550E+02  0.29999983891E+02 0.  0.
         12    1    1    2    0    0  0.16445637129E+02  0.20084232455E+02 -0.31294260413E+02  0.40659145450E+02  0.00000000000E+00 0. -1.
         11    1    3    3    0    0 -0.40073835443E+01 -0.15473590041E+01 -0.53200846308E+01  0.68378902813E+01  0.51100000000E-03 0. -1.
        -11    1    3    3    0    0 -0.55886180762E+01 -0.13653977187E+02  0.18069376599E+02  0.23327368389E+02  0.51100000000E-03 0.  1.
         12    1    3    3    0    0 -0.68496355085E+01 -0.48828962642E+01  0.18544968445E+02  0.20363595879E+02  0.00000000000E+00 0. -1.
</event>
<event>
 7    1  0.5897985E-013  0.5052885E+02  0.7816164E-02  0.1300439E+00
        -11   -1    0    0    0    0  0.00000000000E+00  0.00000000000E+00  0.45593999997E+02  0.45594000000E+02  0.51100000000E-03 0. -1.
         11   -1    0    0    0    0 -0.00000000000E+00 -0.00000000000E+00 -0.45593999997E+02  0.45594000000E+02  0.51100000000E-03 0.  1.
    9900012    2    1    2    0    0 -0.20424368457E+02  0.14429148565E+02  0.32059499255E+02  0.50528847923E+02  0.29999963745E+02 0.  0.
         12    1    1    2    0    0  0.20424368457E+02 -0.14429148565E+02 -0.32059499255E+02  0.40659152077E+02  0.00000000000E+00 0. -1.
         11    1    3    3    0    0 -0.22673551023E-01  0.41818161624E+01  0.12168936198E+02  0.12867443762E+02  0.51100000000E-03 0. -1.
        -11    1    3    3    0    0 -0.17863003128E+02  0.15546763116E+02  0.90896728837E+01  0.25365545087E+02  0.51100000000E-03 0.  1.
        -12    1    3    3    0    0 -0.25386917779E+01 -0.52994307141E+01  0.10800890173E+02  0.12295859074E+02  0.00000000000E+00 0.  1.
</event>
<event>
 7    1  0.5897985E-013  0.5052885E+02  0.7816164E-02  0.1300439E+00
        -11   -1    0    0    0    0  0.00000000000E+00  0.00000000000E+00  0.45593999997E+02  0.45594000000E+02  0.51100000000E-03 0.  1.
         11   -1    0    0    0    0 -0.00000000000E+00 -0.00000000000E+00 -0.45593999997E+02  0.45594000000E+02  0.51100000000E-03 0. -1.
    9900012    2    1    2    0    0 -0.22500843397E+02  0.46020245503E+01  0.33551446832E+02  0.50528853820E+02  0.29999981671E+02 0.  0.
         12    1    1    2    0    0  0.22500843397E+02 -0.46020245503E+01 -0.33551446832E+02  0.40659146180E+02  0.00000000000E+00 0. -1.
         11    1    3    3    0    0  0.17648137499E+01 -0.34558884790E+01 -0.28184969936E+01  0.47960044115E+01  0.51100000000E-03 0. -1.
        -11    1    3    3    0    0 -0.24608906288E+02  0.85623240578E+01  0.31749993730E+02  0.41072786174E+02  0.51100000000E-03 0.  1.
         12    1    3    3    0    0  0.34324914102E+00 -0.50441102850E+00  0.46199500960E+01  0.46600632344E+01  0.00000000000E+00 0. -1.
</event>
<event>
 7    1  0.5897985E-013  0.5052880E+02  0.7816164E-02  0.1300439E+00
        -11   -1    0    0    0    0  0.00000000000E+00  0.00000000000E+00  0.45593999997E+02  0.45594000000E+02  0.51100000000E-03 0.  1.
         11   -1    0    0    0    0 -0.00000000000E+00 -0.00000000000E+00 -0.45593999997E+02  0.45594000000E+02  0.51100000000E-03 0. -1.
    9900012    2    1    2    0    0 -0.39190569018E+02 -0.53041626865E+01  0.94411560218E+01  0.50528803393E+02  0.29999828392E+02 0.  0.
         12    1    1    2    0    0  0.39190569018E+02  0.53041626865E+01 -0.94411560218E+01  0.40659196607E+02  0.00000000000E+00 0. -1.
         11    1    3    3    0    0 -0.66244339535E+01  0.99129625045E+01  0.48920428024E+01  0.12887281865E+02  0.51100000000E-03 0. -1.
        -11    1    3    3    0    0 -0.93297345094E+01 -0.56217038805E+01  0.60447958017E+01  0.12457409726E+02  0.51100000000E-03 0.  1.
         12    1    3    3    0    0 -0.23236400555E+02 -0.95954213105E+01 -0.14956825823E+01  0.25184111802E+02  0.00000000000E+00 0. -1.
</event>
<event>
 7    1  0.5897985E-013  0.5052886E+02  0.7816164E-02  0.1300439E+00
        -11   -1    0    0    0    0  0.00000000000E+00  0.00000000000E+00  0.45593999997E+02  0.45594000000E+02  0.51100000000E-03 0.  1.
         11   -1    0    0    0    0 -0.00000000000E+00 -0.00000000000E+00 -0.45593999997E+02  0.45594000000E+02  0.51100000000E-03 0. -1.
    9900012    2    1    2    0    0  0.64286824789E+01 -0.14891491566E+02  0.37283792642E+02  0.50528859905E+02  0.30000000168E+02 0.  0.
         12    1    1    2    0    0 -0.64286824789E+01  0.14891491566E+02 -0.37283792642E+02  0.40659140095E+02  0.00000000000E+00 0. -1.
         11    1    3    3    0    0  0.73837216160E+01 -0.12050616439E+02  0.48569044709E+01  0.14944103277E+02  0.51100000000E-03 0. -1.
        -11    1    3    3    0    0 -0.51057486006E+00 -0.15634832606E+01  0.33692396393E+02  0.33732517569E+02  0.51100000000E-03 0.  1.
        -12    1    3    3    0    0 -0.44446427701E+00 -0.12773918663E+01 -0.12655082215E+01  0.18522390591E+01  0.00000000000E+00 0.  1.
</event>
<event>
 7    1  0.5897985E-013  0.5052886E+02  0.7816164E-02  0.1300439E+00
        -11   -1    0    0    0    0  0.00000000000E+00  0.00000000000E+00  0.45593999997E+02  0.45594000000E+02  0.51100000000E-03 0. -1.
         11   -1    0    0    0    0 -0.00000000000E+00 -0.00000000000E+00 -0.45593999997E+02  0.45594000000E+02  0.51100000000E-03 0.  1.
    9900012    2    1    2    0    0 -0.99285283057E+01  0.38539060660E+02 -0.83265333057E+01  0.50528855546E+02  0.29999986916E+02 0.  0.
         12    1    1    2    0    0  0.99285283057E+01 -0.38539060660E+02  0.83265333057E+01  0.40659144454E+02  0.00000000000E+00 0. -1.
         11    1    3    3    0    0  0.13002245234E+01  0.16900417577E+01  0.49372239639E+00  0.21887409668E+01  0.51100000000E-03 0. -1.
        -11    1    3    3    0    0 -0.24472118458E+01  0.38109193228E+02 -0.44362296371E+01  0.38444500100E+02  0.51100000000E-03 0.  1.
        -12    1    3    3    0    0 -0.87815409833E+01 -0.12601743254E+01 -0.43840260650E+01  0.98956144787E+01  0.00000000000E+00 0.  1.
</event>
<event>
 7    1  0.5897985E-013  0.5052886E+02  0.7816164E-02  0.1300439E+00
        -11   -1    0    0    0    0  0.00000000000E+00  0.00000000000E+00  0.45593999997E+02  0.45594000000E+02  0.51100000000E-03 0. -1.
         11   -1    0    0    0    0 -0.00000000000E+00 -0.00000000000E+00 -0.45593999997E+02  0.45594000000E+02  0.51100000000E-03 0.  1.
    9900012    2    1    2    0    0  0.13928934570E+02  0.24295845988E+02 -0.29476465322E+02  0.50528863777E+02  0.30000011937E+02 0.  0.
         12    1    1    2    0    0 -0.13928934570E+02 -0.24295845988E+02  0.29476465322E+02  0.40659136223E+02  0.00000000000E+00 0. -1.
         11    1    3    3    0    0  0.15770762769E+01  0.95741438743E+00  0.15544828736E+01  0.24125151104E+01  0.51100000000E-03 0. -1.
        -11    1    3    3    0    0  0.13469767205E+02  0.62842298651E+01 -0.26582998321E+02  0.30456230455E+02  0.51100000000E-03 0.  1.
        -12    1    3    3    0    0 -0.11179089119E+01  0.17054201735E+02 -0.44479498747E+01  0.17660118211E+02  0.00000000000E+00 0.  1.
</event>
<event>
 7    1  0.5897985E-013  0.5052885E+02  0.7816164E-02  0.1300439E+00
        -11   -1    0    0    0    0  0.00000000000E+00  0.00000000000E+00  0.45593999997E+02  0.45594000000E+02  0.51100000000E-03 0. -1.
         11   -1    0    0    0    0 -0.00000000000E+00 -0.00000000000E+00 -0.45593999997E+02  0.45594000000E+02  0.51100000000E-03 0.  1.
    9900012    2    1    2    0    0 -0.31369858010E+01  0.12994822942E+02 -0.38398699059E+02  0.50528853518E+02  0.29999980754E+02 0.  0.
         12    1    1    2    0    0  0.31369858010E+01 -0.12994822942E+02  0.38398699059E+02  0.40659146482E+02  0.00000000000E+00 0. -1.
         11    1    3    3    0    0  0.39462887587E+01  0.93735151945E+01 -0.70391234078E+01  0.12368720252E+02  0.51100000000E-03 0. -1.
        -11    1    3    3    0    0 -0.11139961568E+02 -0.49275132372E+01 -0.15820191179E+02  0.19966411286E+02  0.51100000000E-03 0.  1.
        -12    1    3    3    0    0  0.40566870082E+01  0.85488209844E+01 -0.15539384472E+02  0.18193721980E+02  0.00000000000E+00 0.  1.
</event>
<event>
 7    1  0.5897985E-013  0.5052885E+02  0.7816164E-02  0.1300439E+00
        -11   -1    0    0    0    0  0.00000000000E+00  0.00000000000E+00  0.45593999997E+02  0.45594000000E+02  0.51100000000E-03 0.  1.
         11   -1    0    0    0    0 -0.00000000000E+00 -0.00000000000E+00 -0.45593999997E+02  0.45594000000E+02  0.51100000000E-03 0. -1.
    9900012    2    1    2    0    0  0.32187438600E+02 -0.10020585893E+02  0.22731542294E+02  0.50528851456E+02  0.29999974485E+02 0.  0.
         12    1    1    2    0    0 -0.32187438600E+02  0.10020585893E+02 -0.22731542294E+02  0.40659148544E+02  0.00000000000E+00 0. -1.
         11    1    3    3    0    0 -0.44168708454E+01 -0.64129612833E+01  0.32538024108E+01  0.84393157824E+01  0.51100000000E-03 0. -1.
        -11    1    3    3    0    0  0.14258714807E+02  0.14950811163E+01  0.86009420058E+01  0.16718923982E+02  0.51100000000E-03 0.  1.
         12    1    3    3    0    0  0.22345594639E+02 -0.51027057256E+01  0.10876797877E+02  0.25370611691E+02  0.00000000000E+00 0. -1.
</event>
<event>
 7    1  0.5897985E-013  0.5052886E+02  0.7816164E-02  0.1300439E+00
        -11   -1    0    0    0    0  0.00000000000E+00  0.00000000000E+00  0.45593999997E+02  0.45594000000E+02  0.51100000000E-03 0. -1.
         11   -1    0    0    0    0 -0.00000000000E+00 -0.00000000000E+00 -0.45593999997E+02  0.45594000000E+02  0.51100000000E-03 0.  1.
    9900012    2    1    2    0    0  0.40441323036E+02  0.37056845247E+01 -0.19832579986E+01  0.50528855654E+02  0.29999987245E+02 0.  0.
         12    1    1    2    0    0 -0.40441323036E+02 -0.37056845247E+01  0.19832579986E+01  0.40659144346E+02  0.00000000000E+00 0. -1.
         11    1    3    3    0    0  0.63548470318E+01  0.88437099827E+01  0.21960294347E+01  0.11109357884E+02  0.51100000000E-03 0. -1.
        -11    1    3    3    0    0  0.24925593343E+02 -0.11708173533E+02 -0.54571160738E+01  0.28073949617E+02  0.51100000000E-03 0.  1.
         12    1    3    3    0    0  0.91608826610E+01  0.65701480751E+01  0.12778286405E+01  0.11345548153E+02  0.00000000000E+00 0. -1.
</event>
<event>
 7    1  0.5897985E-013  0.5052886E+02  0.7816164E-02  0.1300439E+00
        -11   -1    0    0    0    0  0.00000000000E+00  0.00000000000E+00  0.45593999997E+02  0.45594000000E+02  0.51100000000E-03 0.  1.
         11   -1    0    0    0    0 -0.00000000000E+00 -0.00000000000E+00 -0.45593999997E+02  0.45594000000E+02  0.51100000000E-03 0. -1.
    9900012    2    1    2    0    0  0.10491987723E+02 -0.44619164427E+01  0.39027877303E+02  0.50528859435E+02  0.29999998738E+02 0.  0.
         12    1    1    2    0    0 -0.10491987723E+02  0.44619164427E+01 -0.39027877303E+02  0.40659140565E+02  0.00000000000E+00 0. -1.
         11    1    3    3    0    0 -0.10352321143E+00  0.66509591204E+01 -0.12220457017E+01  0.67630888087E+01  0.51100000000E-03 0. -1.
        -11    1    3    3    0    0  0.94939382592E+01 -0.96122650560E+01  0.25128487481E+02  0.28530183780E+02  0.51100000000E-03 0.  1.
        -12    1    3    3    0    0  0.11015726753E+01 -0.15006105070E+01  0.15121435524E+02  0.15235586846E+02  0.00000000000E+00 0.  1.
</event>
<event>
 7    1  0.5897985E-013  0.5052886E+02  0.7816164E-02  0.1300439E+00
        -11   -1    0    0    0    0  0.00000000000E+00  0.00000000000E+00  0.45593999997E+02  0.45594000000E+02  0.51100000000E-03 0. -1.
         11   -1    0    0    0    0 -0.00000000000E+00 -0.00000000000E+00 -0.45593999997E+02  0.45594000000E+02  0.51100000000E-03 0.  1.
    9900012    2    1    2    0    0 -0.61183999751E+01  0.37683216982E+02 -0.13989497580E+02  0.50528859541E+02  0.29999999060E+02 0.  0.
         12    1    1    2    0    0  0.61183999751E+01 -0.37683216982E+02  0.13989497580E+02  0.40659140459E+02  0.00000000000E+00 0. -1.
         11    1    3    3    0    0  0.17984099605E-01  0.20931174818E+01 -0.38220530880E+01  0.43577005736E+01  0.51100000000E-03 0. -1.
        -11    1    3    3    0    0 -0.15518752204E+02  0.23324420619E+02 -0.63342804877E+00  0.28022517705E+02  0.51100000000E-03 0.  1.
        -12    1    3    3    0    0  0.93823681294E+01  0.12265678881E+02 -0.95340164429E+01  0.18148641262E+02  0.00000000000E+00 0.  1.
</event>
<event>
 7    1  0.5897985E-013  0.5052887E+02  0.7816164E-02  0.1300439E+00
        -11   -1    0    0    0    0  0.00000000000E+00  0.00000000000E+00  0.45593999997E+02  0.45594000000E+02  0.51100000000E-03 0. -1.
         11   -1    0    0    0    0 -0.00000000000E+00 -0.00000000000E+00 -0.45593999997E+02  0.45594000000E+02  0.51100000000E-03 0.  1.
    9900012    2    1    2    0    0 -0.14391749084E+02 -0.10792394668E+02 -0.36463226961E+02  0.50528866404E+02  0.30000019921E+02 0.  0.
         12    1    1    2    0    0  0.14391749084E+02  0.10792394668E+02  0.36463226961E+02  0.40659133596E+02  0.00000000000E+00 0. -1.
         11    1    3    3    0    0  0.14450575502E+01  0.27343889750E+01 -0.26950903309E+00  0.31044661006E+01  0.51100000000E-03 0. -1.
        -11    1    3    3    0    0 -0.19903396478E+02 -0.48721888169E+01 -0.28756339455E+02  0.35310203544E+02  0.51100000000E-03 0.  1.
        -12    1    3    3    0    0  0.40665898435E+01 -0.86545948265E+01 -0.74373784729E+01  0.12114196759E+02  0.00000000000E+00 0.  1.
</event>
<event>
 7    1  0.5897985E-013  0.5052886E+02  0.7816164E-02  0.1300439E+00
        -11   -1    0    0    0    0  0.00000000000E+00  0.00000000000E+00  0.45593999997E+02  0.45594000000E+02  0.51100000000E-03 0.  1.
         11   -1    0    0    0    0 -0.00000000000E+00 -0.00000000000E+00 -0.45593999997E+02  0.45594000000E+02  0.51100000000E-03 0. -1.
    9900012    2    1    2    0    0 -0.31904874568E+02 -0.18756638175E+02  0.16835467159E+02  0.50528862635E+02  0.30000008464E+02 0.  0.
         12    1    1    2    0    0  0.31904874568E+02  0.18756638175E+02 -0.16835467159E+02  0.40659137365E+02  0.00000000000E+00 0. -1.
         11    1    3    3    0    0 -0.30170835770E+01 -0.54233476444E-01  0.24867433549E+00  0.30278001531E+01  0.51100000000E-03 0. -1.
        -11    1    3    3    0    0 -0.84222262147E+01 -0.70744206379E+01 -0.78949381535E+01  0.13539252951E+02  0.51100000000E-03 0.  1.
        -12    1    3    3    0    0 -0.20465564776E+02 -0.11627984061E+02  0.24481730977E+02  0.33961809530E+02  0.00000000000E+00 0.  1.
</event>
<event>
 7    1  0.5897985E-013  0.5052888E+02  0.7816164E-02  0.1300439E+00
        -11   -1    0    0    0    0  0.00000000000E+00  0.00000000000E+00  0.45593999997E+02  0.45594000000E+02  0.51100000000E-03 0.  1.
         11   -1    0    0    0    0 -0.00000000000E+00 -0.00000000000E+00 -0.45593999997E+02  0.45594000000E+02  0.51100000000E-03 0. -1.
    9900012    2    1    2    0    0 -0.32908530537E+02 -0.10876934895E+02  0.21257593080E+02  0.50528876075E+02  0.30000049317E+02 0.  0.
         12    1    1    2    0    0  0.32908530537E+02  0.10876934895E+02 -0.21257593080E+02  0.40659123925E+02  0.00000000000E+00 0. -1.
         11    1    3    3    0    0 -0.14207348143E+02 -0.71904167948E+01  0.37896588335E+01  0.16368028265E+02  0.51100000000E-03 0. -1.
        -11    1    3    3    0    0 -0.44641178188E+01  0.85452427639E+01  0.20175947690E+01  0.98498837916E+01  0.51100000000E-03 0.  1.
        -12    1    3    3    0    0 -0.14237064575E+02 -0.12231760864E+02  0.15450339478E+02  0.24310964019E+02  0.00000000000E+00 0.  1.
</event>
<event>
 7    1  0.5897985E-013  0.5052886E+02  0.7816164E-02  0.1300439E+00
        -11   -1    0    0    0    0  0.00000000000E+00  0.00000000000E+00  0.45593999997E+02  0.45594000000E+02  0.51100000000E-03 0. -1.
         11   -1    0    0    0    0 -0.00000000000E+00 -0.00000000000E+00 -0.45593999997E+02  0.45594000000E+02  0.51100000000E-03 0.  1.
    9900012    2    1    2    0    0  0.12224357015E+02 -0.33560476138E+02 -0.19427440285E+02  0.50528857128E+02  0.29999991727E+02 0.  0.
         12    1    1    2    0    0 -0.12224357015E+02  0.33560476138E+02  0.19427440285E+02  0.40659142872E+02  0.00000000000E+00 0. -1.
         11    1    3    3    0    0  0.47276099090E+01  0.30502957165E+01  0.13991572579E+01  0.57976064633E+01  0.51100000000E-03 0. -1.
        -11    1    3    3    0    0  0.93240522254E+01 -0.25163484507E+02 -0.19264584150E+02  0.33034271676E+02  0.51100000000E-03 0.  1.
         12    1    3    3    0    0 -0.18273051198E+01 -0.11447287348E+02 -0.15620133930E+01  0.11696978989E+02  0.00000000000E+00 0. -1.
</event>
<event>
 7    1  0.5897985E-013  0.5052887E+02  0.7816164E-02  0.1300439E+00
        -11   -1    0    0    0    0  0.00000000000E+00  0.00000000000E+00  0.45593999997E+02  0.45594000000E+02  0.51100000000E-03 0.  1.
         11   -1    0    0    0    0 -0.00000000000E+00 -0.00000000000E+00 -0.45593999997E+02  0.45594000000E+02  0.51100000000E-03 0. -1.
    9900012    2    1    2    0    0  0.19452300662E+02 -0.23195984753E+02  0.27142577344E+02  0.50528865546E+02  0.30000017313E+02 0.  0.
         12    1    1    2    0    0 -0.19452300662E+02  0.23195984753E+02 -0.27142577344E+02  0.40659134454E+02  0.00000000000E+00 0. -1.
         11    1    3    3    0    0  0.16338436380E+02  0.11809040143E+01  0.75401994098E+01  0.18033126324E+02  0.51100000000E-03 0. -1.
        -11    1    3    3    0    0  0.16657892412E+00 -0.19394777272E+02  0.11534711469E+02  0.22566229258E+02  0.51100000000E-03 0.  1.
         12    1    3    3    0    0  0.29472853576E+01 -0.49821114947E+01  0.80676664657E+01  0.99295099641E+01  0.00000000000E+00 0. -1.
</event>
<event>
 7    1  0.5897985E-013  0.5052886E+02  0.7816164E-02  0.1300439E+00
        -11   -1    0    0    0    0  0.00000000000E+00  0.00000000000E+00  0.45593999997E+02  0.45594000000E+02  0.51100000000E-03 0.  1.
         11   -1    0    0    0    0 -0.00000000000E+00 -0.00000000000E+00 -0.45593999997E+02  0.45594000000E+02  0.51100000000E-03 0. -1.
    9900012    2    1    2    0    0 -0.22897942099E+01  0.32628757225E+02  0.24151323559E+02  0.50528863447E+02  0.30000010933E+02 0.  0.
         12    1    1    2    0    0  0.22897942099E+01 -0.32628757225E+02 -0.24151323559E+02  0.40659136553E+02  0.00000000000E+00 0. -1.
         11    1    3    3    0    0 -0.14976221354E+02  0.16258627965E+02  0.16183882883E+02  0.27396135764E+02  0.51100000000E-03 0. -1.
        -11    1    3    3    0    0  0.68249660980E+01  0.13595616393E+02  0.60360591005E+01  0.16366274991E+02  0.51100000000E-03 0.  1.
         12    1    3    3    0    0  0.58614610461E+01  0.27745128678E+01  0.19313815751E+01  0.67664526923E+01  0.00000000000E+00 0. -1.
</event>
<event>
 7    1  0.5897985E-013  0.5052886E+02  0.7816164E-02  0.1300439E+00
        -11   -1    0    0    0    0  0.00000000000E+00  0.00000000000E+00  0.45593999997E+02  0.45594000000E+02  0.51100000000E-03 0.  1.
         11   -1    0    0    0    0 -0.00000000000E+00 -0.00000000000E+00 -0.45593999997E+02  0.45594000000E+02  0.51100000000E-03 0. -1.
    9900012    2    1    2    0    0 -0.16975597855E+02  0.17165018616E+02  0.32716304040E+02  0.50528864045E+02  0.30000012750E+02 0.  0.
         12    1    1    2    0    0  0.16975597855E+02 -0.17165018616E+02 -0.32716304040E+02  0.40659135955E+02  0.00000000000E+00 0. -1.
         11    1    3    3    0    0 -0.10437716711E+02 -0.33063448783E+01  0.21973085096E+02  0.24549833309E+02  0.51100000000E-03 0. -1.
        -11    1    3    3    0    0 -0.74358020103E+01  0.76769811138E+01  0.62945488734E+01  0.12403569500E+02  0.51100000000E-03 0.  1.
         12    1    3    3    0    0  0.89792086640E+00  0.12794382380E+02  0.44486700709E+01  0.13575461236E+02  0.00000000000E+00 0. -1.
</event>
<event>
 7    1  0.5897985E-013  0.5052887E+02  0.7816164E-02  0.1300439E+00
        -11   -1    0    0    0    0  0.00000000000E+00  0.00000000000E+00  0.45593999997E+02  0.45594000000E+02  0.51100000000E-03 0.  1.
         11   -1    0    0    0    0 -0.00000000000E+00 -0.00000000000E+00 -0.45593999997E+02  0.45594000000E+02  0.51100000000E-03 0. -1.
    9900012    2    1    2    0    0 -0.82435184778E+00 -0.35366113530E+02  0.20043039577E+02  0.50528868459E+02  0.30000026167E+02 0.  0.
         12    1    1    2    0    0  0.82435184778E+00  0.35366113530E+02 -0.20043039577E+02  0.40659131541E+02  0.00000000000E+00 0. -1.
         11    1    3    3    0    0 -0.30814505627E+01 -0.17166146160E+02 -0.97585887449E+00  0.17467805024E+02  0.51100000000E-03 0. -1.
        -11    1    3    3    0    0  0.93770163290E+01 -0.14549893145E+02  0.16275708964E+02  0.23759767009E+02  0.51100000000E-03 0.  1.
        -12    1    3    3    0    0 -0.71199176141E+01 -0.36500742254E+01  0.47431894876E+01  0.93012964256E+01  0.00000000000E+00 0.  1.
</event>
<event>
 7    1  0.5897985E-013  0.5052886E+02  0.7816164E-02  0.1300439E+00
        -11   -1    0    0    0    0  0.00000000000E+00  0.00000000000E+00  0.45593999997E+02  0.45594000000E+02  0.51100000000E-03 0.  1.
         11   -1    0    0    0    0 -0.00000000000E+00 -0.00000000000E+00 -0.45593999997E+02  0.45594000000E+02  0.51100000000E-03 0. -1.
    9900012    2    1    2    0    0  0.79274575528E+01 -0.38770332371E+02  0.93371564525E+01  0.50528859010E+02  0.29999997446E+02 0.  0.
         12    1    1    2    0    0 -0.79274575528E+01  0.38770332371E+02 -0.93371564525E+01  0.40659140990E+02  0.00000000000E+00 0. -1.
         11    1    3    3    0    0  0.78015632612E+01  0.12122347259E+01  0.71314655946E+00  0.79273249351E+01  0.51100000000E-03 0. -1.
        -11    1    3    3    0    0  0.25738750257E+01 -0.38744952411E+02  0.89225511663E+01  0.39842290215E+02  0.51100000000E-03 0.  1.
        -12    1    3    3    0    0 -0.24479807341E+01 -0.12376146861E+01 -0.29854127319E+00  0.27592438598E+01  0.00000000000E+00 0.  1.
</event>
<event>
 7    1  0.5897985E-013  0.5052886E+02  0.7816164E-02  0.1300439E+00
        -11   -1    0    0    0    0  0.00000000000E+00  0.00000000000E+00  0.45593999997E+02  0.45594000000E+02  0.51100000000E-03 0. -1.
         11   -1    0    0    0    0 -0.00000000000E+00 -0.00000000000E+00 -0.45593999997E+02  0.45594000000E+02  0.51100000000E-03 0.  1.
    9900012    2    1    2    0    0 -0.27489305603E+02 -0.11436770667E+02 -0.27689419232E+02  0.50528861012E+02  0.30000003532E+02 0.  0.
         12    1    1    2    0    0  0.27489305603E+02  0.11436770667E+02  0.27689419232E+02  0.40659138988E+02  0.00000000000E+00 0. -1.
         11    1    3    3    0    0 -0.32479181313E+01 -0.43904630643E+01  0.17795721738E+01  0.57438676421E+01  0.51100000000E-03 0. -1.
        -11    1    3    3    0    0 -0.96314065597E+01 -0.44833271907E+01 -0.27918002647E+02  0.29871040944E+02  0.51100000000E-03 0.  1.
        -12    1    3    3    0    0 -0.14609980912E+02 -0.25629804122E+01 -0.15509887590E+01  0.14913952426E+02  0.00000000000E+00 0.  1.
</event>
<event>
 7    1  0.6089204E-013  0.5052886E+02  0.7816164E-02  0.1300439E+00
        -11   -1    0    0    0    0  0.00000000000E+00  0.00000000000E+00  0.45593999997E+02  0.45594000000E+02  0.51100000000E-03 0.  1.
         11   -1    0    0    0    0 -0.00000000000E+00 -0.00000000000E+00 -0.45593999997E+02  0.45594000000E+02  0.51100000000E-03 0. -1.
    9900012    2    1    2    0    0  0.26024388714E+02 -0.29452301831E+02 -0.10414352909E+02  0.50528860344E+02  0.30000001500E+02 0.  0.
         12    1    1    2    0    0 -0.26024388714E+02  0.29452301831E+02  0.10414352909E+02  0.40659139656E+02  0.00000000000E+00 0. -1.
         11    1    3    3    0    0 -0.44304855043E+01  0.43683490103E+00  0.42889913064E+00  0.44725810513E+01  0.51100000000E-03 0. -1.
        -11    1    3    3    0    0  0.21567019996E+02 -0.12347807544E+02 -0.84387508676E+01  0.26245327568E+02  0.51100000000E-03 0.  1.
        -12    1    3    3    0    0  0.88878542221E+01 -0.17541329188E+02 -0.24045011725E+01  0.19810951725E+02  0.00000000000E+00 0.  1.
</event>
<event>
 7    1  0.5897985E-013  0.5052884E+02  0.7816164E-02  0.1300439E+00
        -11   -1    0    0    0    0  0.00000000000E+00  0.00000000000E+00  0.45593999997E+02  0.45594000000E+02  0.51100000000E-03 0. -1.
         11   -1    0    0    0    0 -0.00000000000E+00 -0.00000000000E+00 -0.45593999997E+02  0.45594000000E+02  0.51100000000E-03 0.  1.
    9900012    2    1    2    0    0 -0.19186010817E+02 -0.35847623190E+02 -0.11075975126E+00  0.50528839074E+02  0.29999936850E+02 0.  0.
         12    1    1    2    0    0  0.19186010817E+02  0.35847623190E+02  0.11075975126E+00  0.40659160926E+02  0.00000000000E+00 0. -1.
         11    1    3    3    0    0 -0.93150647658E+00 -0.10822314987E+01 -0.94958143486E+01  0.96025735996E+01  0.51100000000E-03 0. -1.
        -11    1    3    3    0    0 -0.15523244683E+02 -0.24399488441E+02  0.50176250145E+01  0.29351025923E+02  0.51100000000E-03 0.  1.
         12    1    3    3    0    0 -0.27312596575E+01 -0.10365903251E+02  0.43674295829E+01  0.11575239552E+02  0.00000000000E+00 0. -1.
</event>
<event>
 7    1  0.5897985E-013  0.5052885E+02  0.7816164E-02  0.1300439E+00
        -11   -1    0    0    0    0  0.00000000000E+00  0.00000000000E+00  0.45593999997E+02  0.45594000000E+02  0.51100000000E-03 0.  1.
         11   -1    0    0    0    0 -0.00000000000E+00 -0.00000000000E+00 -0.45593999997E+02  0.45594000000E+02  0.51100000000E-03 0. -1.
    9900012    2    1    2    0    0  0.33556086542E+02 -0.33583039001E+01  0.22712924719E+02  0.50528854677E+02  0.29999984276E+02 0.  0.
         12    1    1    2    0    0 -0.33556086542E+02  0.33583039001E+01 -0.22712924719E+02  0.40659145323E+02  0.00000000000E+00 0. -1.
         11    1    3    3    0    0  0.64241976581E+01  0.44769924746E+01 -0.38533054455E+01  0.87270693984E+01  0.51100000000E-03 0. -1.
        -11    1    3    3    0    0  0.18165259312E+02 -0.12529272613E+02  0.19603972330E+02  0.29517368607E+02  0.51100000000E-03 0.  1.
        -12    1    3    3    0    0  0.89666295722E+01  0.46939762387E+01  0.69622578343E+01  0.12284416672E+02  0.00000000000E+00 0.  1.
</event>
<event>
 7    1  0.5897985E-013  0.5052886E+02  0.7816164E-02  0.1300439E+00
        -11   -1    0    0    0    0  0.00000000000E+00  0.00000000000E+00  0.45593999997E+02  0.45594000000E+02  0.51100000000E-03 0. -1.
         11   -1    0    0    0    0 -0.00000000000E+00 -0.00000000000E+00 -0.45593999997E+02  0.45594000000E+02  0.51100000000E-03 0.  1.
    9900012    2    1    2    0    0  0.34481494233E+02 -0.21265309558E+02 -0.34610788600E+01  0.50528857092E+02  0.29999991617E+02 0.  0.
         12    1    1    2    0    0 -0.34481494233E+02  0.21265309558E+02  0.34610788600E+01  0.40659142908E+02  0.00000000000E+00 0. -1.
         11    1    3    3    0    0 -0.17926136701E+01 -0.44485772210E+01 -0.72709697101E+01  0.87103561263E+01  0.51100000000E-03 0. -1.
        -11    1    3    3    0    0  0.29560957763E+02 -0.13158776262E+02 -0.16886101851E+01  0.32401466343E+02  0.51100000000E-03 0.  1.
         12    1    3    3    0    0  0.67131501405E+01 -0.36579560747E+01  0.54985010351E+01  0.94170346228E+01  0.00000000000E+00 0. -1.
</event>
<event>
 7    1  0.5897985E-013  0.5052885E+02  0.7816164E-02  0.1300439E+00
        -11   -1    0    0    0    0  0.00000000000E+00  0.00000000000E+00  0.45593999997E+02  0.45594000000E+02  0.51100000000E-03 0.  1.
         11   -1    0    0    0    0 -0.00000000000E+00 -0.00000000000E+00 -0.45593999997E+02  0.45594000000E+02  0.51100000000E-03 0. -1.
    9900012    2    1    2    0    0 -0.43958614447E+01  0.33115387279E+02  0.23177871891E+02  0.50528853208E+02  0.29999979811E+02 0.  0.
         12    1    1    2    0    0  0.43958614447E+01 -0.33115387279E+02 -0.23177871891E+02  0.40659146792E+02  0.00000000000E+00 0. -1.
         11    1    3    3    0    0  0.68007755358E+01  0.15639478849E+02 -0.11885016212E+00  0.17054558692E+02  0.51100000000E-03 0. -1.
        -11    1    3    3    0    0 -0.48290357009E+01  0.62755788865E+01  0.17771225008E+02  0.19455562565E+02  0.51100000000E-03 0.  1.
         12    1    3    3    0    0 -0.63676012796E+01  0.11200329543E+02  0.55254970448E+01  0.14018731951E+02  0.00000000000E+00 0. -1.
</event>
<event>
 7    1  0.5897985E-013  0.5052885E+02  0.7816164E-02  0.1300439E+00
        -11   -1    0    0    0    0  0.00000000000E+00  0.00000000000E+00  0.45593999997E+02  0.45594000000E+02  0.51100000000E-03 0.  1.
         11   -1    0    0    0    0 -0.00000000000E+00 -0.00000000000E+00 -0.45593999997E+02  0.45594000000E+02  0.51100000000E-03 0. -1.
    9900012    2    1    2    0    0  0.23945533018E+02 -0.31790966577E+02 -0.83133606566E+01  0.50528854991E+02  0.29999985232E+02 0.  0.
         12    1    1    2    0    0 -0.23945533018E+02  0.31790966577E+02  0.83133606566E+01  0.40659145009E+02  0.00000000000E+00 0. -1.
         11    1    3    3    0    0  0.10980614399E+02  0.12191418863E+01 -0.76062844043E+01  0.13413268141E+02  0.51100000000E-03 0. -1.
        -11    1    3    3    0    0  0.95363608684E+01 -0.11614515139E+02 -0.30052698775E+01  0.15325494701E+02  0.51100000000E-03 0.  1.
         12    1    3    3    0    0  0.34285577506E+01 -0.21395593325E+02  0.22981936251E+01  0.21790092150E+02  0.00000000000E+00 0. -1.
</event>
<event>
 7    1  0.5897985E-013  0.5052886E+02  0.7816164E-02  0.1300439E+00
        -11   -1    0    0    0    0  0.00000000000E+00  0.00000000000E+00  0.45593999997E+02  0.45594000000E+02  0.51100000000E-03 0.  1.
         11   -1    0    0    0    0 -0.00000000000E+00 -0.00000000000E+00 -0.45593999997E+02  0.45594000000E+02  0.51100000000E-03 0. -1.
    9900012    2    1    2    0    0 -0.25037910529E+02 -0.80618516143E+01  0.31004441793E+02  0.50528858027E+02  0.29999994458E+02 0.  0.
         12    1    1    2    0    0  0.25037910529E+02  0.80618516143E+01 -0.31004441793E+02  0.40659141973E+02  0.00000000000E+00 0. -1.
         11    1    3    3    0    0  0.44576652652E+01  0.18127358250E+01  0.12184391654E+01  0.49640089694E+01  0.51100000000E-03 0. -1.
        -11    1    3    3    0    0 -0.11512416543E+02 -0.77911479781E+01  0.21623563383E+02  0.25706345814E+02  0.51100000000E-03 0.  1.
        -12    1    3    3    0    0 -0.17983159251E+02 -0.20834394612E+01  0.81624392442E+01  0.19858503243E+02  0.00000000000E+00 0.  1.
</event>
<event>
 7    1  0.5897985E-013  0.5052887E+02  0.7816164E-02  0.1300439E+00
        -11   -1    0    0    0    0  0.00000000000E+00  0.00000000000E+00  0.45593999997E+02  0.45594000000E+02  0.51100000000E-03 0.  1.
         11   -1    0    0    0    0 -0.00000000000E+00 -0.00000000000E+00 -0.45593999997E+02  0.45594000000E+02  0.51100000000E-03 0. -1.
    9900012    2    1    2    0    0 -0.19851811877E+02  0.91304540853E+01  0.34288560823E+02  0.50528867817E+02  0.30000024215E+02 0.  0.
         12    1    1    2    0    0  0.19851811877E+02 -0.91304540853E+01 -0.34288560823E+02  0.40659132183E+02  0.00000000000E+00 0. -1.
         11    1    3    3    0    0 -0.72937179729E+01 -0.19766463786E+01 -0.40797188334E+01  0.85877563306E+01  0.51100000000E-03 0. -1.
        -11    1    3    3    0    0 -0.43669871454E+01  0.38520198734E+01  0.16302470761E+02  0.17311244525E+02  0.51100000000E-03 0.  1.
         12    1    3    3    0    0 -0.81911067583E+01  0.72550805905E+01  0.22065808895E+02  0.24629866961E+02  0.00000000000E+00 0. -1.
</event>
<event>
 7    1  0.5897985E-013  0.5052887E+02  0.7816164E-02  0.1300439E+00
        -11   -1    0    0    0    0  0.00000000000E+00  0.00000000000E+00  0.45593999997E+02  0.45594000000E+02  0.51100000000E-03 0. -1.
         11   -1    0    0    0    0 -0.00000000000E+00 -0.00000000000E+00 -0.45593999997E+02  0.45594000000E+02  0.51100000000E-03 0.  1.
    9900012    2    1    2    0    0 -0.37017108967E+02 -0.27798123134E+01 -0.16588278235E+02  0.50528872027E+02  0.30000037013E+02 0.  0.
         12    1    1    2    0    0  0.37017108967E+02  0.27798123134E+01  0.16588278235E+02  0.40659127973E+02  0.00000000000E+00 0. -1.
         11    1    3    3    0    0  0.10182385199E+01 -0.24858681723E+01  0.14970692890E+01  0.30753157514E+01  0.51100000000E-03 0. -1.
        -11    1    3    3    0    0 -0.17919475379E+02  0.81153660757E+01 -0.16354756651E+02  0.25582119338E+02  0.51100000000E-03 0.  1.
        -12    1    3    3    0    0 -0.20115872107E+02 -0.84093102168E+01 -0.17305908723E+01  0.21871436938E+02  0.00000000000E+00 0.  1.
</event>
<event>
 7    1  0.5897985E-013  0.5052887E+02  0.7816164E-02  0.1300439E+00
        -11   -1    0    0    0    0  0.00000000000E+00  0.00000000000E+00  0.45593999997E+02  0.45594000000E+02  0.51100000000E-03 0.  1.
         11   -1    0    0    0    0 -0.00000000000E+00 -0.00000000000E+00 -0.45593999997E+02  0.45594000000E+02  0.51100000000E-03 0. -1.
    9900012    2    1    2    0    0  0.26175661888E+02 -0.17651572647E+02  0.25620732062E+02  0.50528865680E+02  0.30000017722E+02 0.  0.
         12    1    1    2    0    0 -0.26175661888E+02  0.17651572647E+02 -0.25620732062E+02  0.40659134320E+02  0.00000000000E+00 0. -1.
         11    1    3    3    0    0  0.43357673786E+01  0.23916335356E+01 -0.32754064779E+00  0.49624664097E+01  0.51100000000E-03 0.  1.
        -11    1    3    3    0    0  0.15235289279E+02 -0.19969076518E+02  0.78732227404E+01  0.26322342088E+02  0.51100000000E-03 0. -1.
        -12    1    3    3    0    0  0.66046052303E+01 -0.74129664937E-01  0.18075049970E+02  0.19244057183E+02  0.00000000000E+00 0.  1.
</event>
<event>
 7    1  0.5897985E-013  0.5052883E+02  0.7816164E-02  0.1300439E+00
        -11   -1    0    0    0    0  0.00000000000E+00  0.00000000000E+00  0.45593999997E+02  0.45594000000E+02  0.51100000000E-03 0.  1.
         11   -1    0    0    0    0 -0.00000000000E+00 -0.00000000000E+00 -0.45593999997E+02  0.45594000000E+02  0.51100000000E-03 0. -1.
    9900012    2    1    2    0    0 -0.18124810411E+02 -0.14540542869E+02  0.33365131645E+02  0.50528829460E+02  0.29999907626E+02 0.  0.
         12    1    1    2    0    0  0.18124810411E+02  0.14540542869E+02 -0.33365131645E+02  0.40659170540E+02  0.00000000000E+00 0. -1.
         11    1    3    3    0    0  0.45678447979E+01 -0.63075861144E+01  0.62959016733E+01  0.10014450900E+02  0.51100000000E-03 0. -1.
        -11    1    3    3    0    0 -0.17915953457E+02 -0.65768136223E+01  0.78415093677E+01  0.20633107743E+02  0.51100000000E-03 0.  1.
        -12    1    3    3    0    0 -0.47767017513E+01 -0.16561431321E+01  0.19227720604E+02  0.19881270817E+02  0.00000000000E+00 0.  1.
</event>
<event>
 7    1  0.5897985E-013  0.5052885E+02  0.7816164E-02  0.1300439E+00
        -11   -1    0    0    0    0  0.00000000000E+00  0.00000000000E+00  0.45593999997E+02  0.45594000000E+02  0.51100000000E-03 0. -1.
         11   -1    0    0    0    0 -0.00000000000E+00 -0.00000000000E+00 -0.45593999997E+02  0.45594000000E+02  0.51100000000E-03 0.  1.
    9900012    2    1    2    0    0 -0.20780072092E+02 -0.30292972540E+02 -0.17426719401E+02  0.50528854281E+02  0.29999983073E+02 0.  0.
         12    1    1    2    0    0  0.20780072092E+02  0.30292972540E+02  0.17426719401E+02  0.40659145719E+02  0.00000000000E+00 0. -1.
         11    1    3    3    0    0 -0.20614907614E+02 -0.92780654614E+01 -0.13962286144E+02  0.26570704719E+02  0.51100000000E-03 0. -1.
        -11    1    3    3    0    0 -0.22921029907E+01 -0.41169940131E+01  0.31713152239E+01  0.56798429850E+01  0.51100000000E-03 0.  1.
         12    1    3    3    0    0  0.21269385125E+01 -0.16897913066E+02 -0.66357484815E+01  0.18278306577E+02  0.00000000000E+00 0. -1.
</event>
<event>
 7    1  0.5897985E-013  0.5052886E+02  0.7816164E-02  0.1300439E+00
        -11   -1    0    0    0    0  0.00000000000E+00  0.00000000000E+00  0.45593999997E+02  0.45594000000E+02  0.51100000000E-03 0.  1.
         11   -1    0    0    0    0 -0.00000000000E+00 -0.00000000000E+00 -0.45593999997E+02  0.45594000000E+02  0.51100000000E-03 0. -1.
    9900012    2    1    2    0    0 -0.26577753791E+02 -0.18957855245E+02  0.24236103275E+02  0.50528856207E+02  0.29999988926E+02 0.  0.
         12    1    1    2    0    0  0.26577753791E+02  0.18957855245E+02 -0.24236103275E+02  0.40659143793E+02  0.00000000000E+00 0. -1.
         11    1    3    3    0    0 -0.18157961601E+02 -0.10343631627E+02  0.14556656432E+02  0.25467597678E+02  0.51100000000E-03 0.  1.
        -11    1    3    3    0    0 -0.21155589578E+00  0.56909102876E+01  0.57791687735E+01  0.81135693608E+01  0.51100000000E-03 0. -1.
         12    1    3    3    0    0 -0.82082362938E+01 -0.14305133906E+02  0.39002780692E+01  0.16947689168E+02  0.00000000000E+00 0. -1.
</event>
<event>
 7    1  0.5897985E-013  0.5052886E+02  0.7816164E-02  0.1300439E+00
        -11   -1    0    0    0    0  0.00000000000E+00  0.00000000000E+00  0.45593999997E+02  0.45594000000E+02  0.51100000000E-03 0.  1.
         11   -1    0    0    0    0 -0.00000000000E+00 -0.00000000000E+00 -0.45593999997E+02  0.45594000000E+02  0.51100000000E-03 0. -1.
    9900012    2    1    2    0    0  0.16624464619E+02 -0.35714029521E+02  0.10064832354E+02  0.50528861066E+02  0.30000003698E+02 0.  0.
         12    1    1    2    0    0 -0.16624464619E+02  0.35714029521E+02 -0.10064832354E+02  0.40659138934E+02  0.00000000000E+00 0. -1.
         11    1    3    3    0    0  0.64268830727E+01 -0.67978589718E+00  0.48079283845E+01  0.80550053078E+01  0.51100000000E-03 0. -1.
        -11    1    3    3    0    0  0.15044503069E+01 -0.31184936131E+02  0.86199801005E+01  0.32389314124E+02  0.51100000000E-03 0.  1.
        -12    1    3    3    0    0  0.86931312397E+01 -0.38493074927E+01 -0.33630761307E+01  0.10084541635E+02  0.00000000000E+00 0.  1.
</event>
<event>
 7    1  0.5897985E-013  0.5052883E+02  0.7816164E-02  0.1300439E+00
        -11   -1    0    0    0    0  0.00000000000E+00  0.00000000000E+00  0.45593999997E+02  0.45594000000E+02  0.51100000000E-03 0.  1.
         11   -1    0    0    0    0 -0.00000000000E+00 -0.00000000000E+00 -0.45593999997E+02  0.45594000000E+02  0.51100000000E-03 0. -1.
    9900012    2    1    2    0    0  0.67642434138E+01  0.32561353491E+02  0.23391696738E+02  0.50528828754E+02  0.29999905479E+02 0.  0.
         12    1    1    2    0    0 -0.67642434138E+01 -0.32561353491E+02 -0.23391696738E+02  0.40659171246E+02  0.00000000000E+00 0. -1.
         11    1    3    3    0    0  0.58044035347E+01  0.45740796775E+00  0.11135704305E+02  0.12565995109E+02  0.51100000000E-03 0. -1.
        -11    1    3    3    0    0  0.60074073902E+01  0.28365465906E+02  0.12725018250E+02  0.31664091481E+02  0.51100000000E-03 0.  1.
        -12    1    3    3    0    0 -0.50475675110E+01  0.37384796174E+01 -0.46902581620E+00  0.62987421637E+01  0.00000000000E+00 0.  1.
</event>
<event>
 7    1  0.5897985E-013  0.5052886E+02  0.7816164E-02  0.1300439E+00
        -11   -1    0    0    0    0  0.00000000000E+00  0.00000000000E+00  0.45593999997E+02  0.45594000000E+02  0.51100000000E-03 0. -1.
         11   -1    0    0    0    0 -0.00000000000E+00 -0.00000000000E+00 -0.45593999997E+02  0.45594000000E+02  0.51100000000E-03 0.  1.
    9900012    2    1    2    0    0  0.24923520408E+02 -0.29880355386E+02 -0.11796097433E+02  0.50528862993E+02  0.30000009553E+02 0.  0.
         12    1    1    2    0    0 -0.24923520408E+02  0.29880355386E+02  0.11796097433E+02  0.40659137007E+02  0.00000000000E+00 0. -1.
         11    1    3    3    0    0  0.21782306941E+02 -0.74198981917E+01 -0.14256908379E+02  0.27069969000E+02  0.51100000000E-03 0. -1.
        -11    1    3    3    0    0 -0.60277060943E+00 -0.63653831165E+01  0.26795935189E+01  0.69326514635E+01  0.51100000000E-03 0.  1.
         12    1    3    3    0    0  0.37439840768E+01 -0.16095074078E+02 -0.21878257196E+00  0.16526242530E+02  0.00000000000E+00 0. -1.
</event>
<event>
 7    1  0.5897985E-013  0.5052886E+02  0.7816164E-02  0.1300439E+00
        -11   -1    0    0    0    0  0.00000000000E+00  0.00000000000E+00  0.45593999997E+02  0.45594000000E+02  0.51100000000E-03 0.  1.
         11   -1    0    0    0    0 -0.00000000000E+00 -0.00000000000E+00 -0.45593999997E+02  0.45594000000E+02  0.51100000000E-03 0. -1.
    9900012    2    1    2    0    0  0.33660346920E+02 -0.12707742219E+02 -0.18938323472E+02  0.50528858801E+02  0.29999996812E+02 0.  0.
         12    1    1    2    0    0 -0.33660346920E+02  0.12707742219E+02  0.18938323472E+02  0.40659141199E+02  0.00000000000E+00 0. -1.
         11    1    3    3    0    0  0.26610401553E+01 -0.12908277911E+01  0.49002154734E+01  0.57235900483E+01  0.51100000000E-03 0. -1.
        -11    1    3    3    0    0  0.21542281819E+02 -0.11500598785E+02 -0.25383010560E+02  0.35222590815E+02  0.51100000000E-03 0.  1.
        -12    1    3    3    0    0  0.94570249455E+01  0.83684356287E-01  0.15444716148E+01  0.95826779378E+01  0.00000000000E+00 0.  1.
</event>
<event>
 7    1  0.5897985E-013  0.5052886E+02  0.7816164E-02  0.1300439E+00
        -11   -1    0    0    0    0  0.00000000000E+00  0.00000000000E+00  0.45593999997E+02  0.45594000000E+02  0.51100000000E-03 0. -1.
         11   -1    0    0    0    0 -0.00000000000E+00 -0.00000000000E+00 -0.45593999997E+02  0.45594000000E+02  0.51100000000E-03 0.  1.
    9900012    2    1    2    0    0  0.21453338921E+02  0.30519461808E+02  0.16170419485E+02  0.50528858762E+02  0.29999996692E+02 0.  0.
         12    1    1    2    0    0 -0.21453338921E+02 -0.30519461808E+02 -0.16170419485E+02  0.40659141238E+02  0.00000000000E+00 0. -1.
         11    1    3    3    0    0 -0.44351900272E+01  0.55535751340E+01  0.10640361466E+02  0.12795718023E+02  0.51100000000E-03 0. -1.
        -11    1    3    3    0    0  0.11613511384E+02  0.18014641676E+02  0.36970818696E+01  0.21750158069E+02  0.51100000000E-03 0.  1.
         12    1    3    3    0    0  0.14275017563E+02  0.69512449980E+01  0.18329761491E+01  0.15982982670E+02  0.00000000000E+00 0. -1.
</event>
<event>
 7    1  0.5897985E-013  0.5052886E+02  0.7816164E-02  0.1300439E+00
        -11   -1    0    0    0    0  0.00000000000E+00  0.00000000000E+00  0.45593999997E+02  0.45594000000E+02  0.51100000000E-03 0.  1.
         11   -1    0    0    0    0 -0.00000000000E+00 -0.00000000000E+00 -0.45593999997E+02  0.45594000000E+02  0.51100000000E-03 0. -1.
    9900012    2    1    2    0    0 -0.14722305918E+02 -0.24458902110E+02  0.28951364871E+02  0.50528859431E+02  0.29999998725E+02 0.  0.
         12    1    1    2    0    0  0.14722305918E+02  0.24458902110E+02 -0.28951364871E+02  0.40659140569E+02  0.00000000000E+00 0. -1.
         11    1    3    3    0    0 -0.28048166817E+01 -0.17239164052E+02  0.30511849984E+02  0.35157200735E+02  0.51100000000E-03 0. -1.
        -11    1    3    3    0    0 -0.71248506384E+01 -0.51644268429E+01  0.20420354246E+01  0.90335325412E+01  0.51100000000E-03 0.  1.
         12    1    3    3    0    0 -0.47926385981E+01 -0.20553112148E+01 -0.36025205378E+01  0.63381261542E+01  0.00000000000E+00 0. -1.
</event>
<event>
 7    1  0.5897985E-013  0.5052886E+02  0.7816164E-02  0.1300439E+00
        -11   -1    0    0    0    0  0.00000000000E+00  0.00000000000E+00  0.45593999997E+02  0.45594000000E+02  0.51100000000E-03 0.  1.
         11   -1    0    0    0    0 -0.00000000000E+00 -0.00000000000E+00 -0.45593999997E+02  0.45594000000E+02  0.51100000000E-03 0. -1.
    9900012    2    1    2    0    0 -0.27244302599E+02  0.10619090322E+02  0.28251520954E+02  0.50528861549E+02  0.30000005163E+02 0.  0.
         12    1    1    2    0    0  0.27244302599E+02 -0.10619090322E+02 -0.28251520954E+02  0.40659138451E+02  0.00000000000E+00 0. -1.
         11    1    3    3    0    0 -0.12827841871E+02  0.64435535919E+01  0.10673730997E+01  0.14394866987E+02  0.51100000000E-03 0. -1.
        -11    1    3    3    0    0 -0.92712160812E+01 -0.68242845036E+01  0.15254504975E+02  0.19110892939E+02  0.51100000000E-03 0.  1.
         12    1    3    3    0    0 -0.51452446468E+01  0.10999821234E+02  0.11929642879E+02  0.17023101623E+02  0.00000000000E+00 0. -1.
</event>
<event>
 7    1  0.5897985E-013  0.5052886E+02  0.7816164E-02  0.1300439E+00
        -11   -1    0    0    0    0  0.00000000000E+00  0.00000000000E+00  0.45593999997E+02  0.45594000000E+02  0.51100000000E-03 0.  1.
         11   -1    0    0    0    0 -0.00000000000E+00 -0.00000000000E+00 -0.45593999997E+02  0.45594000000E+02  0.51100000000E-03 0. -1.
    9900012    2    1    2    0    0  0.33424781986E+02 -0.13973543354E+02  0.18457776290E+02  0.50528862401E+02  0.30000007755E+02 0.  0.
         12    1    1    2    0    0 -0.33424781986E+02  0.13973543354E+02 -0.18457776290E+02  0.40659137599E+02  0.00000000000E+00 0. -1.
         11    1    3    3    0    0  0.10383979872E+02 -0.34713525360E+01 -0.45206627854E+00  0.10958179164E+02  0.51100000000E-03 0. -1.
        -11    1    3    3    0    0 -0.40439479627E+01 -0.45869679630E+01  0.72786546671E+01  0.95064506648E+01  0.51100000000E-03 0.  1.
        -12    1    3    3    0    0  0.27084750077E+02 -0.59152228552E+01  0.11631187901E+02  0.30064232572E+02  0.00000000000E+00 0.  1.
</event>
<event>
 7    1  0.5897985E-013  0.5052885E+02  0.7816164E-02  0.1300439E+00
        -11   -1    0    0    0    0  0.00000000000E+00  0.00000000000E+00  0.45593999997E+02  0.45594000000E+02  0.51100000000E-03 0.  1.
         11   -1    0    0    0    0 -0.00000000000E+00 -0.00000000000E+00 -0.45593999997E+02  0.45594000000E+02  0.51100000000E-03 0. -1.
    9900012    2    1    2    0    0 -0.18526209147E+02  0.36053266405E+02  0.31793024242E+01  0.50528850873E+02  0.29999972713E+02 0.  0.
         12    1    1    2    0    0  0.18526209147E+02 -0.36053266405E+02 -0.31793024242E+01  0.40659149127E+02  0.00000000000E+00 0. -1.
         11    1    3    3    0    0 -0.47056004959E+01  0.21522285159E+02  0.96377855896E+01  0.24046586989E+02  0.51100000000E-03 0.  1.
        -11    1    3    3    0    0 -0.14815382860E+02  0.16745371120E+02 -0.34605785784E+01  0.22624734862E+02  0.51100000000E-03 0. -1.
         12    1    3    3    0    0  0.99477420833E+00 -0.22143898740E+01 -0.29979045870E+01  0.38575290216E+01  0.00000000000E+00 0. -1.
</event>
<event>
 7    1  0.5897985E-013  0.5052887E+02  0.7816164E-02  0.1300439E+00
        -11   -1    0    0    0    0  0.00000000000E+00  0.00000000000E+00  0.45593999997E+02  0.45594000000E+02  0.51100000000E-03 0.  1.
         11   -1    0    0    0    0 -0.00000000000E+00 -0.00000000000E+00 -0.45593999997E+02  0.45594000000E+02  0.51100000000E-03 0. -1.
    9900012    2    1    2    0    0  0.40090936205E+02  0.13992226008E+01 -0.66275348100E+01  0.50528865634E+02  0.30000017582E+02 0.  0.
         12    1    1    2    0    0 -0.40090936205E+02 -0.13992226008E+01  0.66275348100E+01  0.40659134366E+02  0.00000000000E+00 0. -1.
         11    1    3    3    0    0  0.18571553808E+02  0.36990368917E+01 -0.11263149092E+02  0.22032794024E+02  0.51100000000E-03 0. -1.
        -11    1    3    3    0    0 -0.15552193427E+01  0.25846312384E+01  0.38581124198E+01  0.48973520955E+01  0.51100000000E-03 0.  1.
        -12    1    3    3    0    0  0.23074601740E+02 -0.48844455293E+01  0.77750186240E+00  0.23598719515E+02  0.00000000000E+00 0.  1.
</event>
<event>
 7    1  0.5897985E-013  0.5052885E+02  0.7816164E-02  0.1300439E+00
        -11   -1    0    0    0    0  0.00000000000E+00  0.00000000000E+00  0.45593999997E+02  0.45594000000E+02  0.51100000000E-03 0. -1.
         11   -1    0    0    0    0 -0.00000000000E+00 -0.00000000000E+00 -0.45593999997E+02  0.45594000000E+02  0.51100000000E-03 0.  1.
    9900012    2    1    2    0    0 -0.22629100121E+02 -0.10594600470E+02 -0.32075613845E+02  0.50528846849E+02  0.29999960483E+02 0.  0.
         12    1    1    2    0    0  0.22629100121E+02  0.10594600470E+02  0.32075613845E+02  0.40659153151E+02  0.00000000000E+00 0. -1.
         11    1    3    3    0    0 -0.63435689593E+01  0.53342029833E+01 -0.14058848755E+01  0.84066105627E+01  0.51100000000E-03 0. -1.
        -11    1    3    3    0    0 -0.13038320178E+02 -0.14718863128E+02 -0.11789721540E+02  0.22926845817E+02  0.51100000000E-03 0.  1.
        -12    1    3    3    0    0 -0.32472109836E+01 -0.12099403254E+01 -0.18880007429E+02  0.19195390470E+02  0.00000000000E+00 0.  1.
</event>
<event>
 7    1  0.5897985E-013  0.5052886E+02  0.7816164E-02  0.1300439E+00
        -11   -1    0    0    0    0  0.00000000000E+00  0.00000000000E+00  0.45593999997E+02  0.45594000000E+02  0.51100000000E-03 0.  1.
         11   -1    0    0    0    0 -0.00000000000E+00 -0.00000000000E+00 -0.45593999997E+02  0.45594000000E+02  0.51100000000E-03 0. -1.
    9900012    2    1    2    0    0  0.14273735897E+02  0.36032049323E+02  0.12292975009E+02  0.50528863887E+02  0.30000012269E+02 0.  0.
         12    1    1    2    0    0 -0.14273735897E+02 -0.36032049323E+02 -0.12292975009E+02  0.40659136113E+02  0.00000000000E+00 0. -1.
         11    1    3    3    0    0 -0.15438879272E+01  0.85712037748E+01 -0.64137849230E+01  0.10815995626E+02  0.51100000000E-03 0. -1.
        -11    1    3    3    0    0  0.11504266379E+02  0.28355325418E+02  0.15838114410E+02  0.34456037103E+02  0.51100000000E-03 0.  1.
        -12    1    3    3    0    0  0.43133574452E+01 -0.89447986974E+00  0.28686455227E+01  0.52568311579E+01  0.00000000000E+00 0.  1.
</event>
<event>
 7    1  0.5897985E-013  0.5052886E+02  0.7816164E-02  0.1300439E+00
        -11   -1    0    0    0    0  0.00000000000E+00  0.00000000000E+00  0.45593999997E+02  0.45594000000E+02  0.51100000000E-03 0.  1.
         11   -1    0    0    0    0 -0.00000000000E+00 -0.00000000000E+00 -0.45593999997E+02  0.45594000000E+02  0.51100000000E-03 0. -1.
    9900012    2    1    2    0    0  0.37584804140E+01 -0.39652310431E+02 -0.81690916110E+01  0.50528856437E+02  0.29999989625E+02 0.  0.
         12    1    1    2    0    0 -0.37584804140E+01  0.39652310431E+02  0.81690916110E+01  0.40659143563E+02  0.00000000000E+00 0. -1.
         11    1    3    3    0    0 -0.27849994209E+01 -0.14647806162E+02 -0.14360913174E+02  0.20701455856E+02  0.51100000000E-03 0. -1.
        -11    1    3    3    0    0 -0.89631394330E+00 -0.18352966924E+02  0.73302866549E+01  0.19783019899E+02  0.51100000000E-03 0.  1.
         12    1    3    3    0    0  0.74397937782E+01 -0.66515373450E+01 -0.11384650922E+01  0.10044380682E+02  0.00000000000E+00 0. -1.
</event>
<event>
 7    1  0.5897985E-013  0.5052886E+02  0.7816164E-02  0.1300439E+00
        -11   -1    0    0    0    0  0.00000000000E+00  0.00000000000E+00  0.45593999997E+02  0.45594000000E+02  0.51100000000E-03 0.  1.
         11   -1    0    0    0    0 -0.00000000000E+00 -0.00000000000E+00 -0.45593999997E+02  0.45594000000E+02  0.51100000000E-03 0. -1.
    9900012    2    1    2    0    0 -0.21314471450E+02  0.25819722459E+02  0.23069472962E+02  0.50528863957E+02  0.30000012483E+02 0.  0.
         12    1    1    2    0    0  0.21314471450E+02 -0.25819722459E+02 -0.23069472962E+02  0.40659136043E+02  0.00000000000E+00 0. -1.
         11    1    3    3    0    0 -0.16794408932E+00 -0.38129109732E+01  0.18629387649E+01  0.42470032270E+01  0.51100000000E-03 0. -1.
        -11    1    3    3    0    0 -0.13541482639E+02  0.27965778402E+02  0.10009790061E+02  0.32644331989E+02  0.51100000000E-03 0.  1.
        -12    1    3    3    0    0 -0.76050447213E+01  0.16668550306E+01  0.11196744136E+02  0.13637528741E+02  0.00000000000E+00 0.  1.
</event>
<event>
 7    1  0.5897985E-013  0.5052886E+02  0.7816164E-02  0.1300439E+00
        -11   -1    0    0    0    0  0.00000000000E+00  0.00000000000E+00  0.45593999997E+02  0.45594000000E+02  0.51100000000E-03 0.  1.
         11   -1    0    0    0    0 -0.00000000000E+00 -0.00000000000E+00 -0.45593999997E+02  0.45594000000E+02  0.51100000000E-03 0. -1.
    9900012    2    1    2    0    0  0.52428549223E+01 -0.39846805565E+02 -0.61571074391E+01  0.50528863100E+02  0.30000009878E+02 0.  0.
         12    1    1    2    0    0 -0.52428549223E+01  0.39846805565E+02  0.61571074391E+01  0.40659136900E+02  0.00000000000E+00 0. -1.
         11    1    3    3    0    0  0.61781713438E+01  0.27445273659E+01  0.15103975238E+01  0.69270146930E+01  0.51100000000E-03 0. -1.
        -11    1    3    3    0    0  0.93996644233E+00 -0.37119674590E+02 -0.63698757108E+01  0.37673984331E+02  0.51100000000E-03 0.  1.
         12    1    3    3    0    0 -0.18752828639E+01 -0.54716583411E+01 -0.12976292521E+01  0.59278640755E+01  0.00000000000E+00 0. -1.
</event>
<event>
 7    1  0.5897985E-013  0.5052886E+02  0.7816164E-02  0.1300439E+00
        -11   -1    0    0    0    0  0.00000000000E+00  0.00000000000E+00  0.45593999997E+02  0.45594000000E+02  0.51100000000E-03 0. -1.
         11   -1    0    0    0    0 -0.00000000000E+00 -0.00000000000E+00 -0.45593999997E+02  0.45594000000E+02  0.51100000000E-03 0.  1.
    9900012    2    1    2    0    0 -0.51420635199E+01 -0.24453183245E+02 -0.32074395735E+02  0.50528857733E+02  0.29999993566E+02 0.  0.
         12    1    1    2    0    0  0.51420635199E+01  0.24453183245E+02  0.32074395735E+02  0.40659142267E+02  0.00000000000E+00 0. -1.
         11    1    3    3    0    0  0.52547044595E+01  0.18960588878E+01  0.19354611304E+00  0.55896707078E+01  0.51100000000E-03 0. -1.
        -11    1    3    3    0    0 -0.48079331425E+01 -0.21508078778E+02 -0.29960725865E+02  0.37193531272E+02  0.51100000000E-03 0.  1.
         12    1    3    3    0    0 -0.55888348368E+01 -0.48411633555E+01 -0.23072159830E+01  0.77456557540E+01  0.00000000000E+00 0. -1.
</event>
<event>
 7    1  0.5897985E-013  0.5052886E+02  0.7816164E-02  0.1300439E+00
        -11   -1    0    0    0    0  0.00000000000E+00  0.00000000000E+00  0.45593999997E+02  0.45594000000E+02  0.51100000000E-03 0. -1.
         11   -1    0    0    0    0 -0.00000000000E+00 -0.00000000000E+00 -0.45593999997E+02  0.45594000000E+02  0.51100000000E-03 0.  1.
    9900012    2    1    2    0    0  0.13191936820E+02 -0.15472753523E+02 -0.35209833458E+02  0.50528859936E+02  0.30000000261E+02 0.  0.
         12    1    1    2    0    0 -0.13191936820E+02  0.15472753523E+02  0.35209833458E+02  0.40659140064E+02  0.00000000000E+00 0. -1.
         11    1    3    3    0    0  0.76221626042E+01 -0.14848790788E+02 -0.21333294522E+02  0.27086775482E+02  0.51100000000E-03 0.  1.
        -11    1    3    3    0    0 -0.17777750469E+00 -0.46501665091E+01  0.27429467559E+01  0.54017969761E+01  0.51100000000E-03 0. -1.
        -12    1    3    3    0    0  0.57475517204E+01  0.40262037738E+01 -0.16619485692E+02  0.18040287477E+02  0.00000000000E+00 0.  1.
</event>
<event>
 7    1  0.5897985E-013  0.5052896E+02  0.7816164E-02  0.1300438E+00
        -11   -1    0    0    0    0  0.00000000000E+00  0.00000000000E+00  0.45593999997E+02  0.45594000000E+02  0.51100000000E-03 0.  1.
         11   -1    0    0    0    0 -0.00000000000E+00 -0.00000000000E+00 -0.45593999997E+02  0.45594000000E+02  0.51100000000E-03 0. -1.
    9900012    2    1    2    0    0  0.38486400433E+02  0.10040784833E+02  0.84342833972E+01  0.50528960234E+02  0.30000305124E+02 0.  0.
         12    1    1    2    0    0 -0.38486400433E+02 -0.10040784833E+02 -0.84342833972E+01  0.40659039766E+02  0.00000000000E+00 0. -1.
         11    1    3    3    0    0  0.21434749718E+02  0.14633908442E+02  0.30304993130E+01  0.26130130082E+02  0.51100000000E-03 0. -1.
        -11    1    3    3    0    0  0.19646489336E+02 -0.53031872408E+01  0.26032549655E+01  0.20515488656E+02  0.51100000000E-03 0.  1.
         12    1    3    3    0    0 -0.25948386206E+01  0.71006363200E+00  0.28005291187E+01  0.38833414958E+01  0.00000000000E+00 0. -1.
</event>
<event>
 7    1  0.5897985E-013  0.5052885E+02  0.7816164E-02  0.1300439E+00
        -11   -1    0    0    0    0  0.00000000000E+00  0.00000000000E+00  0.45593999997E+02  0.45594000000E+02  0.51100000000E-03 0.  1.
         11   -1    0    0    0    0 -0.00000000000E+00 -0.00000000000E+00 -0.45593999997E+02  0.45594000000E+02  0.51100000000E-03 0. -1.
    9900012    2    1    2    0    0  0.14069481434E+02  0.16278266547E+02  0.34499770390E+02  0.50528850641E+02  0.29999972009E+02 0.  0.
         12    1    1    2    0    0 -0.14069481434E+02 -0.16278266547E+02 -0.34499770390E+02  0.40659149359E+02  0.00000000000E+00 0. -1.
         11    1    3    3    0    0 -0.49360271779E+01 -0.19814749729E+01  0.11385584828E+02  0.12566707982E+02  0.51100000000E-03 0. -1.
        -11    1    3    3    0    0  0.16650142625E+02  0.18840360951E+02  0.24551832821E+02  0.35142267219E+02  0.51100000000E-03 0.  1.
         12    1    3    3    0    0  0.23553659873E+01 -0.58061943118E+00 -0.14376472583E+01  0.28198754400E+01  0.00000000000E+00 0. -1.
</event>
<event>
 7    1  0.5897985E-013  0.5052886E+02  0.7816164E-02  0.1300439E+00
        -11   -1    0    0    0    0  0.00000000000E+00  0.00000000000E+00  0.45593999997E+02  0.45594000000E+02  0.51100000000E-03 0. -1.
         11   -1    0    0    0    0 -0.00000000000E+00 -0.00000000000E+00 -0.45593999997E+02  0.45594000000E+02  0.51100000000E-03 0.  1.
    9900012    2    1    2    0    0 -0.34187311246E+01 -0.27105683819E+02 -0.30112452679E+02  0.50528860509E+02  0.30000002002E+02 0.  0.
         12    1    1    2    0    0  0.34187311246E+01  0.27105683819E+02  0.30112452679E+02  0.40659139491E+02  0.00000000000E+00 0. -1.
         11    1    3    3    0    0 -0.17454570900E+01 -0.11773740578E+02  0.16257845274E+01  0.12012941490E+02  0.51100000000E-03 0. -1.
        -11    1    3    3    0    0  0.20835211632E+01 -0.15098564366E+02 -0.31186381892E+02  0.34711642458E+02  0.51100000000E-03 0.  1.
         12    1    3    3    0    0 -0.37567951978E+01 -0.23337887478E+00 -0.55185531458E+00  0.38042765601E+01  0.00000000000E+00 0. -1.
</event>
<event>
 7    1  0.5897985E-013  0.5052887E+02  0.7816164E-02  0.1300439E+00
        -11   -1    0    0    0    0  0.00000000000E+00  0.00000000000E+00  0.45593999997E+02  0.45594000000E+02  0.51100000000E-03 0.  1.
         11   -1    0    0    0    0 -0.00000000000E+00 -0.00000000000E+00 -0.45593999997E+02  0.45594000000E+02  0.51100000000E-03 0. -1.
    9900012    2    1    2    0    0  0.22609594041E+01  0.22689840902E+02  0.33663394728E+02  0.50528868649E+02  0.30000026745E+02 0.  0.
         12    1    1    2    0    0 -0.22609594041E+01 -0.22689840902E+02 -0.33663394728E+02  0.40659131351E+02  0.00000000000E+00 0. -1.
         11    1    3    3    0    0 -0.47081264176E+01  0.21380861525E+01  0.14924596969E+01  0.53819423043E+01  0.51100000000E-03 0. -1.
        -11    1    3    3    0    0  0.47189875416E+00  0.16928947813E+02  0.33549173824E+02  0.37581365423E+02  0.51100000000E-03 0.  1.
        -12    1    3    3    0    0  0.64971870675E+01  0.36228069363E+01 -0.13782387927E+01  0.75655609215E+01  0.00000000000E+00 0.  1.
</event>
<event>
 7    1  0.5897985E-013  0.5052887E+02  0.7816164E-02  0.1300439E+00
        -11   -1    0    0    0    0  0.00000000000E+00  0.00000000000E+00  0.45593999997E+02  0.45594000000E+02  0.51100000000E-03 0. -1.
         11   -1    0    0    0    0 -0.00000000000E+00 -0.00000000000E+00 -0.45593999997E+02  0.45594000000E+02  0.51100000000E-03 0.  1.
    9900012    2    1    2    0    0 -0.24714887499E+02 -0.29509777583E+02  0.13096280355E+02  0.50528865771E+02  0.30000017998E+02 0.  0.
         12    1    1    2    0    0  0.24714887499E+02  0.29509777583E+02 -0.13096280355E+02  0.40659134229E+02  0.00000000000E+00 0. -1.
         11    1    3    3    0    0 -0.13067304075E+02  0.97637874541E+00  0.38589317350E+01  0.13660128317E+02  0.51100000000E-03 0. -1.
        -11    1    3    3    0    0 -0.11587537592E+02 -0.24358259987E+02  0.12717137883E+02  0.29821493142E+02  0.51100000000E-03 0.  1.
         12    1    3    3    0    0 -0.60045832376E-01 -0.61278963419E+01 -0.34797892630E+01  0.70472443121E+01  0.00000000000E+00 0. -1.
</event>
<event>
 7    1  0.5897985E-013  0.5052887E+02  0.7816164E-02  0.1300439E+00
        -11   -1    0    0    0    0  0.00000000000E+00  0.00000000000E+00  0.45593999997E+02  0.45594000000E+02  0.51100000000E-03 0.  1.
         11   -1    0    0    0    0 -0.00000000000E+00 -0.00000000000E+00 -0.45593999997E+02  0.45594000000E+02  0.51100000000E-03 0. -1.
    9900012    2    1    2    0    0  0.64830536147E+01 -0.20798394705E+02  0.34330186923E+02  0.50528868914E+02  0.30000027551E+02 0.  0.
         12    1    1    2    0    0 -0.64830536147E+01  0.20798394705E+02 -0.34330186923E+02  0.40659131086E+02  0.00000000000E+00 0. -1.
         11    1    3    3    0    0 -0.47019338208E+01 -0.11986096841E+02  0.28751315538E+02  0.31502584729E+02  0.51100000000E-03 0. -1.
        -11    1    3    3    0    0  0.93221707792E+00 -0.34995621131E+01 -0.29496416693E+01  0.46707975660E+01  0.51100000000E-03 0.  1.
        -12    1    3    3    0    0  0.10252770358E+02 -0.53127357505E+01  0.85285130546E+01  0.14355486619E+02  0.00000000000E+00 0.  1.
</event>
<event>
 7    1  0.5897985E-013  0.5052886E+02  0.7816164E-02  0.1300439E+00
        -11   -1    0    0    0    0  0.00000000000E+00  0.00000000000E+00  0.45593999997E+02  0.45594000000E+02  0.51100000000E-03 0.  1.
         11   -1    0    0    0    0 -0.00000000000E+00 -0.00000000000E+00 -0.45593999997E+02  0.45594000000E+02  0.51100000000E-03 0. -1.
    9900012    2    1    2    0    0  0.30716379322E+02  0.23994211201E+02  0.11573563544E+02  0.50528862000E+02  0.30000006535E+02 0.  0.
         12    1    1    2    0    0 -0.30716379322E+02 -0.23994211201E+02 -0.11573563544E+02  0.40659138000E+02  0.00000000000E+00 0. -1.
         11    1    3    3    0    0 -0.15068666393E+01 -0.46731009475E+00  0.22053890674E+01  0.27115986047E+01  0.51100000000E-03 0. -1.
        -11    1    3    3    0    0  0.11908599645E+02  0.21294898146E+02 -0.17178587159E+01  0.24458913945E+02  0.51100000000E-03 0.  1.
        -12    1    3    3    0    0  0.20314646316E+02  0.31666231503E+01  0.11086033192E+02  0.23358349450E+02  0.00000000000E+00 0.  1.
</event>
<event>
 7    1  0.5897985E-013  0.5052886E+02  0.7816164E-02  0.1300439E+00
        -11   -1    0    0    0    0  0.00000000000E+00  0.00000000000E+00  0.45593999997E+02  0.45594000000E+02  0.51100000000E-03 0. -1.
         11   -1    0    0    0    0 -0.00000000000E+00 -0.00000000000E+00 -0.45593999997E+02  0.45594000000E+02  0.51100000000E-03 0.  1.
    9900012    2    1    2    0    0 -0.33137527193E+02  0.94966218947E+01 -0.21561168735E+02  0.50528861629E+02  0.30000005407E+02 0.  0.
         12    1    1    2    0    0  0.33137527193E+02 -0.94966218947E+01  0.21561168735E+02  0.40659138371E+02  0.00000000000E+00 0. -1.
         11    1    3    3    0    0 -0.29013422594E+02 -0.52514872808E+01 -0.12992554674E+02  0.32220541375E+02  0.51100000000E-03 0. -1.
        -11    1    3    3    0    0 -0.40950485211E+01  0.57508218218E+01 -0.48901900962E+01  0.85880925388E+01  0.51100000000E-03 0.  1.
         12    1    3    3    0    0 -0.29056078136E-01  0.89972873536E+01 -0.36784239642E+01  0.97202277154E+01  0.00000000000E+00 0. -1.
</event>
<event>
 7    1  0.5897985E-013  0.5052887E+02  0.7816164E-02  0.1300439E+00
        -11   -1    0    0    0    0  0.00000000000E+00  0.00000000000E+00  0.45593999997E+02  0.45594000000E+02  0.51100000000E-03 0.  1.
         11   -1    0    0    0    0 -0.00000000000E+00 -0.00000000000E+00 -0.45593999997E+02  0.45594000000E+02  0.51100000000E-03 0. -1.
    9900012    2    1    2    0    0 -0.31503281815E+02 -0.74226940967E+01  0.24609174562E+02  0.50528872791E+02  0.30000039337E+02 0.  0.
         12    1    1    2    0    0  0.31503281815E+02  0.74226940967E+01 -0.24609174562E+02  0.40659127209E+02  0.00000000000E+00 0. -1.
         11    1    3    3    0    0  0.95573839521E+00  0.20916639295E+01 -0.39528994494E+01  0.45731726615E+01  0.51100000000E-03 0. -1.
        -11    1    3    3    0    0 -0.93699209278E+01 -0.80924229041E+01  0.64743714732E+01  0.13971406976E+02  0.51100000000E-03 0.  1.
         12    1    3    3    0    0 -0.23089099282E+02 -0.14219351220E+01  0.22087702538E+02  0.31984293154E+02  0.00000000000E+00 0. -1.
</event>
<event>
 7    1  0.5897985E-013  0.5052886E+02  0.7816164E-02  0.1300439E+00
        -11   -1    0    0    0    0  0.00000000000E+00  0.00000000000E+00  0.45593999997E+02  0.45594000000E+02  0.51100000000E-03 0.  1.
         11   -1    0    0    0    0 -0.00000000000E+00 -0.00000000000E+00 -0.45593999997E+02  0.45594000000E+02  0.51100000000E-03 0. -1.
    9900012    2    1    2    0    0 -0.75266456113E+01 -0.64789325208E+01  0.39427636629E+02  0.50528862148E+02  0.30000006984E+02 0.  0.
         12    1    1    2    0    0  0.75266456113E+01  0.64789325208E+01 -0.39427636629E+02  0.40659137852E+02  0.00000000000E+00 0. -1.
         11    1    3    3    0    0 -0.11458358456E+02 -0.11219063462E+02  0.21472415609E+02  0.26799738726E+02  0.51100000000E-03 0. -1.
        -11    1    3    3    0    0 -0.27166255955E+01  0.65596365016E+01  0.14208885158E+02  0.15883995195E+02  0.51100000000E-03 0.  1.
        -12    1    3    3    0    0  0.66483384398E+01 -0.18195055603E+01  0.37463358618E+01  0.78451282261E+01  0.00000000000E+00 0.  1.
</event>
<event>
 7    1  0.5897985E-013  0.5052886E+02  0.7816164E-02  0.1300439E+00
        -11   -1    0    0    0    0  0.00000000000E+00  0.00000000000E+00  0.45593999997E+02  0.45594000000E+02  0.51100000000E-03 0. -1.
         11   -1    0    0    0    0 -0.00000000000E+00 -0.00000000000E+00 -0.45593999997E+02  0.45594000000E+02  0.51100000000E-03 0.  1.
    9900012    2    1    2    0    0 -0.92129880959E+01  0.39463005978E+02 -0.33102573306E+01  0.50528858419E+02  0.29999995651E+02 0.  0.
         12    1    1    2    0    0  0.92129880959E+01 -0.39463005978E+02  0.33102573306E+01  0.40659141581E+02  0.00000000000E+00 0. -1.
         11    1    3    3    0    0 -0.52971066077E+01  0.16446460252E+02  0.51929110616E+01  0.18041943320E+02  0.51100000000E-03 0. -1.
        -11    1    3    3    0    0 -0.27921094275E+01  0.14170534373E+02 -0.15475041437E+02  0.21167825283E+02  0.51100000000E-03 0.  1.
        -12    1    3    3    0    0 -0.11237720607E+01  0.88460113533E+01  0.69718730447E+01  0.11319089816E+02  0.00000000000E+00 0.  1.
</event>
<event>
 7    1  0.5897985E-013  0.5052884E+02  0.7816164E-02  0.1300439E+00
        -11   -1    0    0    0    0  0.00000000000E+00  0.00000000000E+00  0.45593999997E+02  0.45594000000E+02  0.51100000000E-03 0. -1.
         11   -1    0    0    0    0 -0.00000000000E+00 -0.00000000000E+00 -0.45593999997E+02  0.45594000000E+02  0.51100000000E-03 0.  1.
    9900012    2    1    2    0    0  0.13983821676E+02 -0.18494724659E+02 -0.33400074493E+02  0.50528842545E+02  0.29999947398E+02 0.  0.
         12    1    1    2    0    0 -0.13983821676E+02  0.18494724659E+02  0.33400074493E+02  0.40659157455E+02  0.00000000000E+00 0. -1.
         11    1    3    3    0    0 -0.12127980227E+01  0.62624989933E+01 -0.52043163152E+01  0.82325379595E+01  0.51100000000E-03 0. -1.
        -11    1    3    3    0    0  0.10990077306E+02 -0.11194717796E+02 -0.21452705198E+02  0.26576720383E+02  0.51100000000E-03 0.  1.
         12    1    3    3    0    0  0.42065423924E+01 -0.13562505857E+02 -0.67430529794E+01  0.15719584202E+02  0.00000000000E+00 0. -1.
</event>
<event>
 7    1  0.5897985E-013  0.5052886E+02  0.7816164E-02  0.1300439E+00
        -11   -1    0    0    0    0  0.00000000000E+00  0.00000000000E+00  0.45593999997E+02  0.45594000000E+02  0.51100000000E-03 0. -1.
         11   -1    0    0    0    0 -0.00000000000E+00 -0.00000000000E+00 -0.45593999997E+02  0.45594000000E+02  0.51100000000E-03 0.  1.
    9900012    2    1    2    0    0  0.35772175995E+02 -0.12991091257E+02 -0.14309052034E+02  0.50528855917E+02  0.29999988044E+02 0.  0.
         12    1    1    2    0    0 -0.35772175995E+02  0.12991091257E+02  0.14309052034E+02  0.40659144083E+02  0.00000000000E+00 0. -1.
         11    1    3    3    0    0  0.11493887991E+01 -0.33252696952E+01  0.58001613129E+01  0.67838325947E+01  0.51100000000E-03 0. -1.
        -11    1    3    3    0    0  0.92450317232E+01  0.39158523362E+01 -0.45149519642E+01  0.11008601300E+02  0.51100000000E-03 0.  1.
         12    1    3    3    0    0  0.25377755473E+02 -0.13581673898E+02 -0.15594261382E+02  0.32736422022E+02  0.00000000000E+00 0. -1.
</event>
<event>
 7    1  0.5897985E-013  0.5052887E+02  0.7816164E-02  0.1300439E+00
        -11   -1    0    0    0    0  0.00000000000E+00  0.00000000000E+00  0.45593999997E+02  0.45594000000E+02  0.51100000000E-03 0.  1.
         11   -1    0    0    0    0 -0.00000000000E+00 -0.00000000000E+00 -0.45593999997E+02  0.45594000000E+02  0.51100000000E-03 0. -1.
    9900012    2    1    2    0    0 -0.36392621371E+02 -0.13088725275E+02  0.12546997415E+02  0.50528871090E+02  0.30000034165E+02 0.  0.
         12    1    1    2    0    0  0.36392621371E+02  0.13088725275E+02 -0.12546997415E+02  0.40659128910E+02  0.00000000000E+00 0. -1.
         11    1    3    3    0    0 -0.25978297366E+02  0.31100310481E+01  0.60979845834E+01  0.26865026399E+02  0.51100000000E-03 0.  1.
        -11    1    3    3    0    0 -0.48243309066E+01 -0.14022116316E+02 -0.37206760316E-01  0.14828867094E+02  0.51100000000E-03 0. -1.
        -12    1    3    3    0    0 -0.55899930987E+01 -0.21766400065E+01  0.64862195914E+01  0.88349775976E+01  0.00000000000E+00 0.  1.
</event>
<event>
 7    1  0.5897985E-013  0.5052887E+02  0.7816164E-02  0.1300439E+00
        -11   -1    0    0    0    0  0.00000000000E+00  0.00000000000E+00  0.45593999997E+02  0.45594000000E+02  0.51100000000E-03 0. -1.
         11   -1    0    0    0    0 -0.00000000000E+00 -0.00000000000E+00 -0.45593999997E+02  0.45594000000E+02  0.51100000000E-03 0.  1.
    9900012    2    1    2    0    0 -0.27538348894E+02  0.18193832063E+02  0.23744242403E+02  0.50528865329E+02  0.30000016654E+02 0.  0.
         12    1    1    2    0    0  0.27538348894E+02 -0.18193832063E+02 -0.23744242403E+02  0.40659134671E+02  0.00000000000E+00 0. -1.
         11    1    3    3    0    0  0.28258476798E+01  0.50168263525E+01  0.18625361484E+01  0.60516942194E+01  0.51100000000E-03 0. -1.
        -11    1    3    3    0    0 -0.25225798654E+02  0.12240884350E+02  0.72787320107E+01  0.28968260344E+02  0.51100000000E-03 0.  1.
         12    1    3    3    0    0 -0.51383979196E+01  0.93612136030E+00  0.14602974243E+02  0.15508910766E+02  0.00000000000E+00 0. -1.
</event>
<event>
 7    1  0.5897985E-013  0.5052885E+02  0.7816164E-02  0.1300439E+00
        -11   -1    0    0    0    0  0.00000000000E+00  0.00000000000E+00  0.45593999997E+02  0.45594000000E+02  0.51100000000E-03 0.  1.
         11   -1    0    0    0    0 -0.00000000000E+00 -0.00000000000E+00 -0.45593999997E+02  0.45594000000E+02  0.51100000000E-03 0. -1.
    9900012    2    1    2    0    0  0.94261924917E+01 -0.13007205582E+02  0.37351379822E+02  0.50528854946E+02  0.29999985094E+02 0.  0.
         12    1    1    2    0    0 -0.94261924917E+01  0.13007205582E+02 -0.37351379822E+02  0.40659145054E+02  0.00000000000E+00 0. -1.
         11    1    3    3    0    0 -0.23872245746E+01 -0.10098412243E+02  0.93000493449E+01  0.13934406664E+02  0.51100000000E-03 0. -1.
        -11    1    3    3    0    0  0.10754350005E+02  0.30599058595E+01  0.41341341605E+01  0.11920995488E+02  0.51100000000E-03 0.  1.
        -12    1    3    3    0    0  0.10590670610E+01 -0.59686991981E+01  0.23917196316E+02  0.24673452794E+02  0.00000000000E+00 0.  1.
</event>
<event>
 7    1  0.5897985E-013  0.5052885E+02  0.7816164E-02  0.1300439E+00
        -11   -1    0    0    0    0  0.00000000000E+00  0.00000000000E+00  0.45593999997E+02  0.45594000000E+02  0.51100000000E-03 0.  1.
         11   -1    0    0    0    0 -0.00000000000E+00 -0.00000000000E+00 -0.45593999997E+02  0.45594000000E+02  0.51100000000E-03 0. -1.
    9900012    2    1    2    0    0  0.36464572671E+02 -0.16792920120E+02  0.64419996756E+01  0.50528848680E+02  0.29999966048E+02 0.  0.
         12    1    1    2    0    0 -0.36464572671E+02  0.16792920120E+02 -0.64419996756E+01  0.40659151320E+02  0.00000000000E+00 0. -1.
         11    1    3    3    0    0  0.23585068156E+02 -0.15932374282E+02 -0.85203377156E+01  0.29710135396E+02  0.51100000000E-03 0. -1.
        -11    1    3    3    0    0  0.77264244879E+01 -0.35536019590E+01  0.10358342112E+02  0.13402274950E+02  0.51100000000E-03 0.  1.
         12    1    3    3    0    0  0.51530800268E+01  0.26930561215E+01  0.46039952791E+01  0.74164383343E+01  0.00000000000E+00 0. -1.
</event>
<event>
 7    1  0.5897985E-013  0.5052886E+02  0.7816164E-02  0.1300439E+00
        -11   -1    0    0    0    0  0.00000000000E+00  0.00000000000E+00  0.45593999997E+02  0.45594000000E+02  0.51100000000E-03 0.  1.
         11   -1    0    0    0    0 -0.00000000000E+00 -0.00000000000E+00 -0.45593999997E+02  0.45594000000E+02  0.51100000000E-03 0. -1.
    9900012    2    1    2    0    0  0.13625854087E+02  0.38057777199E+02 -0.43711774382E+01  0.50528862071E+02  0.30000006750E+02 0.  0.
         12    1    1    2    0    0 -0.13625854087E+02 -0.38057777199E+02  0.43711774382E+01  0.40659137929E+02  0.00000000000E+00 0. -1.
         11    1    3    3    0    0 -0.17887688642E+01  0.29302674434E+02 -0.57724237155E+01  0.29919346565E+02  0.51100000000E-03 0. -1.
        -11    1    3    3    0    0  0.15727499429E+02  0.54357671864E+01 -0.72331812861E+00  0.16656079748E+02  0.51100000000E-03 0.  1.
        -12    1    3    3    0    0 -0.31287647805E+00  0.33193355787E+01  0.21245644059E+01  0.39534357576E+01  0.00000000000E+00 0.  1.
</event>
<event>
 7    1  0.5897985E-013  0.5052901E+02  0.7816164E-02  0.1300438E+00
        -11   -1    0    0    0    0  0.00000000000E+00  0.00000000000E+00  0.45593999997E+02  0.45594000000E+02  0.51100000000E-03 0.  1.
         11   -1    0    0    0    0 -0.00000000000E+00 -0.00000000000E+00 -0.45593999997E+02  0.45594000000E+02  0.51100000000E-03 0. -1.
    9900012    2    1    2    0    0  0.76239619103E+01  0.12012137451E+02  0.38088549097E+02  0.50529005747E+02  0.30000443465E+02 0.  0.
         12    1    1    2    0    0 -0.76239619103E+01 -0.12012137451E+02 -0.38088549097E+02  0.40658994253E+02  0.00000000000E+00 0. -1.
         11    1    3    3    0    0 -0.65815057569E+01  0.87489883427E+01  0.10953656336E+02  0.15486884852E+02  0.51100000000E-03 0. -1.
        -11    1    3    3    0    0  0.17585915317E+02  0.73717332817E+00  0.19146572801E+02  0.26007673720E+02  0.51100000000E-03 0.  1.
        -12    1    3    3    0    0 -0.33804476497E+01  0.25259757805E+01  0.79883199610E+01  0.90344471748E+01  0.00000000000E+00 0.  1.
</event>
<event>
 7    1  0.5897985E-013  0.5052891E+02  0.7816164E-02  0.1300439E+00
        -11   -1    0    0    0    0  0.00000000000E+00  0.00000000000E+00  0.45593999997E+02  0.45594000000E+02  0.51100000000E-03 0.  1.
         11   -1    0    0    0    0 -0.00000000000E+00 -0.00000000000E+00 -0.45593999997E+02  0.45594000000E+02  0.51100000000E-03 0. -1.
    9900012    2    1    2    0    0  0.25723138316E+02 -0.28556999735E+02  0.13265735691E+02  0.50528907265E+02  0.30000144121E+02 0.  0.
         12    1    1    2    0    0 -0.25723138316E+02  0.28556999735E+02 -0.13265735691E+02  0.40659092735E+02  0.00000000000E+00 0. -1.
         11    1    3    3    0    0  0.10369105292E+01 -0.10953245794E+01 -0.36918403831E+01  0.39880578049E+01  0.51100000000E-03 0. -1.
        -11    1    3    3    0    0  0.11265787149E+02 -0.26660923258E+02  0.69100821487E+01  0.29756881971E+02  0.51100000000E-03 0.  1.
        -12    1    3    3    0    0  0.13420440637E+02 -0.80075189751E+00  0.10047493925E+02  0.16783967489E+02  0.00000000000E+00 0.  1.
</event>
<event>
 7    1  0.5897985E-013  0.5052886E+02  0.7816164E-02  0.1300439E+00
        -11   -1    0    0    0    0  0.00000000000E+00  0.00000000000E+00  0.45593999997E+02  0.45594000000E+02  0.51100000000E-03 0. -1.
         11   -1    0    0    0    0 -0.00000000000E+00 -0.00000000000E+00 -0.45593999997E+02  0.45594000000E+02  0.51100000000E-03 0.  1.
    9900012    2    1    2    0    0 -0.19652731482E+02  0.35566142655E+02 -0.14089929867E+01  0.50528860569E+02  0.30000002184E+02 0.  0.
         12    1    1    2    0    0  0.19652731482E+02 -0.35566142655E+02  0.14089929867E+01  0.40659139431E+02  0.00000000000E+00 0. -1.
         11    1    3    3    0    0  0.99844600340E+00  0.69984271348E+00  0.78164415578E+01  0.79109691652E+01  0.51100000000E-03 0. -1.
        -11    1    3    3    0    0 -0.42725171577E+01  0.14599668108E+02 -0.80381775248E+00  0.15233214859E+02  0.51100000000E-03 0.  1.
         12    1    3    3    0    0 -0.16378660328E+02  0.20266631834E+02 -0.84216167920E+01  0.27384676544E+02  0.00000000000E+00 0. -1.
</event>
<event>
 7    1  0.5897985E-013  0.5052886E+02  0.7816164E-02  0.1300439E+00
        -11   -1    0    0    0    0  0.00000000000E+00  0.00000000000E+00  0.45593999997E+02  0.45594000000E+02  0.51100000000E-03 0. -1.
         11   -1    0    0    0    0 -0.00000000000E+00 -0.00000000000E+00 -0.45593999997E+02  0.45594000000E+02  0.51100000000E-03 0.  1.
    9900012    2    1    2    0    0 -0.35651860874E+02 -0.19522984938E+02 -0.98173666701E+00  0.50528856728E+02  0.29999990511E+02 0.  0.
         12    1    1    2    0    0  0.35651860874E+02  0.19522984938E+02  0.98173666701E+00  0.40659143272E+02  0.00000000000E+00 0. -1.
         11    1    3    3    0    0 -0.52354586931E+01 -0.77825902530E+01  0.21828457567E+01  0.96303455095E+01  0.51100000000E-03 0. -1.
        -11    1    3    3    0    0 -0.15038156456E+02  0.56484932040E+01  0.40925764211E+01  0.16577116972E+02  0.51100000000E-03 0.  1.
        -12    1    3    3    0    0 -0.15378245725E+02 -0.17388887889E+02 -0.72571588448E+01  0.24321394247E+02  0.00000000000E+00 0.  1.
</event>
<event>
 7    1  0.5897985E-013  0.5052886E+02  0.7816164E-02  0.1300439E+00
        -11   -1    0    0    0    0  0.00000000000E+00  0.00000000000E+00  0.45593999997E+02  0.45594000000E+02  0.51100000000E-03 0.  1.
         11   -1    0    0    0    0 -0.00000000000E+00 -0.00000000000E+00 -0.45593999997E+02  0.45594000000E+02  0.51100000000E-03 0. -1.
    9900012    2    1    2    0    0  0.31716477888E+02 -0.25121201100E+02  0.40194544737E+01  0.50528859224E+02  0.29999998098E+02 0.  0.
         12    1    1    2    0    0 -0.31716477888E+02  0.25121201100E+02 -0.40194544737E+01  0.40659140776E+02  0.00000000000E+00 0. -1.
         11    1    3    3    0    0  0.59949798648E+01  0.42378768737E+01 -0.51241385493E+01  0.89529983865E+01  0.51100000000E-03 0. -1.
        -11    1    3    3    0    0  0.25851767164E+02 -0.25637506921E+02  0.99953740493E+01  0.37755835698E+02  0.51100000000E-03 0.  1.
        -12    1    3    3    0    0 -0.13026914047E+00 -0.37215710530E+01 -0.85178102627E+00  0.38200251398E+01  0.00000000000E+00 0.  1.
</event>
<event>
 7    1  0.5897985E-013  0.5052886E+02  0.7816164E-02  0.1300439E+00
        -11   -1    0    0    0    0  0.00000000000E+00  0.00000000000E+00  0.45593999997E+02  0.45594000000E+02  0.51100000000E-03 0. -1.
         11   -1    0    0    0    0 -0.00000000000E+00 -0.00000000000E+00 -0.45593999997E+02  0.45594000000E+02  0.51100000000E-03 0.  1.
    9900012    2    1    2    0    0 -0.24759999356E+02 -0.20567686499E+02 -0.24841062997E+02  0.50528859492E+02  0.29999998912E+02 0.  0.
         12    1    1    2    0    0  0.24759999356E+02  0.20567686499E+02  0.24841062997E+02  0.40659140508E+02  0.00000000000E+00 0. -1.
         11    1    3    3    0    0  0.36770248842E+01 -0.11752644051E+02 -0.13233474502E+01  0.12385330150E+02  0.51100000000E-03 0. -1.
        -11    1    3    3    0    0 -0.13731062599E+02 -0.24108170821E+01 -0.12032747941E+02  0.18415785141E+02  0.51100000000E-03 0.  1.
         12    1    3    3    0    0 -0.14705961642E+02 -0.64042253661E+01 -0.11484967605E+02  0.19727744201E+02  0.00000000000E+00 0. -1.
</event>
<event>
 7    1  0.5897985E-013  0.5052886E+02  0.7816164E-02  0.1300439E+00
        -11   -1    0    0    0    0  0.00000000000E+00  0.00000000000E+00  0.45593999997E+02  0.45594000000E+02  0.51100000000E-03 0.  1.
         11   -1    0    0    0    0 -0.00000000000E+00 -0.00000000000E+00 -0.45593999997E+02  0.45594000000E+02  0.51100000000E-03 0. -1.
    9900012    2    1    2    0    0  0.89196442635E+01  0.17922429216E+02 -0.35389153852E+02  0.50528859169E+02  0.29999997930E+02 0.  0.
         12    1    1    2    0    0 -0.89196442635E+01 -0.17922429216E+02  0.35389153852E+02  0.40659140831E+02  0.00000000000E+00 0. -1.
         11    1    3    3    0    0 -0.37075201258E+00 -0.29699634810E+00 -0.13941677212E+01  0.14728773817E+01  0.51100000000E-03 0. -1.
        -11    1    3    3    0    0 -0.67480410622E+01 -0.24584339684E+01 -0.15051537839E+01  0.73379454842E+01  0.51100000000E-03 0.  1.
        -12    1    3    3    0    0  0.16038437338E+02  0.20677859532E+02 -0.32489832346E+02  0.41718036303E+02  0.00000000000E+00 0.  1.
</event>
<event>
 7    1  0.5897985E-013  0.5052885E+02  0.7816164E-02  0.1300439E+00
        -11   -1    0    0    0    0  0.00000000000E+00  0.00000000000E+00  0.45593999997E+02  0.45594000000E+02  0.51100000000E-03 0.  1.
         11   -1    0    0    0    0 -0.00000000000E+00 -0.00000000000E+00 -0.45593999997E+02  0.45594000000E+02  0.51100000000E-03 0. -1.
    9900012    2    1    2    0    0  0.11539943402E+02 -0.29972292660E+02  0.24933063361E+02  0.50528852572E+02  0.29999977879E+02 0.  0.
         12    1    1    2    0    0 -0.11539943402E+02  0.29972292660E+02 -0.24933063361E+02  0.40659147428E+02  0.00000000000E+00 0. -1.
         11    1    3    3    0    0  0.88912362647E+01 -0.49202612560E+01  0.22531152972E+02  0.24716713124E+02  0.51100000000E-03 0. -1.
        -11    1    3    3    0    0  0.32364403049E+01 -0.18561597967E+02  0.36093602807E+01  0.19184236936E+02  0.51100000000E-03 0.  1.
         12    1    3    3    0    0 -0.58773316729E+00 -0.64904334368E+01 -0.12074498919E+01  0.66279025125E+01  0.00000000000E+00 0. -1.
</event>
<event>
 7    1  0.5897985E-013  0.5052886E+02  0.7816164E-02  0.1300439E+00
        -11   -1    0    0    0    0  0.00000000000E+00  0.00000000000E+00  0.45593999997E+02  0.45594000000E+02  0.51100000000E-03 0.  1.
         11   -1    0    0    0    0 -0.00000000000E+00 -0.00000000000E+00 -0.45593999997E+02  0.45594000000E+02  0.51100000000E-03 0. -1.
    9900012    2    1    2    0    0  0.15448090805E+02 -0.23214566592E+02  0.29590646752E+02  0.50528856050E+02  0.29999988450E+02 0.  0.
         12    1    1    2    0    0 -0.15448090805E+02  0.23214566592E+02 -0.29590646752E+02  0.40659143950E+02  0.00000000000E+00 0. -1.
         11    1    3    3    0    0  0.88832032074E+01 -0.25942471580E+02  0.17925142812E+02  0.32760248412E+02  0.51100000000E-03 0. -1.
        -11    1    3    3    0    0  0.11215329940E+01  0.65668677974E+01  0.48633451691E+01  0.82482552955E+01  0.51100000000E-03 0.  1.
        -12    1    3    3    0    0  0.54433546039E+01 -0.38389628091E+01  0.68021587703E+01  0.95203523428E+01  0.00000000000E+00 0.  1.
</event>
<event>
 7    1  0.5897985E-013  0.5052887E+02  0.7816164E-02  0.1300439E+00
        -11   -1    0    0    0    0  0.00000000000E+00  0.00000000000E+00  0.45593999997E+02  0.45594000000E+02  0.51100000000E-03 0.  1.
         11   -1    0    0    0    0 -0.00000000000E+00 -0.00000000000E+00 -0.45593999997E+02  0.45594000000E+02  0.51100000000E-03 0. -1.
    9900012    2    1    2    0    0  0.74610132848E+01  0.37986077618E+02  0.12432071315E+02  0.50528865612E+02  0.30000017514E+02 0.  0.
         12    1    1    2    0    0 -0.74610132848E+01 -0.37986077618E+02 -0.12432071315E+02  0.40659134388E+02  0.00000000000E+00 0. -1.
         11    1    3    3    0    0  0.11986444943E+02  0.75792310319E+01  0.47285982374E+01  0.14949222286E+02  0.51100000000E-03 0. -1.
        -11    1    3    3    0    0 -0.31582085973E+01  0.28450446098E+02  0.11700540799E+02  0.30924178566E+02  0.51100000000E-03 0.  1.
         12    1    3    3    0    0 -0.13672230606E+01  0.19564004876E+01 -0.39970677212E+01  0.46554647601E+01  0.00000000000E+00 0. -1.
</event>
<event>
 7    1  0.5897985E-013  0.5052886E+02  0.7816164E-02  0.1300439E+00
        -11   -1    0    0    0    0  0.00000000000E+00  0.00000000000E+00  0.45593999997E+02  0.45594000000E+02  0.51100000000E-03 0.  1.
         11   -1    0    0    0    0 -0.00000000000E+00 -0.00000000000E+00 -0.45593999997E+02  0.45594000000E+02  0.51100000000E-03 0. -1.
    9900012    2    1    2    0    0  0.34133167929E+02  0.19172225097E+02  0.10978079728E+02  0.50528860774E+02  0.30000002810E+02 0.  0.
         12    1    1    2    0    0 -0.34133167929E+02 -0.19172225097E+02 -0.10978079728E+02  0.40659139226E+02  0.00000000000E+00 0. -1.
         11    1    3    3    0    0  0.59336266631E+01  0.24934928576E+01 -0.72124575463E+01  0.96666941674E+01  0.51100000000E-03 0. -1.
        -11    1    3    3    0    0  0.20948382896E+02  0.31252266296E+01  0.96139783536E+01  0.23260059490E+02  0.51100000000E-03 0.  1.
         12    1    3    3    0    0  0.72511583698E+01  0.13553505610E+02  0.85765589208E+01  0.17602107117E+02  0.00000000000E+00 0. -1.
</event>
<event>
 7    1  0.5897985E-013  0.5052886E+02  0.7816164E-02  0.1300439E+00
        -11   -1    0    0    0    0  0.00000000000E+00  0.00000000000E+00  0.45593999997E+02  0.45594000000E+02  0.51100000000E-03 0.  1.
         11   -1    0    0    0    0 -0.00000000000E+00 -0.00000000000E+00 -0.45593999997E+02  0.45594000000E+02  0.51100000000E-03 0. -1.
    9900012    2    1    2    0    0  0.37875838740E+02  0.57255263648E+01  0.13631027267E+02  0.50528859370E+02  0.29999998540E+02 0.  0.
         12    1    1    2    0    0 -0.37875838740E+02 -0.57255263648E+01 -0.13631027267E+02  0.40659140630E+02  0.00000000000E+00 0. -1.
         11    1    3    3    0    0  0.32979766277E+02  0.94037888299E+00  0.49047360548E+01  0.33355745115E+02  0.51100000000E-03 0. -1.
        -11    1    3    3    0    0  0.72098170665E+01  0.30566526049E+01  0.10996259115E+02  0.13499714888E+02  0.51100000000E-03 0.  1.
         12    1    3    3    0    0 -0.23137446030E+01  0.17284948769E+01 -0.22699679031E+01  0.36733993669E+01  0.00000000000E+00 0. -1.
</event>
<event>
 7    1  0.5897985E-013  0.5052886E+02  0.7816164E-02  0.1300439E+00
        -11   -1    0    0    0    0  0.00000000000E+00  0.00000000000E+00  0.45593999997E+02  0.45594000000E+02  0.51100000000E-03 0. -1.
         11   -1    0    0    0    0 -0.00000000000E+00 -0.00000000000E+00 -0.45593999997E+02  0.45594000000E+02  0.51100000000E-03 0.  1.
    9900012    2    1    2    0    0  0.30644321966E+02 -0.16199584845E+02 -0.21252395738E+02  0.50528863972E+02  0.30000012530E+02 0.  0.
         12    1    1    2    0    0 -0.30644321966E+02  0.16199584845E+02  0.21252395738E+02  0.40659136028E+02  0.00000000000E+00 0. -1.
         11    1    3    3    0    0 -0.18441192305E+01 -0.91083369544E+01 -0.95140904306E+01  0.13299642657E+02  0.51100000000E-03 0. -1.
        -11    1    3    3    0    0  0.31764168599E+02 -0.40826244088E+01 -0.94828149495E+01  0.33399910306E+02  0.51100000000E-03 0.  1.
        -12    1    3    3    0    0  0.72427259816E+00 -0.30086234819E+01 -0.22554903580E+01  0.38293110095E+01  0.00000000000E+00 0.  1.
</event>
<event>
 7    1  0.5897985E-013  0.5052886E+02  0.7816164E-02  0.1300439E+00
        -11   -1    0    0    0    0  0.00000000000E+00  0.00000000000E+00  0.45593999997E+02  0.45594000000E+02  0.51100000000E-03 0. -1.
         11   -1    0    0    0    0 -0.00000000000E+00 -0.00000000000E+00 -0.45593999997E+02  0.45594000000E+02  0.51100000000E-03 0.  1.
    9900012    2    1    2    0    0 -0.30517780597E+02 -0.25752441155E+02  0.76578302358E+01  0.50528861766E+02  0.30000005823E+02 0.  0.
         12    1    1    2    0    0  0.30517780597E+02  0.25752441155E+02 -0.76578302358E+01  0.40659138234E+02  0.00000000000E+00 0. -1.
         11    1    3    3    0    0 -0.85398558496E+01  0.29024202819E+01  0.43733029845E+01  0.10023919427E+02  0.51100000000E-03 0. -1.
        -11    1    3    3    0    0 -0.19039005904E+02 -0.31076113159E+02  0.20509237600E+01  0.36502258059E+02  0.51100000000E-03 0.  1.
        -12    1    3    3    0    0 -0.29389188440E+01  0.24212517215E+01  0.12336034912E+01  0.40026842798E+01  0.00000000000E+00 0.  1.
</event>
<event>
 7    1  0.5897985E-013  0.5052886E+02  0.7816164E-02  0.1300439E+00
        -11   -1    0    0    0    0  0.00000000000E+00  0.00000000000E+00  0.45593999997E+02  0.45594000000E+02  0.51100000000E-03 0.  1.
         11   -1    0    0    0    0 -0.00000000000E+00 -0.00000000000E+00 -0.45593999997E+02  0.45594000000E+02  0.51100000000E-03 0. -1.
    9900012    2    1    2    0    0 -0.17600241117E+01 -0.17630958532E+02  0.36595316807E+02  0.50528860858E+02  0.30000003063E+02 0.  0.
         12    1    1    2    0    0  0.17600241117E+01  0.17630958532E+02 -0.36595316807E+02  0.40659139142E+02  0.00000000000E+00 0. -1.
         11    1    3    3    0    0 -0.10287443242E+02  0.93473679172E+00  0.32229888092E+01  0.10820946283E+02  0.51100000000E-03 0. -1.
        -11    1    3    3    0    0  0.49435816036E+01 -0.52308225355E+01  0.15779809752E+02  0.17343670302E+02  0.51100000000E-03 0.  1.
         12    1    3    3    0    0  0.35838375267E+01 -0.13334872788E+02  0.17592518246E+02  0.22364244273E+02  0.00000000000E+00 0. -1.
</event>
<event>
 7    1  0.5897985E-013  0.5052886E+02  0.7816164E-02  0.1300439E+00
        -11   -1    0    0    0    0  0.00000000000E+00  0.00000000000E+00  0.45593999997E+02  0.45594000000E+02  0.51100000000E-03 0.  1.
         11   -1    0    0    0    0 -0.00000000000E+00 -0.00000000000E+00 -0.45593999997E+02  0.45594000000E+02  0.51100000000E-03 0. -1.
    9900012    2    1    2    0    0 -0.35393677689E+02 -0.28707152945E+01  0.19804344672E+02  0.50528862103E+02  0.30000006848E+02 0.  0.
         12    1    1    2    0    0  0.35393677689E+02  0.28707152945E+01 -0.19804344672E+02  0.40659137897E+02  0.00000000000E+00 0. -1.
         11    1    3    3    0    0 -0.40047851415E+01  0.84494261233E+01 -0.38295351474E+00  0.93582989640E+01  0.51100000000E-03 0. -1.
        -11    1    3    3    0    0 -0.21038939740E+02 -0.11328837892E+02  0.80391255633E+01  0.25211249343E+02  0.51100000000E-03 0.  1.
         12    1    3    3    0    0 -0.10349952808E+02  0.86964740225E-02  0.12148172623E+02  0.15959313796E+02  0.00000000000E+00 0. -1.
</event>
<event>
 7    1  0.5897985E-013  0.5052887E+02  0.7816164E-02  0.1300439E+00
        -11   -1    0    0    0    0  0.00000000000E+00  0.00000000000E+00  0.45593999997E+02  0.45594000000E+02  0.51100000000E-03 0.  1.
         11   -1    0    0    0    0 -0.00000000000E+00 -0.00000000000E+00 -0.45593999997E+02  0.45594000000E+02  0.51100000000E-03 0. -1.
    9900012    2    1    2    0    0 -0.12381811470E+01  0.90754990104E+01  0.39613976505E+02  0.50528869299E+02  0.30000028721E+02 0.  0.
         12    1    1    2    0    0  0.12381811470E+01 -0.90754990104E+01 -0.39613976505E+02  0.40659130701E+02  0.00000000000E+00 0. -1.
         11    1    3    3    0    0 -0.82838959347E+01  0.81169565234E+01  0.27192632694E+01  0.11912275519E+02  0.51100000000E-03 0. -1.
        -11    1    3    3    0    0  0.68686275803E+01  0.13720142813E+01  0.13423147001E+02  0.15140718071E+02  0.51100000000E-03 0.  1.
         12    1    3    3    0    0  0.17708720740E+00 -0.41347179436E+00  0.23471566234E+02  0.23475875709E+02  0.00000000000E+00 0. -1.
</event>
<event>
 7    1  0.5897985E-013  0.5052885E+02  0.7816164E-02  0.1300439E+00
        -11   -1    0    0    0    0  0.00000000000E+00  0.00000000000E+00  0.45593999997E+02  0.45594000000E+02  0.51100000000E-03 0.  1.
         11   -1    0    0    0    0 -0.00000000000E+00 -0.00000000000E+00 -0.45593999997E+02  0.45594000000E+02  0.51100000000E-03 0. -1.
    9900012    2    1    2    0    0  0.28582809729E+02  0.44891117136E+01  0.28566368059E+02  0.50528849492E+02  0.29999968515E+02 0.  0.
         12    1    1    2    0    0 -0.28582809729E+02 -0.44891117136E+01 -0.28566368059E+02  0.40659150508E+02  0.00000000000E+00 0. -1.
         11    1    3    3    0    0  0.13489819383E+02 -0.33560058168E+01  0.19074281525E+02  0.23602250274E+02  0.51100000000E-03 0. -1.
        -11    1    3    3    0    0  0.15386218142E+02  0.18716713482E+01 -0.24259156797E+00  0.15501539062E+02  0.51100000000E-03 0.  1.
        -12    1    3    3    0    0 -0.29322779604E+00  0.59734461822E+01  0.97346781021E+01  0.11425060157E+02  0.00000000000E+00 0.  1.
</event>
<event>
 7    1  0.5897985E-013  0.5052885E+02  0.7816164E-02  0.1300439E+00
        -11   -1    0    0    0    0  0.00000000000E+00  0.00000000000E+00  0.45593999997E+02  0.45594000000E+02  0.51100000000E-03 0. -1.
         11   -1    0    0    0    0 -0.00000000000E+00 -0.00000000000E+00 -0.45593999997E+02  0.45594000000E+02  0.51100000000E-03 0.  1.
    9900012    2    1    2    0    0 -0.12548984263E+02  0.36326318734E+02 -0.13269818671E+02  0.50528849414E+02  0.29999968278E+02 0.  0.
         12    1    1    2    0    0  0.12548984263E+02 -0.36326318734E+02  0.13269818671E+02  0.40659150586E+02  0.00000000000E+00 0. -1.
         11    1    3    3    0    0  0.89263028624E+00  0.10200289514E+01  0.35228530110E+01  0.37746180585E+01  0.51100000000E-03 0. -1.
        -11    1    3    3    0    0  0.14820849252E+01  0.22821651711E+02 -0.14695737557E+02  0.27184353315E+02  0.51100000000E-03 0.  1.
        -12    1    3    3    0    0 -0.14923699474E+02  0.12484638072E+02 -0.20969341259E+01  0.19569878040E+02  0.00000000000E+00 0.  1.
</event>
<event>
 7    1  0.5897985E-013  0.5052886E+02  0.7816164E-02  0.1300439E+00
        -11   -1    0    0    0    0  0.00000000000E+00  0.00000000000E+00  0.45593999997E+02  0.45594000000E+02  0.51100000000E-03 0.  1.
         11   -1    0    0    0    0 -0.00000000000E+00 -0.00000000000E+00 -0.45593999997E+02  0.45594000000E+02  0.51100000000E-03 0. -1.
    9900012    2    1    2    0    0  0.39431050202E+02 -0.21779485501E+01  0.96754581628E+01  0.50528859938E+02  0.30000000267E+02 0.  0.
         12    1    1    2    0    0 -0.39431050202E+02  0.21779485501E+01 -0.96754581628E+01  0.40659140062E+02  0.00000000000E+00 0. -1.
         11    1    3    3    0    0  0.62380917958E+01  0.74390508696E-01  0.10362812199E+02  0.12095751326E+02  0.51100000000E-03 0.  1.
        -11    1    3    3    0    0  0.23778152873E+02  0.64277462849E+01 -0.45697938007E+01  0.25051935893E+02  0.51100000000E-03 0. -1.
        -12    1    3    3    0    0  0.94148055332E+01 -0.86800853437E+01  0.38824397643E+01  0.13381172719E+02  0.00000000000E+00 0.  1.
</event>
<event>
 7    1  0.5897985E-013  0.5052881E+02  0.7816164E-02  0.1300439E+00
        -11   -1    0    0    0    0  0.00000000000E+00  0.00000000000E+00  0.45593999997E+02  0.45594000000E+02  0.51100000000E-03 0.  1.
         11   -1    0    0    0    0 -0.00000000000E+00 -0.00000000000E+00 -0.45593999997E+02  0.45594000000E+02  0.51100000000E-03 0. -1.
    9900012    2    1    2    0    0  0.36162572159E+02  0.18429628489E+01  0.18494360562E+02  0.50528812726E+02  0.29999856761E+02 0.  0.
         12    1    1    2    0    0 -0.36162572159E+02 -0.18429628489E+01 -0.18494360562E+02  0.40659187274E+02  0.00000000000E+00 0. -1.
         11    1    3    3    0    0  0.13361163554E+01 -0.17106376495E+01 -0.31214394089E+01  0.38019563816E+01  0.51100000000E-03 0. -1.
        -11    1    3    3    0    0  0.34016721487E+02  0.74387896261E+01  0.23818769256E+02  0.42187755344E+02  0.51100000000E-03 0.  1.
        -12    1    3    3    0    0  0.80973431664E+00 -0.38851891276E+01 -0.22029692850E+01  0.45391010004E+01  0.00000000000E+00 0.  1.
</event>
<event>
 7    1  0.5897985E-013  0.5052885E+02  0.7816164E-02  0.1300439E+00
        -11   -1    0    0    0    0  0.00000000000E+00  0.00000000000E+00  0.45593999997E+02  0.45594000000E+02  0.51100000000E-03 0. -1.
         11   -1    0    0    0    0 -0.00000000000E+00 -0.00000000000E+00 -0.45593999997E+02  0.45594000000E+02  0.51100000000E-03 0.  1.
    9900012    2    1    2    0    0 -0.84300632001E+01  0.36460437242E+02  0.15897698531E+02  0.50528852591E+02  0.29999977937E+02 0.  0.
         12    1    1    2    0    0  0.84300632001E+01 -0.36460437242E+02 -0.15897698531E+02  0.40659147409E+02  0.00000000000E+00 0. -1.
         11    1    3    3    0    0 -0.57058791792E+01  0.18814131532E+02  0.20554167823E+02  0.28442967807E+02  0.51100000000E-03 0. -1.
        -11    1    3    3    0    0 -0.28436916636E+01  0.14745232704E+02  0.16851262647E+01  0.15111191897E+02  0.51100000000E-03 0.  1.
         12    1    3    3    0    0  0.11950764265E+00  0.29010730056E+01 -0.63415955567E+01  0.69746928868E+01  0.00000000000E+00 0. -1.
</event>
<event>
 7    1  0.5897985E-013  0.5052886E+02  0.7816164E-02  0.1300439E+00
        -11   -1    0    0    0    0  0.00000000000E+00  0.00000000000E+00  0.45593999997E+02  0.45594000000E+02  0.51100000000E-03 0.  1.
         11   -1    0    0    0    0 -0.00000000000E+00 -0.00000000000E+00 -0.45593999997E+02  0.45594000000E+02  0.51100000000E-03 0. -1.
    9900012    2    1    2    0    0  0.72301774404E+01  0.30213890037E+02  0.26229961752E+02  0.50528861907E+02  0.30000006251E+02 0.  0.
         12    1    1    2    0    0 -0.72301774404E+01 -0.30213890037E+02 -0.26229961752E+02  0.40659138093E+02  0.00000000000E+00 0. -1.
         11    1    3    3    0    0 -0.84873379451E+01  0.36032331969E+01  0.13734210593E+01  0.93222572660E+01  0.51100000000E-03 0. -1.
        -11    1    3    3    0    0  0.77731819004E+01  0.59372810058E+01  0.33598754509E+01  0.10342264061E+02  0.51100000000E-03 0.  1.
         12    1    3    3    0    0  0.79443334851E+01  0.20673375834E+02  0.21496665242E+02  0.30864340580E+02  0.00000000000E+00 0. -1.
</event>
<event>
 7    1  0.5897985E-013  0.5052883E+02  0.7816164E-02  0.1300439E+00
        -11   -1    0    0    0    0  0.00000000000E+00  0.00000000000E+00  0.45593999997E+02  0.45594000000E+02  0.51100000000E-03 0.  1.
         11   -1    0    0    0    0 -0.00000000000E+00 -0.00000000000E+00 -0.45593999997E+02  0.45594000000E+02  0.51100000000E-03 0. -1.
    9900012    2    1    2    0    0  0.18198001074E+02  0.24450076184E+02  0.26910863365E+02  0.50528830855E+02  0.29999911866E+02 0.  0.
         12    1    1    2    0    0 -0.18198001074E+02 -0.24450076184E+02 -0.26910863365E+02  0.40659169145E+02  0.00000000000E+00 0. -1.
         11    1    3    3    0    0  0.37505271324E+01 -0.40115980035E+01  0.38637164038E+01  0.67147358118E+01  0.51100000000E-03 0. -1.
        -11    1    3    3    0    0  0.93203446431E+01  0.19737761933E+02  0.25333506057E+02  0.33440014949E+02  0.51100000000E-03 0.  1.
        -12    1    3    3    0    0  0.51271292989E+01  0.87239122549E+01 -0.22863590957E+01  0.10374080094E+02  0.00000000000E+00 0.  1.
</event>
<event>
 7    1  0.5897985E-013  0.5052886E+02  0.7816164E-02  0.1300439E+00
        -11   -1    0    0    0    0  0.00000000000E+00  0.00000000000E+00  0.45593999997E+02  0.45594000000E+02  0.51100000000E-03 0.  1.
         11   -1    0    0    0    0 -0.00000000000E+00 -0.00000000000E+00 -0.45593999997E+02  0.45594000000E+02  0.51100000000E-03 0. -1.
    9900012    2    1    2    0    0  0.36580082033E+02  0.17721298311E+02  0.10095249546E+01  0.50528856428E+02  0.29999989598E+02 0.  0.
         12    1    1    2    0    0 -0.36580082033E+02 -0.17721298311E+02 -0.10095249546E+01  0.40659143572E+02  0.00000000000E+00 0. -1.
         11    1    3    3    0    0 -0.64536153151E+00 -0.50907444286E+01 -0.40938939863E+01  0.65644602654E+01  0.51100000000E-03 0. -1.
        -11    1    3    3    0    0  0.22071671569E+02  0.13483862772E+02  0.34356377022E+01  0.26091700745E+02  0.51100000000E-03 0.  1.
         12    1    3    3    0    0  0.15153771996E+02  0.93281799670E+01  0.16677812386E+01  0.17872695417E+02  0.00000000000E+00 0. -1.
</event>
<event>
 7    1  0.5897985E-013  0.5052886E+02  0.7816164E-02  0.1300439E+00
        -11   -1    0    0    0    0  0.00000000000E+00  0.00000000000E+00  0.45593999997E+02  0.45594000000E+02  0.51100000000E-03 0.  1.
         11   -1    0    0    0    0 -0.00000000000E+00 -0.00000000000E+00 -0.45593999997E+02  0.45594000000E+02  0.51100000000E-03 0. -1.
    9900012    2    1    2    0    0 -0.21560126879E+02  0.26137283266E+02  0.22475964098E+02  0.50528860687E+02  0.30000002543E+02 0.  0.
         12    1    1    2    0    0  0.21560126879E+02 -0.26137283266E+02 -0.22475964098E+02  0.40659139313E+02  0.00000000000E+00 0. -1.
         11    1    3    3    0    0 -0.21193437375E+02  0.20796211860E+02  0.94190777916E+01  0.31150653961E+02  0.51100000000E-03 0.  1.
        -11    1    3    3    0    0  0.35097402081E+01 -0.33142343925E+01  0.47124009121E+01  0.67460468835E+01  0.51100000000E-03 0. -1.
        -12    1    3    3    0    0 -0.38764297114E+01  0.86553057993E+01  0.83444853941E+01  0.12632159842E+02  0.00000000000E+00 0.  1.
</event>
<event>
 7    1  0.5897985E-013  0.5052886E+02  0.7816164E-02  0.1300439E+00
        -11   -1    0    0    0    0  0.00000000000E+00  0.00000000000E+00  0.45593999997E+02  0.45594000000E+02  0.51100000000E-03 0.  1.
         11   -1    0    0    0    0 -0.00000000000E+00 -0.00000000000E+00 -0.45593999997E+02  0.45594000000E+02  0.51100000000E-03 0. -1.
    9900012    2    1    2    0    0  0.71386794414E+01 -0.38110340272E+02  0.12239557931E+02  0.50528861321E+02  0.30000004471E+02 0.  0.
         12    1    1    2    0    0 -0.71386794414E+01  0.38110340272E+02 -0.12239557931E+02  0.40659138679E+02  0.00000000000E+00 0. -1.
         11    1    3    3    0    0 -0.25611590485E+01 -0.12287209495E+02 -0.61089030546E+01  0.13959002459E+02  0.51100000000E-03 0. -1.
        -11    1    3    3    0    0  0.83496723517E+01 -0.53539565827E+01  0.15155040537E+01  0.10033874240E+02  0.51100000000E-03 0.  1.
         12    1    3    3    0    0  0.13501661382E+01 -0.20469174194E+02  0.16832956932E+02  0.26535984622E+02  0.00000000000E+00 0. -1.
</event>
<event>
 7    1  0.5897985E-013  0.5052885E+02  0.7816164E-02  0.1300439E+00
        -11   -1    0    0    0    0  0.00000000000E+00  0.00000000000E+00  0.45593999997E+02  0.45594000000E+02  0.51100000000E-03 0.  1.
         11   -1    0    0    0    0 -0.00000000000E+00 -0.00000000000E+00 -0.45593999997E+02  0.45594000000E+02  0.51100000000E-03 0. -1.
    9900012    2    1    2    0    0  0.23973462736E+02 -0.28592133867E+02  0.16153314605E+02  0.50528848418E+02  0.29999965253E+02 0.  0.
         12    1    1    2    0    0 -0.23973462736E+02  0.28592133867E+02 -0.16153314605E+02  0.40659151582E+02  0.00000000000E+00 0. -1.
         11    1    3    3    0    0 -0.15603175423E+01 -0.16314920748E+02  0.70817286042E+01  0.17853910220E+02  0.51100000000E-03 0. -1.
        -11    1    3    3    0    0  0.18881101683E+02 -0.10736192763E+02  0.51336210813E+00  0.21726145004E+02  0.51100000000E-03 0.  1.
        -12    1    3    3    0    0  0.66526785950E+01 -0.15410203554E+01  0.85582238922E+01  0.10948793194E+02  0.00000000000E+00 0.  1.
</event>
<event>
 7    1  0.5897985E-013  0.5052886E+02  0.7816164E-02  0.1300439E+00
        -11   -1    0    0    0    0  0.00000000000E+00  0.00000000000E+00  0.45593999997E+02  0.45594000000E+02  0.51100000000E-03 0.  1.
         11   -1    0    0    0    0 -0.00000000000E+00 -0.00000000000E+00 -0.45593999997E+02  0.45594000000E+02  0.51100000000E-03 0. -1.
    9900012    2    1    2    0    0 -0.31644191286E+02  0.22051730557E+02  0.12865921630E+02  0.50528860780E+02  0.30000002828E+02 0.  0.
         12    1    1    2    0    0  0.31644191286E+02 -0.22051730557E+02 -0.12865921630E+02  0.40659139220E+02  0.00000000000E+00 0. -1.
         11    1    3    3    0    0 -0.35700172860E+01  0.83565871227E+01 -0.11110880812E+01  0.91548942510E+01  0.51100000000E-03 0. -1.
        -11    1    3    3    0    0 -0.16677289506E+02  0.89573294676E+01  0.20087240340E+02  0.27601865176E+02  0.51100000000E-03 0.  1.
        -12    1    3    3    0    0 -0.11396884494E+02  0.47378139672E+01 -0.61102306286E+01  0.13772101354E+02  0.00000000000E+00 0.  1.
</event>
<event>
 7    1  0.5897985E-013  0.5052885E+02  0.7816164E-02  0.1300439E+00
        -11   -1    0    0    0    0  0.00000000000E+00  0.00000000000E+00  0.45593999997E+02  0.45594000000E+02  0.51100000000E-03 0.  1.
         11   -1    0    0    0    0 -0.00000000000E+00 -0.00000000000E+00 -0.45593999997E+02  0.45594000000E+02  0.51100000000E-03 0. -1.
    9900012    2    1    2    0    0  0.61857007612E+01 -0.33778928561E+02  0.21768950221E+02  0.50528854629E+02  0.29999984129E+02 0.  0.
         12    1    1    2    0    0 -0.61857007612E+01  0.33778928561E+02 -0.21768950221E+02  0.40659145371E+02  0.00000000000E+00 0. -1.
         11    1    3    3    0    0 -0.20566891152E+01  0.18249127224E+01  0.44541486865E+01  0.52344739319E+01  0.51100000000E-03 0. -1.
        -11    1    3    3    0    0  0.12961265235E+02 -0.23646852578E+02  0.48690918790E+01  0.27402118336E+02  0.51100000000E-03 0.  1.
        -12    1    3    3    0    0 -0.47188753586E+01 -0.11956988706E+02  0.12445709655E+02  0.17892262361E+02  0.00000000000E+00 0.  1.
</event>
<event>
 7    1  0.5897985E-013  0.5052887E+02  0.7816164E-02  0.1300439E+00
        -11   -1    0    0    0    0  0.00000000000E+00  0.00000000000E+00  0.45593999997E+02  0.45594000000E+02  0.51100000000E-03 0.  1.
         11   -1    0    0    0    0 -0.00000000000E+00 -0.00000000000E+00 -0.45593999997E+02  0.45594000000E+02  0.51100000000E-03 0. -1.
    9900012    2    1    2    0    0 -0.17433972200E+02  0.36668324559E+02  0.21577003579E+01  0.50528867158E+02  0.30000022214E+02 0.  0.
         12    1    1    2    0    0  0.17433972200E+02 -0.36668324559E+02 -0.21577003579E+01  0.40659132842E+02  0.00000000000E+00 0. -1.
         11    1    3    3    0    0 -0.15095607375E+01  0.12155122393E+02 -0.10038656073E+02  0.15836678629E+02  0.51100000000E-03 0. -1.
        -11    1    3    3    0    0 -0.12758967080E+02  0.10455982992E+02  0.11791950617E+02  0.20277300632E+02  0.51100000000E-03 0.  1.
        -12    1    3    3    0    0 -0.31654443823E+01  0.14057219174E+02  0.40440581378E+00  0.14414887897E+02  0.00000000000E+00 0.  1.
</event>
<event>
 7    1  0.5897985E-013  0.5052885E+02  0.7816164E-02  0.1300439E+00
        -11   -1    0    0    0    0  0.00000000000E+00  0.00000000000E+00  0.45593999997E+02  0.45594000000E+02  0.51100000000E-03 0. -1.
         11   -1    0    0    0    0 -0.00000000000E+00 -0.00000000000E+00 -0.45593999997E+02  0.45594000000E+02  0.51100000000E-03 0.  1.
    9900012    2    1    2    0    0 -0.18312944470E+02 -0.32550466524E+02  0.16070778099E+02  0.50528847097E+02  0.29999961235E+02 0.  0.
         12    1    1    2    0    0  0.18312944470E+02  0.32550466524E+02 -0.16070778099E+02  0.40659152903E+02  0.00000000000E+00 0. -1.
         11    1    3    3    0    0 -0.14426082174E+02 -0.87840231957E+01  0.21546685460E+01  0.17026846660E+02  0.51100000000E-03 0.  1.
        -11    1    3    3    0    0  0.47633230467E+00 -0.42671859551E+01  0.12787044973E+02  0.13488672576E+02  0.51100000000E-03 0. -1.
        -12    1    3    3    0    0 -0.43631946011E+01 -0.19499257374E+02  0.11290645797E+01  0.20013327861E+02  0.00000000000E+00 0.  1.
</event>
<event>
 7    1  0.5897985E-013  0.5052887E+02  0.7816164E-02  0.1300439E+00
        -11   -1    0    0    0    0  0.00000000000E+00  0.00000000000E+00  0.45593999997E+02  0.45594000000E+02  0.51100000000E-03 0.  1.
         11   -1    0    0    0    0 -0.00000000000E+00 -0.00000000000E+00 -0.45593999997E+02  0.45594000000E+02  0.51100000000E-03 0. -1.
    9900012    2    1    2    0    0  0.37330521593E+02 -0.15594785024E+02  0.40496434963E+01  0.50528870954E+02  0.30000033751E+02 0.  0.
         12    1    1    2    0    0 -0.37330521593E+02  0.15594785024E+02 -0.40496434963E+01  0.40659129046E+02  0.00000000000E+00 0. -1.
         11    1    3    3    0    0 -0.13378007636E+01  0.18755950847E+01 -0.13247057940E+01  0.26575201799E+01  0.51100000000E-03 0. -1.
        -11    1    3    3    0    0  0.40678592817E+02 -0.17675148819E+02  0.25862450261E+01  0.44428003139E+02  0.51100000000E-03 0.  1.
        -12    1    3    3    0    0 -0.20102704600E+01  0.20476871059E+00  0.27881042642E+01  0.34433476349E+01  0.00000000000E+00 0.  1.
</event>
<event>
 7    1  0.5897985E-013  0.5052887E+02  0.7816164E-02  0.1300439E+00
        -11   -1    0    0    0    0  0.00000000000E+00  0.00000000000E+00  0.45593999997E+02  0.45594000000E+02  0.51100000000E-03 0. -1.
         11   -1    0    0    0    0 -0.00000000000E+00 -0.00000000000E+00 -0.45593999997E+02  0.45594000000E+02  0.51100000000E-03 0.  1.
    9900012    2    1    2    0    0 -0.33329603202E+02 -0.60128630698E+01 -0.22497735789E+02  0.50528867107E+02  0.30000022060E+02 0.  0.
         12    1    1    2    0    0  0.33329603202E+02  0.60128630698E+01  0.22497735789E+02  0.40659132893E+02  0.00000000000E+00 0. -1.
         11    1    3    3    0    0 -0.23573631879E+01  0.72344745400E+01 -0.42322180779E+01  0.87066901397E+01  0.51100000000E-03 0. -1.
        -11    1    3    3    0    0 -0.25856881456E+02 -0.72887209561E+01 -0.64384692965E+01  0.27625308306E+02  0.51100000000E-03 0.  1.
         12    1    3    3    0    0 -0.51153585579E+01 -0.59586166537E+01 -0.11827048415E+02  0.14196868662E+02  0.00000000000E+00 0. -1.
</event>
<event>
 7    1  0.5897985E-013  0.5052887E+02  0.7816164E-02  0.1300439E+00
        -11   -1    0    0    0    0  0.00000000000E+00  0.00000000000E+00  0.45593999997E+02  0.45594000000E+02  0.51100000000E-03 0.  1.
         11   -1    0    0    0    0 -0.00000000000E+00 -0.00000000000E+00 -0.45593999997E+02  0.45594000000E+02  0.51100000000E-03 0. -1.
    9900012    2    1    2    0    0  0.31572565480E+02 -0.25518830855E+02  0.22643963380E+01  0.50528866832E+02  0.30000021222E+02 0.  0.
         12    1    1    2    0    0 -0.31572565480E+02  0.25518830855E+02 -0.22643963380E+01  0.40659133168E+02  0.00000000000E+00 0. -1.
         11    1    3    3    0    0  0.16707357714E+02 -0.22047632200E+01 -0.68225735964E+01  0.18180877134E+02  0.51100000000E-03 0. -1.
        -11    1    3    3    0    0  0.12584768013E+02 -0.25057008874E+02  0.73275824030E+01  0.28981434467E+02  0.51100000000E-03 0.  1.
         12    1    3    3    0    0  0.22804397533E+01  0.17429412391E+01  0.17593875314E+01  0.33665552300E+01  0.00000000000E+00 0. -1.
</event>
<event>
 7    1  0.5897985E-013  0.5052887E+02  0.7816164E-02  0.1300439E+00
        -11   -1    0    0    0    0  0.00000000000E+00  0.00000000000E+00  0.45593999997E+02  0.45594000000E+02  0.51100000000E-03 0.  1.
         11   -1    0    0    0    0 -0.00000000000E+00 -0.00000000000E+00 -0.45593999997E+02  0.45594000000E+02  0.51100000000E-03 0. -1.
    9900012    2    1    2    0    0  0.20278471439E+02  0.24522993459E+02  0.25309501579E+02  0.50528874551E+02  0.30000044686E+02 0.  0.
         12    1    1    2    0    0 -0.20278471439E+02 -0.24522993459E+02 -0.25309501579E+02  0.40659125449E+02  0.00000000000E+00 0. -1.
         11    1    3    3    0    0  0.52567584516E+01 -0.13492358523E+01  0.17482832503E+02  0.18305829109E+02  0.51100000000E-03 0.  1.
        -11    1    3    3    0    0  0.11852796551E+02  0.18727148242E+02  0.15833846872E+01  0.22219405363E+02  0.51100000000E-03 0. -1.
        -12    1    3    3    0    0  0.31689164365E+01  0.71450810691E+01  0.62432843890E+01  0.10003640079E+02  0.00000000000E+00 0.  1.
</event>
<event>
 7    1  0.5897985E-013  0.5052885E+02  0.7816164E-02  0.1300439E+00
        -11   -1    0    0    0    0  0.00000000000E+00  0.00000000000E+00  0.45593999997E+02  0.45594000000E+02  0.51100000000E-03 0. -1.
         11   -1    0    0    0    0 -0.00000000000E+00 -0.00000000000E+00 -0.45593999997E+02  0.45594000000E+02  0.51100000000E-03 0.  1.
    9900012    2    1    2    0    0  0.15407975737E+02 -0.22277321260E+02 -0.30322952472E+02  0.50528853360E+02  0.29999980275E+02 0.  0.
         12    1    1    2    0    0 -0.15407975737E+02  0.22277321260E+02  0.30322952472E+02  0.40659146640E+02  0.00000000000E+00 0. -1.
         11    1    3    3    0    0  0.11140869408E+02  0.20006981457E+01 -0.19456490396E+02  0.22509482070E+02  0.51100000000E-03 0. -1.
        -11    1    3    3    0    0  0.37780426393E+01 -0.17894090117E+02 -0.11470889900E+02  0.21588269562E+02  0.51100000000E-03 0.  1.
         12    1    3    3    0    0  0.48906368997E+00 -0.63839292888E+01  0.60442782491E+00  0.64311017294E+01  0.00000000000E+00 0. -1.
</event>
<event>
 7    1  0.5897985E-013  0.5052885E+02  0.7816164E-02  0.1300439E+00
        -11   -1    0    0    0    0  0.00000000000E+00  0.00000000000E+00  0.45593999997E+02  0.45594000000E+02  0.51100000000E-03 0. -1.
         11   -1    0    0    0    0 -0.00000000000E+00 -0.00000000000E+00 -0.45593999997E+02  0.45594000000E+02  0.51100000000E-03 0.  1.
    9900012    2    1    2    0    0 -0.26634789145E+02 -0.27912412875E+02 -0.12831677236E+02  0.50528846959E+02  0.29999960818E+02 0.  0.
         12    1    1    2    0    0  0.26634789145E+02  0.27912412875E+02  0.12831677236E+02  0.40659153041E+02  0.00000000000E+00 0. -1.
         11    1    3    3    0    0 -0.80080389742E+01 -0.38956228454E+01  0.81954673330E+01  0.12102489440E+02  0.51100000000E-03 0. -1.
        -11    1    3    3    0    0 -0.10613697718E+02 -0.21119787170E+02 -0.15144229630E+02  0.28072115715E+02  0.51100000000E-03 0.  1.
         12    1    3    3    0    0 -0.80130524530E+01 -0.28970028591E+01 -0.58829149383E+01  0.10354241805E+02  0.00000000000E+00 0. -1.
</event>
<event>
 7    1  0.5897985E-013  0.5052887E+02  0.7816164E-02  0.1300439E+00
        -11   -1    0    0    0    0  0.00000000000E+00  0.00000000000E+00  0.45593999997E+02  0.45594000000E+02  0.51100000000E-03 0.  1.
         11   -1    0    0    0    0 -0.00000000000E+00 -0.00000000000E+00 -0.45593999997E+02  0.45594000000E+02  0.51100000000E-03 0. -1.
    9900012    2    1    2    0    0 -0.15050830020E+02  0.34614413797E+02 -0.15115558861E+02  0.50528865154E+02  0.30000016121E+02 0.  0.
         12    1    1    2    0    0  0.15050830020E+02 -0.34614413797E+02  0.15115558861E+02  0.40659134846E+02  0.00000000000E+00 0. -1.
         11    1    3    3    0    0  0.55823484429E+01  0.30002770202E+01 -0.33865433389E+01  0.71856073079E+01  0.51100000000E-03 0. -1.
        -11    1    3    3    0    0 -0.18861394011E+02  0.26370266997E+02 -0.24181671238E+01  0.32511393357E+02  0.51100000000E-03 0.  1.
        -12    1    3    3    0    0 -0.17717844520E+01  0.52438697799E+01 -0.93108483984E+01  0.10831864489E+02  0.00000000000E+00 0.  1.
</event>
<event>
 7    1  0.5897985E-013  0.5052886E+02  0.7816164E-02  0.1300439E+00
        -11   -1    0    0    0    0  0.00000000000E+00  0.00000000000E+00  0.45593999997E+02  0.45594000000E+02  0.51100000000E-03 0.  1.
         11   -1    0    0    0    0 -0.00000000000E+00 -0.00000000000E+00 -0.45593999997E+02  0.45594000000E+02  0.51100000000E-03 0. -1.
    9900012    2    1    2    0    0 -0.18801974953E+01  0.40572454091E+02 -0.18725970620E+01  0.50528858428E+02  0.29999995679E+02 0.  0.
         12    1    1    2    0    0  0.18801974953E+01 -0.40572454091E+02  0.18725970620E+01  0.40659141572E+02  0.00000000000E+00 0. -1.
         11    1    3    3    0    0 -0.67391931231E+01 -0.42878716402E+00 -0.23774149882E+01  0.71590980347E+01  0.51100000000E-03 0. -1.
        -11    1    3    3    0    0  0.23519805403E+01  0.40524436950E+02 -0.58006527606E+00  0.40596776702E+02  0.51100000000E-03 0.  1.
        -12    1    3    3    0    0  0.25070150874E+01  0.47680430469E+00  0.10848832023E+01  0.27729836920E+01  0.00000000000E+00 0.  1.
</event>
<event>
 7    1  0.5897985E-013  0.5052886E+02  0.7816164E-02  0.1300439E+00
        -11   -1    0    0    0    0  0.00000000000E+00  0.00000000000E+00  0.45593999997E+02  0.45594000000E+02  0.51100000000E-03 0.  1.
         11   -1    0    0    0    0 -0.00000000000E+00 -0.00000000000E+00 -0.45593999997E+02  0.45594000000E+02  0.51100000000E-03 0. -1.
    9900012    2    1    2    0    0  0.20064022637E+01  0.21080322496E+02  0.34709652523E+02  0.50528860500E+02  0.30000001976E+02 0.  0.
         12    1    1    2    0    0 -0.20064022637E+01 -0.21080322496E+02 -0.34709652523E+02  0.40659139500E+02  0.00000000000E+00 0. -1.
         11    1    3    3    0    0 -0.15767388474E+01 -0.10886549458E+00  0.19401460547E+01  0.25024236379E+01  0.51100000000E-03 0. -1.
        -11    1    3    3    0    0  0.75946837893E+01 -0.23236193060E+01  0.58098063610E+00  0.79634142991E+01  0.51100000000E-03 0.  1.
        -12    1    3    3    0    0 -0.40115426782E+01  0.23512807296E+02  0.32188525833E+02  0.40063022563E+02  0.00000000000E+00 0.  1.
</event>
<event>
 7    1  0.5897985E-013  0.5052886E+02  0.7816164E-02  0.1300439E+00
        -11   -1    0    0    0    0  0.00000000000E+00  0.00000000000E+00  0.45593999997E+02  0.45594000000E+02  0.51100000000E-03 0.  1.
         11   -1    0    0    0    0 -0.00000000000E+00 -0.00000000000E+00 -0.45593999997E+02  0.45594000000E+02  0.51100000000E-03 0. -1.
    9900012    2    1    2    0    0 -0.76650502383E+01 -0.36772115653E+02  0.15563550990E+02  0.50528860754E+02  0.30000002749E+02 0.  0.
         12    1    1    2    0    0  0.76650502383E+01  0.36772115653E+02 -0.15563550990E+02  0.40659139246E+02  0.00000000000E+00 0. -1.
         11    1    3    3    0    0 -0.13640394127E+02 -0.51398391675E+01  0.10241743560E+01  0.14612571025E+02  0.51100000000E-03 0. -1.
        -11    1    3    3    0    0 -0.14192886419E+01 -0.55894997064E+01  0.23785092080E+01  0.62381241996E+01  0.51100000000E-03 0.  1.
         12    1    3    3    0    0  0.73946325302E+01 -0.26042776779E+02  0.12160867426E+02  0.29678165529E+02  0.00000000000E+00 0. -1.
</event>
<event>
 7    1  0.5897985E-013  0.5052887E+02  0.7816164E-02  0.1300439E+00
        -11   -1    0    0    0    0  0.00000000000E+00  0.00000000000E+00  0.45593999997E+02  0.45594000000E+02  0.51100000000E-03 0.  1.
         11   -1    0    0    0    0 -0.00000000000E+00 -0.00000000000E+00 -0.45593999997E+02  0.45594000000E+02  0.51100000000E-03 0. -1.
    9900012    2    1    2    0    0 -0.34114490538E+02 -0.13427637205E+02  0.17580252354E+02  0.50528865991E+02  0.30000018666E+02 0.  0.
         12    1    1    2    0    0  0.34114490538E+02  0.13427637205E+02 -0.17580252354E+02  0.40659134009E+02  0.00000000000E+00 0. -1.
         11    1    3    3    0    0 -0.66708054406E+01  0.73757032320E+01  0.52370479865E+00  0.99586600690E+01  0.51100000000E-03 0. -1.
        -11    1    3    3    0    0 -0.19050964749E+02 -0.17808090676E+02  0.67343517115E+01  0.26933600662E+02  0.51100000000E-03 0.  1.
        -12    1    3    3    0    0 -0.83927203484E+01 -0.29952497606E+01  0.10322195844E+02  0.13636605260E+02  0.00000000000E+00 0.  1.
</event>
<event>
 7    1  0.5897985E-013  0.5052886E+02  0.7816164E-02  0.1300439E+00
        -11   -1    0    0    0    0  0.00000000000E+00  0.00000000000E+00  0.45593999997E+02  0.45594000000E+02  0.51100000000E-03 0. -1.
         11   -1    0    0    0    0 -0.00000000000E+00 -0.00000000000E+00 -0.45593999997E+02  0.45594000000E+02  0.51100000000E-03 0.  1.
    9900012    2    1    2    0    0 -0.36170196960E+02  0.18286523005E+02  0.32381328265E+01  0.50528861102E+02  0.30000003806E+02 0.  0.
         12    1    1    2    0    0  0.36170196960E+02 -0.18286523005E+02 -0.32381328265E+01  0.40659138898E+02  0.00000000000E+00 0. -1.
         11    1    3    3    0    0 -0.61386686032E+01 -0.45804097641E+01  0.76072519423E+01  0.10795077035E+02  0.51100000000E-03 0. -1.
        -11    1    3    3    0    0 -0.16862645353E+02  0.67242236238E+01 -0.52013851692E+01  0.18884342710E+02  0.51100000000E-03 0.  1.
         12    1    3    3    0    0 -0.13168883004E+02  0.16142709145E+02  0.83226605352E+00  0.20849441357E+02  0.00000000000E+00 0. -1.
</event>
<event>
 7    1  0.5897985E-013  0.5052886E+02  0.7816164E-02  0.1300439E+00
        -11   -1    0    0    0    0  0.00000000000E+00  0.00000000000E+00  0.45593999997E+02  0.45594000000E+02  0.51100000000E-03 0. -1.
         11   -1    0    0    0    0 -0.00000000000E+00 -0.00000000000E+00 -0.45593999997E+02  0.45594000000E+02  0.51100000000E-03 0.  1.
    9900012    2    1    2    0    0  0.30994715624E+02 -0.15075852045E+01 -0.26272043381E+02  0.50528862365E+02  0.30000007646E+02 0.  0.
         12    1    1    2    0    0 -0.30994715624E+02  0.15075852045E+01  0.26272043381E+02  0.40659137635E+02  0.00000000000E+00 0. -1.
         11    1    3    3    0    0  0.13307465029E+02  0.74239203384E+01 -0.15601478422E+02  0.21808469637E+02  0.51100000000E-03 0. -1.
        -11    1    3    3    0    0  0.11260894386E+02 -0.79997488398E+01  0.24985716102E+01  0.14037328244E+02  0.51100000000E-03 0.  1.
         12    1    3    3    0    0  0.64263562092E+01 -0.93175670314E+00 -0.13169136569E+02  0.14683064485E+02  0.00000000000E+00 0. -1.
</event>
<event>
 7    1  0.5897985E-013  0.5052886E+02  0.7816164E-02  0.1300439E+00
        -11   -1    0    0    0    0  0.00000000000E+00  0.00000000000E+00  0.45593999997E+02  0.45594000000E+02  0.51100000000E-03 0.  1.
         11   -1    0    0    0    0 -0.00000000000E+00 -0.00000000000E+00 -0.45593999997E+02  0.45594000000E+02  0.51100000000E-03 0. -1.
    9900012    2    1    2    0    0 -0.29055131648E+02 -0.24413399055E+02  0.14592842448E+02  0.50528858603E+02  0.29999996208E+02 0.  0.
         12    1    1    2    0    0  0.29055131648E+02  0.24413399055E+02 -0.14592842448E+02  0.40659141397E+02  0.00000000000E+00 0. -1.
         11    1    3    3    0    0 -0.10467145281E+02  0.31152170609E+01  0.20778915372E+01  0.11116804449E+02  0.51100000000E-03 0. -1.
        -11    1    3    3    0    0 -0.89672134200E+01 -0.16586195467E+02 -0.18569816650E+01  0.18946270814E+02  0.51100000000E-03 0.  1.
        -12    1    3    3    0    0 -0.96207729473E+01 -0.10942420649E+02  0.14371932575E+02  0.20465783340E+02  0.00000000000E+00 0.  1.
</event>
<event>
 7    1  0.5897985E-013  0.5052887E+02  0.7816164E-02  0.1300439E+00
        -11   -1    0    0    0    0  0.00000000000E+00  0.00000000000E+00  0.45593999997E+02  0.45594000000E+02  0.51100000000E-03 0.  1.
         11   -1    0    0    0    0 -0.00000000000E+00 -0.00000000000E+00 -0.45593999997E+02  0.45594000000E+02  0.51100000000E-03 0. -1.
    9900012    2    1    2    0    0 -0.34025070697E+02  0.14803889195E+02 -0.16622394871E+02  0.50528873319E+02  0.30000040941E+02 0.  0.
         12    1    1    2    0    0  0.34025070697E+02 -0.14803889195E+02  0.16622394871E+02  0.40659126681E+02  0.00000000000E+00 0. -1.
         11    1    3    3    0    0 -0.24119248701E+02  0.10998546474E+02 -0.23377879802E+02  0.35344468403E+02  0.51100000000E-03 0. -1.
        -11    1    3    3    0    0 -0.20450401731E-01  0.22399037572E+01  0.43469117649E+01  0.48901154601E+01  0.51100000000E-03 0.  1.
         12    1    3    3    0    0 -0.98853715941E+01  0.15654389636E+01  0.24085731658E+01  0.10294289456E+02  0.00000000000E+00 0. -1.
</event>
<event>
 7    1  0.5897985E-013  0.5052885E+02  0.7816164E-02  0.1300439E+00
        -11   -1    0    0    0    0  0.00000000000E+00  0.00000000000E+00  0.45593999997E+02  0.45594000000E+02  0.51100000000E-03 0.  1.
         11   -1    0    0    0    0 -0.00000000000E+00 -0.00000000000E+00 -0.45593999997E+02  0.45594000000E+02  0.51100000000E-03 0. -1.
    9900012    2    1    2    0    0  0.22328385692E+02 -0.16553696762E+02  0.29674642751E+02  0.50528854577E+02  0.29999983972E+02 0.  0.
         12    1    1    2    0    0 -0.22328385692E+02  0.16553696762E+02 -0.29674642751E+02  0.40659145423E+02  0.00000000000E+00 0. -1.
         11    1    3    3    0    0  0.13676272620E+02 -0.17671413583E+02  0.68763079189E+01  0.23379540236E+02  0.51100000000E-03 0. -1.
        -11    1    3    3    0    0  0.99421633186E+01 -0.99789320942E+00  0.10085248280E+02  0.14196993887E+02  0.51100000000E-03 0.  1.
         12    1    3    3    0    0 -0.12900502465E+01  0.21156100301E+01  0.12713086553E+02  0.12952320454E+02  0.00000000000E+00 0. -1.
</event>
<event>
 7    1  0.5897985E-013  0.5052887E+02  0.7816164E-02  0.1300439E+00
        -11   -1    0    0    0    0  0.00000000000E+00  0.00000000000E+00  0.45593999997E+02  0.45594000000E+02  0.51100000000E-03 0.  1.
         11   -1    0    0    0    0 -0.00000000000E+00 -0.00000000000E+00 -0.45593999997E+02  0.45594000000E+02  0.51100000000E-03 0. -1.
    9900012    2    1    2    0    0  0.14971810904E+02 -0.21284970267E+02  0.31240348922E+02  0.50528874557E+02  0.30000044703E+02 0.  0.
         12    1    1    2    0    0 -0.14971810904E+02  0.21284970267E+02 -0.31240348922E+02  0.40659125443E+02  0.00000000000E+00 0. -1.
         11    1    3    3    0    0  0.71295133913E+01 -0.42282596324E+01 -0.33487520985E+01  0.89399262633E+01  0.51100000000E-03 0. -1.
        -11    1    3    3    0    0 -0.46533014343E-02 -0.14114802274E+02  0.16928603092E+02  0.22040990626E+02  0.51100000000E-03 0.  1.
        -12    1    3    3    0    0  0.78469508139E+01 -0.29419083611E+01  0.17660497929E+02  0.19547957668E+02  0.00000000000E+00 0.  1.
</event>
<event>
 7    1  0.5897985E-013  0.5052881E+02  0.7816164E-02  0.1300439E+00
        -11   -1    0    0    0    0  0.00000000000E+00  0.00000000000E+00  0.45593999997E+02  0.45594000000E+02  0.51100000000E-03 0. -1.
         11   -1    0    0    0    0 -0.00000000000E+00 -0.00000000000E+00 -0.45593999997E+02  0.45594000000E+02  0.51100000000E-03 0.  1.
    9900012    2    1    2    0    0 -0.26041107811E+02 -0.43111110338E+01 -0.30926437588E+02  0.50528812646E+02  0.29999856519E+02 0.  0.
         12    1    1    2    0    0  0.26041107811E+02  0.43111110338E+01  0.30926437588E+02  0.40659187354E+02  0.00000000000E+00 0. -1.
         11    1    3    3    0    0 -0.16405733083E+02 -0.80043971813E+01 -0.81052961674E+01  0.19972838517E+02  0.51100000000E-03 0. -1.
        -11    1    3    3    0    0 -0.94148176812E+00  0.96993480421E+00 -0.21271812006E+02  0.21314716694E+02  0.51100000000E-03 0.  1.
         12    1    3    3    0    0 -0.86938929605E+01  0.27233513433E+01 -0.15493294142E+01  0.92412574351E+01  0.00000000000E+00 0. -1.
</event>
<event>
 7    1  0.5897985E-013  0.5052886E+02  0.7816164E-02  0.1300439E+00
        -11   -1    0    0    0    0  0.00000000000E+00  0.00000000000E+00  0.45593999997E+02  0.45594000000E+02  0.51100000000E-03 0.  1.
         11   -1    0    0    0    0 -0.00000000000E+00 -0.00000000000E+00 -0.45593999997E+02  0.45594000000E+02  0.51100000000E-03 0. -1.
    9900012    2    1    2    0    0  0.37702331440E+02  0.14568654331E+02  0.44106819310E+01  0.50528860805E+02  0.30000002901E+02 0.  0.
         12    1    1    2    0    0 -0.37702331440E+02 -0.14568654331E+02 -0.44106819310E+01  0.40659139195E+02  0.00000000000E+00 0. -1.
         11    1    3    3    0    0 -0.36760549445E+01 -0.93163184283E+00  0.10552026704E+01  0.39363397697E+01  0.51100000000E-03 0. -1.
        -11    1    3    3    0    0  0.25001722929E+02  0.11516216333E+02  0.87700143648E+01  0.28889834549E+02  0.51100000000E-03 0.  1.
        -12    1    3    3    0    0  0.16376663455E+02  0.39840698415E+01 -0.54145351042E+01  0.17702686486E+02  0.00000000000E+00 0.  1.
</event>
<event>
 7    1  0.5897985E-013  0.5052884E+02  0.7816164E-02  0.1300439E+00
        -11   -1    0    0    0    0  0.00000000000E+00  0.00000000000E+00  0.45593999997E+02  0.45594000000E+02  0.51100000000E-03 0.  1.
         11   -1    0    0    0    0 -0.00000000000E+00 -0.00000000000E+00 -0.45593999997E+02  0.45594000000E+02  0.51100000000E-03 0. -1.
    9900012    2    1    2    0    0 -0.73000416162E+01 -0.24461870449E+02  0.31646381595E+02  0.50528841357E+02  0.29999943790E+02 0.  0.
         12    1    1    2    0    0  0.73000416162E+01  0.24461870449E+02 -0.31646381595E+02  0.40659158643E+02  0.00000000000E+00 0. -1.
         11    1    3    3    0    0 -0.11843493733E+02 -0.11846723988E+02  0.13778584782E+02  0.21690150113E+02  0.51100000000E-03 0. -1.
        -11    1    3    3    0    0  0.10123292743E+02 -0.10449428768E+02  0.63824828981E+01  0.15887344201E+02  0.51100000000E-03 0.  1.
        -12    1    3    3    0    0 -0.55798406260E+01 -0.21657176929E+01  0.11485313915E+02  0.12951347044E+02  0.00000000000E+00 0.  1.
</event>
<event>
 7    1  0.5897985E-013  0.5052888E+02  0.7816164E-02  0.1300439E+00
        -11   -1    0    0    0    0  0.00000000000E+00  0.00000000000E+00  0.45593999997E+02  0.45594000000E+02  0.51100000000E-03 0.  1.
         11   -1    0    0    0    0 -0.00000000000E+00 -0.00000000000E+00 -0.45593999997E+02  0.45594000000E+02  0.51100000000E-03 0. -1.
    9900012    2    1    2    0    0 -0.33572670292E+02  0.15052278363E+02  0.17305164625E+02  0.50528880517E+02  0.30000062820E+02 0.  0.
         12    1    1    2    0    0  0.33572670292E+02 -0.15052278363E+02 -0.17305164625E+02  0.40659119483E+02  0.00000000000E+00 0. -1.
         11    1    3    3    0    0 -0.83844452319E+01  0.15947746740E+02  0.43949059019E+01  0.18545747385E+02  0.51100000000E-03 0. -1.
        -11    1    3    3    0    0 -0.24583058539E+02 -0.24119921096E+01  0.15324467675E+02  0.29068604763E+02  0.51100000000E-03 0.  1.
         12    1    3    3    0    0 -0.60516652120E+00  0.15165237324E+01 -0.24142089526E+01  0.29145283694E+01  0.00000000000E+00 0. -1.
</event>
<event>
 7    1  0.5897985E-013  0.5052887E+02  0.7816164E-02  0.1300439E+00
        -11   -1    0    0    0    0  0.00000000000E+00  0.00000000000E+00  0.45593999997E+02  0.45594000000E+02  0.51100000000E-03 0.  1.
         11   -1    0    0    0    0 -0.00000000000E+00 -0.00000000000E+00 -0.45593999997E+02  0.45594000000E+02  0.51100000000E-03 0. -1.
    9900012    2    1    2    0    0  0.12964442294E+01  0.11926186059E+02  0.38849073895E+02  0.50528865429E+02  0.30000016958E+02 0.  0.
         12    1    1    2    0    0 -0.12964442294E+01 -0.11926186059E+02 -0.38849073895E+02  0.40659134571E+02  0.00000000000E+00 0. -1.
         11    1    3    3    0    0  0.13665411242E+02  0.26710238387E+01  0.17940850329E+02  0.22710172688E+02  0.51100000000E-03 0.  1.
        -11    1    3    3    0    0 -0.10584086843E+02  0.30074847896E+01  0.16956834042E+02  0.20213908085E+02  0.51100000000E-03 0. -1.
         12    1    3    3    0    0 -0.17848801690E+01  0.62476774303E+01  0.39513895248E+01  0.76047846563E+01  0.00000000000E+00 0. -1.
</event>
<event>
 7    1  0.5897985E-013  0.5052886E+02  0.7816164E-02  0.1300439E+00
        -11   -1    0    0    0    0  0.00000000000E+00  0.00000000000E+00  0.45593999997E+02  0.45594000000E+02  0.51100000000E-03 0.  1.
         11   -1    0    0    0    0 -0.00000000000E+00 -0.00000000000E+00 -0.45593999997E+02  0.45594000000E+02  0.51100000000E-03 0. -1.
    9900012    2    1    2    0    0 -0.33280555825E+02  0.23052597712E+02  0.37614031818E+01  0.50528858209E+02  0.29999995013E+02 0.  0.
         12    1    1    2    0    0  0.33280555825E+02 -0.23052597712E+02 -0.37614031818E+01  0.40659141791E+02  0.00000000000E+00 0. -1.
         11    1    3    3    0    0 -0.26877045507E+02  0.45552884969E+01  0.35348683222E+01  0.27488570767E+02  0.51100000000E-03 0. -1.
        -11    1    3    3    0    0 -0.26269342282E+00  0.14771708976E+02  0.34437213323E+01  0.15170089346E+02  0.51100000000E-03 0.  1.
         12    1    3    3    0    0 -0.61408168945E+01  0.37256002391E+01 -0.32171864727E+01  0.78701980962E+01  0.00000000000E+00 0. -1.
</event>
<event>
 7    1  0.5897985E-013  0.5052887E+02  0.7816164E-02  0.1300439E+00
        -11   -1    0    0    0    0  0.00000000000E+00  0.00000000000E+00  0.45593999997E+02  0.45594000000E+02  0.51100000000E-03 0. -1.
         11   -1    0    0    0    0 -0.00000000000E+00 -0.00000000000E+00 -0.45593999997E+02  0.45594000000E+02  0.51100000000E-03 0.  1.
    9900012    2    1    2    0    0  0.17449946172E+02  0.24746652451E+02 -0.27134254491E+02  0.50528865777E+02  0.30000018017E+02 0.  0.
         12    1    1    2    0    0 -0.17449946172E+02 -0.24746652451E+02  0.27134254491E+02  0.40659134223E+02  0.00000000000E+00 0. -1.
         11    1    3    3    0    0  0.10338477713E+02 -0.15619000242E+01 -0.21974760124E+01  0.10684219868E+02  0.51100000000E-03 0. -1.
        -11    1    3    3    0    0  0.80898341800E+01  0.22139194041E+02 -0.12477290506E+02  0.26669685197E+02  0.51100000000E-03 0.  1.
         12    1    3    3    0    0 -0.97836572058E+00  0.41693584339E+01 -0.12459487973E+02  0.13174960713E+02  0.00000000000E+00 0. -1.
</event>
<event>
 7    1  0.5897985E-013  0.5052887E+02  0.7816164E-02  0.1300439E+00
        -11   -1    0    0    0    0  0.00000000000E+00  0.00000000000E+00  0.45593999997E+02  0.45594000000E+02  0.51100000000E-03 0. -1.
         11   -1    0    0    0    0 -0.00000000000E+00 -0.00000000000E+00 -0.45593999997E+02  0.45594000000E+02  0.51100000000E-03 0.  1.
    9900012    2    1    2    0    0  0.12368291559E+02 -0.31614398150E+02 -0.22376783262E+02  0.50528865287E+02  0.30000016526E+02 0.  0.
         12    1    1    2    0    0 -0.12368291559E+02  0.31614398150E+02  0.22376783262E+02  0.40659134713E+02  0.00000000000E+00 0. -1.
         11    1    3    3    0    0  0.86661710921E+01  0.23479745211E+01 -0.34175737109E+01  0.96070451274E+01  0.51100000000E-03 0. -1.
        -11    1    3    3    0    0  0.79597891151E+01 -0.24438496978E+02 -0.11883460672E+02  0.28316338307E+02  0.51100000000E-03 0.  1.
         12    1    3    3    0    0 -0.42576686483E+01 -0.95238756925E+01 -0.70757488796E+01  0.12605481852E+02  0.00000000000E+00 0. -1.
</event>
<event>
 7    1  0.5897985E-013  0.5052886E+02  0.7816164E-02  0.1300439E+00
        -11   -1    0    0    0    0  0.00000000000E+00  0.00000000000E+00  0.45593999997E+02  0.45594000000E+02  0.51100000000E-03 0. -1.
         11   -1    0    0    0    0 -0.00000000000E+00 -0.00000000000E+00 -0.45593999997E+02  0.45594000000E+02  0.51100000000E-03 0.  1.
    9900012    2    1    2    0    0 -0.27853233692E+02 -0.24904429815E+02 -0.16035344133E+02  0.50528861876E+02  0.30000006157E+02 0.  0.
         12    1    1    2    0    0  0.27853233692E+02  0.24904429815E+02  0.16035344133E+02  0.40659138124E+02  0.00000000000E+00 0. -1.
         11    1    3    3    0    0 -0.31304435384E+01  0.11320162314E+01  0.30685261639E+01  0.45273602215E+01  0.51100000000E-03 0. -1.
        -11    1    3    3    0    0 -0.16475097455E+02 -0.28301659507E+02 -0.18024903104E+02  0.37380608599E+02  0.51100000000E-03 0.  1.
        -12    1    3    3    0    0 -0.82476926983E+01  0.22652134606E+01 -0.10789671930E+01  0.86208930553E+01  0.00000000000E+00 0.  1.
</event>
<event>
 7    1  0.5897985E-013  0.5052886E+02  0.7816164E-02  0.1300439E+00
        -11   -1    0    0    0    0  0.00000000000E+00  0.00000000000E+00  0.45593999997E+02  0.45594000000E+02  0.51100000000E-03 0.  1.
         11   -1    0    0    0    0 -0.00000000000E+00 -0.00000000000E+00 -0.45593999997E+02  0.45594000000E+02  0.51100000000E-03 0. -1.
    9900012    2    1    2    0    0 -0.34863868741E+02 -0.10258540524E+02  0.18232899464E+02  0.50528860558E+02  0.30000002152E+02 0.  0.
         12    1    1    2    0    0  0.34863868741E+02  0.10258540524E+02 -0.18232899464E+02  0.40659139442E+02  0.00000000000E+00 0. -1.
         11    1    3    3    0    0 -0.20521596275E+01 -0.12389294971E+02  0.30982310375E+01  0.12934644365E+02  0.51100000000E-03 0. -1.
        -11    1    3    3    0    0 -0.13104165738E+02  0.56866951454E+01  0.48791459793E+01  0.15095155750E+02  0.51100000000E-03 0.  1.
        -12    1    3    3    0    0 -0.19707543376E+02 -0.35559406986E+01  0.10255522447E+02  0.22499060443E+02  0.00000000000E+00 0.  1.
</event>
<event>
 7    1  0.5897985E-013  0.5052886E+02  0.7816164E-02  0.1300439E+00
        -11   -1    0    0    0    0  0.00000000000E+00  0.00000000000E+00  0.45593999997E+02  0.45594000000E+02  0.51100000000E-03 0.  1.
         11   -1    0    0    0    0 -0.00000000000E+00 -0.00000000000E+00 -0.45593999997E+02  0.45594000000E+02  0.51100000000E-03 0. -1.
    9900012    2    1    2    0    0 -0.24714909207E+02  0.31645952034E+02  0.63931771596E+01  0.50528859189E+02  0.29999997991E+02 0.  0.
         12    1    1    2    0    0  0.24714909207E+02 -0.31645952034E+02 -0.63931771596E+01  0.40659140811E+02  0.00000000000E+00 0. -1.
         11    1    3    3    0    0  0.13400465515E+01  0.42424046995E+00 -0.36300610974E+01  0.38926916868E+01  0.51100000000E-03 0. -1.
        -11    1    3    3    0    0 -0.25035045042E+02  0.32219082219E+02  0.13419591897E+02  0.42952394417E+02  0.51100000000E-03 0.  1.
        -12    1    3    3    0    0 -0.10199107168E+01 -0.99737065400E+00 -0.33963536401E+01  0.36837730848E+01  0.00000000000E+00 0.  1.
</event>
<event>
 7    1  0.5897985E-013  0.5052878E+02  0.7816164E-02  0.1300439E+00
        -11   -1    0    0    0    0  0.00000000000E+00  0.00000000000E+00  0.45593999997E+02  0.45594000000E+02  0.51100000000E-03 0.  1.
         11   -1    0    0    0    0 -0.00000000000E+00 -0.00000000000E+00 -0.45593999997E+02  0.45594000000E+02  0.51100000000E-03 0. -1.
    9900012    2    1    2    0    0  0.18350639009E+02 -0.60697062890E+01  0.35771287122E+02  0.50528778797E+02  0.29999753630E+02 0.  0.
         12    1    1    2    0    0 -0.18350639009E+02  0.60697062890E+01 -0.35771287122E+02  0.40659221203E+02  0.00000000000E+00 0. -1.
         11    1    3    3    0    0  0.52468832099E+00  0.31698956661E+01  0.48085795300E+00  0.32488091665E+01  0.51100000000E-03 0. -1.
        -11    1    3    3    0    0  0.23271479729E+02 -0.54613248913E+01  0.22272421352E+02  0.32671831774E+02  0.51100000000E-03 0.  1.
        -12    1    3    3    0    0 -0.54455290408E+01 -0.37782770638E+01  0.13018007817E+02  0.14608137856E+02  0.00000000000E+00 0.  1.
</event>
<event>
 7    1  0.5897985E-013  0.5052886E+02  0.7816164E-02  0.1300439E+00
        -11   -1    0    0    0    0  0.00000000000E+00  0.00000000000E+00  0.45593999997E+02  0.45594000000E+02  0.51100000000E-03 0.  1.
         11   -1    0    0    0    0 -0.00000000000E+00 -0.00000000000E+00 -0.45593999997E+02  0.45594000000E+02  0.51100000000E-03 0. -1.
    9900012    2    1    2    0    0  0.50317168615E+01  0.21960065101E+02  0.33846760517E+02  0.50528857961E+02  0.29999994259E+02 0.  0.
         12    1    1    2    0    0 -0.50317168615E+01 -0.21960065101E+02 -0.33846760517E+02  0.40659142039E+02  0.00000000000E+00 0. -1.
         11    1    3    3    0    0  0.14416374081E+02  0.43610025837E+01  0.17457080794E+02  0.23056449321E+02  0.51100000000E-03 0. -1.
        -11    1    3    3    0    0 -0.45183852443E+01  0.14997937301E+02  0.84327295969E+01  0.17789459160E+02  0.51100000000E-03 0.  1.
         12    1    3    3    0    0 -0.48662719751E+01  0.26011252169E+01  0.79569501265E+01  0.96829494807E+01  0.00000000000E+00 0. -1.
</event>
<event>
 7    1  0.5897985E-013  0.5052886E+02  0.7816164E-02  0.1300439E+00
        -11   -1    0    0    0    0  0.00000000000E+00  0.00000000000E+00  0.45593999997E+02  0.45594000000E+02  0.51100000000E-03 0. -1.
         11   -1    0    0    0    0 -0.00000000000E+00 -0.00000000000E+00 -0.45593999997E+02  0.45594000000E+02  0.51100000000E-03 0.  1.
    9900012    2    1    2    0    0  0.28668238129E+02 -0.24242305286E+02 -0.15607965494E+02  0.50528857980E+02  0.29999994315E+02 0.  0.
         12    1    1    2    0    0 -0.28668238129E+02  0.24242305286E+02  0.15607965494E+02  0.40659142020E+02  0.00000000000E+00 0. -1.
         11    1    3    3    0    0  0.14821491939E+01 -0.19217249954E+02 -0.47309013003E+01  0.19846432662E+02  0.51100000000E-03 0. -1.
        -11    1    3    3    0    0  0.19102040746E+02 -0.15509338408E+00 -0.57886658394E+01  0.19960477627E+02  0.51100000000E-03 0.  1.
         12    1    3    3    0    0  0.80840481885E+01 -0.48699619478E+01 -0.50883983543E+01  0.10721947692E+02  0.00000000000E+00 0. -1.
</event>
<event>
 7    1  0.5897985E-013  0.5052895E+02  0.7816164E-02  0.1300438E+00
        -11   -1    0    0    0    0  0.00000000000E+00  0.00000000000E+00  0.45593999997E+02  0.45594000000E+02  0.51100000000E-03 0.  1.
         11   -1    0    0    0    0 -0.00000000000E+00 -0.00000000000E+00 -0.45593999997E+02  0.45594000000E+02  0.51100000000E-03 0. -1.
    9900012    2    1    2    0    0  0.17318555963E+02  0.27739602011E+02  0.24160716475E+02  0.50528952779E+02  0.30000282465E+02 0.  0.
         12    1    1    2    0    0 -0.17318555963E+02 -0.27739602011E+02 -0.24160716475E+02  0.40659047221E+02  0.00000000000E+00 0. -1.
         11    1    3    3    0    0  0.47404704491E+01  0.51619401543E+01  0.31927081463E+01  0.77013681774E+01  0.51100000000E-03 0. -1.
        -11    1    3    3    0    0  0.10232796599E+02  0.37640113662E+01  0.21230448682E+02  0.23866500776E+02  0.51100000000E-03 0.  1.
        -12    1    3    3    0    0  0.23452889150E+01  0.18813650491E+02 -0.26244035388E+00  0.18961083825E+02  0.00000000000E+00 0.  1.
</event>
<event>
 7    1  0.5897985E-013  0.5052886E+02  0.7816164E-02  0.1300439E+00
        -11   -1    0    0    0    0  0.00000000000E+00  0.00000000000E+00  0.45593999997E+02  0.45594000000E+02  0.51100000000E-03 0.  1.
         11   -1    0    0    0    0 -0.00000000000E+00 -0.00000000000E+00 -0.45593999997E+02  0.45594000000E+02  0.51100000000E-03 0. -1.
    9900012    2    1    2    0    0  0.24346825936E+02 -0.28089005579E+02 -0.16474394978E+02  0.50528857640E+02  0.29999993282E+02 0.  0.
         12    1    1    2    0    0 -0.24346825936E+02  0.28089005579E+02  0.16474394978E+02  0.40659142360E+02  0.00000000000E+00 0. -1.
         11    1    3    3    0    0  0.75408509106E+01  0.15655930203E+01  0.18002361515E+01  0.79092581462E+01  0.51100000000E-03 0. -1.
        -11    1    3    3    0    0  0.72521105549E+01 -0.16486790513E+02 -0.19198607592E+02  0.26324777352E+02  0.51100000000E-03 0.  1.
        -12    1    3    3    0    0  0.95538644710E+01 -0.13167808086E+02  0.92397646231E+00  0.16294822141E+02  0.00000000000E+00 0.  1.
</event>
<event>
 7    1  0.5897985E-013  0.5052886E+02  0.7816164E-02  0.1300439E+00
        -11   -1    0    0    0    0  0.00000000000E+00  0.00000000000E+00  0.45593999997E+02  0.45594000000E+02  0.51100000000E-03 0. -1.
         11   -1    0    0    0    0 -0.00000000000E+00 -0.00000000000E+00 -0.45593999997E+02  0.45594000000E+02  0.51100000000E-03 0.  1.
    9900012    2    1    2    0    0 -0.29559470160E+02  0.27358589047E+02 -0.55597998120E+01  0.50528855337E+02  0.29999986284E+02 0.  0.
         12    1    1    2    0    0  0.29559470160E+02 -0.27358589047E+02  0.55597998120E+01  0.40659144663E+02  0.00000000000E+00 0. -1.
         11    1    3    3    0    0 -0.41119694754E+01 -0.45874131025E+01  0.42764287855E+01  0.74993663304E+01  0.51100000000E-03 0. -1.
        -11    1    3    3    0    0 -0.25515257690E+02  0.32484440562E+02 -0.99171992013E+01  0.42480796766E+02  0.51100000000E-03 0.  1.
        -12    1    3    3    0    0  0.67757005518E-01 -0.53843841318E+00  0.80970603787E-01  0.54869224093E+00  0.00000000000E+00 0.  1.
</event>
<event>
 7    1  0.5897985E-013  0.5052888E+02  0.7816164E-02  0.1300439E+00
        -11   -1    0    0    0    0  0.00000000000E+00  0.00000000000E+00  0.45593999997E+02  0.45594000000E+02  0.51100000000E-03 0. -1.
         11   -1    0    0    0    0 -0.00000000000E+00 -0.00000000000E+00 -0.45593999997E+02  0.45594000000E+02  0.51100000000E-03 0.  1.
    9900012    2    1    2    0    0  0.11560609641E+02 -0.11055752108E+02 -0.37380294650E+02  0.50528883211E+02  0.30000071008E+02 0.  0.
         12    1    1    2    0    0 -0.11560609641E+02  0.11055752108E+02  0.37380294650E+02  0.40659116789E+02  0.00000000000E+00 0. -1.
         11    1    3    3    0    0  0.40726845513E+01  0.13604691268E+01  0.19958352957E+01  0.47350812547E+01  0.51100000000E-03 0. -1.
        -11    1    3    3    0    0  0.71294482112E+01  0.16246603165E+01 -0.23427472444E+02  0.24542107047E+02  0.51100000000E-03 0.  1.
        -12    1    3    3    0    0  0.35847687887E+00 -0.14040881551E+02 -0.15948657502E+02  0.21251694910E+02  0.00000000000E+00 0.  1.
</event>
<event>
 7    1  0.5897985E-013  0.5052891E+02  0.7816164E-02  0.1300439E+00
        -11   -1    0    0    0    0  0.00000000000E+00  0.00000000000E+00  0.45593999997E+02  0.45594000000E+02  0.51100000000E-03 0.  1.
         11   -1    0    0    0    0 -0.00000000000E+00 -0.00000000000E+00 -0.45593999997E+02  0.45594000000E+02  0.51100000000E-03 0. -1.
    9900012    2    1    2    0    0  0.32663302790E+02 -0.23793711416E+02  0.44866220849E+01  0.50528907169E+02  0.30000143831E+02 0.  0.
         12    1    1    2    0    0 -0.32663302790E+02  0.23793711416E+02 -0.44866220849E+01  0.40659092831E+02  0.00000000000E+00 0. -1.
         11    1    3    3    0    0  0.64248046249E+00 -0.15380364683E+02  0.53172973150E+00  0.15402958667E+02  0.51100000000E-03 0. -1.
        -11    1    3    3    0    0  0.17919405840E+02 -0.27046027197E+01 -0.30505846185E+01  0.18377324297E+02  0.51100000000E-03 0.  1.
        -12    1    3    3    0    0  0.14101416487E+02 -0.57087440131E+01  0.70054769719E+01  0.16748624205E+02  0.00000000000E+00 0.  1.
</event>
<event>
 7    1  0.5897985E-013  0.5052886E+02  0.7816164E-02  0.1300439E+00
        -11   -1    0    0    0    0  0.00000000000E+00  0.00000000000E+00  0.45593999997E+02  0.45594000000E+02  0.51100000000E-03 0.  1.
         11   -1    0    0    0    0 -0.00000000000E+00 -0.00000000000E+00 -0.45593999997E+02  0.45594000000E+02  0.51100000000E-03 0. -1.
    9900012    2    1    2    0    0 -0.38071641454E+02 -0.13385663444E+02 -0.49537665387E+01  0.50528859923E+02  0.30000000223E+02 0.  0.
         12    1    1    2    0    0  0.38071641454E+02  0.13385663444E+02  0.49537665387E+01  0.40659140077E+02  0.00000000000E+00 0. -1.
         11    1    3    3    0    0 -0.26009623325E+02  0.20668955687E+01  0.43877464136E+00  0.26095307743E+02  0.51100000000E-03 0. -1.
        -11    1    3    3    0    0  0.26781046309E+01 -0.22150739091E+01  0.99935915725E+00  0.36162848094E+01  0.51100000000E-03 0.  1.
         12    1    3    3    0    0 -0.14740122761E+02 -0.13237485103E+02 -0.63919003374E+01  0.20817267371E+02  0.00000000000E+00 0. -1.
</event>
<event>
 7    1  0.5897985E-013  0.5052886E+02  0.7816164E-02  0.1300439E+00
        -11   -1    0    0    0    0  0.00000000000E+00  0.00000000000E+00  0.45593999997E+02  0.45594000000E+02  0.51100000000E-03 0.  1.
         11   -1    0    0    0    0 -0.00000000000E+00 -0.00000000000E+00 -0.45593999997E+02  0.45594000000E+02  0.51100000000E-03 0. -1.
    9900012    2    1    2    0    0 -0.28408606157E+02  0.66510201204E+01  0.28317500210E+02  0.50528858462E+02  0.29999995782E+02 0.  0.
         12    1    1    2    0    0  0.28408606157E+02 -0.66510201204E+01 -0.28317500210E+02  0.40659141538E+02  0.00000000000E+00 0. -1.
         11    1    3    3    0    0 -0.30113453595E+00  0.40845334156E+01  0.15839455431E+02  0.16360392534E+02  0.51100000000E-03 0. -1.
        -11    1    3    3    0    0 -0.25489399094E+02  0.14014255236E+01  0.48028567370E+01  0.25975775114E+02  0.51100000000E-03 0.  1.
        -12    1    3    3    0    0 -0.26180725271E+01  0.11650611813E+01  0.76751880416E+01  0.81926908148E+01  0.00000000000E+00 0.  1.
</event>
<event>
 7    1  0.5897985E-013  0.5052885E+02  0.7816164E-02  0.1300439E+00
        -11   -1    0    0    0    0  0.00000000000E+00  0.00000000000E+00  0.45593999997E+02  0.45594000000E+02  0.51100000000E-03 0. -1.
         11   -1    0    0    0    0 -0.00000000000E+00 -0.00000000000E+00 -0.45593999997E+02  0.45594000000E+02  0.51100000000E-03 0.  1.
    9900012    2    1    2    0    0 -0.19731759207E+01 -0.15534538313E+02 -0.37522678480E+02  0.50528847228E+02  0.29999961635E+02 0.  0.
         12    1    1    2    0    0  0.19731759207E+01  0.15534538313E+02  0.37522678480E+02  0.40659152772E+02  0.00000000000E+00 0. -1.
         11    1    3    3    0    0  0.24075133052E+01  0.42978258673E+01 -0.35995283534E+01  0.61011500660E+01  0.51100000000E-03 0. -1.
        -11    1    3    3    0    0 -0.28523048887E+00 -0.21779876343E+02 -0.19247490770E+02  0.29067340283E+02  0.51100000000E-03 0.  1.
        -12    1    3    3    0    0 -0.40954587370E+01  0.19475121634E+01 -0.14675659357E+02  0.15360356879E+02  0.00000000000E+00 0.  1.
</event>
<event>
 7    1  0.5897985E-013  0.5052886E+02  0.7816164E-02  0.1300439E+00
        -11   -1    0    0    0    0  0.00000000000E+00  0.00000000000E+00  0.45593999997E+02  0.45594000000E+02  0.51100000000E-03 0.  1.
         11   -1    0    0    0    0 -0.00000000000E+00 -0.00000000000E+00 -0.45593999997E+02  0.45594000000E+02  0.51100000000E-03 0. -1.
    9900012    2    1    2    0    0  0.11412584673E+02 -0.35160233404E+02  0.16931515493E+02  0.50528864264E+02  0.30000013416E+02 0.  0.
         12    1    1    2    0    0 -0.11412584673E+02  0.35160233404E+02 -0.16931515493E+02  0.40659135736E+02  0.00000000000E+00 0. -1.
         11    1    3    3    0    0  0.50000156625E+01 -0.11832095361E+02  0.53390025463E+01  0.13910556628E+02  0.51100000000E-03 0. -1.
        -11    1    3    3    0    0 -0.58819520741E+01 -0.83829286710E+01 -0.47499979599E+01  0.11288637393E+02  0.51100000000E-03 0.  1.
        -12    1    3    3    0    0  0.12294521085E+02 -0.14945209372E+02  0.16342510907E+02  0.25329670243E+02  0.00000000000E+00 0.  1.
</event>
<event>
 7    1  0.5897985E-013  0.5052888E+02  0.7816164E-02  0.1300439E+00
        -11   -1    0    0    0    0  0.00000000000E+00  0.00000000000E+00  0.45593999997E+02  0.45594000000E+02  0.51100000000E-03 0.  1.
         11   -1    0    0    0    0 -0.00000000000E+00 -0.00000000000E+00 -0.45593999997E+02  0.45594000000E+02  0.51100000000E-03 0. -1.
    9900012    2    1    2    0    0  0.29619276064E+02  0.21881530474E+02  0.17235468335E+02  0.50528877295E+02  0.30000053025E+02 0.  0.
         12    1    1    2    0    0 -0.29619276064E+02 -0.21881530474E+02 -0.17235468335E+02  0.40659122705E+02  0.00000000000E+00 0. -1.
         11    1    3    3    0    0 -0.26622856241E+01 -0.32329152841E+01  0.90328742019E+00  0.42843242644E+01  0.51100000000E-03 0. -1.
        -11    1    3    3    0    0  0.18675421161E+02  0.17044729590E+02  0.16904933165E+02  0.30414978677E+02  0.51100000000E-03 0.  1.
         12    1    3    3    0    0  0.13606140527E+02  0.80697161683E+01 -0.57275225061E+00  0.15829574353E+02  0.00000000000E+00 0. -1.
</event>
<event>
 7    1  0.5897985E-013  0.5052885E+02  0.7816164E-02  0.1300439E+00
        -11   -1    0    0    0    0  0.00000000000E+00  0.00000000000E+00  0.45593999997E+02  0.45594000000E+02  0.51100000000E-03 0.  1.
         11   -1    0    0    0    0 -0.00000000000E+00 -0.00000000000E+00 -0.45593999997E+02  0.45594000000E+02  0.51100000000E-03 0. -1.
    9900012    2    1    2    0    0  0.70652671101E+01  0.38800276737E+02  0.98887260100E+01  0.50528851259E+02  0.29999973887E+02 0.  0.
         12    1    1    2    0    0 -0.70652671101E+01 -0.38800276737E+02 -0.98887260100E+01  0.40659148741E+02  0.00000000000E+00 0. -1.
         11    1    3    3    0    0 -0.16295361390E+01 -0.22719843806E+01  0.55135608291E+01  0.61819620131E+01  0.51100000000E-03 0. -1.
        -11    1    3    3    0    0  0.66499425528E+01  0.14500103877E+02  0.72865172971E+01  0.17537619079E+02  0.51100000000E-03 0.  1.
        -12    1    3    3    0    0  0.20448606962E+01  0.26572157241E+02 -0.29113521162E+01  0.26809270167E+02  0.00000000000E+00 0.  1.
</event>
<event>
 7    1  0.5897985E-013  0.5052885E+02  0.7816164E-02  0.1300439E+00
        -11   -1    0    0    0    0  0.00000000000E+00  0.00000000000E+00  0.45593999997E+02  0.45594000000E+02  0.51100000000E-03 0. -1.
         11   -1    0    0    0    0 -0.00000000000E+00 -0.00000000000E+00 -0.45593999997E+02  0.45594000000E+02  0.51100000000E-03 0.  1.
    9900012    2    1    2    0    0 -0.37346523651E+02  0.14581009675E+02 -0.67674374875E+01  0.50528845039E+02  0.29999954980E+02 0.  0.
         12    1    1    2    0    0  0.37346523651E+02 -0.14581009675E+02  0.67674374875E+01  0.40659154961E+02  0.00000000000E+00 0. -1.
         11    1    3    3    0    0  0.33683318147E+01  0.19862932646E+01  0.31967267680E+01  0.50507506806E+01  0.51100000000E-03 0. -1.
        -11    1    3    3    0    0 -0.89847945498E+01  0.46625623663E+01 -0.76531755832E+01  0.12690040098E+02  0.51100000000E-03 0.  1.
         12    1    3    3    0    0 -0.31730060916E+02  0.79321540444E+01 -0.23109886724E+01  0.32788054260E+02  0.00000000000E+00 0. -1.
</event>
<event>
 7    1  0.5897985E-013  0.5052886E+02  0.7816164E-02  0.1300439E+00
        -11   -1    0    0    0    0  0.00000000000E+00  0.00000000000E+00  0.45593999997E+02  0.45594000000E+02  0.51100000000E-03 0.  1.
         11   -1    0    0    0    0 -0.00000000000E+00 -0.00000000000E+00 -0.45593999997E+02  0.45594000000E+02  0.51100000000E-03 0. -1.
    9900012    2    1    2    0    0 -0.57621874174E+01  0.12761588209E+02  0.38172039406E+02  0.50528861669E+02  0.30000005528E+02 0.  0.
         12    1    1    2    0    0  0.57621874174E+01 -0.12761588209E+02 -0.38172039406E+02  0.40659138331E+02  0.00000000000E+00 0. -1.
         11    1    3    3    0    0 -0.56357607633E+01  0.12345776155E+02  0.31187480734E+01  0.13925034221E+02  0.51100000000E-03 0. -1.
        -11    1    3    3    0    0 -0.34147398790E+01  0.28877306271E+01  0.28622741451E+02  0.28969997671E+02  0.51100000000E-03 0.  1.
         12    1    3    3    0    0  0.32883132249E+01 -0.24719185723E+01  0.64305498809E+01  0.76338297770E+01  0.00000000000E+00 0. -1.
</event>
<event>
 7    1  0.5897985E-013  0.5052886E+02  0.7816164E-02  0.1300439E+00
        -11   -1    0    0    0    0  0.00000000000E+00  0.00000000000E+00  0.45593999997E+02  0.45594000000E+02  0.51100000000E-03 0.  1.
         11   -1    0    0    0    0 -0.00000000000E+00 -0.00000000000E+00 -0.45593999997E+02  0.45594000000E+02  0.51100000000E-03 0. -1.
    9900012    2    1    2    0    0  0.23484965191E+01 -0.24806362045E+02 -0.32129339702E+02  0.50528861993E+02  0.30000006514E+02 0.  0.
         12    1    1    2    0    0 -0.23484965191E+01  0.24806362045E+02  0.32129339702E+02  0.40659138007E+02  0.00000000000E+00 0. -1.
         11    1    3    3    0    0 -0.46657188547E+01 -0.15874084742E+01 -0.23912530801E+02  0.24415116786E+02  0.51100000000E-03 0. -1.
        -11    1    3    3    0    0  0.74322252271E+01 -0.17084022729E+02 -0.58989338317E+01  0.19542242068E+02  0.51100000000E-03 0.  1.
        -12    1    3    3    0    0 -0.41800985336E+00 -0.61349308421E+01 -0.23178750685E+01  0.65715031392E+01  0.00000000000E+00 0.  1.
</event>
<event>
 7    1  0.5897985E-013  0.5052885E+02  0.7816164E-02  0.1300439E+00
        -11   -1    0    0    0    0  0.00000000000E+00  0.00000000000E+00  0.45593999997E+02  0.45594000000E+02  0.51100000000E-03 0. -1.
         11   -1    0    0    0    0 -0.00000000000E+00 -0.00000000000E+00 -0.45593999997E+02  0.45594000000E+02  0.51100000000E-03 0.  1.
    9900012    2    1    2    0    0 -0.15210874088E+02 -0.35150015449E+02 -0.13648145138E+02  0.50528854137E+02  0.29999982635E+02 0.  0.
         12    1    1    2    0    0  0.15210874088E+02  0.35150015449E+02  0.13648145138E+02  0.40659145863E+02  0.00000000000E+00 0. -1.
         11    1    3    3    0    0 -0.20519839484E+01 -0.14195155469E+02  0.67776018147E+01  0.15863447404E+02  0.51100000000E-03 0. -1.
        -11    1    3    3    0    0 -0.13842124535E+02 -0.10713762650E+02 -0.10639694629E+02  0.20483950396E+02  0.51100000000E-03 0.  1.
        -12    1    3    3    0    0  0.68323439629E+00 -0.10241097331E+02 -0.97860523234E+01  0.14181456337E+02  0.00000000000E+00 0.  1.
</event>
<event>
 7    1  0.5897985E-013  0.5052886E+02  0.7816164E-02  0.1300439E+00
        -11   -1    0    0    0    0  0.00000000000E+00  0.00000000000E+00  0.45593999997E+02  0.45594000000E+02  0.51100000000E-03 0. -1.
         11   -1    0    0    0    0 -0.00000000000E+00 -0.00000000000E+00 -0.45593999997E+02  0.45594000000E+02  0.51100000000E-03 0.  1.
    9900012    2    1    2    0    0  0.21684236446E+02 -0.27450681770E+02 -0.20722435635E+02  0.50528863529E+02  0.30000011184E+02 0.  0.
         12    1    1    2    0    0 -0.21684236446E+02  0.27450681770E+02  0.20722435635E+02  0.40659136471E+02  0.00000000000E+00 0. -1.
         11    1    3    3    0    0 -0.55072982585E+01 -0.12702485956E+02 -0.16148822247E+01  0.13938842435E+02  0.51100000000E-03 0. -1.
        -11    1    3    3    0    0  0.20587077887E+02 -0.12226151277E+02 -0.12987318643E+02  0.27239254703E+02  0.51100000000E-03 0.  1.
         12    1    3    3    0    0  0.66044568181E+01 -0.25220445376E+01 -0.61202347666E+01  0.93507663916E+01  0.00000000000E+00 0. -1.
</event>
<event>
 7    1  0.5897985E-013  0.5052887E+02  0.7816164E-02  0.1300439E+00
        -11   -1    0    0    0    0  0.00000000000E+00  0.00000000000E+00  0.45593999997E+02  0.45594000000E+02  0.51100000000E-03 0.  1.
         11   -1    0    0    0    0 -0.00000000000E+00 -0.00000000000E+00 -0.45593999997E+02  0.45594000000E+02  0.51100000000E-03 0. -1.
    9900012    2    1    2    0    0  0.35137815751E+02  0.14547864108E+02  0.14382580003E+02  0.50528867528E+02  0.30000023338E+02 0.  0.
         12    1    1    2    0    0 -0.35137815751E+02 -0.14547864108E+02 -0.14382580003E+02  0.40659132472E+02  0.00000000000E+00 0. -1.
         11    1    3    3    0    0  0.94835552872E+01  0.56021596366E+01  0.16820769075E+02  0.20106225056E+02  0.51100000000E-03 0. -1.
        -11    1    3    3    0    0  0.16724427030E+02  0.61696715522E+01  0.49547459458E+01  0.18501913798E+02  0.51100000000E-03 0.  1.
         12    1    3    3    0    0  0.89298334337E+01  0.27760329192E+01 -0.73929350182E+01  0.11920728673E+02  0.00000000000E+00 0. -1.
</event>
<event>
 7    1  0.5897985E-013  0.5052897E+02  0.7816164E-02  0.1300438E+00
        -11   -1    0    0    0    0  0.00000000000E+00  0.00000000000E+00  0.45593999997E+02  0.45594000000E+02  0.51100000000E-03 0.  1.
         11   -1    0    0    0    0 -0.00000000000E+00 -0.00000000000E+00 -0.45593999997E+02  0.45594000000E+02  0.51100000000E-03 0. -1.
    9900012    2    1    2    0    0 -0.90470294348E+01 -0.22997907011E+02  0.32286285413E+02  0.50528970324E+02  0.30000335794E+02 0.  0.
         12    1    1    2    0    0  0.90470294348E+01  0.22997907011E+02 -0.32286285413E+02  0.40659029676E+02  0.00000000000E+00 0. -1.
         11    1    3    3    0    0 -0.16863127133E+02 -0.17372556259E+02  0.16175100408E+02  0.29117085039E+02  0.51100000000E-03 0. -1.
        -11    1    3    3    0    0  0.11867454664E+01 -0.24451536885E+01  0.13243894837E+02  0.13519907251E+02  0.51100000000E-03 0.  1.
         12    1    3    3    0    0  0.66293522322E+01 -0.31801970639E+01  0.28672901672E+01  0.78919780338E+01  0.00000000000E+00 0. -1.
</event>
<event>
 7    1  0.5897985E-013  0.5052888E+02  0.7816164E-02  0.1300439E+00
        -11   -1    0    0    0    0  0.00000000000E+00  0.00000000000E+00  0.45593999997E+02  0.45594000000E+02  0.51100000000E-03 0.  1.
         11   -1    0    0    0    0 -0.00000000000E+00 -0.00000000000E+00 -0.45593999997E+02  0.45594000000E+02  0.51100000000E-03 0. -1.
    9900012    2    1    2    0    0  0.36793309166E+02 -0.11094734418E+02 -0.13278691472E+02  0.50528875828E+02  0.30000048568E+02 0.  0.
         12    1    1    2    0    0 -0.36793309166E+02  0.11094734418E+02  0.13278691472E+02  0.40659124172E+02  0.00000000000E+00 0. -1.
         11    1    3    3    0    0  0.21533019924E+02 -0.30188158189E+01 -0.21077865404E+02  0.30283008541E+02  0.51100000000E-03 0. -1.
        -11    1    3    3    0    0  0.10154382061E+02 -0.13678166796E+01  0.45548467410E+01  0.11212895549E+02  0.51100000000E-03 0.  1.
        -12    1    3    3    0    0  0.51059071810E+01 -0.67081019194E+01  0.32443271911E+01  0.90329717383E+01  0.00000000000E+00 0.  1.
</event>
<event>
 7    1  0.5897985E-013  0.5052886E+02  0.7816164E-02  0.1300439E+00
        -11   -1    0    0    0    0  0.00000000000E+00  0.00000000000E+00  0.45593999997E+02  0.45594000000E+02  0.51100000000E-03 0.  1.
         11   -1    0    0    0    0 -0.00000000000E+00 -0.00000000000E+00 -0.45593999997E+02  0.45594000000E+02  0.51100000000E-03 0. -1.
    9900012    2    1    2    0    0  0.88103748124E+01  0.36129923691E+02  0.16436885159E+02  0.50528864692E+02  0.30000014718E+02 0.  0.
         12    1    1    2    0    0 -0.88103748124E+01 -0.36129923691E+02 -0.16436885159E+02  0.40659135308E+02  0.00000000000E+00 0. -1.
         11    1    3    3    0    0  0.75141943957E+01  0.48815520238E+01 -0.51506453456E+01  0.10335463962E+02  0.51100000000E-03 0. -1.
        -11    1    3    3    0    0  0.62844819917E+01  0.16485688310E+02  0.15429553996E+02  0.23438083748E+02  0.51100000000E-03 0.  1.
        -12    1    3    3    0    0 -0.49883015751E+01  0.14762683357E+02  0.61579765082E+01  0.16755316982E+02  0.00000000000E+00 0.  1.
</event>
<event>
 7    1  0.5897985E-013  0.5052886E+02  0.7816164E-02  0.1300439E+00
        -11   -1    0    0    0    0  0.00000000000E+00  0.00000000000E+00  0.45593999997E+02  0.45594000000E+02  0.51100000000E-03 0.  1.
         11   -1    0    0    0    0 -0.00000000000E+00 -0.00000000000E+00 -0.45593999997E+02  0.45594000000E+02  0.51100000000E-03 0. -1.
    9900012    2    1    2    0    0 -0.65114385254E+01 -0.13351861885E+02  0.37848309230E+02  0.50528861310E+02  0.30000004438E+02 0.  0.
         12    1    1    2    0    0  0.65114385254E+01  0.13351861885E+02 -0.37848309230E+02  0.40659138690E+02  0.00000000000E+00 0. -1.
         11    1    3    3    0    0 -0.36674571235E+01 -0.17102096296E+02  0.67898078119E+01  0.18762553927E+02  0.51100000000E-03 0. -1.
        -11    1    3    3    0    0 -0.79588927890E+00  0.38901145939E+01  0.13037326238E+02  0.13628584189E+02  0.51100000000E-03 0.  1.
         12    1    3    3    0    0 -0.20480921230E+01 -0.13988018273E+00  0.18021175180E+02  0.18137723195E+02  0.00000000000E+00 0. -1.
</event>
<event>
 7    1  0.5897985E-013  0.5052888E+02  0.7816164E-02  0.1300439E+00
        -11   -1    0    0    0    0  0.00000000000E+00  0.00000000000E+00  0.45593999997E+02  0.45594000000E+02  0.51100000000E-03 0.  1.
         11   -1    0    0    0    0 -0.00000000000E+00 -0.00000000000E+00 -0.45593999997E+02  0.45594000000E+02  0.51100000000E-03 0. -1.
    9900012    2    1    2    0    0  0.21999277510E+02 -0.30386933957E+02  0.15678969454E+02  0.50528879874E+02  0.30000060866E+02 0.  0.
         12    1    1    2    0    0 -0.21999277510E+02  0.30386933957E+02 -0.15678969454E+02  0.40659120126E+02  0.00000000000E+00 0. -1.
         11    1    3    3    0    0  0.13715723533E+02 -0.16916119757E+02 -0.53780478187E+01  0.22432110428E+02  0.51100000000E-03 0. -1.
        -11    1    3    3    0    0  0.42893331258E+01 -0.13454840380E+02  0.13436104050E+02  0.19492562700E+02  0.51100000000E-03 0.  1.
         12    1    3    3    0    0  0.39942208511E+01 -0.15973819682E-01  0.76209132231E+01  0.86042067458E+01  0.00000000000E+00 0. -1.
</event>
<event>
 7    1  0.5897985E-013  0.5052881E+02  0.7816164E-02  0.1300439E+00
        -11   -1    0    0    0    0  0.00000000000E+00  0.00000000000E+00  0.45593999997E+02  0.45594000000E+02  0.51100000000E-03 0.  1.
         11   -1    0    0    0    0 -0.00000000000E+00 -0.00000000000E+00 -0.45593999997E+02  0.45594000000E+02  0.51100000000E-03 0. -1.
    9900012    2    1    2    0    0  0.14365478948E+02 -0.27574161565E+02  0.26200543627E+02  0.50528808447E+02  0.29999843754E+02 0.  0.
         12    1    1    2    0    0 -0.14365478948E+02  0.27574161565E+02 -0.26200543627E+02  0.40659191553E+02  0.00000000000E+00 0. -1.
         11    1    3    3    0    0  0.80973784224E+01  0.34353477283E+00  0.35306647879E+01  0.88403137705E+01  0.51100000000E-03 0. -1.
        -11    1    3    3    0    0 -0.27124769254E+01 -0.17414378824E+02  0.21528038665E+02  0.27822195634E+02  0.51100000000E-03 0.  1.
        -12    1    3    3    0    0  0.89805774508E+01 -0.10503317513E+02  0.11418401745E+01  0.13866299042E+02  0.00000000000E+00 0.  1.
</event>
<event>
 7    1  0.5897985E-013  0.5052890E+02  0.7816164E-02  0.1300439E+00
        -11   -1    0    0    0    0  0.00000000000E+00  0.00000000000E+00  0.45593999997E+02  0.45594000000E+02  0.51100000000E-03 0.  1.
         11   -1    0    0    0    0 -0.00000000000E+00 -0.00000000000E+00 -0.45593999997E+02  0.45594000000E+02  0.51100000000E-03 0. -1.
    9900012    2    1    2    0    0  0.20356923866E+01  0.23889230413E+02  0.32837830293E+02  0.50528899278E+02  0.30000119844E+02 0.  0.
         12    1    1    2    0    0 -0.20356923866E+01 -0.23889230413E+02 -0.32837830293E+02  0.40659100722E+02  0.00000000000E+00 0. -1.
         11    1    3    3    0    0 -0.11103730113E+02  0.84955056079E+01  0.77678892246E+01  0.15993953271E+02  0.51100000000E-03 0. -1.
        -11    1    3    3    0    0  0.71812239232E+01  0.16211763165E+02  0.18354977431E+02  0.25520510157E+02  0.51100000000E-03 0.  1.
         12    1    3    3    0    0  0.59581985766E+01 -0.81803836002E+00  0.67149636374E+01  0.90144358497E+01  0.00000000000E+00 0. -1.
</event>
<event>
 7    1  0.5897985E-013  0.5052888E+02  0.7816164E-02  0.1300439E+00
        -11   -1    0    0    0    0  0.00000000000E+00  0.00000000000E+00  0.45593999997E+02  0.45594000000E+02  0.51100000000E-03 0.  1.
         11   -1    0    0    0    0 -0.00000000000E+00 -0.00000000000E+00 -0.45593999997E+02  0.45594000000E+02  0.51100000000E-03 0. -1.
    9900012    2    1    2    0    0  0.87482669119E+01  0.28653777719E+02  0.27488045932E+02  0.50528882687E+02  0.30000069415E+02 0.  0.
         12    1    1    2    0    0 -0.87482669119E+01 -0.28653777719E+02 -0.27488045932E+02  0.40659117313E+02  0.00000000000E+00 0. -1.
         11    1    3    3    0    0  0.16531685764E+01 -0.15047737799E+00 -0.45789168146E+01  0.48705327470E+01  0.51100000000E-03 0. -1.
        -11    1    3    3    0    0  0.21136241664E+00  0.19093079809E+02  0.12721335632E+02  0.22943904445E+02  0.51100000000E-03 0.  1.
        -12    1    3    3    0    0  0.68837359189E+01  0.97111752876E+01  0.19345627115E+02  0.22714445495E+02  0.00000000000E+00 0.  1.
</event>
<event>
 7    1  0.5897985E-013  0.5052885E+02  0.7816164E-02  0.1300439E+00
        -11   -1    0    0    0    0  0.00000000000E+00  0.00000000000E+00  0.45593999997E+02  0.45594000000E+02  0.51100000000E-03 0.  1.
         11   -1    0    0    0    0 -0.00000000000E+00 -0.00000000000E+00 -0.45593999997E+02  0.45594000000E+02  0.51100000000E-03 0. -1.
    9900012    2    1    2    0    0 -0.37521012649E+02  0.12246892740E+02 -0.97649249777E+01  0.50528849347E+02  0.29999968076E+02 0.  0.
         12    1    1    2    0    0  0.37521012649E+02 -0.12246892740E+02  0.97649249777E+01  0.40659150653E+02  0.00000000000E+00 0. -1.
         11    1    3    3    0    0 -0.30764399584E+02  0.15630432830E+02 -0.13002071790E+02  0.36875636718E+02  0.51100000000E-03 0.  1.
        -11    1    3    3    0    0 -0.12068521144E+01 -0.58307704280E+01 -0.12802439969E+01  0.60904351867E+01  0.51100000000E-03 0. -1.
        -12    1    3    3    0    0 -0.55497609500E+01  0.24472303383E+01  0.45173908090E+01  0.75627774430E+01  0.00000000000E+00 0.  1.
</event>
<event>
 7    1  0.5897985E-013  0.5052886E+02  0.7816164E-02  0.1300439E+00
        -11   -1    0    0    0    0  0.00000000000E+00  0.00000000000E+00  0.45593999997E+02  0.45594000000E+02  0.51100000000E-03 0.  1.
         11   -1    0    0    0    0 -0.00000000000E+00 -0.00000000000E+00 -0.45593999997E+02  0.45594000000E+02  0.51100000000E-03 0. -1.
    9900012    2    1    2    0    0  0.40122347118E+02  0.63220830991E+01 -0.18423362603E+01  0.50528859873E+02  0.30000000071E+02 0.  0.
         12    1    1    2    0    0 -0.40122347118E+02 -0.63220830991E+01  0.18423362603E+01  0.40659140127E+02  0.00000000000E+00 0. -1.
         11    1    3    3    0    0 -0.13503564773E+01  0.32661394502E+01 -0.26888705647E+01  0.44408506729E+01  0.51100000000E-03 0. -1.
        -11    1    3    3    0    0  0.27031811942E+02 -0.24254748198E+01  0.90359953280E+01  0.28605086904E+02  0.51100000000E-03 0.  1.
        -12    1    3    3    0    0  0.14440891653E+02  0.54814184686E+01 -0.81894610236E+01  0.17482922296E+02  0.00000000000E+00 0.  1.
</event>
<event>
 7    1  0.5897985E-013  0.5052888E+02  0.7816164E-02  0.1300439E+00
        -11   -1    0    0    0    0  0.00000000000E+00  0.00000000000E+00  0.45593999997E+02  0.45594000000E+02  0.51100000000E-03 0.  1.
         11   -1    0    0    0    0 -0.00000000000E+00 -0.00000000000E+00 -0.45593999997E+02  0.45594000000E+02  0.51100000000E-03 0. -1.
    9900012    2    1    2    0    0 -0.12256850391E+02  0.30703079237E+02  0.23669699494E+02  0.50528878880E+02  0.30000057843E+02 0.  0.
         12    1    1    2    0    0  0.12256850391E+02 -0.30703079237E+02 -0.23669699494E+02  0.40659121120E+02  0.00000000000E+00 0. -1.
         11    1    3    3    0    0 -0.18787641248E+02  0.13945496916E+02  0.64630092713E+01  0.24273912684E+02  0.51100000000E-03 0. -1.
        -11    1    3    3    0    0 -0.45584154424E+00  0.72362955144E+01  0.10228530577E+02  0.12537727159E+02  0.51100000000E-03 0.  1.
         12    1    3    3    0    0  0.69866324014E+01  0.95212868059E+01  0.69781596462E+01  0.13717239037E+02  0.00000000000E+00 0. -1.
</event>
<event>
 7    1  0.5897985E-013  0.5052884E+02  0.7816164E-02  0.1300439E+00
        -11   -1    0    0    0    0  0.00000000000E+00  0.00000000000E+00  0.45593999997E+02  0.45594000000E+02  0.51100000000E-03 0. -1.
         11   -1    0    0    0    0 -0.00000000000E+00 -0.00000000000E+00 -0.45593999997E+02  0.45594000000E+02  0.51100000000E-03 0.  1.
    9900012    2    1    2    0    0 -0.36218779908E+02 -0.17156019094E+02  0.68584457587E+01  0.50528840056E+02  0.29999939834E+02 0.  0.
         12    1    1    2    0    0  0.36218779908E+02  0.17156019094E+02 -0.68584457587E+01  0.40659159944E+02  0.00000000000E+00 0. -1.
         11    1    3    3    0    0  0.42001050392E+01  0.65466183851E-01  0.34752821877E+01  0.54518579133E+01  0.51100000000E-03 0. -1.
        -11    1    3    3    0    0 -0.17427613193E+02 -0.88279155057E+01  0.60630892141E+01  0.20455191147E+02  0.51100000000E-03 0.  1.
         12    1    3    3    0    0 -0.22991271754E+02 -0.83935697719E+01 -0.26799256431E+01  0.24621790995E+02  0.00000000000E+00 0. -1.
</event>
<event>
 7    1  0.5897985E-013  0.5052884E+02  0.7816164E-02  0.1300439E+00
        -11   -1    0    0    0    0  0.00000000000E+00  0.00000000000E+00  0.45593999997E+02  0.45594000000E+02  0.51100000000E-03 0.  1.
         11   -1    0    0    0    0 -0.00000000000E+00 -0.00000000000E+00 -0.45593999997E+02  0.45594000000E+02  0.51100000000E-03 0. -1.
    9900012    2    1    2    0    0 -0.26004860316E+02 -0.28406660162E+02  0.13037499575E+02  0.50528837481E+02  0.29999932006E+02 0.  0.
         12    1    1    2    0    0  0.26004860316E+02  0.28406660162E+02 -0.13037499575E+02  0.40659162519E+02  0.00000000000E+00 0. -1.
         11    1    3    3    0    0 -0.16423359389E+02 -0.20118031993E+02 -0.63545515324E+01  0.26736534374E+02  0.51100000000E-03 0. -1.
        -11    1    3    3    0    0 -0.45002245069E+01 -0.67271935329E+01  0.88958551884E+01  0.12026778174E+02  0.51100000000E-03 0.  1.
         12    1    3    3    0    0 -0.50812764199E+01 -0.15614346356E+01  0.10496195919E+02  0.11765524933E+02  0.00000000000E+00 0. -1.
</event>
<event>
 7    1  0.5897985E-013  0.5052885E+02  0.7816164E-02  0.1300439E+00
        -11   -1    0    0    0    0  0.00000000000E+00  0.00000000000E+00  0.45593999997E+02  0.45594000000E+02  0.51100000000E-03 0.  1.
         11   -1    0    0    0    0 -0.00000000000E+00 -0.00000000000E+00 -0.45593999997E+02  0.45594000000E+02  0.51100000000E-03 0. -1.
    9900012    2    1    2    0    0 -0.13002956195E+02  0.34246667937E+02  0.17642422586E+02  0.50528853313E+02  0.29999980129E+02 0.  0.
         12    1    1    2    0    0  0.13002956195E+02 -0.34246667937E+02 -0.17642422586E+02  0.40659146687E+02  0.00000000000E+00 0. -1.
         11    1    3    3    0    0  0.68003700293E+01  0.23294143666E+02  0.95548517946E+01  0.26079826586E+02  0.51100000000E-03 0. -1.
        -11    1    3    3    0    0 -0.17438141697E+02  0.99287826911E+01  0.85820525774E+01  0.21824782663E+02  0.51100000000E-03 0.  1.
         12    1    3    3    0    0 -0.23651845272E+01  0.10237415804E+01 -0.49448178557E+00  0.26242440640E+01  0.00000000000E+00 0. -1.
</event>
<event>
 7    1  0.5920657E-013  0.5052886E+02  0.7816164E-02  0.1300439E+00
        -11   -1    0    0    0    0  0.00000000000E+00  0.00000000000E+00  0.45593999997E+02  0.45594000000E+02  0.51100000000E-03 0.  1.
         11   -1    0    0    0    0 -0.00000000000E+00 -0.00000000000E+00 -0.45593999997E+02  0.45594000000E+02  0.51100000000E-03 0. -1.
    9900012    2    1    2    0    0  0.25238368224E+02  0.31790407307E+02  0.23580267401E+01  0.50528861821E+02  0.30000005992E+02 0.  0.
         12    1    1    2    0    0 -0.25238368224E+02 -0.31790407307E+02 -0.23580267401E+01  0.40659138179E+02  0.00000000000E+00 0. -1.
         11    1    3    3    0    0 -0.25611975392E+01  0.59031709900E+01 -0.51257815240E+01  0.82268339636E+01  0.51100000000E-03 0. -1.
        -11    1    3    3    0    0  0.19888627312E+02  0.25558359189E+02  0.15763895856E+01  0.32423328409E+02  0.51100000000E-03 0.  1.
        -12    1    3    3    0    0  0.79109384514E+01  0.32887712791E+00  0.59074186785E+01  0.98786994483E+01  0.00000000000E+00 0.  1.
</event>
<event>
 7    1  0.5897985E-013  0.5052886E+02  0.7816164E-02  0.1300439E+00
        -11   -1    0    0    0    0  0.00000000000E+00  0.00000000000E+00  0.45593999997E+02  0.45594000000E+02  0.51100000000E-03 0.  1.
         11   -1    0    0    0    0 -0.00000000000E+00 -0.00000000000E+00 -0.45593999997E+02  0.45594000000E+02  0.51100000000E-03 0. -1.
    9900012    2    1    2    0    0 -0.30736444100E+02  0.20005193319E+02  0.17556450141E+02  0.50528859611E+02  0.29999999273E+02 0.  0.
         12    1    1    2    0    0  0.30736444100E+02 -0.20005193319E+02 -0.17556450141E+02  0.40659140389E+02  0.00000000000E+00 0. -1.
         11    1    3    3    0    0 -0.29859556256E+02  0.10764330551E+02  0.16180937979E+02  0.35627049641E+02  0.51100000000E-03 0. -1.
        -11    1    3    3    0    0 -0.12735586947E+01  0.65502442637E+01  0.63633832057E+01  0.92206451914E+01  0.51100000000E-03 0.  1.
         12    1    3    3    0    0  0.39667085080E+00  0.26906185037E+01 -0.49878710429E+01  0.56811647782E+01  0.00000000000E+00 0. -1.
</event>
<event>
 7    1  0.5897985E-013  0.5052885E+02  0.7816164E-02  0.1300439E+00
        -11   -1    0    0    0    0  0.00000000000E+00  0.00000000000E+00  0.45593999997E+02  0.45594000000E+02  0.51100000000E-03 0.  1.
         11   -1    0    0    0    0 -0.00000000000E+00 -0.00000000000E+00 -0.45593999997E+02  0.45594000000E+02  0.51100000000E-03 0. -1.
    9900012    2    1    2    0    0 -0.12623468080E+02 -0.25349880503E+02  0.29175298602E+02  0.50528850520E+02  0.29999971640E+02 0.  0.
         12    1    1    2    0    0  0.12623468080E+02  0.25349880503E+02 -0.29175298602E+02  0.40659149480E+02  0.00000000000E+00 0. -1.
         11    1    3    3    0    0 -0.11151321601E+02 -0.82297182382E+01  0.25526252580E+02  0.29045994677E+02  0.51100000000E-03 0. -1.
        -11    1    3    3    0    0  0.53893047279E+01 -0.57087357833E+01  0.11393286415E+01  0.79329905905E+01  0.51100000000E-03 0.  1.
         12    1    3    3    0    0 -0.68614512076E+01 -0.11411426482E+02  0.25097173805E+01  0.13549865252E+02  0.00000000000E+00 0. -1.
</event>
<event>
 7    1  0.5897985E-013  0.5052884E+02  0.7816164E-02  0.1300439E+00
        -11   -1    0    0    0    0  0.00000000000E+00  0.00000000000E+00  0.45593999997E+02  0.45594000000E+02  0.51100000000E-03 0.  1.
         11   -1    0    0    0    0 -0.00000000000E+00 -0.00000000000E+00 -0.45593999997E+02  0.45594000000E+02  0.51100000000E-03 0. -1.
    9900012    2    1    2    0    0  0.11993720799E+02 -0.31907185523E+02  0.22164150951E+02  0.50528838499E+02  0.29999935103E+02 0.  0.
         12    1    1    2    0    0 -0.11993720799E+02  0.31907185523E+02 -0.22164150951E+02  0.40659161501E+02  0.00000000000E+00 0. -1.
         11    1    3    3    0    0  0.33270560284E+01  0.16097641584E+01  0.11737197728E+02  0.12305383100E+02  0.51100000000E-03 0. -1.
        -11    1    3    3    0    0  0.40836927188E+01 -0.31171895334E+02  0.10269164948E+02  0.33072939905E+02  0.51100000000E-03 0.  1.
        -12    1    3    3    0    0  0.45829720520E+01 -0.23450543464E+01  0.15778827362E+00  0.51505154942E+01  0.00000000000E+00 0.  1.
</event>
<event>
 7    1  0.5897985E-013  0.5052885E+02  0.7816164E-02  0.1300439E+00
        -11   -1    0    0    0    0  0.00000000000E+00  0.00000000000E+00  0.45593999997E+02  0.45594000000E+02  0.51100000000E-03 0. -1.
         11   -1    0    0    0    0 -0.00000000000E+00 -0.00000000000E+00 -0.45593999997E+02  0.45594000000E+02  0.51100000000E-03 0.  1.
    9900012    2    1    2    0    0 -0.24428307778E+02  0.24335748145E+02 -0.21545195341E+02  0.50528852186E+02  0.29999976704E+02 0.  0.
         12    1    1    2    0    0  0.24428307778E+02 -0.24335748145E+02  0.21545195341E+02  0.40659147814E+02  0.00000000000E+00 0. -1.
         11    1    3    3    0    0 -0.54721824394E+01  0.23880346920E+01  0.24979915383E+01  0.64720516319E+01  0.51100000000E-03 0. -1.
        -11    1    3    3    0    0  0.34216000586E+01  0.88220120297E+01 -0.12458902190E+02  0.15644791058E+02  0.51100000000E-03 0.  1.
        -12    1    3    3    0    0 -0.22377725398E+02  0.13125701424E+02 -0.11584284689E+02  0.28412009496E+02  0.00000000000E+00 0.  1.
</event>
<event>
 7    1  0.5897985E-013  0.5052885E+02  0.7816164E-02  0.1300439E+00
        -11   -1    0    0    0    0  0.00000000000E+00  0.00000000000E+00  0.45593999997E+02  0.45594000000E+02  0.51100000000E-03 0. -1.
         11   -1    0    0    0    0 -0.00000000000E+00 -0.00000000000E+00 -0.45593999997E+02  0.45594000000E+02  0.51100000000E-03 0.  1.
    9900012    2    1    2    0    0 -0.38057941442E+02 -0.99980222400E+01 -0.10237134594E+02  0.50528852441E+02  0.29999977479E+02 0.  0.
         12    1    1    2    0    0  0.38057941442E+02  0.99980222400E+01  0.10237134594E+02  0.40659147559E+02  0.00000000000E+00 0. -1.
         11    1    3    3    0    0  0.23099272934E+01  0.20286155600E+01  0.66622627234E+00  0.31456164575E+01  0.51100000000E-03 0. -1.
        -11    1    3    3    0    0 -0.31291554738E+02 -0.16553171188E+02 -0.11505576101E+02  0.37222938573E+02  0.51100000000E-03 0.  1.
        -12    1    3    3    0    0 -0.90763139971E+01  0.45265333878E+01  0.60221523389E+00  0.10160297411E+02  0.00000000000E+00 0.  1.
</event>
<event>
 7    1  0.5897985E-013  0.5052887E+02  0.7816164E-02  0.1300439E+00
        -11   -1    0    0    0    0  0.00000000000E+00  0.00000000000E+00  0.45593999997E+02  0.45594000000E+02  0.51100000000E-03 0.  1.
         11   -1    0    0    0    0 -0.00000000000E+00 -0.00000000000E+00 -0.45593999997E+02  0.45594000000E+02  0.51100000000E-03 0. -1.
    9900012    2    1    2    0    0 -0.21164776650E+02  0.98377941268E+01  0.33293166582E+02  0.50528869353E+02  0.30000028886E+02 0.  0.
         12    1    1    2    0    0  0.21164776650E+02 -0.98377941268E+01 -0.33293166582E+02  0.40659130647E+02  0.00000000000E+00 0. -1.
         11    1    3    3    0    0 -0.13207036114E+02 -0.24510590302E+01  0.28460363077E+02  0.31471030489E+02  0.51100000000E-03 0. -1.
        -11    1    3    3    0    0  0.51770735124E+00  0.49769962548E+01  0.59894875374E+01  0.78046443765E+01  0.51100000000E-03 0.  1.
         12    1    3    3    0    0 -0.84754478866E+01  0.73118569022E+01 -0.11566840326E+01  0.11253194488E+02  0.00000000000E+00 0. -1.
</event>
<event>
 7    1  0.5897985E-013  0.5052886E+02  0.7816164E-02  0.1300439E+00
        -11   -1    0    0    0    0  0.00000000000E+00  0.00000000000E+00  0.45593999997E+02  0.45594000000E+02  0.51100000000E-03 0.  1.
         11   -1    0    0    0    0 -0.00000000000E+00 -0.00000000000E+00 -0.45593999997E+02  0.45594000000E+02  0.51100000000E-03 0. -1.
    9900012    2    1    2    0    0 -0.89156939227E+01  0.39541222236E+02  0.31886962104E+01  0.50528860344E+02  0.30000001500E+02 0.  0.
         12    1    1    2    0    0  0.89156939227E+01 -0.39541222236E+02 -0.31886962104E+01  0.40659139656E+02  0.00000000000E+00 0. -1.
         11    1    3    3    0    0 -0.22897286577E+01 -0.15020082009E+01  0.72546655477E+01  0.77542929034E+01  0.51100000000E-03 0. -1.
        -11    1    3    3    0    0 -0.55779406998E+01  0.17913386269E+02  0.19199886683E+01  0.18859723933E+02  0.51100000000E-03 0.  1.
         12    1    3    3    0    0 -0.10480245652E+01  0.23129844168E+02 -0.59859580056E+01  0.23914843507E+02  0.00000000000E+00 0. -1.
</event>
<event>
 7    1  0.5897985E-013  0.5052886E+02  0.7816164E-02  0.1300439E+00
        -11   -1    0    0    0    0  0.00000000000E+00  0.00000000000E+00  0.45593999997E+02  0.45594000000E+02  0.51100000000E-03 0. -1.
         11   -1    0    0    0    0 -0.00000000000E+00 -0.00000000000E+00 -0.45593999997E+02  0.45594000000E+02  0.51100000000E-03 0.  1.
    9900012    2    1    2    0    0 -0.21941387810E+02 -0.25116855050E+02  0.23256932891E+02  0.50528857926E+02  0.29999994152E+02 0.  0.
         12    1    1    2    0    0  0.21941387810E+02  0.25116855050E+02 -0.23256932891E+02  0.40659142074E+02  0.00000000000E+00 0. -1.
         11    1    3    3    0    0 -0.40732464999E+01 -0.42809896092E+01  0.84486750367E+01  0.10310107624E+02  0.51100000000E-03 0. -1.
        -11    1    3    3    0    0 -0.12500662177E+02  0.14812064480E+01 -0.55154281704E+00  0.12600187583E+02  0.51100000000E-03 0.  1.
        -12    1    3    3    0    0 -0.53674791338E+01 -0.22317071889E+02  0.15359800672E+02  0.27618562719E+02  0.00000000000E+00 0.  1.
</event>
<event>
 7    1  0.5897985E-013  0.5052886E+02  0.7816164E-02  0.1300439E+00
        -11   -1    0    0    0    0  0.00000000000E+00  0.00000000000E+00  0.45593999997E+02  0.45594000000E+02  0.51100000000E-03 0. -1.
         11   -1    0    0    0    0 -0.00000000000E+00 -0.00000000000E+00 -0.45593999997E+02  0.45594000000E+02  0.51100000000E-03 0.  1.
    9900012    2    1    2    0    0 -0.24964952557E+02 -0.21603351518E+02 -0.23732091587E+02  0.50528858051E+02  0.29999994531E+02 0.  0.
         12    1    1    2    0    0  0.24964952557E+02  0.21603351518E+02  0.23732091587E+02  0.40659141949E+02  0.00000000000E+00 0. -1.
         11    1    3    3    0    0 -0.19214877064E+02 -0.20078435795E+02 -0.22250540479E+02  0.35601146560E+02  0.51100000000E-03 0. -1.
        -11    1    3    3    0    0 -0.98752242705E+01 -0.32275959217E+01 -0.92446002692E+00  0.10430343064E+02  0.51100000000E-03 0.  1.
         12    1    3    3    0    0  0.41251487774E+01  0.17026801982E+01 -0.55709108090E+00  0.44973684267E+01  0.00000000000E+00 0. -1.
</event>
<event>
 7    1  0.5897985E-013  0.5052887E+02  0.7816164E-02  0.1300439E+00
        -11   -1    0    0    0    0  0.00000000000E+00  0.00000000000E+00  0.45593999997E+02  0.45594000000E+02  0.51100000000E-03 0. -1.
         11   -1    0    0    0    0 -0.00000000000E+00 -0.00000000000E+00 -0.45593999997E+02  0.45594000000E+02  0.51100000000E-03 0.  1.
    9900012    2    1    2    0    0 -0.24734061967E+02  0.94664119046E+01 -0.30850905375E+02  0.50528866485E+02  0.30000020167E+02 0.  0.
         12    1    1    2    0    0  0.24734061967E+02 -0.94664119046E+01  0.30850905375E+02  0.40659133515E+02  0.00000000000E+00 0. -1.
         11    1    3    3    0    0  0.24814122587E+00  0.61113657155E+01 -0.31534490356E+01  0.68814683068E+01  0.51100000000E-03 0. -1.
        -11    1    3    3    0    0 -0.28445043221E+02  0.92695797697E+00 -0.27236649576E+02  0.39393080806E+02  0.51100000000E-03 0.  1.
        -12    1    3    3    0    0  0.34628400290E+01  0.24280882122E+01 -0.46080676371E+00  0.42543173725E+01  0.00000000000E+00 0.  1.
</event>
<event>
 7    1  0.5897985E-013  0.5052892E+02  0.7816164E-02  0.1300439E+00
        -11   -1    0    0    0    0  0.00000000000E+00  0.00000000000E+00  0.45593999997E+02  0.45594000000E+02  0.51100000000E-03 0. -1.
         11   -1    0    0    0    0 -0.00000000000E+00 -0.00000000000E+00 -0.45593999997E+02  0.45594000000E+02  0.51100000000E-03 0.  1.
    9900012    2    1    2    0    0 -0.17409528072E+02 -0.34296265804E+02  0.13184659648E+02  0.50528920254E+02  0.30000183602E+02 0.  0.
         12    1    1    2    0    0  0.17409528072E+02  0.34296265804E+02 -0.13184659648E+02  0.40659079746E+02  0.00000000000E+00 0. -1.
         11    1    3    3    0    0  0.22382697879E+01 -0.15716848367E+02  0.35782518806E+01  0.16273692299E+02  0.51100000000E-03 0. -1.
        -11    1    3    3    0    0 -0.12368802151E+02 -0.15232102106E+01 -0.16358425196E+01  0.12569145437E+02  0.51100000000E-03 0.  1.
        -12    1    3    3    0    0 -0.72789957088E+01 -0.17056207226E+02  0.11242250287E+02  0.21686082518E+02  0.00000000000E+00 0.  1.
</event>
<event>
 7    1  0.5897985E-013  0.5052887E+02  0.7816164E-02  0.1300439E+00
        -11   -1    0    0    0    0  0.00000000000E+00  0.00000000000E+00  0.45593999997E+02  0.45594000000E+02  0.51100000000E-03 0.  1.
         11   -1    0    0    0    0 -0.00000000000E+00 -0.00000000000E+00 -0.45593999997E+02  0.45594000000E+02  0.51100000000E-03 0. -1.
    9900012    2    1    2    0    0 -0.12601599458E+00 -0.40658683336E+02  0.14436572779E+00  0.50528865084E+02  0.30000015909E+02 0.  0.
         12    1    1    2    0    0  0.12601599458E+00  0.40658683336E+02 -0.14436572779E+00  0.40659134916E+02  0.00000000000E+00 0. -1.
         11    1    3    3    0    0  0.59750643988E+01 -0.68425012317E+01 -0.11199891138E+01  0.91529008271E+01  0.51100000000E-03 0. -1.
        -11    1    3    3    0    0 -0.16385209742E+01 -0.22549502820E+02  0.11633955462E+02  0.25426634625E+02  0.51100000000E-03 0.  1.
        -12    1    3    3    0    0 -0.44625594191E+01 -0.11266679285E+02 -0.10369600620E+02  0.15949329632E+02  0.00000000000E+00 0.  1.
</event>
<event>
 7    1  0.5897985E-013  0.5052886E+02  0.7816164E-02  0.1300439E+00
        -11   -1    0    0    0    0  0.00000000000E+00  0.00000000000E+00  0.45593999997E+02  0.45594000000E+02  0.51100000000E-03 0. -1.
         11   -1    0    0    0    0 -0.00000000000E+00 -0.00000000000E+00 -0.45593999997E+02  0.45594000000E+02  0.51100000000E-03 0.  1.
    9900012    2    1    2    0    0 -0.35158515929E+02  0.27065024038E+01  0.20241529865E+02  0.50528856761E+02  0.29999990612E+02 0.  0.
         12    1    1    2    0    0  0.35158515929E+02 -0.27065024038E+01 -0.20241529865E+02  0.40659143239E+02  0.00000000000E+00 0. -1.
         11    1    3    3    0    0  0.78948347989E+00 -0.77783127666E+00 -0.18766357942E+01  0.21794650319E+01  0.51100000000E-03 0. -1.
        -11    1    3    3    0    0 -0.38152114106E+02  0.29434695870E+01  0.15382385953E+02  0.41241552127E+02  0.51100000000E-03 0.  1.
        -12    1    3    3    0    0  0.22041146970E+01  0.54086409342E+00  0.67357797061E+01  0.71078396024E+01  0.00000000000E+00 0.  1.
</event>
<event>
 7    1  0.5897985E-013  0.5052890E+02  0.7816164E-02  0.1300439E+00
        -11   -1    0    0    0    0  0.00000000000E+00  0.00000000000E+00  0.45593999997E+02  0.45594000000E+02  0.51100000000E-03 0. -1.
         11   -1    0    0    0    0 -0.00000000000E+00 -0.00000000000E+00 -0.45593999997E+02  0.45594000000E+02  0.51100000000E-03 0.  1.
    9900012    2    1    2    0    0  0.23636482704E+02 -0.33050566968E+02  0.14626984713E+01  0.50528895505E+02  0.30000108376E+02 0.  0.
         12    1    1    2    0    0 -0.23636482704E+02  0.33050566968E+02 -0.14626984713E+01  0.40659104495E+02  0.00000000000E+00 0. -1.
         11    1    3    3    0    0 -0.17388173577E+00 -0.10657471842E+02  0.73108695023E+01  0.12925198415E+02  0.51100000000E-03 0. -1.
        -11    1    3    3    0    0  0.23152139516E+02 -0.20925439376E+02 -0.10305629435E+02  0.32864898837E+02  0.51100000000E-03 0.  1.
        -12    1    3    3    0    0  0.65822492333E+00 -0.14676557498E+01  0.44574584043E+01  0.47387982523E+01  0.00000000000E+00 0.  1.
</event>
<event>
 7    1  0.5897985E-013  0.5052886E+02  0.7816164E-02  0.1300439E+00
        -11   -1    0    0    0    0  0.00000000000E+00  0.00000000000E+00  0.45593999997E+02  0.45594000000E+02  0.51100000000E-03 0. -1.
         11   -1    0    0    0    0 -0.00000000000E+00 -0.00000000000E+00 -0.45593999997E+02  0.45594000000E+02  0.51100000000E-03 0.  1.
    9900012    2    1    2    0    0  0.36059366434E+02  0.16685762942E+02 -0.86297588695E+01  0.50528864117E+02  0.30000012971E+02 0.  0.
         12    1    1    2    0    0 -0.36059366434E+02 -0.16685762942E+02  0.86297588695E+01  0.40659135883E+02  0.00000000000E+00 0. -1.
         11    1    3    3    0    0  0.13708658650E+02 -0.82756709414E+01 -0.25540848683E+01  0.16215344625E+02  0.51100000000E-03 0. -1.
        -11    1    3    3    0    0  0.15397079358E+02  0.18076715954E+02 -0.61467623511E+01  0.24527951405E+02  0.51100000000E-03 0.  1.
         12    1    3    3    0    0  0.69536284256E+01  0.68847179294E+01  0.71088349881E-01  0.97855680879E+01  0.00000000000E+00 0. -1.
</event>
<event>
 7    1  0.5897985E-013  0.5052886E+02  0.7816164E-02  0.1300439E+00
        -11   -1    0    0    0    0  0.00000000000E+00  0.00000000000E+00  0.45593999997E+02  0.45594000000E+02  0.51100000000E-03 0. -1.
         11   -1    0    0    0    0 -0.00000000000E+00 -0.00000000000E+00 -0.45593999997E+02  0.45594000000E+02  0.51100000000E-03 0.  1.
    9900012    2    1    2    0    0  0.81120442925E+01  0.32941712015E+02 -0.22409905889E+02  0.50528861605E+02  0.30000005335E+02 0.  0.
         12    1    1    2    0    0 -0.81120442925E+01 -0.32941712015E+02  0.22409905889E+02  0.40659138395E+02  0.00000000000E+00 0. -1.
         11    1    3    3    0    0  0.29078502565E+01 -0.10988579744E+01  0.47364629214E+01  0.56654358375E+01  0.51100000000E-03 0. -1.
        -11    1    3    3    0    0  0.25106643922E+01  0.30726706934E+02 -0.20710866251E+02  0.37139923746E+02  0.51100000000E-03 0.  1.
         12    1    3    3    0    0  0.26935296439E+01  0.33138630550E+01 -0.64355025592E+01  0.77235020218E+01  0.00000000000E+00 0. -1.
</event>
<event>
 7    1  0.5897985E-013  0.5052886E+02  0.7816164E-02  0.1300439E+00
        -11   -1    0    0    0    0  0.00000000000E+00  0.00000000000E+00  0.45593999997E+02  0.45594000000E+02  0.51100000000E-03 0. -1.
         11   -1    0    0    0    0 -0.00000000000E+00 -0.00000000000E+00 -0.45593999997E+02  0.45594000000E+02  0.51100000000E-03 0.  1.
    9900012    2    1    2    0    0  0.17137393405E+02  0.34671244291E+02  0.12545143461E+02  0.50528855175E+02  0.29999985791E+02 0.  0.
         12    1    1    2    0    0 -0.17137393405E+02 -0.34671244291E+02 -0.12545143461E+02  0.40659144825E+02  0.00000000000E+00 0. -1.
         11    1    3    3    0    0  0.67151498631E+01  0.31303342137E+02  0.39642815262E+01  0.32260006121E+02  0.51100000000E-03 0.  1.
        -11    1    3    3    0    0  0.12431581177E+02  0.17881615016E+01  0.42855117588E+01  0.13270544202E+02  0.51100000000E-03 0. -1.
        -12    1    3    3    0    0 -0.20093376356E+01  0.15797406524E+01  0.42953501764E+01  0.49983048527E+01  0.00000000000E+00 0.  1.
</event>
<event>
 7    1  0.5897985E-013  0.5052889E+02  0.7816164E-02  0.1300439E+00
        -11   -1    0    0    0    0  0.00000000000E+00  0.00000000000E+00  0.45593999997E+02  0.45594000000E+02  0.51100000000E-03 0. -1.
         11   -1    0    0    0    0 -0.00000000000E+00 -0.00000000000E+00 -0.45593999997E+02  0.45594000000E+02  0.51100000000E-03 0.  1.
    9900012    2    1    2    0    0  0.15263735169E+02 -0.37684809965E+02  0.19205538568E+00  0.50528887876E+02  0.30000085187E+02 0.  0.
         12    1    1    2    0    0 -0.15263735169E+02  0.37684809965E+02 -0.19205538568E+00  0.40659112124E+02  0.00000000000E+00 0. -1.
         11    1    3    3    0    0 -0.50706271389E+01 -0.12464849755E+02  0.89303987487E+01  0.16150410554E+02  0.51100000000E-03 0. -1.
        -11    1    3    3    0    0  0.13183187867E+02 -0.15609530029E+02 -0.91619493494E+01  0.22391855355E+02  0.51100000000E-03 0.  1.
         12    1    3    3    0    0  0.71511744407E+01 -0.96104301809E+01  0.42360598638E+00  0.11986621967E+02  0.00000000000E+00 0. -1.
</event>
<event>
 7    1  0.5897985E-013  0.5052888E+02  0.7816164E-02  0.1300439E+00
        -11   -1    0    0    0    0  0.00000000000E+00  0.00000000000E+00  0.45593999997E+02  0.45594000000E+02  0.51100000000E-03 0. -1.
         11   -1    0    0    0    0 -0.00000000000E+00 -0.00000000000E+00 -0.45593999997E+02  0.45594000000E+02  0.51100000000E-03 0.  1.
    9900012    2    1    2    0    0  0.36935370802E+02  0.16801821661E+02  0.25771322462E+01  0.50528875095E+02  0.30000046339E+02 0.  0.
         12    1    1    2    0    0 -0.36935370802E+02 -0.16801821661E+02 -0.25771322462E+01  0.40659124905E+02  0.00000000000E+00 0. -1.
         11    1    3    3    0    0  0.14628910806E+01 -0.31016872875E+01  0.72827052275E+01  0.80497397495E+01  0.51100000000E-03 0. -1.
        -11    1    3    3    0    0  0.24528538280E+02  0.19054829957E+02 -0.17405072728E+01  0.31108923168E+02  0.51100000000E-03 0.  1.
         12    1    3    3    0    0  0.10943941441E+02  0.84867899127E+00 -0.29650657086E+01  0.11370212177E+02  0.00000000000E+00 0. -1.
</event>
<event>
 7    1  0.5897985E-013  0.5052887E+02  0.7816164E-02  0.1300439E+00
        -11   -1    0    0    0    0  0.00000000000E+00  0.00000000000E+00  0.45593999997E+02  0.45594000000E+02  0.51100000000E-03 0.  1.
         11   -1    0    0    0    0 -0.00000000000E+00 -0.00000000000E+00 -0.45593999997E+02  0.45594000000E+02  0.51100000000E-03 0. -1.
    9900012    2    1    2    0    0  0.78635393039E-01 -0.40655561579E+02 -0.53310951539E+00  0.50528867243E+02  0.30000022471E+02 0.  0.
         12    1    1    2    0    0 -0.78635393039E-01  0.40655561579E+02  0.53310951539E+00  0.40659132757E+02  0.00000000000E+00 0. -1.
         11    1    3    3    0    0 -0.71514228080E+01 -0.55678655557E+01  0.62000069123E+01  0.10981077406E+02  0.51100000000E-03 0. -1.
        -11    1    3    3    0    0  0.56772453123E+01 -0.72598857091E+01 -0.71645003856E+01  0.11673350885E+02  0.51100000000E-03 0.  1.
        -12    1    3    3    0    0  0.15528128887E+01 -0.27827810314E+02  0.43138395786E+00  0.27874438952E+02  0.00000000000E+00 0.  1.
</event>
<event>
 7    1  0.5897985E-013  0.5052881E+02  0.7816164E-02  0.1300439E+00
        -11   -1    0    0    0    0  0.00000000000E+00  0.00000000000E+00  0.45593999997E+02  0.45594000000E+02  0.51100000000E-03 0.  1.
         11   -1    0    0    0    0 -0.00000000000E+00 -0.00000000000E+00 -0.45593999997E+02  0.45594000000E+02  0.51100000000E-03 0. -1.
    9900012    2    1    2    0    0  0.21657825807E+02  0.24037095254E+02  0.24623696985E+02  0.50528808910E+02  0.29999845161E+02 0.  0.
         12    1    1    2    0    0 -0.21657825807E+02 -0.24037095254E+02 -0.24623696985E+02  0.40659191090E+02  0.00000000000E+00 0. -1.
         11    1    3    3    0    0  0.66132148666E+00 -0.27588530524E+01  0.11117132345E+02  0.11473414841E+02  0.51100000000E-03 0. -1.
        -11    1    3    3    0    0  0.32799505657E+01  0.13614429504E+02  0.19722269424E+01  0.14142151386E+02  0.51100000000E-03 0.  1.
         12    1    3    3    0    0  0.17716553754E+02  0.13181518802E+02  0.11534337697E+02  0.24913242683E+02  0.00000000000E+00 0. -1.
</event>
<event>
 7    1  0.5897985E-013  0.5052886E+02  0.7816164E-02  0.1300439E+00
        -11   -1    0    0    0    0  0.00000000000E+00  0.00000000000E+00  0.45593999997E+02  0.45594000000E+02  0.51100000000E-03 0. -1.
         11   -1    0    0    0    0 -0.00000000000E+00 -0.00000000000E+00 -0.45593999997E+02  0.45594000000E+02  0.51100000000E-03 0.  1.
    9900012    2    1    2    0    0  0.23175382189E+02  0.31348443603E+02  0.11547385957E+02  0.50528863532E+02  0.30000011191E+02 0.  0.
         12    1    1    2    0    0 -0.23175382189E+02 -0.31348443603E+02 -0.11547385957E+02  0.40659136468E+02  0.00000000000E+00 0. -1.
         11    1    3    3    0    0 -0.40750215898E+01  0.24566222086E+01  0.66221423279E+00  0.48040942522E+01  0.51100000000E-03 0. -1.
        -11    1    3    3    0    0  0.27442769215E+02  0.16897256242E+02  0.97745406865E+01  0.33677358813E+02  0.51100000000E-03 0.  1.
        -12    1    3    3    0    0 -0.19236543665E+00  0.11994565152E+02  0.11106310376E+01  0.12047410466E+02  0.00000000000E+00 0.  1.
</event>
<event>
 7    1  0.5897985E-013  0.5052895E+02  0.7816164E-02  0.1300438E+00
        -11   -1    0    0    0    0  0.00000000000E+00  0.00000000000E+00  0.45593999997E+02  0.45594000000E+02  0.51100000000E-03 0.  1.
         11   -1    0    0    0    0 -0.00000000000E+00 -0.00000000000E+00 -0.45593999997E+02  0.45594000000E+02  0.51100000000E-03 0. -1.
    9900012    2    1    2    0    0  0.83101752704E+01  0.29359581820E+01  0.39692306973E+02  0.50528953081E+02  0.30000283384E+02 0.  0.
         12    1    1    2    0    0 -0.83101752704E+01 -0.29359581820E+01 -0.39692306973E+02  0.40659046919E+02  0.00000000000E+00 0. -1.
         11    1    3    3    0    0 -0.49304207283E+00  0.27060231976E+01 -0.38455166459E+01  0.47279647384E+01  0.51100000000E-03 0. -1.
        -11    1    3    3    0    0  0.10182712718E+02  0.21928152735E+01  0.41025422834E+02  0.42327076394E+02  0.51100000000E-03 0.  1.
        -12    1    3    3    0    0 -0.13794953751E+01 -0.19628802891E+01  0.25124007854E+01  0.34739119485E+01  0.00000000000E+00 0.  1.
</event>
<event>
 7    1  0.5897985E-013  0.5052888E+02  0.7816164E-02  0.1300439E+00
        -11   -1    0    0    0    0  0.00000000000E+00  0.00000000000E+00  0.45593999997E+02  0.45594000000E+02  0.51100000000E-03 0.  1.
         11   -1    0    0    0    0 -0.00000000000E+00 -0.00000000000E+00 -0.45593999997E+02  0.45594000000E+02  0.51100000000E-03 0. -1.
    9900012    2    1    2    0    0 -0.17357716625E+02 -0.10546401700E+02  0.35222817560E+02  0.50528883038E+02  0.30000070482E+02 0.  0.
         12    1    1    2    0    0  0.17357716625E+02  0.10546401700E+02 -0.35222817560E+02  0.40659116962E+02  0.00000000000E+00 0. -1.
         11    1    3    3    0    0 -0.53726256782E+01 -0.79660987822E+01 -0.28520430138E+01  0.10022873146E+02  0.51100000000E-03 0. -1.
        -11    1    3    3    0    0 -0.68742964956E+01 -0.35313058708E+01  0.29344521250E+02  0.30345131423E+02  0.51100000000E-03 0.  1.
         12    1    3    3    0    0 -0.51107944515E+01  0.95100295326E+00  0.87303393242E+01  0.10160878469E+02  0.00000000000E+00 0. -1.
</event>
<event>
 7    1  0.5897985E-013  0.5052886E+02  0.7816164E-02  0.1300439E+00
        -11   -1    0    0    0    0  0.00000000000E+00  0.00000000000E+00  0.45593999997E+02  0.45594000000E+02  0.51100000000E-03 0.  1.
         11   -1    0    0    0    0 -0.00000000000E+00 -0.00000000000E+00 -0.45593999997E+02  0.45594000000E+02  0.51100000000E-03 0. -1.
    9900012    2    1    2    0    0  0.21753598127E+02  0.34062696638E+01  0.34181041917E+02  0.50528864113E+02  0.30000012958E+02 0.  0.
         12    1    1    2    0    0 -0.21753598127E+02 -0.34062696638E+01 -0.34181041917E+02  0.40659135887E+02  0.00000000000E+00 0. -1.
         11    1    3    3    0    0 -0.15693764231E+01 -0.49834975186E+01  0.26443408407E+01  0.58558286022E+01  0.51100000000E-03 0. -1.
        -11    1    3    3    0    0  0.16580246687E+02  0.13140490410E+01  0.30633471074E+02  0.34857436156E+02  0.51100000000E-03 0.  1.
        -12    1    3    3    0    0  0.67427278637E+01  0.70757181414E+01  0.90323000303E+00  0.98155993551E+01  0.00000000000E+00 0.  1.
</event>
<event>
 7    1  0.5897985E-013  0.5052889E+02  0.7816164E-02  0.1300439E+00
        -11   -1    0    0    0    0  0.00000000000E+00  0.00000000000E+00  0.45593999997E+02  0.45594000000E+02  0.51100000000E-03 0.  1.
         11   -1    0    0    0    0 -0.00000000000E+00 -0.00000000000E+00 -0.45593999997E+02  0.45594000000E+02  0.51100000000E-03 0. -1.
    9900012    2    1    2    0    0 -0.98130667513E+00 -0.40534096920E+02 -0.30310846506E+01  0.50528887244E+02  0.30000083268E+02 0.  0.
         12    1    1    2    0    0  0.98130667513E+00  0.40534096920E+02  0.30310846506E+01  0.40659112756E+02  0.00000000000E+00 0. -1.
         11    1    3    3    0    0 -0.90783403948E+01 -0.58834409403E+01  0.24463898426E+00  0.10820859029E+02  0.51100000000E-03 0. -1.
        -11    1    3    3    0    0  0.74567924057E+01 -0.35097619943E+02  0.46768192863E+00  0.35884055029E+02  0.51100000000E-03 0.  1.
        -12    1    3    3    0    0  0.64024131403E+00  0.44696396319E+00 -0.37434055634E+01  0.38239731873E+01  0.00000000000E+00 0.  1.
</event>
<event>
 7    1  0.5897985E-013  0.5052885E+02  0.7816164E-02  0.1300439E+00
        -11   -1    0    0    0    0  0.00000000000E+00  0.00000000000E+00  0.45593999997E+02  0.45594000000E+02  0.51100000000E-03 0.  1.
         11   -1    0    0    0    0 -0.00000000000E+00 -0.00000000000E+00 -0.45593999997E+02  0.45594000000E+02  0.51100000000E-03 0. -1.
    9900012    2    1    2    0    0  0.15262000074E+02  0.32825833001E+02  0.18512216596E+02  0.50528854390E+02  0.29999983404E+02 0.  0.
         12    1    1    2    0    0 -0.15262000074E+02 -0.32825833001E+02 -0.18512216596E+02  0.40659145610E+02  0.00000000000E+00 0. -1.
         11    1    3    3    0    0  0.21394966398E+01 -0.49844289924E+01  0.61094323160E+01  0.81698923944E+01  0.51100000000E-03 0. -1.
        -11    1    3    3    0    0  0.76077244933E+01  0.16384230969E+02  0.82025998723E+01  0.19839433998E+02  0.51100000000E-03 0.  1.
         12    1    3    3    0    0  0.55147789405E+01  0.21426031024E+02  0.42001844073E+01  0.22519527998E+02  0.00000000000E+00 0. -1.
</event>
<event>
 7    1  0.5897985E-013  0.5052886E+02  0.7816164E-02  0.1300439E+00
        -11   -1    0    0    0    0  0.00000000000E+00  0.00000000000E+00  0.45593999997E+02  0.45594000000E+02  0.51100000000E-03 0. -1.
         11   -1    0    0    0    0 -0.00000000000E+00 -0.00000000000E+00 -0.45593999997E+02  0.45594000000E+02  0.51100000000E-03 0.  1.
    9900012    2    1    2    0    0 -0.13227347899E+02  0.37615745821E+02  0.79535265498E+01  0.50528860183E+02  0.30000001011E+02 0.  0.
         12    1    1    2    0    0  0.13227347899E+02 -0.37615745821E+02 -0.79535265498E+01  0.40659139817E+02  0.00000000000E+00 0. -1.
         11    1    3    3    0    0  0.42476245292E+01 -0.11556951142E+01  0.13950318431E+01  0.46177981162E+01  0.51100000000E-03 0. -1.
        -11    1    3    3    0    0 -0.13679078820E+02  0.17897308987E+02 -0.28429434428E+01  0.22704915636E+02  0.51100000000E-03 0.  1.
        -12    1    3    3    0    0 -0.37958936073E+01  0.20874131948E+02  0.94014381494E+01  0.23206146430E+02  0.00000000000E+00 0.  1.
</event>
<event>
 7    1  0.5897985E-013  0.5052886E+02  0.7816164E-02  0.1300439E+00
        -11   -1    0    0    0    0  0.00000000000E+00  0.00000000000E+00  0.45593999997E+02  0.45594000000E+02  0.51100000000E-03 0. -1.
         11   -1    0    0    0    0 -0.00000000000E+00 -0.00000000000E+00 -0.45593999997E+02  0.45594000000E+02  0.51100000000E-03 0.  1.
    9900012    2    1    2    0    0 -0.24860060658E+02  0.32168556135E+02  0.57194597180E+00  0.50528859061E+02  0.29999997601E+02 0.  0.
         12    1    1    2    0    0  0.24860060658E+02 -0.32168556135E+02 -0.57194597180E+00  0.40659140939E+02  0.00000000000E+00 0. -1.
         11    1    3    3    0    0 -0.23468319033E+01 -0.35076816511E+00 -0.45736723433E+01  0.51525854920E+01  0.51100000000E-03 0. -1.
        -11    1    3    3    0    0 -0.22617041328E+01  0.22271905495E+02  0.26689148025E+01  0.22544981403E+02  0.51100000000E-03 0.  1.
        -12    1    3    3    0    0 -0.20251524621E+02  0.10247418805E+02  0.24767035126E+01  0.22831292165E+02  0.00000000000E+00 0.  1.
</event>
<event>
 7    1  0.5897985E-013  0.5052886E+02  0.7816164E-02  0.1300439E+00
        -11   -1    0    0    0    0  0.00000000000E+00  0.00000000000E+00  0.45593999997E+02  0.45594000000E+02  0.51100000000E-03 0.  1.
         11   -1    0    0    0    0 -0.00000000000E+00 -0.00000000000E+00 -0.45593999997E+02  0.45594000000E+02  0.51100000000E-03 0. -1.
    9900012    2    1    2    0    0 -0.27408011057E+02  0.26479399183E+02  0.14170663181E+02  0.50528863927E+02  0.30000012393E+02 0.  0.
         12    1    1    2    0    0  0.27408011057E+02 -0.26479399183E+02 -0.14170663181E+02  0.40659136073E+02  0.00000000000E+00 0. -1.
         11    1    3    3    0    0  0.33541926021E+01  0.16297954446E+00  0.53083955844E+01  0.62814197667E+01  0.51100000000E-03 0. -1.
        -11    1    3    3    0    0 -0.25009083048E+02  0.24110387729E+02  0.16726329178E+01  0.34778768415E+02  0.51100000000E-03 0.  1.
         12    1    3    3    0    0 -0.57531206114E+01  0.22060319093E+01  0.71896346792E+01  0.94686757455E+01  0.00000000000E+00 0. -1.
</event>
<event>
 7    1  0.5897985E-013  0.5052888E+02  0.7816164E-02  0.1300439E+00
        -11   -1    0    0    0    0  0.00000000000E+00  0.00000000000E+00  0.45593999997E+02  0.45594000000E+02  0.51100000000E-03 0. -1.
         11   -1    0    0    0    0 -0.00000000000E+00 -0.00000000000E+00 -0.45593999997E+02  0.45594000000E+02  0.51100000000E-03 0.  1.
    9900012    2    1    2    0    0 -0.25917015215E+02  0.29907269080E+02 -0.93288542771E+01  0.50528881175E+02  0.30000064820E+02 0.  0.
         12    1    1    2    0    0  0.25917015215E+02 -0.29907269080E+02  0.93288542771E+01  0.40659118825E+02  0.00000000000E+00 0. -1.
         11    1    3    3    0    0 -0.82051435912E+01 -0.31965892523E+00 -0.46405369260E+00  0.82244701514E+01  0.51100000000E-03 0. -1.
        -11    1    3    3    0    0 -0.22071897636E+00  0.22058194953E+02 -0.45629293443E+01  0.22526273680E+02  0.51100000000E-03 0.  1.
        -12    1    3    3    0    0 -0.17491152648E+02  0.81687330525E+01 -0.43018712401E+01  0.19778137344E+02  0.00000000000E+00 0.  1.
</event>
<event>
 7    1  0.5897985E-013  0.5052885E+02  0.7816164E-02  0.1300439E+00
        -11   -1    0    0    0    0  0.00000000000E+00  0.00000000000E+00  0.45593999997E+02  0.45594000000E+02  0.51100000000E-03 0.  1.
         11   -1    0    0    0    0 -0.00000000000E+00 -0.00000000000E+00 -0.45593999997E+02  0.45594000000E+02  0.51100000000E-03 0. -1.
    9900012    2    1    2    0    0  0.35514326559E+02 -0.14400664607E+02  0.13583821487E+02  0.50528846809E+02  0.29999960359E+02 0.  0.
         12    1    1    2    0    0 -0.35514326559E+02  0.14400664607E+02 -0.13583821487E+02  0.40659153191E+02  0.00000000000E+00 0. -1.
         11    1    3    3    0    0  0.17514693066E+02  0.61343471550E+00 -0.18657631263E+00  0.17526425372E+02  0.51100000000E-03 0. -1.
        -11    1    3    3    0    0  0.68998655483E+01 -0.45118142831E+01  0.15568144496E+02  0.17616235013E+02  0.51100000000E-03 0.  1.
        -12    1    3    3    0    0  0.11099767945E+02 -0.10502285039E+02 -0.17977466971E+01  0.15386186424E+02  0.00000000000E+00 0.  1.
</event>
<event>
 7    1  0.5897985E-013  0.5052886E+02  0.7816164E-02  0.1300439E+00
        -11   -1    0    0    0    0  0.00000000000E+00  0.00000000000E+00  0.45593999997E+02  0.45594000000E+02  0.51100000000E-03 0.  1.
         11   -1    0    0    0    0 -0.00000000000E+00 -0.00000000000E+00 -0.45593999997E+02  0.45594000000E+02  0.51100000000E-03 0. -1.
    9900012    2    1    2    0    0 -0.22235358791E+02  0.27788610734E+02 -0.19660807179E+02  0.50528863191E+02  0.30000010155E+02 0.  0.
         12    1    1    2    0    0  0.22235358791E+02 -0.27788610734E+02  0.19660807179E+02  0.40659136809E+02  0.00000000000E+00 0. -1.
         11    1    3    3    0    0 -0.80322365904E+01  0.81972763389E+01 -0.22156786587E+02  0.24952662306E+02  0.51100000000E-03 0. -1.
        -11    1    3    3    0    0 -0.16491719111E+01  0.37166271527E+00 -0.15173316381E+01  0.22716066401E+01  0.51100000000E-03 0.  1.
         12    1    3    3    0    0 -0.12553950290E+02  0.19219671680E+02  0.40133110460E+01  0.23304594245E+02  0.00000000000E+00 0. -1.
</event>
<event>
 7    1  0.5897985E-013  0.5052887E+02  0.7816164E-02  0.1300439E+00
        -11   -1    0    0    0    0  0.00000000000E+00  0.00000000000E+00  0.45593999997E+02  0.45594000000E+02  0.51100000000E-03 0.  1.
         11   -1    0    0    0    0 -0.00000000000E+00 -0.00000000000E+00 -0.45593999997E+02  0.45594000000E+02  0.51100000000E-03 0. -1.
    9900012    2    1    2    0    0  0.38090285968E+02 -0.12201187033E+02  0.73093111525E+01  0.50528869664E+02  0.30000029831E+02 0.  0.
         12    1    1    2    0    0 -0.38090285968E+02  0.12201187033E+02 -0.73093111525E+01  0.40659130336E+02  0.00000000000E+00 0. -1.
         11    1    3    3    0    0  0.12571185887E+02 -0.87788711627E+01 -0.53745422644E+01  0.16247738252E+02  0.51100000000E-03 0. -1.
        -11    1    3    3    0    0  0.27219727892E+02 -0.10255072337E+00  0.81576854268E+01  0.28416050658E+02  0.51100000000E-03 0.  1.
        -12    1    3    3    0    0 -0.17006278116E+01 -0.33197651465E+01  0.45261679901E+01  0.58650807544E+01  0.00000000000E+00 0.  1.
</event>
<event>
 7    1  0.8254036E-013  0.5052885E+02  0.7816164E-02  0.1300439E+00
        -11   -1    0    0    0    0  0.00000000000E+00  0.00000000000E+00  0.45593999997E+02  0.45594000000E+02  0.51100000000E-03 0.  1.
         11   -1    0    0    0    0 -0.00000000000E+00 -0.00000000000E+00 -0.45593999997E+02  0.45594000000E+02  0.51100000000E-03 0. -1.
    9900012    2    1    2    0    0 -0.11605537611E+02 -0.38608438547E+02  0.52788368556E+01  0.50528854056E+02  0.29999982390E+02 0.  0.
         12    1    1    2    0    0  0.11605537611E+02  0.38608438547E+02 -0.52788368556E+01  0.40659145944E+02  0.00000000000E+00 0. -1.
         11    1    3    3    0    0  0.61637241507E+01 -0.61896493418E+01 -0.12447871455E+01  0.88234205204E+01  0.51100000000E-03 0. -1.
        -11    1    3    3    0    0 -0.15161588412E+02 -0.14246429666E+02 -0.30063659046E+01  0.21020769673E+02  0.51100000000E-03 0.  1.
        -12    1    3    3    0    0 -0.26076733497E+01 -0.18172359539E+02  0.95299899057E+01  0.20684663863E+02  0.00000000000E+00 0.  1.
</event>
<event>
 7    1  0.5897985E-013  0.5052890E+02  0.7816164E-02  0.1300439E+00
        -11   -1    0    0    0    0  0.00000000000E+00  0.00000000000E+00  0.45593999997E+02  0.45594000000E+02  0.51100000000E-03 0.  1.
         11   -1    0    0    0    0 -0.00000000000E+00 -0.00000000000E+00 -0.45593999997E+02  0.45594000000E+02  0.51100000000E-03 0. -1.
    9900012    2    1    2    0    0  0.26631877401E+02  0.21139404987E+02  0.22294195125E+02  0.50528899255E+02  0.30000119774E+02 0.  0.
         12    1    1    2    0    0 -0.26631877401E+02 -0.21139404987E+02 -0.22294195125E+02  0.40659100745E+02  0.00000000000E+00 0. -1.
         11    1    3    3    0    0  0.17978537649E+02  0.11050535758E+01  0.46754231072E+01  0.18609367020E+02  0.51100000000E-03 0. -1.
        -11    1    3    3    0    0  0.93114334731E+01  0.18409407976E+02  0.79756150889E+01  0.22118307613E+02  0.51100000000E-03 0.  1.
        -12    1    3    3    0    0 -0.65809372071E+00  0.16249434355E+01  0.96431569294E+01  0.98012246214E+01  0.00000000000E+00 0.  1.
</event>
<event>
 7    1  0.5897985E-013  0.5052886E+02  0.7816164E-02  0.1300439E+00
        -11   -1    0    0    0    0  0.00000000000E+00  0.00000000000E+00  0.45593999997E+02  0.45594000000E+02  0.51100000000E-03 0.  1.
         11   -1    0    0    0    0 -0.00000000000E+00 -0.00000000000E+00 -0.45593999997E+02  0.45594000000E+02  0.51100000000E-03 0. -1.
    9900012    2    1    2    0    0  0.44877799848E+01 -0.31856764779E+02  0.24863059372E+02  0.50528863847E+02  0.30000012148E+02 0.  0.
         12    1    1    2    0    0 -0.44877799848E+01  0.31856764779E+02 -0.24863059372E+02  0.40659136153E+02  0.00000000000E+00 0. -1.
         11    1    3    3    0    0 -0.44963013498E+01 -0.27528793537E+01  0.17885085260E+02  0.18645947162E+02  0.51100000000E-03 0. -1.
        -11    1    3    3    0    0  0.83035853588E+01 -0.16759306378E+02  0.50197119347E+01  0.19365468965E+02  0.51100000000E-03 0.  1.
         12    1    3    3    0    0  0.68049597577E+00 -0.12344579048E+02  0.19582621775E+01  0.12517447719E+02  0.00000000000E+00 0. -1.
</event>
<event>
 7    1  0.5897985E-013  0.5052886E+02  0.7816164E-02  0.1300439E+00
        -11   -1    0    0    0    0  0.00000000000E+00  0.00000000000E+00  0.45593999997E+02  0.45594000000E+02  0.51100000000E-03 0.  1.
         11   -1    0    0    0    0 -0.00000000000E+00 -0.00000000000E+00 -0.45593999997E+02  0.45594000000E+02  0.51100000000E-03 0. -1.
    9900012    2    1    2    0    0 -0.17609843883E+02  0.15396138267E+02  0.33256847720E+02  0.50528860863E+02  0.30000003079E+02 0.  0.
         12    1    1    2    0    0  0.17609843883E+02 -0.15396138267E+02 -0.33256847720E+02  0.40659139137E+02  0.00000000000E+00 0. -1.
         11    1    3    3    0    0  0.24557243518E+01  0.26791362183E+01  0.10003991794E+01  0.37695028515E+01  0.51100000000E-03 0. -1.
        -11    1    3    3    0    0 -0.10834681956E+02 -0.36361106687E+01  0.23305056933E+02  0.25956450312E+02  0.51100000000E-03 0.  1.
        -12    1    3    3    0    0 -0.92308862792E+01  0.16353112717E+02  0.89513916071E+01  0.20802907699E+02  0.00000000000E+00 0.  1.
</event>
<event>
 7    1  0.5897985E-013  0.5052887E+02  0.7816164E-02  0.1300439E+00
        -11   -1    0    0    0    0  0.00000000000E+00  0.00000000000E+00  0.45593999997E+02  0.45594000000E+02  0.51100000000E-03 0.  1.
         11   -1    0    0    0    0 -0.00000000000E+00 -0.00000000000E+00 -0.45593999997E+02  0.45594000000E+02  0.51100000000E-03 0. -1.
    9900012    2    1    2    0    0 -0.30924233812E+02 -0.14679871815E+02 -0.21939879034E+02  0.50528866151E+02  0.30000019152E+02 0.  0.
         12    1    1    2    0    0  0.30924233812E+02  0.14679871815E+02  0.21939879034E+02  0.40659133849E+02  0.00000000000E+00 0. -1.
         11    1    3    3    0    0 -0.10926968624E+02  0.52892269321E+01 -0.11848745997E+02  0.16963706754E+02  0.51100000000E-03 0. -1.
        -11    1    3    3    0    0 -0.32250926759E+01 -0.10034630984E+02  0.18552379658E+01  0.10702193696E+02  0.51100000000E-03 0.  1.
        -12    1    3    3    0    0 -0.16772172511E+02 -0.99344677638E+01 -0.11946371002E+02  0.22862965701E+02  0.00000000000E+00 0.  1.
</event>
<event>
 7    1  0.5897985E-013  0.5052889E+02  0.7816164E-02  0.1300439E+00
        -11   -1    0    0    0    0  0.00000000000E+00  0.00000000000E+00  0.45593999997E+02  0.45594000000E+02  0.51100000000E-03 0.  1.
         11   -1    0    0    0    0 -0.00000000000E+00 -0.00000000000E+00 -0.45593999997E+02  0.45594000000E+02  0.51100000000E-03 0. -1.
    9900012    2    1    2    0    0 -0.15513257077E+02  0.19597707855E+02 -0.32069178131E+02  0.50528886824E+02  0.30000081989E+02 0.  0.
         12    1    1    2    0    0  0.15513257077E+02 -0.19597707855E+02  0.32069178131E+02  0.40659113176E+02  0.00000000000E+00 0. -1.
         11    1    3    3    0    0  0.25235544009E+01 -0.58307724120E+01 -0.22312712495E+01  0.67338551651E+01  0.51100000000E-03 0. -1.
        -11    1    3    3    0    0 -0.60179621289E+01  0.14056228655E+02 -0.11772524977E+02  0.19297299728E+02  0.51100000000E-03 0.  1.
         12    1    3    3    0    0 -0.12018849349E+02  0.11372251612E+02 -0.18065381904E+02  0.24497731931E+02  0.00000000000E+00 0. -1.
</event>
<event>
 7    1  0.5897985E-013  0.5052886E+02  0.7816164E-02  0.1300439E+00
        -11   -1    0    0    0    0  0.00000000000E+00  0.00000000000E+00  0.45593999997E+02  0.45594000000E+02  0.51100000000E-03 0.  1.
         11   -1    0    0    0    0 -0.00000000000E+00 -0.00000000000E+00 -0.45593999997E+02  0.45594000000E+02  0.51100000000E-03 0. -1.
    9900012    2    1    2    0    0 -0.25288583679E+02 -0.10177507477E+02  0.30167391706E+02  0.50528860249E+02  0.30000001214E+02 0.  0.
         12    1    1    2    0    0  0.25288583679E+02  0.10177507477E+02 -0.30167391706E+02  0.40659139751E+02  0.00000000000E+00 0. -1.
         11    1    3    3    0    0 -0.31438795624E+01  0.95962598082E+00 -0.17153567825E+01  0.37077364898E+01  0.51100000000E-03 0. -1.
        -11    1    3    3    0    0 -0.18221219579E+02  0.74590649315E+00  0.28539099438E+02  0.33868117993E+02  0.51100000000E-03 0.  1.
        -12    1    3    3    0    0 -0.39234845377E+01 -0.11883039951E+02  0.33436490506E+01  0.12953005766E+02  0.00000000000E+00 0.  1.
</event>
<event>
 7    1  0.5897985E-013  0.5052886E+02  0.7816164E-02  0.1300439E+00
        -11   -1    0    0    0    0  0.00000000000E+00  0.00000000000E+00  0.45593999997E+02  0.45594000000E+02  0.51100000000E-03 0. -1.
         11   -1    0    0    0    0 -0.00000000000E+00 -0.00000000000E+00 -0.45593999997E+02  0.45594000000E+02  0.51100000000E-03 0.  1.
    9900012    2    1    2    0    0  0.15875707622E+02  0.31182918588E+02 -0.20706360238E+02  0.50528857627E+02  0.29999993243E+02 0.  0.
         12    1    1    2    0    0 -0.15875707622E+02 -0.31182918588E+02  0.20706360238E+02  0.40659142373E+02  0.00000000000E+00 0. -1.
         11    1    3    3    0    0 -0.12808122195E+01  0.14648325728E+02  0.39803991166E+01  0.15233433755E+02  0.51100000000E-03 0. -1.
        -11    1    3    3    0    0  0.13590434786E+02  0.92149049823E+01 -0.20085607420E+02  0.25943130443E+02  0.51100000000E-03 0.  1.
         12    1    3    3    0    0  0.35660850558E+01  0.73196878779E+01 -0.46011519349E+01  0.93522934291E+01  0.00000000000E+00 0. -1.
</event>
<event>
 7    1  0.5897985E-013  0.5052887E+02  0.7816164E-02  0.1300439E+00
        -11   -1    0    0    0    0  0.00000000000E+00  0.00000000000E+00  0.45593999997E+02  0.45594000000E+02  0.51100000000E-03 0.  1.
         11   -1    0    0    0    0 -0.00000000000E+00 -0.00000000000E+00 -0.45593999997E+02  0.45594000000E+02  0.51100000000E-03 0. -1.
    9900012    2    1    2    0    0 -0.11069933741E+02 -0.45577500306E+01  0.38856770746E+02  0.50528866325E+02  0.30000019683E+02 0.  0.
         12    1    1    2    0    0  0.11069933741E+02  0.45577500306E+01 -0.38856770746E+02  0.40659133675E+02  0.00000000000E+00 0. -1.
         11    1    3    3    0    0 -0.54785320789E+01  0.11398810477E+02  0.23782798502E+02  0.26936382439E+02  0.51100000000E-03 0. -1.
        -11    1    3    3    0    0 -0.40548774009E+01 -0.12704783095E+02  0.14893057097E+02  0.19991415512E+02  0.51100000000E-03 0.  1.
         12    1    3    3    0    0 -0.15365242612E+01 -0.32517774129E+01  0.18091514628E+00  0.36010683745E+01  0.00000000000E+00 0. -1.
</event>
<event>
 7    1  0.5897985E-013  0.5052885E+02  0.7816164E-02  0.1300439E+00
        -11   -1    0    0    0    0  0.00000000000E+00  0.00000000000E+00  0.45593999997E+02  0.45594000000E+02  0.51100000000E-03 0. -1.
         11   -1    0    0    0    0 -0.00000000000E+00 -0.00000000000E+00 -0.45593999997E+02  0.45594000000E+02  0.51100000000E-03 0.  1.
    9900012    2    1    2    0    0 -0.12392589603E+02  0.26053883436E+02 -0.28649344989E+02  0.50528854811E+02  0.29999984684E+02 0.  0.
         12    1    1    2    0    0  0.12392589603E+02 -0.26053883436E+02  0.28649344989E+02  0.40659145189E+02  0.00000000000E+00 0. -1.
         11    1    3    3    0    0 -0.15052939768E+02  0.82433631736E+01 -0.26135418705E+02  0.31266661850E+02  0.51100000000E-03 0. -1.
        -11    1    3    3    0    0  0.55105390828E+00  0.31602498478E+01  0.20091664645E+01  0.37851802670E+01  0.51100000000E-03 0.  1.
         12    1    3    3    0    0  0.21092962568E+01  0.14650270415E+02 -0.45230927479E+01  0.15477012694E+02  0.00000000000E+00 0. -1.
</event>
<event>
 7    1  0.5897985E-013  0.5052886E+02  0.7816164E-02  0.1300439E+00
        -11   -1    0    0    0    0  0.00000000000E+00  0.00000000000E+00  0.45593999997E+02  0.45594000000E+02  0.51100000000E-03 0.  1.
         11   -1    0    0    0    0 -0.00000000000E+00 -0.00000000000E+00 -0.45593999997E+02  0.45594000000E+02  0.51100000000E-03 0. -1.
    9900012    2    1    2    0    0 -0.23626520149E+02  0.24152578060E+02  0.22618709486E+02  0.50528862035E+02  0.30000006641E+02 0.  0.
         12    1    1    2    0    0  0.23626520149E+02 -0.24152578060E+02 -0.22618709486E+02  0.40659137965E+02  0.00000000000E+00 0. -1.
         11    1    3    3    0    0  0.19173807305E+01  0.80946324984E+01 -0.44374450514E+01  0.94281675311E+01  0.51100000000E-03 0. -1.
        -11    1    3    3    0    0 -0.16174176681E+02  0.13749663233E+02  0.17388752388E+02  0.27441318121E+02  0.51100000000E-03 0.  1.
         12    1    3    3    0    0 -0.93697241980E+01  0.23082823289E+01  0.96674021493E+01  0.13659376383E+02  0.00000000000E+00 0. -1.
</event>
<event>
 7    1  0.5897985E-013  0.5052890E+02  0.7816164E-02  0.1300439E+00
        -11   -1    0    0    0    0  0.00000000000E+00  0.00000000000E+00  0.45593999997E+02  0.45594000000E+02  0.51100000000E-03 0.  1.
         11   -1    0    0    0    0 -0.00000000000E+00 -0.00000000000E+00 -0.45593999997E+02  0.45594000000E+02  0.51100000000E-03 0. -1.
    9900012    2    1    2    0    0 -0.13077546629E+02 -0.28273176740E+02  0.26129830335E+02  0.50528895459E+02  0.30000108236E+02 0.  0.
         12    1    1    2    0    0  0.13077546629E+02  0.28273176740E+02 -0.26129830335E+02  0.40659104541E+02  0.00000000000E+00 0. -1.
         11    1    3    3    0    0 -0.62093819645E+01  0.47823663588E+01  0.98320753551E+01  0.12573669250E+02  0.51100000000E-03 0. -1.
        -11    1    3    3    0    0 -0.29355228463E+01 -0.20778553739E+02  0.12865129742E+02  0.24614571973E+02  0.51100000000E-03 0.  1.
         12    1    3    3    0    0 -0.39326418178E+01 -0.12276989360E+02  0.34326252375E+01  0.13340654235E+02  0.00000000000E+00 0. -1.
</event>
<event>
 7    1  0.5897985E-013  0.5052886E+02  0.7816164E-02  0.1300439E+00
        -11   -1    0    0    0    0  0.00000000000E+00  0.00000000000E+00  0.45593999997E+02  0.45594000000E+02  0.51100000000E-03 0.  1.
         11   -1    0    0    0    0 -0.00000000000E+00 -0.00000000000E+00 -0.45593999997E+02  0.45594000000E+02  0.51100000000E-03 0. -1.
    9900012    2    1    2    0    0  0.24032938306E+02  0.84869062801E+01  0.31678945786E+02  0.50528864397E+02  0.30000013822E+02 0.  0.
         12    1    1    2    0    0 -0.24032938306E+02 -0.84869062801E+01 -0.31678945786E+02  0.40659135603E+02  0.00000000000E+00 0. -1.
         11    1    3    3    0    0  0.41188972107E+01 -0.48519001038E+01  0.17320431035E+01  0.65959246830E+01  0.51100000000E-03 0. -1.
        -11    1    3    3    0    0  0.18197166068E+02  0.12630035929E+02  0.33361686125E+02  0.40045683436E+02  0.51100000000E-03 0.  1.
        -12    1    3    3    0    0  0.17168750268E+01  0.70877045526E+00 -0.34147834422E+01  0.38872562783E+01  0.00000000000E+00 0.  1.
</event>
<event>
 7    1  0.5897985E-013  0.5052885E+02  0.7816164E-02  0.1300439E+00
        -11   -1    0    0    0    0  0.00000000000E+00  0.00000000000E+00  0.45593999997E+02  0.45594000000E+02  0.51100000000E-03 0. -1.
         11   -1    0    0    0    0 -0.00000000000E+00 -0.00000000000E+00 -0.45593999997E+02  0.45594000000E+02  0.51100000000E-03 0.  1.
    9900012    2    1    2    0    0 -0.32876908064E+02 -0.10755146555E+02 -0.21368250523E+02  0.50528851070E+02  0.29999973313E+02 0.  0.
         12    1    1    2    0    0  0.32876908064E+02  0.10755146555E+02  0.21368250523E+02  0.40659148930E+02  0.00000000000E+00 0. -1.
         11    1    3    3    0    0 -0.16951219398E+02 -0.17034145409E+02 -0.18919887197E+02  0.30585422683E+02  0.51100000000E-03 0. -1.
        -11    1    3    3    0    0  0.36433803336E+00  0.23229774667E+01  0.14098618209E+01  0.27416559099E+01  0.51100000000E-03 0.  1.
         12    1    3    3    0    0 -0.16290026699E+02  0.39560213873E+01 -0.38582251475E+01  0.17201772477E+02  0.00000000000E+00 0. -1.
</event>
<event>
 7    1  0.5897985E-013  0.5052886E+02  0.7816164E-02  0.1300439E+00
        -11   -1    0    0    0    0  0.00000000000E+00  0.00000000000E+00  0.45593999997E+02  0.45594000000E+02  0.51100000000E-03 0. -1.
         11   -1    0    0    0    0 -0.00000000000E+00 -0.00000000000E+00 -0.45593999997E+02  0.45594000000E+02  0.51100000000E-03 0.  1.
    9900012    2    1    2    0    0  0.43774963918E+00  0.31738511197E+02 -0.25409464724E+02  0.50528860618E+02  0.30000002334E+02 0.  0.
         12    1    1    2    0    0 -0.43774963918E+00 -0.31738511197E+02  0.25409464724E+02  0.40659139382E+02  0.00000000000E+00 0. -1.
         11    1    3    3    0    0 -0.99036965574E+00 -0.81404401597E+00 -0.50719115355E+01  0.52314229995E+01  0.51100000000E-03 0. -1.
        -11    1    3    3    0    0 -0.91847213493E+01  0.22480462652E+02 -0.64540353939E+01  0.25127373131E+02  0.51100000000E-03 0.  1.
        -12    1    3    3    0    0  0.10612840644E+02  0.10072092560E+02 -0.13883517794E+02  0.20170064488E+02  0.00000000000E+00 0.  1.
</event>
<event>
 7    1  0.5897985E-013  0.5052888E+02  0.7816164E-02  0.1300439E+00
        -11   -1    0    0    0    0  0.00000000000E+00  0.00000000000E+00  0.45593999997E+02  0.45594000000E+02  0.51100000000E-03 0.  1.
         11   -1    0    0    0    0 -0.00000000000E+00 -0.00000000000E+00 -0.45593999997E+02  0.45594000000E+02  0.51100000000E-03 0. -1.
    9900012    2    1    2    0    0 -0.31185954695E+02  0.20604903679E+02  0.16001206367E+02  0.50528875181E+02  0.30000046600E+02 0.  0.
         12    1    1    2    0    0  0.31185954695E+02 -0.20604903679E+02 -0.16001206367E+02  0.40659124819E+02  0.00000000000E+00 0. -1.
         11    1    3    3    0    0 -0.42384960408E+01  0.69217977711E+01 -0.71379858401E+01  0.10808652792E+02  0.51100000000E-03 0. -1.
        -11    1    3    3    0    0 -0.18414059587E+02  0.51983084112E+01  0.19077646029E+02  0.27019559195E+02  0.51100000000E-03 0.  1.
        -12    1    3    3    0    0 -0.85333990675E+01  0.84847974963E+01  0.40615461775E+01  0.12700663193E+02  0.00000000000E+00 0.  1.
</event>
<event>
 7    1  0.5897985E-013  0.5052885E+02  0.7816164E-02  0.1300439E+00
        -11   -1    0    0    0    0  0.00000000000E+00  0.00000000000E+00  0.45593999997E+02  0.45594000000E+02  0.51100000000E-03 0.  1.
         11   -1    0    0    0    0 -0.00000000000E+00 -0.00000000000E+00 -0.45593999997E+02  0.45594000000E+02  0.51100000000E-03 0. -1.
    9900012    2    1    2    0    0 -0.16863915678E+02  0.14813049924E+02  0.33902035624E+02  0.50528854418E+02  0.29999983488E+02 0.  0.
         12    1    1    2    0    0  0.16863915678E+02 -0.14813049924E+02 -0.33902035624E+02  0.40659145582E+02  0.00000000000E+00 0. -1.
         11    1    3    3    0    0 -0.13729742870E+02  0.28253395320E+01  0.29482490254E+02  0.32645146876E+02  0.51100000000E-03 0. -1.
        -11    1    3    3    0    0 -0.47257089201E+01  0.12012170452E+02 -0.29090622285E+00  0.12911591322E+02  0.51100000000E-03 0.  1.
         12    1    3    3    0    0  0.15915361122E+01 -0.24460060728E-01  0.47104515930E+01  0.49721162196E+01  0.00000000000E+00 0. -1.
</event>
<event>
 7    1  0.5897985E-013  0.5052886E+02  0.7816164E-02  0.1300439E+00
        -11   -1    0    0    0    0  0.00000000000E+00  0.00000000000E+00  0.45593999997E+02  0.45594000000E+02  0.51100000000E-03 0.  1.
         11   -1    0    0    0    0 -0.00000000000E+00 -0.00000000000E+00 -0.45593999997E+02  0.45594000000E+02  0.51100000000E-03 0. -1.
    9900012    2    1    2    0    0  0.27125371741E+00  0.36655064115E+02 -0.17592565607E+02  0.50528859964E+02  0.30000000347E+02 0.  0.
         12    1    1    2    0    0 -0.27125371741E+00 -0.36655064115E+02  0.17592565607E+02  0.40659140036E+02  0.00000000000E+00 0. -1.
         11    1    3    3    0    0 -0.86075295245E+01  0.59786761917E+01 -0.95727847739E+01  0.14194095325E+02  0.51100000000E-03 0. -1.
        -11    1    3    3    0    0  0.47552129779E+01  0.26157746288E+02 -0.43437609052E+00  0.26590006096E+02  0.51100000000E-03 0.  1.
         12    1    3    3    0    0  0.41235702640E+01  0.45186416350E+01 -0.75854047425E+01  0.97447585427E+01  0.00000000000E+00 0. -1.
</event>
<event>
 7    1  0.5897985E-013  0.5052885E+02  0.7816164E-02  0.1300439E+00
        -11   -1    0    0    0    0  0.00000000000E+00  0.00000000000E+00  0.45593999997E+02  0.45594000000E+02  0.51100000000E-03 0.  1.
         11   -1    0    0    0    0 -0.00000000000E+00 -0.00000000000E+00 -0.45593999997E+02  0.45594000000E+02  0.51100000000E-03 0. -1.
    9900012    2    1    2    0    0 -0.22770737687E+02  0.10236970134E+02  0.32091497720E+02  0.50528852465E+02  0.29999977553E+02 0.  0.
         12    1    1    2    0    0  0.22770737687E+02 -0.10236970134E+02 -0.32091497720E+02  0.40659147535E+02  0.00000000000E+00 0. -1.
         11    1    3    3    0    0  0.10164654863E+01  0.74040877292E+01  0.15688910084E+02  0.17378021091E+02  0.51100000000E-03 0. -1.
        -11    1    3    3    0    0 -0.19607149323E+02 -0.43668476357E+01  0.14003369593E+02  0.24486813249E+02  0.51100000000E-03 0.  1.
         12    1    3    3    0    0 -0.41800538507E+01  0.71997300404E+01  0.23992180431E+01  0.86640181249E+01  0.00000000000E+00 0. -1.
</event>
<event>
 7    1  0.5897985E-013  0.5052886E+02  0.7816164E-02  0.1300439E+00
        -11   -1    0    0    0    0  0.00000000000E+00  0.00000000000E+00  0.45593999997E+02  0.45594000000E+02  0.51100000000E-03 0.  1.
         11   -1    0    0    0    0 -0.00000000000E+00 -0.00000000000E+00 -0.45593999997E+02  0.45594000000E+02  0.51100000000E-03 0. -1.
    9900012    2    1    2    0    0  0.93706754451E+01  0.12828894255E+02  0.37426936256E+02  0.50528860270E+02  0.30000001275E+02 0.  0.
         12    1    1    2    0    0 -0.93706754451E+01 -0.12828894255E+02 -0.37426936256E+02  0.40659139730E+02  0.00000000000E+00 0. -1.
         11    1    3    3    0    0 -0.37140633929E+01 -0.53671561917E+01  0.15087643476E+02  0.16438905633E+02  0.51100000000E-03 0. -1.
        -11    1    3    3    0    0  0.11356101311E+02  0.93126675316E+01  0.69751218881E+01  0.16258509746E+02  0.51100000000E-03 0.  1.
         12    1    3    3    0    0  0.17286375273E+01  0.88833829149E+01  0.15364170892E+02  0.17831444891E+02  0.00000000000E+00 0. -1.
</event>
<event>
 7    1  0.5897985E-013  0.5052886E+02  0.7816164E-02  0.1300439E+00
        -11   -1    0    0    0    0  0.00000000000E+00  0.00000000000E+00  0.45593999997E+02  0.45594000000E+02  0.51100000000E-03 0.  1.
         11   -1    0    0    0    0 -0.00000000000E+00 -0.00000000000E+00 -0.45593999997E+02  0.45594000000E+02  0.51100000000E-03 0. -1.
    9900012    2    1    2    0    0 -0.26592136736E+02  0.88063265048E+01  0.29469851378E+02  0.50528864951E+02  0.30000015505E+02 0.  0.
         12    1    1    2    0    0  0.26592136736E+02 -0.88063265048E+01 -0.29469851378E+02  0.40659135049E+02  0.00000000000E+00 0. -1.
         11    1    3    3    0    0 -0.77457214858E+01 -0.75505695971E+01  0.31064413647E+01  0.11254211691E+02  0.51100000000E-03 0.  1.
        -11    1    3    3    0    0 -0.13806685539E+02  0.17623361127E+02  0.15492017878E+02  0.27225172932E+02  0.51100000000E-03 0. -1.
         12    1    3    3    0    0 -0.50397297116E+01 -0.12664650249E+01  0.10871392135E+02  0.12049480328E+02  0.00000000000E+00 0. -1.
</event>
<event>
 7    1  0.5897985E-013  0.5052892E+02  0.7816164E-02  0.1300439E+00
        -11   -1    0    0    0    0  0.00000000000E+00  0.00000000000E+00  0.45593999997E+02  0.45594000000E+02  0.51100000000E-03 0.  1.
         11   -1    0    0    0    0 -0.00000000000E+00 -0.00000000000E+00 -0.45593999997E+02  0.45594000000E+02  0.51100000000E-03 0. -1.
    9900012    2    1    2    0    0 -0.40078280491E+02  0.68103173810E+01  0.71542945897E+00  0.50528919473E+02  0.30000181230E+02 0.  0.
         12    1    1    2    0    0  0.40078280491E+02 -0.68103173810E+01 -0.71542945897E+00  0.40659080527E+02  0.00000000000E+00 0. -1.
         11    1    3    3    0    0 -0.88512725141E+00  0.41927169174E+01  0.14883765193E+00  0.42877124797E+01  0.51100000000E-03 0. -1.
        -11    1    3    3    0    0 -0.22876272190E+02 -0.59418292188E+01 -0.92293478296E+01  0.25373411780E+02  0.51100000000E-03 0.  1.
        -12    1    3    3    0    0 -0.16316881050E+02  0.85594296824E+01  0.97959396366E+01  0.20867795213E+02  0.00000000000E+00 0.  1.
</event>
<event>
 7    1  0.5897985E-013  0.5052886E+02  0.7816164E-02  0.1300439E+00
        -11   -1    0    0    0    0  0.00000000000E+00  0.00000000000E+00  0.45593999997E+02  0.45594000000E+02  0.51100000000E-03 0.  1.
         11   -1    0    0    0    0 -0.00000000000E+00 -0.00000000000E+00 -0.45593999997E+02  0.45594000000E+02  0.51100000000E-03 0. -1.
    9900012    2    1    2    0    0 -0.37548170270E+02  0.79965910896E+00  0.15577584248E+02  0.50528859868E+02  0.30000000054E+02 0.  0.
         12    1    1    2    0    0  0.37548170270E+02 -0.79965910896E+00 -0.15577584248E+02  0.40659140132E+02  0.00000000000E+00 0. -1.
         11    1    3    3    0    0 -0.28053712440E+02 -0.10086907918E+02  0.78291388298E+01  0.30822912064E+02  0.51100000000E-03 0. -1.
        -11    1    3    3    0    0 -0.73893770710E+01  0.83312552506E+01  0.10571674116E+02  0.15354901544E+02  0.51100000000E-03 0.  1.
         12    1    3    3    0    0 -0.21050807586E+01  0.25553117767E+01 -0.28232286974E+01  0.43510462597E+01  0.00000000000E+00 0. -1.
</event>
<event>
 7    1  0.5897985E-013  0.5052886E+02  0.7816164E-02  0.1300439E+00
        -11   -1    0    0    0    0  0.00000000000E+00  0.00000000000E+00  0.45593999997E+02  0.45594000000E+02  0.51100000000E-03 0.  1.
         11   -1    0    0    0    0 -0.00000000000E+00 -0.00000000000E+00 -0.45593999997E+02  0.45594000000E+02  0.51100000000E-03 0. -1.
    9900012    2    1    2    0    0  0.24144206268E+02  0.11803606286E+02  0.30510615270E+02  0.50528862505E+02  0.30000008070E+02 0.  0.
         12    1    1    2    0    0 -0.24144206268E+02 -0.11803606286E+02 -0.30510615270E+02  0.40659137495E+02  0.00000000000E+00 0. -1.
         11    1    3    3    0    0  0.65894117277E+01  0.95389087869E+01 -0.16104138667E+01  0.11704894739E+02  0.51100000000E-03 0.  1.
        -11    1    3    3    0    0  0.49445450297E+01 -0.50636523497E+01  0.84733406725E+01  0.11040226587E+02  0.51100000000E-03 0. -1.
         12    1    3    3    0    0  0.12610249511E+02  0.73283498493E+01  0.23647688464E+02  0.27783741180E+02  0.00000000000E+00 0. -1.
</event>
<event>
 7    1  0.5897985E-013  0.5052884E+02  0.7816164E-02  0.1300439E+00
        -11   -1    0    0    0    0  0.00000000000E+00  0.00000000000E+00  0.45593999997E+02  0.45594000000E+02  0.51100000000E-03 0.  1.
         11   -1    0    0    0    0 -0.00000000000E+00 -0.00000000000E+00 -0.45593999997E+02  0.45594000000E+02  0.51100000000E-03 0. -1.
    9900012    2    1    2    0    0  0.37198367562E+02  0.14428298253E+02 -0.78276944312E+01  0.50528841870E+02  0.29999945348E+02 0.  0.
         12    1    1    2    0    0 -0.37198367562E+02 -0.14428298253E+02  0.78276944312E+01  0.40659158130E+02  0.00000000000E+00 0. -1.
         11    1    3    3    0    0  0.55166156755E+01  0.89832296570E+01 -0.87734415008E+01  0.13715128130E+02  0.51100000000E-03 0.  1.
        -11    1    3    3    0    0  0.13403212861E+02 -0.47069487927E+01 -0.50267770234E+01  0.15068841012E+02  0.51100000000E-03 0. -1.
         12    1    3    3    0    0  0.18278539025E+02  0.10152017388E+02  0.59725240931E+01  0.21744872728E+02  0.00000000000E+00 0. -1.
</event>
<event>
 7    1  0.5897985E-013  0.5052884E+02  0.7816164E-02  0.1300439E+00
        -11   -1    0    0    0    0  0.00000000000E+00  0.00000000000E+00  0.45593999997E+02  0.45594000000E+02  0.51100000000E-03 0. -1.
         11   -1    0    0    0    0 -0.00000000000E+00 -0.00000000000E+00 -0.45593999997E+02  0.45594000000E+02  0.51100000000E-03 0.  1.
    9900012    2    1    2    0    0  0.50923823776E+01 -0.18933014928E+02 -0.35619876101E+02  0.50528843762E+02  0.29999951098E+02 0.  0.
         12    1    1    2    0    0 -0.50923823776E+01  0.18933014928E+02  0.35619876101E+02  0.40659156238E+02  0.00000000000E+00 0. -1.
         11    1    3    3    0    0  0.78377741432E+01 -0.71941806103E+00 -0.17864645964E+01  0.80709182800E+01  0.51100000000E-03 0. -1.
        -11    1    3    3    0    0 -0.34807987130E+01 -0.16135480105E+02 -0.11742367720E+02  0.20257168554E+02  0.51100000000E-03 0.  1.
        -12    1    3    3    0    0  0.73540694743E+00 -0.20781167618E+01 -0.22091043785E+02  0.22200756928E+02  0.00000000000E+00 0.  1.
</event>
<event>
 7    1  0.5897985E-013  0.5052886E+02  0.7816164E-02  0.1300439E+00
        -11   -1    0    0    0    0  0.00000000000E+00  0.00000000000E+00  0.45593999997E+02  0.45594000000E+02  0.51100000000E-03 0.  1.
         11   -1    0    0    0    0 -0.00000000000E+00 -0.00000000000E+00 -0.45593999997E+02  0.45594000000E+02  0.51100000000E-03 0. -1.
    9900012    2    1    2    0    0 -0.18560619533E+02  0.23491597859E+02  0.27510257061E+02  0.50528855752E+02  0.29999987544E+02 0.  0.
         12    1    1    2    0    0  0.18560619533E+02 -0.23491597859E+02 -0.27510257061E+02  0.40659144248E+02  0.00000000000E+00 0. -1.
         11    1    3    3    0    0  0.45802823187E+00  0.13896301254E+02 -0.15890416439E+01  0.13994357149E+02  0.51100000000E-03 0. -1.
        -11    1    3    3    0    0 -0.12299374012E+02  0.91168977132E+01  0.21253971185E+02  0.26193963358E+02  0.51100000000E-03 0.  1.
         12    1    3    3    0    0 -0.67192737524E+01  0.47839889135E+00  0.78453275200E+01  0.10340535245E+02  0.00000000000E+00 0. -1.
</event>
<event>
 7    1  0.5897985E-013  0.5052886E+02  0.7816164E-02  0.1300439E+00
        -11   -1    0    0    0    0  0.00000000000E+00  0.00000000000E+00  0.45593999997E+02  0.45594000000E+02  0.51100000000E-03 0.  1.
         11   -1    0    0    0    0 -0.00000000000E+00 -0.00000000000E+00 -0.45593999997E+02  0.45594000000E+02  0.51100000000E-03 0. -1.
    9900012    2    1    2    0    0  0.24490123007E+02  0.11402174995E+02  0.30387334626E+02  0.50528858037E+02  0.29999994490E+02 0.  0.
         12    1    1    2    0    0 -0.24490123007E+02 -0.11402174995E+02 -0.30387334626E+02  0.40659141963E+02  0.00000000000E+00 0. -1.
         11    1    3    3    0    0 -0.78247833245E+00 -0.14154511591E+01 -0.40944391821E+01  0.44022956286E+01  0.51100000000E-03 0. -1.
        -11    1    3    3    0    0  0.15243875355E+02  0.10294643483E+02  0.13773079220E+02  0.22979406688E+02  0.51100000000E-03 0.  1.
         12    1    3    3    0    0  0.10028725985E+02  0.25229826712E+01  0.20708694587E+02  0.23147155720E+02  0.00000000000E+00 0. -1.
</event>
<event>
 7    1  0.5897985E-013  0.5052887E+02  0.7816164E-02  0.1300439E+00
        -11   -1    0    0    0    0  0.00000000000E+00  0.00000000000E+00  0.45593999997E+02  0.45594000000E+02  0.51100000000E-03 0.  1.
         11   -1    0    0    0    0 -0.00000000000E+00 -0.00000000000E+00 -0.45593999997E+02  0.45594000000E+02  0.51100000000E-03 0. -1.
    9900012    2    1    2    0    0  0.29550396471E+02 -0.21088510780E+02  0.18308846576E+02  0.50528867183E+02  0.30000022289E+02 0.  0.
         12    1    1    2    0    0 -0.29550396471E+02  0.21088510780E+02 -0.18308846576E+02  0.40659132817E+02  0.00000000000E+00 0. -1.
         11    1    3    3    0    0  0.30155770884E+01  0.40189224518E+01 -0.33656295374E+01  0.60475536620E+01  0.51100000000E-03 0. -1.
        -11    1    3    3    0    0  0.18870567422E+02 -0.10403681423E+02  0.16406148654E+02  0.27083142652E+02  0.51100000000E-03 0.  1.
         12    1    3    3    0    0  0.76642519600E+01 -0.14703751808E+02  0.52683274596E+01  0.17398170868E+02  0.00000000000E+00 0. -1.
</event>
<event>
 7    1  0.5897985E-013  0.5052886E+02  0.7816164E-02  0.1300439E+00
        -11   -1    0    0    0    0  0.00000000000E+00  0.00000000000E+00  0.45593999997E+02  0.45594000000E+02  0.51100000000E-03 0.  1.
         11   -1    0    0    0    0 -0.00000000000E+00 -0.00000000000E+00 -0.45593999997E+02  0.45594000000E+02  0.51100000000E-03 0. -1.
    9900012    2    1    2    0    0  0.91103669542E+01  0.13535548464E+01  0.39602211013E+02  0.50528855716E+02  0.29999987436E+02 0.  0.
         12    1    1    2    0    0 -0.91103669542E+01 -0.13535548464E+01 -0.39602211013E+02  0.40659144284E+02  0.00000000000E+00 0. -1.
         11    1    3    3    0    0  0.34345175036E+01  0.60893422425E+01  0.79624286602E+01  0.10596049729E+02  0.51100000000E-03 0. -1.
        -11    1    3    3    0    0 -0.49825882552E+00 -0.31655546219E+01 -0.31921123830E+01  0.45231161436E+01  0.51100000000E-03 0.  1.
        -12    1    3    3    0    0  0.61741082761E+01 -0.15702327742E+01  0.34831894736E+02  0.35409689844E+02  0.00000000000E+00 0.  1.
</event>
<event>
 7    1  0.5897985E-013  0.5052885E+02  0.7816164E-02  0.1300439E+00
        -11   -1    0    0    0    0  0.00000000000E+00  0.00000000000E+00  0.45593999997E+02  0.45594000000E+02  0.51100000000E-03 0.  1.
         11   -1    0    0    0    0 -0.00000000000E+00 -0.00000000000E+00 -0.45593999997E+02  0.45594000000E+02  0.51100000000E-03 0. -1.
    9900012    2    1    2    0    0 -0.22227163103E+02 -0.34021967604E+02 -0.12748536965E+01  0.50528852060E+02  0.29999976321E+02 0.  0.
         12    1    1    2    0    0  0.22227163103E+02  0.34021967604E+02  0.12748536965E+01  0.40659147940E+02  0.00000000000E+00 0. -1.
         11    1    3    3    0    0 -0.91205507821E+01 -0.29575955273E+02 -0.18808914117E+01  0.31007407657E+02  0.51100000000E-03 0. -1.
        -11    1    3    3    0    0 -0.14643748904E+02 -0.49458890090E+01  0.38221461035E+01  0.15921997399E+02  0.51100000000E-03 0.  1.
         12    1    3    3    0    0  0.15371365836E+01  0.49987667715E+00 -0.32161083883E+01  0.35994470039E+01  0.00000000000E+00 0. -1.
</event>
<event>
 7    1  0.5897985E-013  0.5052885E+02  0.7816164E-02  0.1300439E+00
        -11   -1    0    0    0    0  0.00000000000E+00  0.00000000000E+00  0.45593999997E+02  0.45594000000E+02  0.51100000000E-03 0. -1.
         11   -1    0    0    0    0 -0.00000000000E+00 -0.00000000000E+00 -0.45593999997E+02  0.45594000000E+02  0.51100000000E-03 0.  1.
    9900012    2    1    2    0    0  0.37778765870E+02  0.22145602322E+00  0.15029370826E+02  0.50528853663E+02  0.29999981195E+02 0.  0.
         12    1    1    2    0    0 -0.37778765870E+02 -0.22145602322E+00 -0.15029370826E+02  0.40659146337E+02  0.00000000000E+00 0. -1.
         11    1    3    3    0    0  0.91724161735E+01  0.88870576106E+01 -0.44588603827E+01  0.13527544035E+02  0.51100000000E-03 0. -1.
        -11    1    3    3    0    0  0.21706000369E+02 -0.10215105419E+02  0.17372963077E+02  0.29619565781E+02  0.51100000000E-03 0.  1.
        -12    1    3    3    0    0  0.69003493272E+01  0.15495038315E+01  0.21152681317E+01  0.73817438475E+01  0.00000000000E+00 0.  1.
</event>
<event>
 7    1  0.5897985E-013  0.5052887E+02  0.7816164E-02  0.1300439E+00
        -11   -1    0    0    0    0  0.00000000000E+00  0.00000000000E+00  0.45593999997E+02  0.45594000000E+02  0.51100000000E-03 0.  1.
         11   -1    0    0    0    0 -0.00000000000E+00 -0.00000000000E+00 -0.45593999997E+02  0.45594000000E+02  0.51100000000E-03 0. -1.
    9900012    2    1    2    0    0  0.16314559620E+02 -0.35112161099E+01  0.37076562920E+02  0.50528868035E+02  0.30000024880E+02 0.  0.
         12    1    1    2    0    0 -0.16314559620E+02  0.35112161099E+01 -0.37076562920E+02  0.40659131965E+02  0.00000000000E+00 0. -1.
         11    1    3    3    0    0  0.29559256393E+01  0.69976596050E+00  0.94151520974E-01  0.30390843283E+01  0.51100000000E-03 0. -1.
        -11    1    3    3    0    0 -0.70501006742E+01 -0.59153835007E+01  0.13400287759E+02  0.16256180171E+02  0.51100000000E-03 0.  1.
        -12    1    3    3    0    0  0.20408734655E+02  0.17044014302E+01  0.23582123640E+02  0.31233603536E+02  0.00000000000E+00 0.  1.
</event>
<event>
 7    1  0.5897985E-013  0.5052885E+02  0.7816164E-02  0.1300439E+00
        -11   -1    0    0    0    0  0.00000000000E+00  0.00000000000E+00  0.45593999997E+02  0.45594000000E+02  0.51100000000E-03 0. -1.
         11   -1    0    0    0    0 -0.00000000000E+00 -0.00000000000E+00 -0.45593999997E+02  0.45594000000E+02  0.51100000000E-03 0.  1.
    9900012    2    1    2    0    0  0.46169211400E+01  0.36055414123E+02 -0.18216958297E+02  0.50528850747E+02  0.29999972330E+02 0.  0.
         12    1    1    2    0    0 -0.46169211400E+01 -0.36055414123E+02  0.18216958297E+02  0.40659149253E+02  0.00000000000E+00 0. -1.
         11    1    3    3    0    0 -0.28858978820E+01 -0.28076500728E+00 -0.69369129808E+01  0.75185103272E+01  0.51100000000E-03 0. -1.
        -11    1    3    3    0    0  0.33083458514E+01  0.35567833311E+02 -0.13519070185E+02  0.38193993999E+02  0.51100000000E-03 0.  1.
        -12    1    3    3    0    0  0.41944731707E+01  0.76834581942E+00  0.22390248686E+01  0.48163464203E+01  0.00000000000E+00 0.  1.
</event>
<event>
 7    1  0.5897985E-013  0.5052886E+02  0.7816164E-02  0.1300439E+00
        -11   -1    0    0    0    0  0.00000000000E+00  0.00000000000E+00  0.45593999997E+02  0.45594000000E+02  0.51100000000E-03 0. -1.
         11   -1    0    0    0    0 -0.00000000000E+00 -0.00000000000E+00 -0.45593999997E+02  0.45594000000E+02  0.51100000000E-03 0.  1.
    9900012    2    1    2    0    0  0.33265391796E+02 -0.23256804382E+02  0.23875803300E+01  0.50528858577E+02  0.29999996132E+02 0.  0.
         12    1    1    2    0    0 -0.33265391796E+02  0.23256804382E+02 -0.23875803300E+01  0.40659141423E+02  0.00000000000E+00 0. -1.
         11    1    3    3    0    0 -0.13987467876E+01 -0.12665678242E+01  0.16488077429E+01  0.25058439423E+01  0.51100000000E-03 0. -1.
        -11    1    3    3    0    0  0.24821526887E+02 -0.22250295521E+02 -0.86283722200E+01  0.34433016934E+02  0.51100000000E-03 0.  1.
        -12    1    3    3    0    0  0.98426116965E+01  0.26005896274E+00  0.93671448071E+01  0.13589997701E+02  0.00000000000E+00 0.  1.
</event>
<event>
 7    1  0.5897985E-013  0.5052887E+02  0.7816164E-02  0.1300439E+00
        -11   -1    0    0    0    0  0.00000000000E+00  0.00000000000E+00  0.45593999997E+02  0.45594000000E+02  0.51100000000E-03 0.  1.
         11   -1    0    0    0    0 -0.00000000000E+00 -0.00000000000E+00 -0.45593999997E+02  0.45594000000E+02  0.51100000000E-03 0. -1.
    9900012    2    1    2    0    0  0.35728104091E+01 -0.18900788597E+02  0.35821229285E+02  0.50528865094E+02  0.30000015939E+02 0.  0.
         12    1    1    2    0    0 -0.35728104091E+01  0.18900788597E+02 -0.35821229285E+02  0.40659134906E+02  0.00000000000E+00 0. -1.
         11    1    3    3    0    0 -0.55561571866E+00  0.28324031203E+01 -0.29402092576E+01  0.41201998741E+01  0.51100000000E-03 0. -1.
        -11    1    3    3    0    0  0.73868642567E+00 -0.15232330246E+02  0.34979080667E+02  0.38158952121E+02  0.51100000000E-03 0.  1.
         12    1    3    3    0    0  0.33897397021E+01 -0.65008614709E+01  0.37823578756E+01  0.82497130987E+01  0.00000000000E+00 0. -1.
</event>
<event>
 7    1  0.5897985E-013  0.5052884E+02  0.7816164E-02  0.1300439E+00
        -11   -1    0    0    0    0  0.00000000000E+00  0.00000000000E+00  0.45593999997E+02  0.45594000000E+02  0.51100000000E-03 0.  1.
         11   -1    0    0    0    0 -0.00000000000E+00 -0.00000000000E+00 -0.45593999997E+02  0.45594000000E+02  0.51100000000E-03 0. -1.
    9900012    2    1    2    0    0  0.16396031974E+02  0.14290681079E+02  0.34352790249E+02  0.50528835866E+02  0.29999927098E+02 0.  0.
         12    1    1    2    0    0 -0.16396031974E+02 -0.14290681079E+02 -0.34352790249E+02  0.40659164134E+02  0.00000000000E+00 0. -1.
         11    1    3    3    0    0  0.84315046966E+01  0.14062855970E+02  0.37897109553E+01  0.16829025487E+02  0.51100000000E-03 0. -1.
        -11    1    3    3    0    0  0.10878588867E+02 -0.34948113857E+00  0.26649210202E+02  0.28786216102E+02  0.51100000000E-03 0.  1.
         12    1    3    3    0    0 -0.29140615892E+01  0.57730624764E+00  0.39138690916E+01  0.49135942766E+01  0.00000000000E+00 0. -1.
</event>
<event>
 7    1  0.5897985E-013  0.5052887E+02  0.7816164E-02  0.1300439E+00
        -11   -1    0    0    0    0  0.00000000000E+00  0.00000000000E+00  0.45593999997E+02  0.45594000000E+02  0.51100000000E-03 0. -1.
         11   -1    0    0    0    0 -0.00000000000E+00 -0.00000000000E+00 -0.45593999997E+02  0.45594000000E+02  0.51100000000E-03 0.  1.
    9900012    2    1    2    0    0  0.18707060231E+02  0.69463564476E+01 -0.35425397659E+02  0.50528871017E+02  0.30000033943E+02 0.  0.
         12    1    1    2    0    0 -0.18707060231E+02 -0.69463564476E+01  0.35425397659E+02  0.40659128983E+02  0.00000000000E+00 0. -1.
         11    1    3    3    0    0  0.12547033436E+02 -0.11222644213E+01 -0.15733739912E+02  0.20155349100E+02  0.51100000000E-03 0. -1.
        -11    1    3    3    0    0  0.13652471803E+01  0.13771551317E+02 -0.66506813824E+01  0.15354187984E+02  0.51100000000E-03 0.  1.
         12    1    3    3    0    0  0.47947796141E+01 -0.57029304477E+01 -0.13040976365E+02  0.15019333933E+02  0.00000000000E+00 0. -1.
</event>
<event>
 7    1  0.5897985E-013  0.5052886E+02  0.7816164E-02  0.1300439E+00
        -11   -1    0    0    0    0  0.00000000000E+00  0.00000000000E+00  0.45593999997E+02  0.45594000000E+02  0.51100000000E-03 0. -1.
         11   -1    0    0    0    0 -0.00000000000E+00 -0.00000000000E+00 -0.45593999997E+02  0.45594000000E+02  0.51100000000E-03 0.  1.
    9900012    2    1    2    0    0 -0.54016601748E+01  0.33598318885E+01 -0.40158428891E+02  0.50528858175E+02  0.29999994908E+02 0.  0.
         12    1    1    2    0    0  0.54016601748E+01 -0.33598318885E+01  0.40158428891E+02  0.40659141825E+02  0.00000000000E+00 0. -1.
         11    1    3    3    0    0  0.76114022792E+01 -0.24715702583E+01 -0.15526245784E+02  0.17467295515E+02  0.51100000000E-03 0. -1.
        -11    1    3    3    0    0 -0.10321892899E+02 -0.16861308679E+01 -0.44663175822E+01  0.11372444915E+02  0.51100000000E-03 0.  1.
        -12    1    3    3    0    0 -0.26911695546E+01  0.75175330147E+01 -0.20165865525E+02  0.21689117745E+02  0.00000000000E+00 0.  1.
</event>
<event>
 7    1  0.5897985E-013  0.5052887E+02  0.7816164E-02  0.1300439E+00
        -11   -1    0    0    0    0  0.00000000000E+00  0.00000000000E+00  0.45593999997E+02  0.45594000000E+02  0.51100000000E-03 0.  1.
         11   -1    0    0    0    0 -0.00000000000E+00 -0.00000000000E+00 -0.45593999997E+02  0.45594000000E+02  0.51100000000E-03 0. -1.
    9900012    2    1    2    0    0  0.10131720293E+02  0.24386378989E+02  0.30916303735E+02  0.50528867288E+02  0.30000022607E+02 0.  0.
         12    1    1    2    0    0 -0.10131720293E+02 -0.24386378989E+02 -0.30916303735E+02  0.40659132712E+02  0.00000000000E+00 0. -1.
         11    1    3    3    0    0 -0.32717663566E+01  0.86070766150E+01  0.37867843050E+01  0.99562020160E+01  0.51100000000E-03 0. -1.
        -11    1    3    3    0    0  0.85948233206E+01  0.12847430228E+00  0.21671536344E+02  0.23314008263E+02  0.51100000000E-03 0.  1.
        -12    1    3    3    0    0  0.48086633296E+01  0.15650828072E+02  0.54579830860E+01  0.17258657008E+02  0.00000000000E+00 0.  1.
</event>
<event>
 7    1  0.5897985E-013  0.5052886E+02  0.7816164E-02  0.1300439E+00
        -11   -1    0    0    0    0  0.00000000000E+00  0.00000000000E+00  0.45593999997E+02  0.45594000000E+02  0.51100000000E-03 0. -1.
         11   -1    0    0    0    0 -0.00000000000E+00 -0.00000000000E+00 -0.45593999997E+02  0.45594000000E+02  0.51100000000E-03 0.  1.
    9900012    2    1    2    0    0  0.43490185896E+01  0.40219950071E+02 -0.40752003204E+01  0.50528860756E+02  0.30000002754E+02 0.  0.
         12    1    1    2    0    0 -0.43490185896E+01 -0.40219950071E+02  0.40752003204E+01  0.40659139244E+02  0.00000000000E+00 0. -1.
         11    1    3    3    0    0  0.45929233280E+01  0.31036992942E+02  0.38687261474E+01  0.31612606945E+02  0.51100000000E-03 0. -1.
        -11    1    3    3    0    0  0.20043275721E+01 -0.29558332682E+01 -0.51361600654E+01  0.62557509384E+01  0.51100000000E-03 0.  1.
        -12    1    3    3    0    0 -0.22482323105E+01  0.12138790397E+02 -0.28077664024E+01  0.12660502873E+02  0.00000000000E+00 0.  1.
</event>
<event>
 7    1  0.5897985E-013  0.5052886E+02  0.7816164E-02  0.1300439E+00
        -11   -1    0    0    0    0  0.00000000000E+00  0.00000000000E+00  0.45593999997E+02  0.45594000000E+02  0.51100000000E-03 0. -1.
         11   -1    0    0    0    0 -0.00000000000E+00 -0.00000000000E+00 -0.45593999997E+02  0.45594000000E+02  0.51100000000E-03 0.  1.
    9900012    2    1    2    0    0 -0.18477316676E+02 -0.19356154719E+02 -0.30611980308E+02  0.50528864551E+02  0.30000014290E+02 0.  0.
         12    1    1    2    0    0  0.18477316676E+02  0.19356154719E+02  0.30611980308E+02  0.40659135449E+02  0.00000000000E+00 0. -1.
         11    1    3    3    0    0 -0.18235975420E+02  0.14032317901E+01 -0.13740396380E+02  0.22876152472E+02  0.51100000000E-03 0. -1.
        -11    1    3    3    0    0 -0.25780990474E+01 -0.15011537444E+02 -0.14440999985E+02  0.20988933559E+02  0.51100000000E-03 0.  1.
         12    1    3    3    0    0  0.23367577915E+01 -0.57478490656E+01 -0.24305839436E+01  0.66637785200E+01  0.00000000000E+00 0. -1.
</event>
<event>
 7    1  0.5897985E-013  0.5052886E+02  0.7816164E-02  0.1300439E+00
        -11   -1    0    0    0    0  0.00000000000E+00  0.00000000000E+00  0.45593999997E+02  0.45594000000E+02  0.51100000000E-03 0.  1.
         11   -1    0    0    0    0 -0.00000000000E+00 -0.00000000000E+00 -0.45593999997E+02  0.45594000000E+02  0.51100000000E-03 0. -1.
    9900012    2    1    2    0    0  0.18878659404E+02  0.35948915707E+02 -0.21065639139E+01  0.50528856712E+02  0.29999990461E+02 0.  0.
         12    1    1    2    0    0 -0.18878659404E+02 -0.35948915707E+02  0.21065639139E+01  0.40659143288E+02  0.00000000000E+00 0. -1.
         11    1    3    3    0    0 -0.38016894302E+01  0.15318909461E+02  0.26736333114E+01  0.16008439803E+02  0.51100000000E-03 0. -1.
        -11    1    3    3    0    0  0.15630782614E+02  0.21940096637E+02 -0.28123808904E+01  0.27085027083E+02  0.51100000000E-03 0.  1.
         12    1    3    3    0    0  0.70495662202E+01 -0.13100903907E+01 -0.19678163349E+01  0.74353898252E+01  0.00000000000E+00 0. -1.
</event>
<event>
 7    1  0.5897985E-013  0.5052886E+02  0.7816164E-02  0.1300439E+00
        -11   -1    0    0    0    0  0.00000000000E+00  0.00000000000E+00  0.45593999997E+02  0.45594000000E+02  0.51100000000E-03 0. -1.
         11   -1    0    0    0    0 -0.00000000000E+00 -0.00000000000E+00 -0.45593999997E+02  0.45594000000E+02  0.51100000000E-03 0.  1.
    9900012    2    1    2    0    0 -0.15884642747E+02  0.37419510642E+02 -0.78998054483E+00  0.50528859316E+02  0.29999998377E+02 0.  0.
         12    1    1    2    0    0  0.15884642747E+02 -0.37419510642E+02  0.78998054483E+00  0.40659140684E+02  0.00000000000E+00 0. -1.
         11    1    3    3    0    0 -0.97482498689E+00 -0.32317772347E+01  0.23080641335E+01  0.40892331989E+01  0.51100000000E-03 0. -1.
        -11    1    3    3    0    0 -0.68400128316E+01  0.35018308722E+02 -0.59961984756E+01  0.36180410690E+02  0.51100000000E-03 0.  1.
        -12    1    3    3    0    0 -0.80698049283E+01  0.56329791547E+01  0.28981537972E+01  0.10259215427E+02  0.00000000000E+00 0.  1.
</event>
<event>
 7    1  0.5897985E-013  0.5052882E+02  0.7816164E-02  0.1300439E+00
        -11   -1    0    0    0    0  0.00000000000E+00  0.00000000000E+00  0.45593999997E+02  0.45594000000E+02  0.51100000000E-03 0. -1.
         11   -1    0    0    0    0 -0.00000000000E+00 -0.00000000000E+00 -0.45593999997E+02  0.45594000000E+02  0.51100000000E-03 0.  1.
    9900012    2    1    2    0    0 -0.23129478902E+02  0.36347617529E+01 -0.33241307349E+02  0.50528821435E+02  0.29999883235E+02 0.  0.
         12    1    1    2    0    0  0.23129478902E+02 -0.36347617529E+01  0.33241307349E+02  0.40659178565E+02  0.00000000000E+00 0. -1.
         11    1    3    3    0    0 -0.38756475616E+01  0.48919318801E+01 -0.14155545284E+02  0.15470329799E+02  0.51100000000E-03 0. -1.
        -11    1    3    3    0    0 -0.10331804770E+02 -0.10124260751E+02 -0.32344207092E+01  0.14822561289E+02  0.51100000000E-03 0.  1.
        -12    1    3    3    0    0 -0.89220265701E+01  0.88670906243E+01 -0.15851341356E+02  0.20235930347E+02  0.00000000000E+00 0.  1.
</event>
<event>
 7    1  0.5897985E-013  0.5052886E+02  0.7816164E-02  0.1300439E+00
        -11   -1    0    0    0    0  0.00000000000E+00  0.00000000000E+00  0.45593999997E+02  0.45594000000E+02  0.51100000000E-03 0.  1.
         11   -1    0    0    0    0 -0.00000000000E+00 -0.00000000000E+00 -0.45593999997E+02  0.45594000000E+02  0.51100000000E-03 0. -1.
    9900012    2    1    2    0    0  0.17993212387E+01 -0.69437763333E+01  0.40021395908E+02  0.50528859366E+02  0.29999998528E+02 0.  0.
         12    1    1    2    0    0 -0.17993212387E+01  0.69437763333E+01 -0.40021395908E+02  0.40659140634E+02  0.00000000000E+00 0. -1.
         11    1    3    3    0    0  0.12127717941E+01  0.43035154980E+01  0.11882777382E+02  0.12696119866E+02  0.51100000000E-03 0. -1.
        -11    1    3    3    0    0 -0.31901826031E+01 -0.16480589994E+02  0.12544629604E+02  0.20956021658E+02  0.51100000000E-03 0.  1.
        -12    1    3    3    0    0  0.37767320478E+01  0.52332981625E+01  0.15593988922E+02  0.16876717842E+02  0.00000000000E+00 0.  1.
</event>
<event>
 7    1  0.5897985E-013  0.5052886E+02  0.7816164E-02  0.1300439E+00
        -11   -1    0    0    0    0  0.00000000000E+00  0.00000000000E+00  0.45593999997E+02  0.45594000000E+02  0.51100000000E-03 0. -1.
         11   -1    0    0    0    0 -0.00000000000E+00 -0.00000000000E+00 -0.45593999997E+02  0.45594000000E+02  0.51100000000E-03 0.  1.
    9900012    2    1    2    0    0 -0.26646525499E+02 -0.30709152892E+02 -0.27613383376E+00  0.50528860285E+02  0.30000001321E+02 0.  0.
         12    1    1    2    0    0  0.26646525499E+02  0.30709152892E+02  0.27613383376E+00  0.40659139715E+02  0.00000000000E+00 0. -1.
         11    1    3    3    0    0 -0.10166474873E+01  0.56875406078E-01  0.24972779710E-01  0.10185434827E+01  0.51100000000E-03 0. -1.
        -11    1    3    3    0    0 -0.25663426960E+02 -0.20064588592E+02 -0.10994969893E+02  0.34381514828E+02  0.51100000000E-03 0.  1.
        -12    1    3    3    0    0  0.33548948378E-01 -0.10701439706E+02  0.10693863279E+02  0.15128801974E+02  0.00000000000E+00 0.  1.
</event>
<event>
 7    1  0.5897985E-013  0.5052886E+02  0.7816164E-02  0.1300439E+00
        -11   -1    0    0    0    0  0.00000000000E+00  0.00000000000E+00  0.45593999997E+02  0.45594000000E+02  0.51100000000E-03 0.  1.
         11   -1    0    0    0    0 -0.00000000000E+00 -0.00000000000E+00 -0.45593999997E+02  0.45594000000E+02  0.51100000000E-03 0. -1.
    9900012    2    1    2    0    0 -0.24386768407E+02  0.32489087397E+02 -0.17058746434E+01  0.50528864723E+02  0.30000014811E+02 0.  0.
         12    1    1    2    0    0  0.24386768407E+02 -0.32489087397E+02  0.17058746434E+01  0.40659135277E+02  0.00000000000E+00 0. -1.
         11    1    3    3    0    0  0.86322756421E+00  0.21209117456E+02 -0.44439764204E+01  0.21686879715E+02  0.51100000000E-03 0. -1.
        -11    1    3    3    0    0 -0.18699766474E+02  0.11488689435E+02  0.62401098464E+00  0.21955879420E+02  0.51100000000E-03 0.  1.
         12    1    3    3    0    0 -0.65502294967E+01 -0.20871949384E+00  0.21140907924E+01  0.68861055877E+01  0.00000000000E+00 0. -1.
</event>
<event>
 7    1  0.5897985E-013  0.5052887E+02  0.7816164E-02  0.1300439E+00
        -11   -1    0    0    0    0  0.00000000000E+00  0.00000000000E+00  0.45593999997E+02  0.45594000000E+02  0.51100000000E-03 0.  1.
         11   -1    0    0    0    0 -0.00000000000E+00 -0.00000000000E+00 -0.45593999997E+02  0.45594000000E+02  0.51100000000E-03 0. -1.
    9900012    2    1    2    0    0 -0.94211079312E+01 -0.14067489672E+02  0.36966384709E+02  0.50528866478E+02  0.30000020146E+02 0.  0.
         12    1    1    2    0    0  0.94211079312E+01  0.14067489672E+02 -0.36966384709E+02  0.40659133522E+02  0.00000000000E+00 0. -1.
         11    1    3    3    0    0  0.30289773947E+01 -0.18379408120E+02  0.15134383835E+02  0.24000560852E+02  0.51100000000E-03 0. -1.
        -11    1    3    3    0    0 -0.68149558200E+01 -0.12198405116E+01  0.12626288161E+02  0.14399818981E+02  0.51100000000E-03 0.  1.
         12    1    3    3    0    0 -0.56351295059E+01  0.55317589594E+01  0.92057127129E+01  0.12128486645E+02  0.00000000000E+00 0. -1.
</event>
<event>
 7    1  0.5897985E-013  0.5052886E+02  0.7816164E-02  0.1300439E+00
        -11   -1    0    0    0    0  0.00000000000E+00  0.00000000000E+00  0.45593999997E+02  0.45594000000E+02  0.51100000000E-03 0.  1.
         11   -1    0    0    0    0 -0.00000000000E+00 -0.00000000000E+00 -0.45593999997E+02  0.45594000000E+02  0.51100000000E-03 0. -1.
    9900012    2    1    2    0    0 -0.81062424439E+01  0.23177701125E+02  0.32407543735E+02  0.50528857277E+02  0.29999992180E+02 0.  0.
         12    1    1    2    0    0  0.81062424439E+01 -0.23177701125E+02 -0.32407543735E+02  0.40659142723E+02  0.00000000000E+00 0. -1.
         11    1    3    3    0    0 -0.13824669091E+02  0.12266449099E+02  0.13299744846E+02  0.22769946469E+02  0.51100000000E-03 0. -1.
        -11    1    3    3    0    0  0.63320673780E+01 -0.22538424436E+01  0.85287067589E+01  0.10858808511E+02  0.51100000000E-03 0.  1.
         12    1    3    3    0    0 -0.61364073071E+00  0.13165094470E+02  0.10579092130E+02  0.16900102297E+02  0.00000000000E+00 0. -1.
</event>
<event>
 7    1  0.5897985E-013  0.5052883E+02  0.7816164E-02  0.1300439E+00
        -11   -1    0    0    0    0  0.00000000000E+00  0.00000000000E+00  0.45593999997E+02  0.45594000000E+02  0.51100000000E-03 0. -1.
         11   -1    0    0    0    0 -0.00000000000E+00 -0.00000000000E+00 -0.45593999997E+02  0.45594000000E+02  0.51100000000E-03 0.  1.
    9900012    2    1    2    0    0  0.26991052457E+02 -0.26900795677E+02 -0.14177393451E+02  0.50528828761E+02  0.29999905501E+02 0.  0.
         12    1    1    2    0    0 -0.26991052457E+02  0.26900795677E+02  0.14177393451E+02  0.40659171239E+02  0.00000000000E+00 0. -1.
         11    1    3    3    0    0  0.79764067867E+01 -0.18017954883E+02 -0.17894178205E+02  0.26617125639E+02  0.51100000000E-03 0. -1.
        -11    1    3    3    0    0  0.17706110916E+02 -0.76777308871E+01 -0.53110009343E+00  0.19306371563E+02  0.51100000000E-03 0.  1.
         12    1    3    3    0    0  0.13085347542E+01 -0.12051099068E+01  0.42478848473E+01  0.46053315588E+01  0.00000000000E+00 0. -1.
</event>
<event>
 7    1  0.5897985E-013  0.5052886E+02  0.7816164E-02  0.1300439E+00
        -11   -1    0    0    0    0  0.00000000000E+00  0.00000000000E+00  0.45593999997E+02  0.45594000000E+02  0.51100000000E-03 0.  1.
         11   -1    0    0    0    0 -0.00000000000E+00 -0.00000000000E+00 -0.45593999997E+02  0.45594000000E+02  0.51100000000E-03 0. -1.
    9900012    2    1    2    0    0 -0.17240355759E+02  0.14274343416E+01  0.36795355058E+02  0.50528860937E+02  0.30000003305E+02 0.  0.
         12    1    1    2    0    0  0.17240355759E+02 -0.14274343416E+01 -0.36795355058E+02  0.40659139063E+02  0.00000000000E+00 0. -1.
         11    1    3    3    0    0 -0.38542363960E+01  0.12700055210E+02  0.22135831567E+02  0.25809718711E+02  0.51100000000E-03 0. -1.
        -11    1    3    3    0    0 -0.11359014595E+01 -0.57842360033E+01  0.73919323308E+01  0.94545397620E+01  0.51100000000E-03 0.  1.
         12    1    3    3    0    0 -0.12250217904E+02 -0.54883848651E+01  0.72675911602E+01  0.15264602464E+02  0.00000000000E+00 0. -1.
</event>
<event>
 7    1  0.5897985E-013  0.5052883E+02  0.7816164E-02  0.1300439E+00
        -11   -1    0    0    0    0  0.00000000000E+00  0.00000000000E+00  0.45593999997E+02  0.45594000000E+02  0.51100000000E-03 0. -1.
         11   -1    0    0    0    0 -0.00000000000E+00 -0.00000000000E+00 -0.45593999997E+02  0.45594000000E+02  0.51100000000E-03 0.  1.
    9900012    2    1    2    0    0 -0.24794510330E+02 -0.98430199239E+01 -0.30684119548E+02  0.50528831586E+02  0.29999914088E+02 0.  0.
         12    1    1    2    0    0  0.24794510330E+02  0.98430199239E+01  0.30684119548E+02  0.40659168414E+02  0.00000000000E+00 0. -1.
         11    1    3    3    0    0 -0.93226250663E+01 -0.12605233038E+02 -0.11020145316E+02  0.19163685478E+02  0.51100000000E-03 0.  1.
        -11    1    3    3    0    0 -0.64261479925E+01  0.10265886451E+02 -0.13344184386E+02  0.18020850696E+02  0.51100000000E-03 0. -1.
         12    1    3    3    0    0 -0.90457372712E+01 -0.75036733361E+01 -0.63197898463E+01  0.13344295411E+02  0.00000000000E+00 0. -1.
</event>
<event>
 7    1  0.5897985E-013  0.5052887E+02  0.7816164E-02  0.1300439E+00
        -11   -1    0    0    0    0  0.00000000000E+00  0.00000000000E+00  0.45593999997E+02  0.45594000000E+02  0.51100000000E-03 0.  1.
         11   -1    0    0    0    0 -0.00000000000E+00 -0.00000000000E+00 -0.45593999997E+02  0.45594000000E+02  0.51100000000E-03 0. -1.
    9900012    2    1    2    0    0 -0.38621835580E+02  0.34544785895E+01  0.12230511575E+02  0.50528867947E+02  0.30000024611E+02 0.  0.
         12    1    1    2    0    0  0.38621835580E+02 -0.34544785895E+01 -0.12230511575E+02  0.40659132053E+02  0.00000000000E+00 0. -1.
         11    1    3    3    0    0 -0.83849959905E+01 -0.26652115264E+01 -0.63560481348E+01  0.10854071052E+02  0.51100000000E-03 0. -1.
        -11    1    3    3    0    0 -0.31006002002E+02  0.57421921813E+01  0.13140317596E+02  0.34161570192E+02  0.51100000000E-03 0.  1.
        -12    1    3    3    0    0  0.76916241245E+00  0.37749793463E+00  0.54462421145E+01  0.55132267028E+01  0.00000000000E+00 0.  1.
</event>
<event>
 7    1  0.5897985E-013  0.5052886E+02  0.7816164E-02  0.1300439E+00
        -11   -1    0    0    0    0  0.00000000000E+00  0.00000000000E+00  0.45593999997E+02  0.45594000000E+02  0.51100000000E-03 0.  1.
         11   -1    0    0    0    0 -0.00000000000E+00 -0.00000000000E+00 -0.45593999997E+02  0.45594000000E+02  0.51100000000E-03 0. -1.
    9900012    2    1    2    0    0 -0.25457202786E+02 -0.30758231931E+02  0.76829326402E+01  0.50528862538E+02  0.30000008172E+02 0.  0.
         12    1    1    2    0    0  0.25457202786E+02  0.30758231931E+02 -0.76829326402E+01  0.40659137462E+02  0.00000000000E+00 0. -1.
         11    1    3    3    0    0 -0.19386724807E+01 -0.65619454274E+01 -0.80288636614E+00  0.68892819334E+01  0.51100000000E-03 0. -1.
        -11    1    3    3    0    0 -0.17821297637E+02 -0.37930079915E+01 -0.45319946025E+01  0.18775636725E+02  0.51100000000E-03 0.  1.
        -12    1    3    3    0    0 -0.56972326674E+01 -0.20403278512E+02  0.13017813609E+02  0.24863943880E+02  0.00000000000E+00 0.  1.
</event>
<event>
 7    1  0.5897985E-013  0.5052886E+02  0.7816164E-02  0.1300439E+00
        -11   -1    0    0    0    0  0.00000000000E+00  0.00000000000E+00  0.45593999997E+02  0.45594000000E+02  0.51100000000E-03 0.  1.
         11   -1    0    0    0    0 -0.00000000000E+00 -0.00000000000E+00 -0.45593999997E+02  0.45594000000E+02  0.51100000000E-03 0. -1.
    9900012    2    1    2    0    0  0.13491618380E+02  0.35033463269E+02  0.15614050156E+02  0.50528857395E+02  0.29999992538E+02 0.  0.
         12    1    1    2    0    0 -0.13491618380E+02 -0.35033463269E+02 -0.15614050156E+02  0.40659142605E+02  0.00000000000E+00 0. -1.
         11    1    3    3    0    0 -0.17307270330E+01  0.29492932196E+02  0.90474811821E+01  0.30897983455E+02  0.51100000000E-03 0. -1.
        -11    1    3    3    0    0  0.16318912657E+02  0.50526092090E+01  0.53011851490E+01  0.17886820131E+02  0.51100000000E-03 0.  1.
         12    1    3    3    0    0 -0.10965672441E+01  0.48792186327E+00  0.12653838247E+01  0.17440538092E+01  0.00000000000E+00 0. -1.
</event>
<event>
 7    1  0.5897985E-013  0.5052886E+02  0.7816164E-02  0.1300439E+00
        -11   -1    0    0    0    0  0.00000000000E+00  0.00000000000E+00  0.45593999997E+02  0.45594000000E+02  0.51100000000E-03 0.  1.
         11   -1    0    0    0    0 -0.00000000000E+00 -0.00000000000E+00 -0.45593999997E+02  0.45594000000E+02  0.51100000000E-03 0. -1.
    9900012    2    1    2    0    0  0.10541897634E+02 -0.85746302532E+01  0.38321138874E+02  0.50528861122E+02  0.30000003867E+02 0.  0.
         12    1    1    2    0    0 -0.10541897634E+02  0.85746302532E+01 -0.38321138874E+02  0.40659138878E+02  0.00000000000E+00 0. -1.
         11    1    3    3    0    0 -0.26631043019E+01  0.67865715524E+01  0.24859697572E+02  0.25906644738E+02  0.51100000000E-03 0. -1.
        -11    1    3    3    0    0  0.94704850938E+01 -0.89320962268E+01  0.10027952443E+02  0.16432658378E+02  0.51100000000E-03 0.  1.
         12    1    3    3    0    0  0.37345168419E+01 -0.64291055788E+01  0.34334888589E+01  0.81895580058E+01  0.00000000000E+00 0. -1.
</event>
<event>
 7    1  0.5897985E-013  0.5052886E+02  0.7816164E-02  0.1300439E+00
        -11   -1    0    0    0    0  0.00000000000E+00  0.00000000000E+00  0.45593999997E+02  0.45594000000E+02  0.51100000000E-03 0.  1.
         11   -1    0    0    0    0 -0.00000000000E+00 -0.00000000000E+00 -0.45593999997E+02  0.45594000000E+02  0.51100000000E-03 0. -1.
    9900012    2    1    2    0    0 -0.20340931528E+02  0.34189424975E+02  0.83961465800E+01  0.50528861384E+02  0.30000004663E+02 0.  0.
         12    1    1    2    0    0  0.20340931528E+02 -0.34189424975E+02 -0.83961465800E+01  0.40659138616E+02  0.00000000000E+00 0. -1.
         11    1    3    3    0    0 -0.17260591977E+01  0.12862741288E+02  0.15547422990E+02  0.20252203724E+02  0.51100000000E-03 0.  1.
        -11    1    3    3    0    0 -0.88642234304E+01  0.13820458669E+02 -0.73046887641E+01  0.17970476150E+02  0.51100000000E-03 0. -1.
        -12    1    3    3    0    0 -0.97506489003E+01  0.75062250184E+01  0.15341235378E+00  0.12306181510E+02  0.00000000000E+00 0.  1.
</event>
<event>
 7    1  0.5897985E-013  0.5052884E+02  0.7816164E-02  0.1300439E+00
        -11   -1    0    0    0    0  0.00000000000E+00  0.00000000000E+00  0.45593999997E+02  0.45594000000E+02  0.51100000000E-03 0.  1.
         11   -1    0    0    0    0 -0.00000000000E+00 -0.00000000000E+00 -0.45593999997E+02  0.45594000000E+02  0.51100000000E-03 0. -1.
    9900012    2    1    2    0    0  0.94928740090E+01 -0.13124836201E+02  0.37293319590E+02  0.50528835371E+02  0.29999925595E+02 0.  0.
         12    1    1    2    0    0 -0.94928740090E+01  0.13124836201E+02 -0.37293319590E+02  0.40659164629E+02  0.00000000000E+00 0. -1.
         11    1    3    3    0    0  0.37106506551E+01  0.77649764240E+01  0.34056877667E+01  0.92554036419E+01  0.51100000000E-03 0. -1.
        -11    1    3    3    0    0  0.53306293484E+00 -0.16838778114E+02  0.22702861996E+02  0.28270984198E+02  0.51100000000E-03 0.  1.
         12    1    3    3    0    0  0.52491604190E+01 -0.40510345112E+01  0.11184769827E+02  0.13002447531E+02  0.00000000000E+00 0. -1.
</event>
<event>
 7    1  0.5897985E-013  0.5052886E+02  0.7816164E-02  0.1300439E+00
        -11   -1    0    0    0    0  0.00000000000E+00  0.00000000000E+00  0.45593999997E+02  0.45594000000E+02  0.51100000000E-03 0. -1.
         11   -1    0    0    0    0 -0.00000000000E+00 -0.00000000000E+00 -0.45593999997E+02  0.45594000000E+02  0.51100000000E-03 0.  1.
    9900012    2    1    2    0    0  0.16806501359E+02  0.23381799940E+02 -0.28705369928E+02  0.50528864260E+02  0.30000013406E+02 0.  0.
         12    1    1    2    0    0 -0.16806501359E+02 -0.23381799940E+02  0.28705369928E+02  0.40659135740E+02  0.00000000000E+00 0. -1.
         11    1    3    3    0    0  0.72787393083E+01 -0.40504751342E+01 -0.93649402261E+01  0.12533495140E+02  0.51100000000E-03 0. -1.
        -11    1    3    3    0    0  0.11359291460E+02  0.16256638888E+02 -0.17643152954E+02  0.26544164270E+02  0.51100000000E-03 0.  1.
         12    1    3    3    0    0 -0.18315294092E+01  0.11175636187E+02 -0.16972767484E+01  0.11451204850E+02  0.00000000000E+00 0. -1.
</event>
<event>
 7    1  0.5897985E-013  0.5052885E+02  0.7816164E-02  0.1300439E+00
        -11   -1    0    0    0    0  0.00000000000E+00  0.00000000000E+00  0.45593999997E+02  0.45594000000E+02  0.51100000000E-03 0.  1.
         11   -1    0    0    0    0 -0.00000000000E+00 -0.00000000000E+00 -0.45593999997E+02  0.45594000000E+02  0.51100000000E-03 0. -1.
    9900012    2    1    2    0    0  0.18533532511E+02  0.10641911192E+02  0.34589368904E+02  0.50528849218E+02  0.29999967682E+02 0.  0.
         12    1    1    2    0    0 -0.18533532511E+02 -0.10641911192E+02 -0.34589368904E+02  0.40659150782E+02  0.00000000000E+00 0. -1.
         11    1    3    3    0    0  0.10840336999E+02 -0.17655266432E+01  0.32046735731E+02  0.33876588699E+02  0.51100000000E-03 0. -1.
        -11    1    3    3    0    0  0.96034491176E+00  0.68091076030E+01 -0.14515277942E+01  0.70280254622E+01  0.51100000000E-03 0.  1.
        -12    1    3    3    0    0  0.67328506008E+01  0.55983302317E+01  0.39941609674E+01  0.96242350568E+01  0.00000000000E+00 0.  1.
</event>
<event>
 7    1  0.5897985E-013  0.5052886E+02  0.7816164E-02  0.1300439E+00
        -11   -1    0    0    0    0  0.00000000000E+00  0.00000000000E+00  0.45593999997E+02  0.45594000000E+02  0.51100000000E-03 0.  1.
         11   -1    0    0    0    0 -0.00000000000E+00 -0.00000000000E+00 -0.45593999997E+02  0.45594000000E+02  0.51100000000E-03 0. -1.
    9900012    2    1    2    0    0 -0.34639081432E+02 -0.15252961298E+02  0.14854175768E+02  0.50528864144E+02  0.30000013051E+02 0.  0.
         12    1    1    2    0    0  0.34639081432E+02  0.15252961298E+02 -0.14854175768E+02  0.40659135856E+02  0.00000000000E+00 0. -1.
         11    1    3    3    0    0 -0.27174088494E+02 -0.14336639704E+02 -0.13008690149E+01  0.30751627338E+02  0.51100000000E-03 0. -1.
        -11    1    3    3    0    0 -0.62859496272E+01 -0.33225178322E+01  0.15448474265E+02  0.17006106105E+02  0.51100000000E-03 0.  1.
         12    1    3    3    0    0 -0.11790433114E+01  0.24061962380E+01  0.70657051772E+00  0.27711307011E+01  0.00000000000E+00 0. -1.
</event>
<event>
 7    1  0.5897985E-013  0.5052886E+02  0.7816164E-02  0.1300439E+00
        -11   -1    0    0    0    0  0.00000000000E+00  0.00000000000E+00  0.45593999997E+02  0.45594000000E+02  0.51100000000E-03 0.  1.
         11   -1    0    0    0    0 -0.00000000000E+00 -0.00000000000E+00 -0.45593999997E+02  0.45594000000E+02  0.51100000000E-03 0. -1.
    9900012    2    1    2    0    0  0.31138796215E+02  0.69364578669E+01  0.25207675652E+02  0.50528856019E+02  0.29999988357E+02 0.  0.
         12    1    1    2    0    0 -0.31138796215E+02 -0.69364578669E+01 -0.25207675652E+02  0.40659143981E+02  0.00000000000E+00 0. -1.
         11    1    3    3    0    0  0.17979049637E+02  0.10678620903E+02  0.26600554475E+02  0.33835907980E+02  0.51100000000E-03 0.  1.
        -11    1    3    3    0    0  0.14313702465E+02 -0.20461059992E+01 -0.18899217170E+01  0.14582195733E+02  0.51100000000E-03 0. -1.
         12    1    3    3    0    0 -0.11539558870E+01 -0.16960570367E+01  0.49704289432E+00  0.21107523066E+01  0.00000000000E+00 0. -1.
</event>
<event>
 7    1  0.5897985E-013  0.5052886E+02  0.7816164E-02  0.1300439E+00
        -11   -1    0    0    0    0  0.00000000000E+00  0.00000000000E+00  0.45593999997E+02  0.45594000000E+02  0.51100000000E-03 0.  1.
         11   -1    0    0    0    0 -0.00000000000E+00 -0.00000000000E+00 -0.45593999997E+02  0.45594000000E+02  0.51100000000E-03 0. -1.
    9900012    2    1    2    0    0 -0.33377083489E+01 -0.31119735252E+02  0.25953564679E+02  0.50528859100E+02  0.29999997720E+02 0.  0.
         12    1    1    2    0    0  0.33377083489E+01  0.31119735252E+02 -0.25953564679E+02  0.40659140900E+02  0.00000000000E+00 0. -1.
         11    1    3    3    0    0  0.85387101356E+01 -0.10971027063E+02  0.10062883766E+01  0.13938637744E+02  0.51100000000E-03 0. -1.
        -11    1    3    3    0    0 -0.11014138112E+02 -0.12168803134E+02  0.23128274317E+02  0.28360325831E+02  0.51100000000E-03 0.  1.
        -12    1    3    3    0    0 -0.86228037253E+00 -0.79799050558E+01  0.18190019853E+01  0.82298955256E+01  0.00000000000E+00 0.  1.
</event>
<event>
 7    1  0.5897985E-013  0.5052885E+02  0.7816164E-02  0.1300439E+00
        -11   -1    0    0    0    0  0.00000000000E+00  0.00000000000E+00  0.45593999997E+02  0.45594000000E+02  0.51100000000E-03 0.  1.
         11   -1    0    0    0    0 -0.00000000000E+00 -0.00000000000E+00 -0.45593999997E+02  0.45594000000E+02  0.51100000000E-03 0. -1.
    9900012    2    1    2    0    0  0.37048272045E+02 -0.40968694703E+01  0.16242168620E+02  0.50528845527E+02  0.29999956464E+02 0.  0.
         12    1    1    2    0    0 -0.37048272045E+02  0.40968694703E+01 -0.16242168620E+02  0.40659154473E+02  0.00000000000E+00 0. -1.
         11    1    3    3    0    0  0.64460715130E+01  0.10476988374E+02 -0.10437794102E+01  0.12345387765E+02  0.51100000000E-03 0. -1.
        -11    1    3    3    0    0  0.98468413615E+01 -0.59012220813E+01  0.70305438313E+01  0.13461547224E+02  0.51100000000E-03 0.  1.
         12    1    3    3    0    0  0.20755359171E+02 -0.86726357631E+01  0.10255404199E+02  0.24721910538E+02  0.00000000000E+00 0. -1.
</event>
<event>
 7    1  0.5897985E-013  0.5052886E+02  0.7816164E-02  0.1300439E+00
        -11   -1    0    0    0    0  0.00000000000E+00  0.00000000000E+00  0.45593999997E+02  0.45594000000E+02  0.51100000000E-03 0. -1.
         11   -1    0    0    0    0 -0.00000000000E+00 -0.00000000000E+00 -0.45593999997E+02  0.45594000000E+02  0.51100000000E-03 0.  1.
    9900012    2    1    2    0    0 -0.40171989039E+02 -0.15563175591E+01 -0.60790787450E+01  0.50528855566E+02  0.29999986979E+02 0.  0.
         12    1    1    2    0    0  0.40171989039E+02  0.15563175591E+01  0.60790787450E+01  0.40659144434E+02  0.00000000000E+00 0. -1.
         11    1    3    3    0    0 -0.85003939389E+00  0.61138685331E+01  0.50232840886E+01  0.79583502504E+01  0.51100000000E-03 0. -1.
        -11    1    3    3    0    0 -0.14001590406E+02 -0.36436882424E+01 -0.85495124919E+01  0.16805212347E+02  0.51100000000E-03 0.  1.
         12    1    3    3    0    0 -0.25320359239E+02 -0.40264978499E+01 -0.25528503416E+01  0.25765292969E+02  0.00000000000E+00 0. -1.
</event>
<event>
 7    1  0.5897985E-013  0.5052886E+02  0.7816164E-02  0.1300439E+00
        -11   -1    0    0    0    0  0.00000000000E+00  0.00000000000E+00  0.45593999997E+02  0.45594000000E+02  0.51100000000E-03 0. -1.
         11   -1    0    0    0    0 -0.00000000000E+00 -0.00000000000E+00 -0.45593999997E+02  0.45594000000E+02  0.51100000000E-03 0.  1.
    9900012    2    1    2    0    0 -0.31571381063E+02  0.24045934899E+02 -0.88434531958E+01  0.50528858939E+02  0.29999997231E+02 0.  0.
         12    1    1    2    0    0  0.31571381063E+02 -0.24045934899E+02  0.88434531958E+01  0.40659141061E+02  0.00000000000E+00 0. -1.
         11    1    3    3    0    0 -0.23400098443E+02  0.25709317242E+02 -0.26612018340E+01  0.34865679337E+02  0.51100000000E-03 0. -1.
        -11    1    3    3    0    0 -0.32587740568E+01 -0.66327745060E+01 -0.28355596664E+01  0.79154093314E+01  0.51100000000E-03 0.  1.
         12    1    3    3    0    0 -0.49125085632E+01  0.49693921635E+01 -0.33466916954E+01  0.77477702703E+01  0.00000000000E+00 0. -1.
</event>
<event>
 7    1  0.5897985E-013  0.5052886E+02  0.7816164E-02  0.1300439E+00
        -11   -1    0    0    0    0  0.00000000000E+00  0.00000000000E+00  0.45593999997E+02  0.45594000000E+02  0.51100000000E-03 0. -1.
         11   -1    0    0    0    0 -0.00000000000E+00 -0.00000000000E+00 -0.45593999997E+02  0.45594000000E+02  0.51100000000E-03 0.  1.
    9900012    2    1    2    0    0 -0.35513507289E+02  0.19551281098E+02 -0.31150801922E+01  0.50528861824E+02  0.30000006001E+02 0.  0.
         12    1    1    2    0    0  0.35513507289E+02 -0.19551281098E+02  0.31150801922E+01  0.40659138176E+02  0.00000000000E+00 0. -1.
         11    1    3    3    0    0 -0.53700717971E+01  0.14339788406E+02  0.48898764491E+01  0.16074143665E+02  0.51100000000E-03 0. -1.
        -11    1    3    3    0    0 -0.31320338924E+02  0.44580101817E+01 -0.63120769481E+01  0.32259569135E+02  0.51100000000E-03 0.  1.
        -12    1    3    3    0    0  0.11769034318E+01  0.75348251106E+00 -0.16928796932E+01  0.21951490241E+01  0.00000000000E+00 0.  1.
</event>
<event>
 7    1  0.5897985E-013  0.5052887E+02  0.7816164E-02  0.1300439E+00
        -11   -1    0    0    0    0  0.00000000000E+00  0.00000000000E+00  0.45593999997E+02  0.45594000000E+02  0.51100000000E-03 0.  1.
         11   -1    0    0    0    0 -0.00000000000E+00 -0.00000000000E+00 -0.45593999997E+02  0.45594000000E+02  0.51100000000E-03 0. -1.
    9900012    2    1    2    0    0  0.48144803596E+01  0.19422150105E+02  0.35394431621E+02  0.50528869100E+02  0.30000028115E+02 0.  0.
         12    1    1    2    0    0 -0.48144803596E+01 -0.19422150105E+02 -0.35394431621E+02  0.40659130900E+02  0.00000000000E+00 0. -1.
         11    1    3    3    0    0  0.30511900688E+01  0.23068862494E+02  0.24747126551E+02  0.33969139677E+02  0.51100000000E-03 0. -1.
        -11    1    3    3    0    0 -0.18019973080E+01  0.38198988913E+01  0.49845714688E+01  0.65333586176E+01  0.51100000000E-03 0.  1.
         12    1    3    3    0    0  0.35652875988E+01 -0.74666112808E+01  0.56627336009E+01  0.10026370805E+02  0.00000000000E+00 0. -1.
</event>
<event>
 7    1  0.5897985E-013  0.5052886E+02  0.7816164E-02  0.1300439E+00
        -11   -1    0    0    0    0  0.00000000000E+00  0.00000000000E+00  0.45593999997E+02  0.45594000000E+02  0.51100000000E-03 0.  1.
         11   -1    0    0    0    0 -0.00000000000E+00 -0.00000000000E+00 -0.45593999997E+02  0.45594000000E+02  0.51100000000E-03 0. -1.
    9900012    2    1    2    0    0 -0.24969204365E+02 -0.17188654087E+02  0.27097133566E+02  0.50528860272E+02  0.30000001282E+02 0.  0.
         12    1    1    2    0    0  0.24969204365E+02  0.17188654087E+02 -0.27097133566E+02  0.40659139728E+02  0.00000000000E+00 0. -1.
         11    1    3    3    0    0 -0.10848225197E+02 -0.17098920824E+01  0.48906538049E+01  0.12021905662E+02  0.51100000000E-03 0. -1.
        -11    1    3    3    0    0 -0.75318836866E+00 -0.17862200403E+02  0.12397855494E+02  0.21756201807E+02  0.51100000000E-03 0.  1.
        -12    1    3    3    0    0 -0.13367790799E+02  0.23834383977E+01  0.98086242666E+01  0.16750752803E+02  0.00000000000E+00 0.  1.
</event>
<event>
 7    1  0.5897985E-013  0.5052886E+02  0.7816164E-02  0.1300439E+00
        -11   -1    0    0    0    0  0.00000000000E+00  0.00000000000E+00  0.45593999997E+02  0.45594000000E+02  0.51100000000E-03 0.  1.
         11   -1    0    0    0    0 -0.00000000000E+00 -0.00000000000E+00 -0.45593999997E+02  0.45594000000E+02  0.51100000000E-03 0. -1.
    9900012    2    1    2    0    0  0.91627454309E+00  0.40577650170E+02 -0.24041879402E+01  0.50528863610E+02  0.30000011428E+02 0.  0.
         12    1    1    2    0    0 -0.91627454309E+00 -0.40577650170E+02  0.24041879402E+01  0.40659136390E+02  0.00000000000E+00 0. -1.
         11    1    3    3    0    0  0.94546803943E+01  0.67396521292E+01  0.77615432781E+01  0.13966225206E+02  0.51100000000E-03 0. -1.
        -11    1    3    3    0    0 -0.65899187836E+01  0.18698246374E+02 -0.65019478986E+01  0.20864485946E+02  0.51100000000E-03 0.  1.
         12    1    3    3    0    0 -0.19484870677E+01  0.15139751666E+02 -0.36637833196E+01  0.15698152458E+02  0.00000000000E+00 0. -1.
</event>
<event>
 7    1  0.5897985E-013  0.5052887E+02  0.7816164E-02  0.1300439E+00
        -11   -1    0    0    0    0  0.00000000000E+00  0.00000000000E+00  0.45593999997E+02  0.45594000000E+02  0.51100000000E-03 0.  1.
         11   -1    0    0    0    0 -0.00000000000E+00 -0.00000000000E+00 -0.45593999997E+02  0.45594000000E+02  0.51100000000E-03 0. -1.
    9900012    2    1    2    0    0  0.73449151424E+01  0.29284297893E+02  0.27233201233E+02  0.50528866574E+02  0.30000020440E+02 0.  0.
         12    1    1    2    0    0 -0.73449151424E+01 -0.29284297893E+02 -0.27233201233E+02  0.40659133426E+02  0.00000000000E+00 0. -1.
         11    1    3    3    0    0  0.16389465688E+02  0.12197033405E+02  0.16227396381E+02  0.26090431253E+02  0.51100000000E-03 0. -1.
        -11    1    3    3    0    0 -0.23642195475E+01  0.53459326961E-01  0.43821117527E+01  0.49794874879E+01  0.51100000000E-03 0.  1.
         12    1    3    3    0    0 -0.66803309976E+01  0.17033805161E+02  0.66236930984E+01  0.19458947833E+02  0.00000000000E+00 0. -1.
</event>
<event>
 7    1  0.5897985E-013  0.5052886E+02  0.7816164E-02  0.1300439E+00
        -11   -1    0    0    0    0  0.00000000000E+00  0.00000000000E+00  0.45593999997E+02  0.45594000000E+02  0.51100000000E-03 0.  1.
         11   -1    0    0    0    0 -0.00000000000E+00 -0.00000000000E+00 -0.45593999997E+02  0.45594000000E+02  0.51100000000E-03 0. -1.
    9900012    2    1    2    0    0  0.28169416939E+02 -0.10242757112E+01  0.29301885738E+02  0.50528859586E+02  0.29999999196E+02 0.  0.
         12    1    1    2    0    0 -0.28169416939E+02  0.10242757112E+01 -0.29301885738E+02  0.40659140414E+02  0.00000000000E+00 0. -1.
         11    1    3    3    0    0 -0.59793368192E+00 -0.57983168989E+01  0.14978372037E+02  0.16072636146E+02  0.51100000000E-03 0. -1.
        -11    1    3    3    0    0  0.10601430196E+02  0.12260554639E+01  0.11575153055E+02  0.15744132326E+02  0.51100000000E-03 0.  1.
         12    1    3    3    0    0  0.18165920425E+02  0.35479857238E+01  0.27483606466E+01  0.18712091114E+02  0.00000000000E+00 0. -1.
</event>
<event>
 7    1  0.5897985E-013  0.5052886E+02  0.7816164E-02  0.1300439E+00
        -11   -1    0    0    0    0  0.00000000000E+00  0.00000000000E+00  0.45593999997E+02  0.45594000000E+02  0.51100000000E-03 0.  1.
         11   -1    0    0    0    0 -0.00000000000E+00 -0.00000000000E+00 -0.45593999997E+02  0.45594000000E+02  0.51100000000E-03 0. -1.
    9900012    2    1    2    0    0 -0.32380755599E+02 -0.13593217346E+02  0.20490894719E+02  0.50528860101E+02  0.30000000762E+02 0.  0.
         12    1    1    2    0    0  0.32380755599E+02  0.13593217346E+02 -0.20490894719E+02  0.40659139899E+02  0.00000000000E+00 0. -1.
         11    1    3    3    0    0 -0.17789830616E+02  0.32061033654E+01  0.16835413835E+02  0.24701990434E+02  0.51100000000E-03 0. -1.
        -11    1    3    3    0    0 -0.71392422506E+01 -0.16645498136E+02  0.24549734878E+01  0.18277534932E+02  0.51100000000E-03 0.  1.
         12    1    3    3    0    0 -0.74516827324E+01 -0.15382257497E+00  0.12005073966E+01  0.75493347348E+01  0.00000000000E+00 0. -1.
</event>
<event>
 7    1  0.6021088E-013  0.5052886E+02  0.7816164E-02  0.1300439E+00
        -11   -1    0    0    0    0  0.00000000000E+00  0.00000000000E+00  0.45593999997E+02  0.45594000000E+02  0.51100000000E-03 0.  1.
         11   -1    0    0    0    0 -0.00000000000E+00 -0.00000000000E+00 -0.45593999997E+02  0.45594000000E+02  0.51100000000E-03 0. -1.
    9900012    2    1    2    0    0 -0.36856523787E+02  0.11341625003E+02 -0.12889131139E+02  0.50528861976E+02  0.30000006462E+02 0.  0.
         12    1    1    2    0    0  0.36856523787E+02 -0.11341625003E+02  0.12889131139E+02  0.40659138024E+02  0.00000000000E+00 0. -1.
         11    1    3    3    0    0 -0.88646336455E+00  0.72014345140E+01 -0.44023050508E+01  0.84868584516E+01  0.51100000000E-03 0. -1.
        -11    1    3    3    0    0 -0.33361610918E+02  0.58743334469E+01 -0.95888989572E+00  0.33888410210E+02  0.51100000000E-03 0.  1.
        -12    1    3    3    0    0 -0.26084495044E+01 -0.17341429575E+01 -0.75279361927E+01  0.81535933143E+01  0.00000000000E+00 0.  1.
</event>
<event>
 7    1  0.5897985E-013  0.5052887E+02  0.7816164E-02  0.1300439E+00
        -11   -1    0    0    0    0  0.00000000000E+00  0.00000000000E+00  0.45593999997E+02  0.45594000000E+02  0.51100000000E-03 0.  1.
         11   -1    0    0    0    0 -0.00000000000E+00 -0.00000000000E+00 -0.45593999997E+02  0.45594000000E+02  0.51100000000E-03 0. -1.
    9900012    2    1    2    0    0 -0.23363085262E+02 -0.22363645777E+02  0.24641403555E+02  0.50528866037E+02  0.30000018807E+02 0.  0.
         12    1    1    2    0    0  0.23363085262E+02  0.22363645777E+02 -0.24641403555E+02  0.40659133963E+02  0.00000000000E+00 0. -1.
         11    1    3    3    0    0  0.22952216562E+01 -0.10554352302E+02 -0.12991155025E+00  0.10801818006E+02  0.51100000000E-03 0. -1.
        -11    1    3    3    0    0 -0.21901375113E+02 -0.13058177429E+02  0.25067338318E+02  0.35756924927E+02  0.51100000000E-03 0.  1.
         12    1    3    3    0    0 -0.37569318048E+01  0.12488839542E+01 -0.29602321231E+00  0.39701231038E+01  0.00000000000E+00 0. -1.
</event>
<event>
 7    1  0.5897985E-013  0.5052886E+02  0.7816164E-02  0.1300439E+00
        -11   -1    0    0    0    0  0.00000000000E+00  0.00000000000E+00  0.45593999997E+02  0.45594000000E+02  0.51100000000E-03 0.  1.
         11   -1    0    0    0    0 -0.00000000000E+00 -0.00000000000E+00 -0.45593999997E+02  0.45594000000E+02  0.51100000000E-03 0. -1.
    9900012    2    1    2    0    0 -0.16434857662E+01  0.40085178154E+02 -0.66063053162E+01  0.50528858063E+02  0.29999994568E+02 0.  0.
         12    1    1    2    0    0  0.16434857662E+01 -0.40085178154E+02  0.66063053162E+01  0.40659141937E+02  0.00000000000E+00 0. -1.
         11    1    3    3    0    0 -0.20451391977E+01  0.54277026490E+01 -0.81601600444E+01  0.10011531481E+02  0.51100000000E-03 0. -1.
        -11    1    3    3    0    0  0.96326198572E+01  0.21738754300E+02  0.49337321166E+01  0.24283791234E+02  0.51100000000E-03 0.  1.
        -12    1    3    3    0    0 -0.92309664258E+01  0.12918721206E+02 -0.33798773883E+01  0.16233535348E+02  0.00000000000E+00 0.  1.
</event>
<event>
 7    1  0.5897985E-013  0.5052886E+02  0.7816164E-02  0.1300439E+00
        -11   -1    0    0    0    0  0.00000000000E+00  0.00000000000E+00  0.45593999997E+02  0.45594000000E+02  0.51100000000E-03 0.  1.
         11   -1    0    0    0    0 -0.00000000000E+00 -0.00000000000E+00 -0.45593999997E+02  0.45594000000E+02  0.51100000000E-03 0. -1.
    9900012    2    1    2    0    0  0.91486023006E+00  0.30046288704E+02  0.27377900267E+02  0.50528857643E+02  0.29999993292E+02 0.  0.
         12    1    1    2    0    0 -0.91486023006E+00 -0.30046288704E+02 -0.27377900267E+02  0.40659142357E+02  0.00000000000E+00 0. -1.
         11    1    3    3    0    0  0.55320778005E+01  0.24261941156E+01  0.57737478182E+01  0.83562232382E+01  0.51100000000E-03 0. -1.
        -11    1    3    3    0    0 -0.52098692337E+01  0.64632276621E+01 -0.37806179217E+01  0.91219033856E+01  0.51100000000E-03 0.  1.
        -12    1    3    3    0    0  0.59265166320E+00  0.21156866927E+02  0.25384770371E+02  0.33050731019E+02  0.00000000000E+00 0.  1.
</event>
<event>
 7    1  0.5897985E-013  0.5052890E+02  0.7816164E-02  0.1300439E+00
        -11   -1    0    0    0    0  0.00000000000E+00  0.00000000000E+00  0.45593999997E+02  0.45594000000E+02  0.51100000000E-03 0. -1.
         11   -1    0    0    0    0 -0.00000000000E+00 -0.00000000000E+00 -0.45593999997E+02  0.45594000000E+02  0.51100000000E-03 0.  1.
    9900012    2    1    2    0    0  0.24194117780E+02 -0.30678158071E+02 -0.11254226859E+02  0.50528900896E+02  0.30000124763E+02 0.  0.
         12    1    1    2    0    0 -0.24194117780E+02  0.30678158071E+02  0.11254226859E+02  0.40659099104E+02  0.00000000000E+00 0. -1.
         11    1    3    3    0    0 -0.12765535506E+01  0.27097515064E+01  0.20214963338E+01  0.36136947689E+01  0.51100000000E-03 0. -1.
        -11    1    3    3    0    0  0.26711940809E+02 -0.33939098418E+02 -0.11528685947E+02  0.44702357691E+02  0.51100000000E-03 0.  1.
        -12    1    3    3    0    0 -0.12412694790E+01  0.55118884108E+00 -0.17470372463E+01  0.22128484354E+01  0.00000000000E+00 0.  1.
</event>
<event>
 7    1  0.5897985E-013  0.5052881E+02  0.7816164E-02  0.1300439E+00
        -11   -1    0    0    0    0  0.00000000000E+00  0.00000000000E+00  0.45593999997E+02  0.45594000000E+02  0.51100000000E-03 0.  1.
         11   -1    0    0    0    0 -0.00000000000E+00 -0.00000000000E+00 -0.45593999997E+02  0.45594000000E+02  0.51100000000E-03 0. -1.
    9900012    2    1    2    0    0  0.57621841275E+01  0.12421197646E+01  0.40229638585E+02  0.50528813484E+02  0.29999859066E+02 0.  0.
         12    1    1    2    0    0 -0.57621841275E+01 -0.12421197646E+01 -0.40229638585E+02  0.40659186516E+02  0.00000000000E+00 0. -1.
         11    1    3    3    0    0  0.13663386797E+01  0.66975277416E+01  0.10472228620E+02  0.12505651993E+02  0.51100000000E-03 0. -1.
        -11    1    3    3    0    0  0.20064170994E+01 -0.12786061841E+02  0.86902283713E+01  0.15589392432E+02  0.51100000000E-03 0.  1.
        -12    1    3    3    0    0  0.23894283484E+01  0.73306538641E+01  0.21067181594E+02  0.22433769059E+02  0.00000000000E+00 0.  1.
</event>
<event>
 7    1  0.5897985E-013  0.5052885E+02  0.7816164E-02  0.1300439E+00
        -11   -1    0    0    0    0  0.00000000000E+00  0.00000000000E+00  0.45593999997E+02  0.45594000000E+02  0.51100000000E-03 0.  1.
         11   -1    0    0    0    0 -0.00000000000E+00 -0.00000000000E+00 -0.45593999997E+02  0.45594000000E+02  0.51100000000E-03 0. -1.
    9900012    2    1    2    0    0  0.85767137899E+00  0.24904519973E+02  0.32127799476E+02  0.50528853249E+02  0.29999979937E+02 0.  0.
         12    1    1    2    0    0 -0.85767137899E+00 -0.24904519973E+02 -0.32127799476E+02  0.40659146751E+02  0.00000000000E+00 0. -1.
         11    1    3    3    0    0 -0.29821228220E+01  0.12059627491E+02  0.19633212069E-02  0.12422869067E+02  0.51100000000E-03 0. -1.
        -11    1    3    3    0    0  0.44318498843E+01 -0.36471467691E+00  0.18854217067E+02  0.19371520633E+02  0.51100000000E-03 0.  1.
         12    1    3    3    0    0 -0.59205568331E+00  0.13209607159E+02  0.13271619088E+02  0.18734463549E+02  0.00000000000E+00 0. -1.
</event>
<event>
 7    1  0.5897985E-013  0.5052886E+02  0.7816164E-02  0.1300439E+00
        -11   -1    0    0    0    0  0.00000000000E+00  0.00000000000E+00  0.45593999997E+02  0.45594000000E+02  0.51100000000E-03 0. -1.
         11   -1    0    0    0    0 -0.00000000000E+00 -0.00000000000E+00 -0.45593999997E+02  0.45594000000E+02  0.51100000000E-03 0.  1.
    9900012    2    1    2    0    0  0.17866111003E+02  0.34804681719E+02 -0.11072573478E+02  0.50528859880E+02  0.30000000090E+02 0.  0.
         12    1    1    2    0    0 -0.17866111003E+02 -0.34804681719E+02  0.11072573478E+02  0.40659140120E+02  0.00000000000E+00 0. -1.
         11    1    3    3    0    0 -0.42779291689E+01  0.26019981347E+01  0.35639591289E+01  0.61459643019E+01  0.51100000000E-03 0. -1.
        -11    1    3    3    0    0  0.24242926484E+02  0.30400986481E+02 -0.12361243005E+02  0.40801222928E+02  0.51100000000E-03 0.  1.
        -12    1    3    3    0    0 -0.20988863119E+01  0.18016971035E+01 -0.22752896013E+01  0.35816726502E+01  0.00000000000E+00 0.  1.
</event>
<event>
 7    1  0.5897985E-013  0.5052886E+02  0.7816164E-02  0.1300439E+00
        -11   -1    0    0    0    0  0.00000000000E+00  0.00000000000E+00  0.45593999997E+02  0.45594000000E+02  0.51100000000E-03 0.  1.
         11   -1    0    0    0    0 -0.00000000000E+00 -0.00000000000E+00 -0.45593999997E+02  0.45594000000E+02  0.51100000000E-03 0. -1.
    9900012    2    1    2    0    0 -0.18153032210E+02 -0.34700382274E+02  0.10932362497E+02  0.50528860091E+02  0.30000000733E+02 0.  0.
         12    1    1    2    0    0  0.18153032210E+02  0.34700382274E+02 -0.10932362497E+02  0.40659139909E+02  0.00000000000E+00 0. -1.
         11    1    3    3    0    0  0.72309693895E+00  0.25471779477E+01 -0.47013509961E+01  0.53957099746E+01  0.51100000000E-03 0. -1.
        -11    1    3    3    0    0 -0.78569733833E+01 -0.21363910527E+02  0.60331815749E+01  0.23548842517E+02  0.51100000000E-03 0.  1.
         12    1    3    3    0    0 -0.11019155765E+02 -0.15883649695E+02  0.96005319177E+01  0.21584307599E+02  0.00000000000E+00 0. -1.
</event>
<event>
 7    1  0.5897985E-013  0.5052886E+02  0.7816164E-02  0.1300439E+00
        -11   -1    0    0    0    0  0.00000000000E+00  0.00000000000E+00  0.45593999997E+02  0.45594000000E+02  0.51100000000E-03 0.  1.
         11   -1    0    0    0    0 -0.00000000000E+00 -0.00000000000E+00 -0.45593999997E+02  0.45594000000E+02  0.51100000000E-03 0. -1.
    9900012    2    1    2    0    0  0.21851956776E+02  0.27129123013E+02  0.20968276452E+02  0.50528856530E+02  0.29999989908E+02 0.  0.
         12    1    1    2    0    0 -0.21851956776E+02 -0.27129123013E+02 -0.20968276452E+02  0.40659143470E+02  0.00000000000E+00 0. -1.
         11    1    3    3    0    0 -0.94338552532E+00  0.38244714864E+00  0.47674667847E+01  0.48749340381E+01  0.51100000000E-03 0. -1.
        -11    1    3    3    0    0  0.14134076796E+02  0.25714526238E+02  0.25489926634E+01  0.29453460754E+02  0.51100000000E-03 0.  1.
        -12    1    3    3    0    0  0.86612655047E+01  0.10321496255E+01  0.13651817004E+02  0.16200461737E+02  0.00000000000E+00 0.  1.
</event>
<event>
 7    1  0.5897985E-013  0.5052887E+02  0.7816164E-02  0.1300439E+00
        -11   -1    0    0    0    0  0.00000000000E+00  0.00000000000E+00  0.45593999997E+02  0.45594000000E+02  0.51100000000E-03 0. -1.
         11   -1    0    0    0    0 -0.00000000000E+00 -0.00000000000E+00 -0.45593999997E+02  0.45594000000E+02  0.51100000000E-03 0.  1.
    9900012    2    1    2    0    0  0.26527149493E+01  0.10762078840E+02 -0.39119124153E+02  0.50528866807E+02  0.30000021145E+02 0.  0.
         12    1    1    2    0    0 -0.26527149493E+01 -0.10762078840E+02  0.39119124153E+02  0.40659133193E+02  0.00000000000E+00 0. -1.
         11    1    3    3    0    0  0.16782815215E+01 -0.95490635970E+01 -0.89067566527E+01  0.13165544378E+02  0.51100000000E-03 0. -1.
        -11    1    3    3    0    0 -0.11599610312E+01  0.87713502645E+01 -0.19749914475E+02  0.21641192598E+02  0.51100000000E-03 0.  1.
         12    1    3    3    0    0  0.21343944591E+01  0.11539792172E+02 -0.10462453025E+02  0.15722129830E+02  0.00000000000E+00 0. -1.
</event>
<event>
 7    1  0.5897985E-013  0.5052885E+02  0.7816164E-02  0.1300439E+00
        -11   -1    0    0    0    0  0.00000000000E+00  0.00000000000E+00  0.45593999997E+02  0.45594000000E+02  0.51100000000E-03 0. -1.
         11   -1    0    0    0    0 -0.00000000000E+00 -0.00000000000E+00 -0.45593999997E+02  0.45594000000E+02  0.51100000000E-03 0.  1.
    9900012    2    1    2    0    0 -0.26828255694E+02 -0.25444178510E+02  0.16911673646E+02  0.50528853069E+02  0.29999979389E+02 0.  0.
         12    1    1    2    0    0  0.26828255694E+02  0.25444178510E+02 -0.16911673646E+02  0.40659146931E+02  0.00000000000E+00 0. -1.
         11    1    3    3    0    0 -0.10941157294E+02 -0.21041298074E+02  0.61969142760E+01  0.24512178491E+02  0.51100000000E-03 0. -1.
        -11    1    3    3    0    0 -0.11350761501E+02  0.43140217326E+01  0.97659364829E+00  0.12182130585E+02  0.51100000000E-03 0.  1.
        -12    1    3    3    0    0 -0.45363368984E+01 -0.87169021691E+01  0.97381657220E+01  0.13834543994E+02  0.00000000000E+00 0.  1.
</event>
<event>
 7    1  0.5897985E-013  0.5052886E+02  0.7816164E-02  0.1300439E+00
        -11   -1    0    0    0    0  0.00000000000E+00  0.00000000000E+00  0.45593999997E+02  0.45594000000E+02  0.51100000000E-03 0.  1.
         11   -1    0    0    0    0 -0.00000000000E+00 -0.00000000000E+00 -0.45593999997E+02  0.45594000000E+02  0.51100000000E-03 0. -1.
    9900012    2    1    2    0    0  0.10235689094E+02 -0.38799207269E+02  0.65588125922E+01  0.50528857872E+02  0.29999993989E+02 0.  0.
         12    1    1    2    0    0 -0.10235689094E+02  0.38799207269E+02 -0.65588125922E+01  0.40659142128E+02  0.00000000000E+00 0. -1.
         11    1    3    3    0    0 -0.35825515979E+01 -0.23202503739E+01 -0.23736190467E+01  0.48838822047E+01  0.51100000000E-03 0. -1.
        -11    1    3    3    0    0  0.19833091535E+02 -0.28896572920E+02  0.62410710662E+01  0.35599359751E+02  0.51100000000E-03 0.  1.
        -12    1    3    3    0    0 -0.60148508432E+01 -0.75823839756E+01  0.26913605727E+01  0.10045615917E+02  0.00000000000E+00 0.  1.
</event>
<event>
 7    1  0.5897985E-013  0.5052886E+02  0.7816164E-02  0.1300439E+00
        -11   -1    0    0    0    0  0.00000000000E+00  0.00000000000E+00  0.45593999997E+02  0.45594000000E+02  0.51100000000E-03 0.  1.
         11   -1    0    0    0    0 -0.00000000000E+00 -0.00000000000E+00 -0.45593999997E+02  0.45594000000E+02  0.51100000000E-03 0. -1.
    9900012    2    1    2    0    0 -0.28426517579E+02  0.45575892372E+01  0.28711098408E+02  0.50528859660E+02  0.29999999424E+02 0.  0.
         12    1    1    2    0    0  0.28426517579E+02 -0.45575892372E+01 -0.28711098408E+02  0.40659140340E+02  0.00000000000E+00 0. -1.
         11    1    3    3    0    0 -0.13889088429E+02 -0.59447121788E+00 -0.34916512972E+01  0.14333590006E+02  0.51100000000E-03 0. -1.
        -11    1    3    3    0    0 -0.63513475487E+01  0.69295959877E-01  0.17493586877E+02  0.18611018234E+02  0.51100000000E-03 0.  1.
        -12    1    3    3    0    0 -0.81860816016E+01  0.50827644952E+01  0.14709162828E+02  0.17584251420E+02  0.00000000000E+00 0.  1.
</event>
<event>
 7    1  0.5897985E-013  0.5052887E+02  0.7816164E-02  0.1300439E+00
        -11   -1    0    0    0    0  0.00000000000E+00  0.00000000000E+00  0.45593999997E+02  0.45594000000E+02  0.51100000000E-03 0.  1.
         11   -1    0    0    0    0 -0.00000000000E+00 -0.00000000000E+00 -0.45593999997E+02  0.45594000000E+02  0.51100000000E-03 0. -1.
    9900012    2    1    2    0    0 -0.34944044867E+02  0.11272105073E+02  0.17464781657E+02  0.50528865445E+02  0.30000017006E+02 0.  0.
         12    1    1    2    0    0  0.34944044867E+02 -0.11272105073E+02 -0.17464781657E+02  0.40659134555E+02  0.00000000000E+00 0. -1.
         11    1    3    3    0    0 -0.44230219839E+01 -0.29672609217E+01 -0.51697103327E+01  0.74225107634E+01  0.51100000000E-03 0. -1.
        -11    1    3    3    0    0 -0.81750178707E+01  0.13852798825E+01  0.13331882288E+02  0.15699968253E+02  0.51100000000E-03 0.  1.
         12    1    3    3    0    0 -0.22346005013E+02  0.12854086112E+02  0.93026097017E+01  0.27406386429E+02  0.00000000000E+00 0. -1.
</event>
<event>
 7    1  0.5897985E-013  0.5052885E+02  0.7816164E-02  0.1300439E+00
        -11   -1    0    0    0    0  0.00000000000E+00  0.00000000000E+00  0.45593999997E+02  0.45594000000E+02  0.51100000000E-03 0.  1.
         11   -1    0    0    0    0 -0.00000000000E+00 -0.00000000000E+00 -0.45593999997E+02  0.45594000000E+02  0.51100000000E-03 0. -1.
    9900012    2    1    2    0    0 -0.30044567021E+02  0.25240910689E+02  0.10648311784E+02  0.50528854366E+02  0.29999983330E+02 0.  0.
         12    1    1    2    0    0  0.30044567021E+02 -0.25240910689E+02 -0.10648311784E+02  0.40659145634E+02  0.00000000000E+00 0. -1.
         11    1    3    3    0    0 -0.12128682097E+02  0.14729012597E+02 -0.70982490258E+01  0.20357649201E+02  0.51100000000E-03 0. -1.
        -11    1    3    3    0    0 -0.16381903025E+02  0.50627470085E+01  0.80474985629E+01  0.18940971130E+02  0.51100000000E-03 0.  1.
         12    1    3    3    0    0 -0.15339818992E+01  0.54491510832E+01  0.96990622468E+01  0.11230234034E+02  0.00000000000E+00 0. -1.
</event>
<event>
 7    1  0.5897985E-013  0.5052886E+02  0.7816164E-02  0.1300439E+00
        -11   -1    0    0    0    0  0.00000000000E+00  0.00000000000E+00  0.45593999997E+02  0.45594000000E+02  0.51100000000E-03 0. -1.
         11   -1    0    0    0    0 -0.00000000000E+00 -0.00000000000E+00 -0.45593999997E+02  0.45594000000E+02  0.51100000000E-03 0.  1.
    9900012    2    1    2    0    0 -0.39744513038E+02 -0.70726421958E+01  0.48494819958E+01  0.50528855151E+02  0.29999985716E+02 0.  0.
         12    1    1    2    0    0  0.39744513038E+02  0.70726421958E+01 -0.48494819958E+01  0.40659144849E+02  0.00000000000E+00 0. -1.
         11    1    3    3    0    0 -0.30934166704E+01 -0.64688469817E+01  0.92106954118E+01  0.11672708263E+02  0.51100000000E-03 0. -1.
        -11    1    3    3    0    0 -0.68213183821E+01 -0.23176477955E+01 -0.53297537924E+01  0.89614815473E+01  0.51100000000E-03 0.  1.
         12    1    3    3    0    0 -0.29829777985E+02  0.17138525814E+01  0.96854037633E+00  0.29894665340E+02  0.00000000000E+00 0. -1.
</event>
<event>
 7    1  0.5897985E-013  0.5052886E+02  0.7816164E-02  0.1300439E+00
        -11   -1    0    0    0    0  0.00000000000E+00  0.00000000000E+00  0.45593999997E+02  0.45594000000E+02  0.51100000000E-03 0.  1.
         11   -1    0    0    0    0 -0.00000000000E+00 -0.00000000000E+00 -0.45593999997E+02  0.45594000000E+02  0.51100000000E-03 0. -1.
    9900012    2    1    2    0    0 -0.18426156661E+02 -0.25360801629E+02  0.25893471094E+02  0.50528863833E+02  0.30000012106E+02 0.  0.
         12    1    1    2    0    0  0.18426156661E+02  0.25360801629E+02 -0.25893471094E+02  0.40659136167E+02  0.00000000000E+00 0. -1.
         11    1    3    3    0    0 -0.49157702017E+01 -0.19817669971E+02  0.19999176651E+01  0.20515957464E+02  0.51100000000E-03 0. -1.
        -11    1    3    3    0    0 -0.22151752670E+01 -0.60185084335E+01  0.11983418459E+02  0.13591606361E+02  0.51100000000E-03 0.  1.
         12    1    3    3    0    0 -0.11295211192E+02  0.47537677544E+00  0.11910134970E+02  0.16421300008E+02  0.00000000000E+00 0. -1.
</event>
<event>
 7    1  0.5897985E-013  0.5052885E+02  0.7816164E-02  0.1300439E+00
        -11   -1    0    0    0    0  0.00000000000E+00  0.00000000000E+00  0.45593999997E+02  0.45594000000E+02  0.51100000000E-03 0. -1.
         11   -1    0    0    0    0 -0.00000000000E+00 -0.00000000000E+00 -0.45593999997E+02  0.45594000000E+02  0.51100000000E-03 0.  1.
    9900012    2    1    2    0    0 -0.20847300145E+02  0.29570216681E+01 -0.34782355714E+02  0.50528853803E+02  0.29999981619E+02 0.  0.
         12    1    1    2    0    0  0.20847300145E+02 -0.29570216681E+01  0.34782355714E+02  0.40659146197E+02  0.00000000000E+00 0. -1.
         11    1    3    3    0    0 -0.39375273401E+01  0.99900802899E+01 -0.16786579574E+01  0.10868473607E+02  0.51100000000E-03 0. -1.
        -11    1    3    3    0    0 -0.91547364657E+01 -0.18696123587E+01 -0.26875927727E+02  0.28453824727E+02  0.51100000000E-03 0.  1.
         12    1    3    3    0    0 -0.77550363392E+01 -0.51634462631E+01 -0.62277700289E+01  0.11206555468E+02  0.00000000000E+00 0. -1.
</event>
<event>
 7    1  0.5897985E-013  0.5052886E+02  0.7816164E-02  0.1300439E+00
        -11   -1    0    0    0    0  0.00000000000E+00  0.00000000000E+00  0.45593999997E+02  0.45594000000E+02  0.51100000000E-03 0.  1.
         11   -1    0    0    0    0 -0.00000000000E+00 -0.00000000000E+00 -0.45593999997E+02  0.45594000000E+02  0.51100000000E-03 0. -1.
    9900012    2    1    2    0    0  0.18217423961E+02 -0.29000011925E+02  0.21915522557E+02  0.50528863803E+02  0.30000012014E+02 0.  0.
         12    1    1    2    0    0 -0.18217423961E+02  0.29000011925E+02 -0.21915522557E+02  0.40659136197E+02  0.00000000000E+00 0. -1.
         11    1    3    3    0    0 -0.33150288988E+01 -0.26571920982E+01  0.79452094282E+01  0.90097968659E+01  0.51100000000E-03 0. -1.
        -11    1    3    3    0    0  0.23409285751E+02 -0.28053171451E+02  0.12715394036E+02  0.38686642832E+02  0.51100000000E-03 0.  1.
        -12    1    3    3    0    0 -0.18768328916E+01  0.17103516244E+01  0.12549190925E+01  0.28324241051E+01  0.00000000000E+00 0.  1.
</event>
<event>
 7    1  0.5897985E-013  0.5052883E+02  0.7816164E-02  0.1300439E+00
        -11   -1    0    0    0    0  0.00000000000E+00  0.00000000000E+00  0.45593999997E+02  0.45594000000E+02  0.51100000000E-03 0.  1.
         11   -1    0    0    0    0 -0.00000000000E+00 -0.00000000000E+00 -0.45593999997E+02  0.45594000000E+02  0.51100000000E-03 0. -1.
    9900012    2    1    2    0    0  0.24903775517E+02 -0.20176134346E+02  0.25017860135E+02  0.50528834270E+02  0.29999922246E+02 0.  0.
         12    1    1    2    0    0 -0.24903775517E+02  0.20176134346E+02 -0.25017860135E+02  0.40659165730E+02  0.00000000000E+00 0. -1.
         11    1    3    3    0    0  0.26052859362E+00 -0.33834879466E+01  0.11420133551E+02  0.11913660916E+02  0.51100000000E-03 0. -1.
        -11    1    3    3    0    0  0.19568770657E+02 -0.20556866254E+02  0.65073303329E+01  0.29118153848E+02  0.51100000000E-03 0.  1.
        -12    1    3    3    0    0  0.50744762669E+01  0.37642198546E+01  0.70903962506E+01  0.94970195055E+01  0.00000000000E+00 0.  1.
</event>
<event>
 7    1  0.5897985E-013  0.5052886E+02  0.7816164E-02  0.1300439E+00
        -11   -1    0    0    0    0  0.00000000000E+00  0.00000000000E+00  0.45593999997E+02  0.45594000000E+02  0.51100000000E-03 0.  1.
         11   -1    0    0    0    0 -0.00000000000E+00 -0.00000000000E+00 -0.45593999997E+02  0.45594000000E+02  0.51100000000E-03 0. -1.
    9900012    2    1    2    0    0  0.61688480708E+01 -0.39849685153E+02  0.52070916733E+01  0.50528857153E+02  0.29999991803E+02 0.  0.
         12    1    1    2    0    0 -0.61688480708E+01  0.39849685153E+02 -0.52070916733E+01  0.40659142847E+02  0.00000000000E+00 0. -1.
         11    1    3    3    0    0 -0.87618774594E+01 -0.12656977178E+02  0.94157483729E+00  0.15422585105E+02  0.51100000000E-03 0. -1.
        -11    1    3    3    0    0  0.13912031761E+02 -0.89432733842E+01  0.27498552880E+01  0.16765693272E+02  0.51100000000E-03 0.  1.
        -12    1    3    3    0    0  0.10186937697E+01 -0.18249434591E+02  0.15156615481E+01  0.18340578776E+02  0.00000000000E+00 0.  1.
</event>
<event>
 7    1  0.5897985E-013  0.5052889E+02  0.7816164E-02  0.1300439E+00
        -11   -1    0    0    0    0  0.00000000000E+00  0.00000000000E+00  0.45593999997E+02  0.45594000000E+02  0.51100000000E-03 0. -1.
         11   -1    0    0    0    0 -0.00000000000E+00 -0.00000000000E+00 -0.45593999997E+02  0.45594000000E+02  0.51100000000E-03 0.  1.
    9900012    2    1    2    0    0 -0.31831360044E+02  0.13562187901E+02  0.21354042906E+02  0.50528885753E+02  0.30000078735E+02 0.  0.
         12    1    1    2    0    0  0.31831360044E+02 -0.13562187901E+02 -0.21354042906E+02  0.40659114247E+02  0.00000000000E+00 0. -1.
         11    1    3    3    0    0 -0.15868891814E+02  0.28387231700E+01  0.14812501674E+02  0.21892699303E+02  0.51100000000E-03 0. -1.
        -11    1    3    3    0    0  0.27297482499E+01  0.86441155119E+01  0.18359977006E+01  0.92489537953E+01  0.51100000000E-03 0.  1.
        -12    1    3    3    0    0 -0.18692216479E+02  0.20793492195E+01  0.47055435318E+01  0.19387232655E+02  0.00000000000E+00 0.  1.
</event>
<event>
 7    1  0.5897985E-013  0.5052887E+02  0.7816164E-02  0.1300439E+00
        -11   -1    0    0    0    0  0.00000000000E+00  0.00000000000E+00  0.45593999997E+02  0.45594000000E+02  0.51100000000E-03 0. -1.
         11   -1    0    0    0    0 -0.00000000000E+00 -0.00000000000E+00 -0.45593999997E+02  0.45594000000E+02  0.51100000000E-03 0.  1.
    9900012    2    1    2    0    0  0.19451915925E+02  0.23911819467E+02 -0.26514394268E+02  0.50528865150E+02  0.30000016109E+02 0.  0.
         12    1    1    2    0    0 -0.19451915925E+02 -0.23911819467E+02  0.26514394268E+02  0.40659134850E+02  0.00000000000E+00 0. -1.
         11    1    3    3    0    0  0.23014498550E+01 -0.60030903733E+00 -0.76467283359E+01  0.80080894650E+01  0.51100000000E-03 0. -1.
        -11    1    3    3    0    0  0.10766080778E+02  0.28084954465E+02 -0.11684007000E+02  0.32267463217E+02  0.51100000000E-03 0.  1.
        -12    1    3    3    0    0  0.63843852923E+01 -0.35728259613E+01 -0.71836589317E+01  0.10253312468E+02  0.00000000000E+00 0.  1.
</event>
<event>
 7    1  0.5897985E-013  0.5052885E+02  0.7816164E-02  0.1300439E+00
        -11   -1    0    0    0    0  0.00000000000E+00  0.00000000000E+00  0.45593999997E+02  0.45594000000E+02  0.51100000000E-03 0. -1.
         11   -1    0    0    0    0 -0.00000000000E+00 -0.00000000000E+00 -0.45593999997E+02  0.45594000000E+02  0.51100000000E-03 0.  1.
    9900012    2    1    2    0    0 -0.11184681158E+02 -0.11016065219E+02 -0.37506207190E+02  0.50528851420E+02  0.29999974376E+02 0.  0.
         12    1    1    2    0    0  0.11184681158E+02  0.11016065219E+02  0.37506207190E+02  0.40659148580E+02  0.00000000000E+00 0. -1.
         11    1    3    3    0    0 -0.36092946970E+01 -0.41454596288E+01 -0.20447959068E+01  0.58645574689E+01  0.51100000000E-03 0. -1.
        -11    1    3    3    0    0 -0.11981760891E+02 -0.33373128455E+00 -0.34738022290E+02  0.36747845699E+02  0.51100000000E-03 0.  1.
        -12    1    3    3    0    0  0.44063744291E+01 -0.65368743056E+01 -0.72338899271E+00  0.79164482523E+01  0.00000000000E+00 0.  1.
</event>
<event>
 7    1  0.5897985E-013  0.5052886E+02  0.7816164E-02  0.1300439E+00
        -11   -1    0    0    0    0  0.00000000000E+00  0.00000000000E+00  0.45593999997E+02  0.45594000000E+02  0.51100000000E-03 0. -1.
         11   -1    0    0    0    0 -0.00000000000E+00 -0.00000000000E+00 -0.45593999997E+02  0.45594000000E+02  0.51100000000E-03 0.  1.
    9900012    2    1    2    0    0  0.17624554418E+02  0.35826537341E+02 -0.76811474836E+01  0.50528859294E+02  0.29999998309E+02 0.  0.
         12    1    1    2    0    0 -0.17624554418E+02 -0.35826537341E+02  0.76811474836E+01  0.40659140706E+02  0.00000000000E+00 0. -1.
         11    1    3    3    0    0  0.40659174904E+01  0.31421490258E+00  0.24497464674E+00  0.40853921332E+01  0.51100000000E-03 0. -1.
        -11    1    3    3    0    0 -0.71083434435E+01  0.12843326804E+02  0.30540069678E+00  0.14682399659E+02  0.51100000000E-03 0.  1.
        -12    1    3    3    0    0  0.20666980371E+02  0.22668995635E+02 -0.82315228271E+01  0.31761067501E+02  0.00000000000E+00 0.  1.
</event>
<event>
 7    1  0.5897985E-013  0.5052887E+02  0.7816164E-02  0.1300439E+00
        -11   -1    0    0    0    0  0.00000000000E+00  0.00000000000E+00  0.45593999997E+02  0.45594000000E+02  0.51100000000E-03 0.  1.
         11   -1    0    0    0    0 -0.00000000000E+00 -0.00000000000E+00 -0.45593999997E+02  0.45594000000E+02  0.51100000000E-03 0. -1.
    9900012    2    1    2    0    0 -0.11840220561E+02  0.10039276024E+02  0.37579077278E+02  0.50528868983E+02  0.30000027760E+02 0.  0.
         12    1    1    2    0    0  0.11840220561E+02 -0.10039276024E+02 -0.37579077278E+02  0.40659131017E+02  0.00000000000E+00 0. -1.
         11    1    3    3    0    0 -0.12548370240E+01 -0.82816662237E+01  0.28759070064E+01  0.88561533844E+01  0.51100000000E-03 0. -1.
        -11    1    3    3    0    0  0.10111986112E+01  0.29611658468E+01  0.19600801565E+01  0.36922811763E+01  0.51100000000E-03 0.  1.
         12    1    3    3    0    0 -0.11596582149E+02  0.15359776401E+02  0.32743090115E+02  0.37980434422E+02  0.00000000000E+00 0. -1.
</event>
<event>
 7    1  0.5897985E-013  0.5052883E+02  0.7816164E-02  0.1300439E+00
        -11   -1    0    0    0    0  0.00000000000E+00  0.00000000000E+00  0.45593999997E+02  0.45594000000E+02  0.51100000000E-03 0. -1.
         11   -1    0    0    0    0 -0.00000000000E+00 -0.00000000000E+00 -0.45593999997E+02  0.45594000000E+02  0.51100000000E-03 0.  1.
    9900012    2    1    2    0    0 -0.31613110805E+02  0.22382759827E+02 -0.12360892571E+02  0.50528826651E+02  0.29999899087E+02 0.  0.
         12    1    1    2    0    0  0.31613110805E+02 -0.22382759827E+02  0.12360892571E+02  0.40659173349E+02  0.00000000000E+00 0. -1.
         11    1    3    3    0    0 -0.28197586885E+02  0.27864170453E+02 -0.50335354033E+01  0.39960635382E+02  0.51100000000E-03 0. -1.
        -11    1    3    3    0    0 -0.42799642329E+01 -0.44716283622E+01 -0.53268394787E+01  0.81663194364E+01  0.51100000000E-03 0.  1.
        -12    1    3    3    0    0  0.86444031268E+00 -0.10097822637E+01 -0.20005176894E+01  0.24018718325E+01  0.00000000000E+00 0.  1.
</event>
<event>
 7    1  0.5897985E-013  0.5052886E+02  0.7816164E-02  0.1300439E+00
        -11   -1    0    0    0    0  0.00000000000E+00  0.00000000000E+00  0.45593999997E+02  0.45594000000E+02  0.51100000000E-03 0.  1.
         11   -1    0    0    0    0 -0.00000000000E+00 -0.00000000000E+00 -0.45593999997E+02  0.45594000000E+02  0.51100000000E-03 0. -1.
    9900012    2    1    2    0    0 -0.20612102276E+02  0.29015936073E+02  0.19656602527E+02  0.50528864134E+02  0.30000013022E+02 0.  0.
         12    1    1    2    0    0  0.20612102276E+02 -0.29015936073E+02 -0.19656602527E+02  0.40659135866E+02  0.00000000000E+00 0. -1.
         11    1    3    3    0    0 -0.41896258727E+01  0.24961587070E+01  0.13543121635E+02  0.14394440493E+02  0.51100000000E-03 0. -1.
        -11    1    3    3    0    0 -0.18249423302E+02  0.20188925923E+02  0.93725447526E+01  0.28783307249E+02  0.51100000000E-03 0.  1.
         12    1    3    3    0    0  0.18269468984E+01  0.63308514430E+01 -0.32590638600E+01  0.73511163918E+01  0.00000000000E+00 0. -1.
</event>
<event>
 7    1  0.5897985E-013  0.5052886E+02  0.7816164E-02  0.1300439E+00
        -11   -1    0    0    0    0  0.00000000000E+00  0.00000000000E+00  0.45593999997E+02  0.45594000000E+02  0.51100000000E-03 0. -1.
         11   -1    0    0    0    0 -0.00000000000E+00 -0.00000000000E+00 -0.45593999997E+02  0.45594000000E+02  0.51100000000E-03 0.  1.
    9900012    2    1    2    0    0 -0.22315375280E+02  0.14992953723E+02 -0.30502475086E+02  0.50528860540E+02  0.30000002097E+02 0.  0.
         12    1    1    2    0    0  0.22315375280E+02 -0.14992953723E+02  0.30502475086E+02  0.40659139460E+02  0.00000000000E+00 0. -1.
         11    1    3    3    0    0 -0.78694450989E+01 -0.58469686372E+01 -0.12037993394E+02  0.15525092387E+02  0.51100000000E-03 0. -1.
        -11    1    3    3    0    0 -0.73083648138E+00  0.13038300940E+02 -0.12668939228E+02  0.18194324247E+02  0.51100000000E-03 0.  1.
        -12    1    3    3    0    0 -0.13715093700E+02  0.78016214200E+01 -0.57955424643E+01  0.16809443906E+02  0.00000000000E+00 0.  1.
</event>
<event>
 7    1  0.5897985E-013  0.5052887E+02  0.7816164E-02  0.1300439E+00
        -11   -1    0    0    0    0  0.00000000000E+00  0.00000000000E+00  0.45593999997E+02  0.45594000000E+02  0.51100000000E-03 0.  1.
         11   -1    0    0    0    0 -0.00000000000E+00 -0.00000000000E+00 -0.45593999997E+02  0.45594000000E+02  0.51100000000E-03 0. -1.
    9900012    2    1    2    0    0  0.15074948750E+02  0.20942746310E+02  0.31421525194E+02  0.50528868819E+02  0.30000027264E+02 0.  0.
         12    1    1    2    0    0 -0.15074948750E+02 -0.20942746310E+02 -0.31421525194E+02  0.40659131181E+02  0.00000000000E+00 0. -1.
         11    1    3    3    0    0  0.65294784182E+00  0.94511799694E+01  0.13145784237E+02  0.16203789284E+02  0.51100000000E-03 0. -1.
        -11    1    3    3    0    0  0.47779058635E+01 -0.65523829537E+01  0.24882943401E+01  0.84825536129E+01  0.51100000000E-03 0.  1.
        -12    1    3    3    0    0  0.96440950447E+01  0.18043949294E+02  0.15787446618E+02  0.25842525923E+02  0.00000000000E+00 0.  1.
</event>
<event>
 7    1  0.5897985E-013  0.5052887E+02  0.7816164E-02  0.1300439E+00
        -11   -1    0    0    0    0  0.00000000000E+00  0.00000000000E+00  0.45593999997E+02  0.45594000000E+02  0.51100000000E-03 0. -1.
         11   -1    0    0    0    0 -0.00000000000E+00 -0.00000000000E+00 -0.45593999997E+02  0.45594000000E+02  0.51100000000E-03 0.  1.
    9900012    2    1    2    0    0  0.34818151899E+02 -0.20255723484E+02 -0.55287466075E+01  0.50528867267E+02  0.30000022546E+02 0.  0.
         12    1    1    2    0    0 -0.34818151899E+02  0.20255723484E+02  0.55287466075E+01  0.40659132733E+02  0.00000000000E+00 0. -1.
         11    1    3    3    0    0  0.82926646698E+01 -0.10013837711E+02  0.96858712344E+01  0.16212998947E+02  0.51100000000E-03 0. -1.
        -11    1    3    3    0    0  0.15893226566E+02 -0.75961556065E+00 -0.46409920140E+01  0.16574392104E+02  0.51100000000E-03 0.  1.
         12    1    3    3    0    0  0.10632260663E+02 -0.94822702117E+01 -0.10573625828E+02  0.17741476216E+02  0.00000000000E+00 0. -1.
</event>
<event>
 7    1  0.5897985E-013  0.5052885E+02  0.7816164E-02  0.1300439E+00
        -11   -1    0    0    0    0  0.00000000000E+00  0.00000000000E+00  0.45593999997E+02  0.45594000000E+02  0.51100000000E-03 0. -1.
         11   -1    0    0    0    0 -0.00000000000E+00 -0.00000000000E+00 -0.45593999997E+02  0.45594000000E+02  0.51100000000E-03 0.  1.
    9900012    2    1    2    0    0 -0.12323826975E+02 -0.35848332762E+02 -0.14703284290E+02  0.50528852911E+02  0.29999978907E+02 0.  0.
         12    1    1    2    0    0  0.12323826975E+02  0.35848332762E+02  0.14703284290E+02  0.40659147089E+02  0.00000000000E+00 0. -1.
         11    1    3    3    0    0 -0.74135519344E+01 -0.80705530488E+01 -0.16623368307E+02  0.19910573897E+02  0.51100000000E-03 0. -1.
        -11    1    3    3    0    0 -0.80564772249E+01 -0.20830169414E+02  0.40534241043E+01  0.22698745126E+02  0.51100000000E-03 0.  1.
         12    1    3    3    0    0  0.31462021842E+01 -0.69476102992E+01 -0.21333400882E+01  0.79195338869E+01  0.00000000000E+00 0. -1.
</event>
<event>
 7    1  0.5897985E-013  0.5052886E+02  0.7816164E-02  0.1300439E+00
        -11   -1    0    0    0    0  0.00000000000E+00  0.00000000000E+00  0.45593999997E+02  0.45594000000E+02  0.51100000000E-03 0. -1.
         11   -1    0    0    0    0 -0.00000000000E+00 -0.00000000000E+00 -0.45593999997E+02  0.45594000000E+02  0.51100000000E-03 0.  1.
    9900012    2    1    2    0    0 -0.21837452124E+02 -0.32277164237E+02 -0.11596392502E+02  0.50528856311E+02  0.29999989243E+02 0.  0.
         12    1    1    2    0    0  0.21837452124E+02  0.32277164237E+02  0.11596392502E+02  0.40659143689E+02  0.00000000000E+00 0. -1.
         11    1    3    3    0    0 -0.23871275501E+01 -0.15128597509E+02 -0.25027065784E+01  0.15518903989E+02  0.51100000000E-03 0. -1.
        -11    1    3    3    0    0 -0.19040118306E+01  0.50459269759E+01 -0.38278868332E+00  0.54067705273E+01  0.51100000000E-03 0.  1.
        -12    1    3    3    0    0 -0.17546312743E+02 -0.22194493704E+02 -0.87108972403E+01  0.29603181795E+02  0.00000000000E+00 0.  1.
</event>
<event>
 7    1  0.5897985E-013  0.5052885E+02  0.7816164E-02  0.1300439E+00
        -11   -1    0    0    0    0  0.00000000000E+00  0.00000000000E+00  0.45593999997E+02  0.45594000000E+02  0.51100000000E-03 0.  1.
         11   -1    0    0    0    0 -0.00000000000E+00 -0.00000000000E+00 -0.45593999997E+02  0.45594000000E+02  0.51100000000E-03 0. -1.
    9900012    2    1    2    0    0 -0.28565368429E+02 -0.28787334572E+02 -0.29112410481E+01  0.50528853063E+02  0.29999979370E+02 0.  0.
         12    1    1    2    0    0  0.28565368429E+02  0.28787334572E+02  0.29112410481E+01  0.40659146937E+02  0.00000000000E+00 0. -1.
         11    1    3    3    0    0 -0.30086064661E+02 -0.17962012818E+02 -0.29576189531E+01  0.35164651305E+02  0.51100000000E-03 0. -1.
        -11    1    3    3    0    0 -0.22022097710E+01 -0.10514940993E+01  0.35729274498E+01  0.43267977234E+01  0.51100000000E-03 0.  1.
         12    1    3    3    0    0  0.37229060031E+01 -0.97738276550E+01 -0.35265495449E+01  0.11037404035E+02  0.00000000000E+00 0. -1.
</event>
<event>
 7    1  0.5897985E-013  0.5052888E+02  0.7816164E-02  0.1300439E+00
        -11   -1    0    0    0    0  0.00000000000E+00  0.00000000000E+00  0.45593999997E+02  0.45594000000E+02  0.51100000000E-03 0.  1.
         11   -1    0    0    0    0 -0.00000000000E+00 -0.00000000000E+00 -0.45593999997E+02  0.45594000000E+02  0.51100000000E-03 0. -1.
    9900012    2    1    2    0    0 -0.44644967047E+01  0.10717307807E+02  0.38966286597E+02  0.50528881605E+02  0.30000066128E+02 0.  0.
         12    1    1    2    0    0  0.44644967047E+01 -0.10717307807E+02 -0.38966286597E+02  0.40659118395E+02  0.00000000000E+00 0. -1.
         11    1    3    3    0    0 -0.86352920625E+01  0.28021527752E+01  0.20614500535E+01  0.93096673283E+01  0.51100000000E-03 0. -1.
        -11    1    3    3    0    0  0.10221484730E+02  0.64996586054E+01  0.23217942724E+02  0.26187729506E+02  0.51100000000E-03 0.  1.
        -12    1    3    3    0    0 -0.60506893718E+01  0.14154964260E+01  0.13686893819E+02  0.15031484771E+02  0.00000000000E+00 0.  1.
</event>
<event>
 7    1  0.5897985E-013  0.5052885E+02  0.7816164E-02  0.1300439E+00
        -11   -1    0    0    0    0  0.00000000000E+00  0.00000000000E+00  0.45593999997E+02  0.45594000000E+02  0.51100000000E-03 0.  1.
         11   -1    0    0    0    0 -0.00000000000E+00 -0.00000000000E+00 -0.45593999997E+02  0.45594000000E+02  0.51100000000E-03 0. -1.
    9900012    2    1    2    0    0 -0.15509216304E+02 -0.32658136490E+02 -0.18603137619E+02  0.50528850985E+02  0.29999973055E+02 0.  0.
         12    1    1    2    0    0  0.15509216304E+02  0.32658136490E+02  0.18603137619E+02  0.40659149015E+02  0.00000000000E+00 0. -1.
         11    1    3    3    0    0 -0.19036798551E+02 -0.31846830210E+02 -0.16186413705E+02  0.40479875030E+02  0.51100000000E-03 0. -1.
        -11    1    3    3    0    0  0.21950395239E+01  0.31119164497E+01  0.17338260266E+01  0.41843010710E+01  0.51100000000E-03 0.  1.
        -12    1    3    3    0    0  0.13325427238E+01 -0.39232227293E+01 -0.41505499406E+01  0.58646748847E+01  0.00000000000E+00 0.  1.
</event>
<event>
 7    1  0.5897985E-013  0.5052887E+02  0.7816164E-02  0.1300439E+00
        -11   -1    0    0    0    0  0.00000000000E+00  0.00000000000E+00  0.45593999997E+02  0.45594000000E+02  0.51100000000E-03 0.  1.
         11   -1    0    0    0    0 -0.00000000000E+00 -0.00000000000E+00 -0.45593999997E+02  0.45594000000E+02  0.51100000000E-03 0. -1.
    9900012    2    1    2    0    0  0.18793404785E+02  0.65352303857E+01  0.35457911699E+02  0.50528870624E+02  0.30000032748E+02 0.  0.
         12    1    1    2    0    0 -0.18793404785E+02 -0.65352303857E+01 -0.35457911699E+02  0.40659129376E+02  0.00000000000E+00 0. -1.
         11    1    3    3    0    0  0.15929384559E+02  0.14426864930E+02  0.17923521766E+02  0.27984502084E+02  0.51100000000E-03 0. -1.
        -11    1    3    3    0    0  0.48504830105E+01 -0.99368300055E+01  0.11993262785E+02  0.16312759684E+02  0.51100000000E-03 0.  1.
        -12    1    3    3    0    0 -0.19864627847E+01  0.20451954614E+01  0.55411271473E+01  0.62316088559E+01  0.00000000000E+00 0.  1.
</event>
<event>
 7    1  0.5897985E-013  0.5052886E+02  0.7816164E-02  0.1300439E+00
        -11   -1    0    0    0    0  0.00000000000E+00  0.00000000000E+00  0.45593999997E+02  0.45594000000E+02  0.51100000000E-03 0.  1.
         11   -1    0    0    0    0 -0.00000000000E+00 -0.00000000000E+00 -0.45593999997E+02  0.45594000000E+02  0.51100000000E-03 0. -1.
    9900012    2    1    2    0    0 -0.96984423716E+01 -0.30856696133E+02  0.24636761035E+02  0.50528862344E+02  0.30000007580E+02 0.  0.
         12    1    1    2    0    0  0.96984423716E+01  0.30856696133E+02 -0.24636761035E+02  0.40659137656E+02  0.00000000000E+00 0. -1.
         11    1    3    3    0    0 -0.13657332696E+02 -0.29872562123E+02  0.18408129655E+02  0.37653046913E+02  0.51100000000E-03 0. -1.
        -11    1    3    3    0    0  0.65863954995E+01 -0.17058123913E+01  0.86334060257E+00  0.68582620865E+01  0.51100000000E-03 0.  1.
        -12    1    3    3    0    0 -0.26275051748E+01  0.72167838134E+00  0.53652907768E+01  0.60175533442E+01  0.00000000000E+00 0.  1.
</event>
<event>
 7    1  0.5897985E-013  0.5052886E+02  0.7816164E-02  0.1300439E+00
        -11   -1    0    0    0    0  0.00000000000E+00  0.00000000000E+00  0.45593999997E+02  0.45594000000E+02  0.51100000000E-03 0. -1.
         11   -1    0    0    0    0 -0.00000000000E+00 -0.00000000000E+00 -0.45593999997E+02  0.45594000000E+02  0.51100000000E-03 0.  1.
    9900012    2    1    2    0    0 -0.11132071946E+02  0.37326062764E+02 -0.11662220096E+02  0.50528863698E+02  0.30000011696E+02 0.  0.
         12    1    1    2    0    0  0.11132071946E+02 -0.37326062764E+02  0.11662220096E+02  0.40659136302E+02  0.00000000000E+00 0. -1.
         11    1    3    3    0    0 -0.18045095796E+02  0.13757934544E+02 -0.49419574004E+01  0.23223462024E+02  0.51100000000E-03 0. -1.
        -11    1    3    3    0    0  0.86136246069E+01  0.21888185407E+02 -0.76585011566E+01  0.24737417600E+02  0.51100000000E-03 0.  1.
        -12    1    3    3    0    0 -0.17006007577E+01  0.16799428135E+01  0.93823846126E+00  0.25679840739E+01  0.00000000000E+00 0.  1.
</event>
<event>
 7    1  0.5897985E-013  0.5052886E+02  0.7816164E-02  0.1300439E+00
        -11   -1    0    0    0    0  0.00000000000E+00  0.00000000000E+00  0.45593999997E+02  0.45594000000E+02  0.51100000000E-03 0.  1.
         11   -1    0    0    0    0 -0.00000000000E+00 -0.00000000000E+00 -0.45593999997E+02  0.45594000000E+02  0.51100000000E-03 0. -1.
    9900012    2    1    2    0    0  0.16334102479E+02 -0.19362828021E+02  0.31803203740E+02  0.50528858581E+02  0.29999996144E+02 0.  0.
         12    1    1    2    0    0 -0.16334102479E+02  0.19362828021E+02 -0.31803203740E+02  0.40659141419E+02  0.00000000000E+00 0. -1.
         11    1    3    3    0    0 -0.28011967833E+01 -0.20603403547E+01  0.19463866965E+02  0.19772046512E+02  0.51100000000E-03 0. -1.
        -11    1    3    3    0    0  0.11676064508E+02 -0.66880292972E+01  0.11594533562E+02  0.17762134643E+02  0.51100000000E-03 0.  1.
         12    1    3    3    0    0  0.74592347546E+01 -0.10614458369E+02  0.74480321266E+00  0.12994677426E+02  0.00000000000E+00 0. -1.
</event>
<event>
 7    1  0.5897985E-013  0.5052886E+02  0.7816164E-02  0.1300439E+00
        -11   -1    0    0    0    0  0.00000000000E+00  0.00000000000E+00  0.45593999997E+02  0.45594000000E+02  0.51100000000E-03 0.  1.
         11   -1    0    0    0    0 -0.00000000000E+00 -0.00000000000E+00 -0.45593999997E+02  0.45594000000E+02  0.51100000000E-03 0. -1.
    9900012    2    1    2    0    0  0.19627292031E+02 -0.33641785159E+02 -0.11668995372E+02  0.50528858911E+02  0.29999997146E+02 0.  0.
         12    1    1    2    0    0 -0.19627292031E+02  0.33641785159E+02  0.11668995372E+02  0.40659141089E+02  0.00000000000E+00 0. -1.
         11    1    3    3    0    0 -0.39909671062E+01 -0.20947158930E+02 -0.96303142071E+01  0.23397740012E+02  0.51100000000E-03 0. -1.
        -11    1    3    3    0    0  0.14486027493E+02 -0.74638505514E+01 -0.29757100741E+01  0.16565292279E+02  0.51100000000E-03 0.  1.
         12    1    3    3    0    0  0.91322316441E+01 -0.52307756771E+01  0.93702890952E+00  0.10565826620E+02  0.00000000000E+00 0. -1.
</event>
<event>
 7    1  0.5897985E-013  0.5052887E+02  0.7816164E-02  0.1300439E+00
        -11   -1    0    0    0    0  0.00000000000E+00  0.00000000000E+00  0.45593999997E+02  0.45594000000E+02  0.51100000000E-03 0.  1.
         11   -1    0    0    0    0 -0.00000000000E+00 -0.00000000000E+00 -0.45593999997E+02  0.45594000000E+02  0.51100000000E-03 0. -1.
    9900012    2    1    2    0    0  0.35338185606E+01  0.17678924915E+02  0.36443551228E+02  0.50528872048E+02  0.30000037076E+02 0.  0.
         12    1    1    2    0    0 -0.35338185606E+01 -0.17678924915E+02 -0.36443551228E+02  0.40659127952E+02  0.00000000000E+00 0. -1.
         11    1    3    3    0    0 -0.44373634187E+01  0.19564270362E+02  0.12973110657E+02  0.23890426310E+02  0.51100000000E-03 0. -1.
        -11    1    3    3    0    0  0.55218281566E+01 -0.39738729801E+01  0.22129154562E+02  0.23151279329E+02  0.51100000000E-03 0.  1.
        -12    1    3    3    0    0  0.24493538227E+01  0.20885275328E+01  0.13412860088E+01  0.34871664087E+01  0.00000000000E+00 0.  1.
</event>
<event>
 7    1  0.5897985E-013  0.5052886E+02  0.7816164E-02  0.1300439E+00
        -11   -1    0    0    0    0  0.00000000000E+00  0.00000000000E+00  0.45593999997E+02  0.45594000000E+02  0.51100000000E-03 0.  1.
         11   -1    0    0    0    0 -0.00000000000E+00 -0.00000000000E+00 -0.45593999997E+02  0.45594000000E+02  0.51100000000E-03 0. -1.
    9900012    2    1    2    0    0 -0.25975130607E+02 -0.24967982096E+02  0.18842977024E+02  0.50528864211E+02  0.30000013255E+02 0.  0.
         12    1    1    2    0    0  0.25975130607E+02  0.24967982096E+02 -0.18842977024E+02  0.40659135789E+02  0.00000000000E+00 0. -1.
         11    1    3    3    0    0  0.29641100619E+01 -0.48519076660E+01 -0.12987976805E+01  0.58321378700E+01  0.51100000000E-03 0. -1.
        -11    1    3    3    0    0 -0.19652638800E+02 -0.22908993921E+02  0.14629651597E+02  0.33542136491E+02  0.51100000000E-03 0.  1.
        -12    1    3    3    0    0 -0.92866018691E+01  0.27929194915E+01  0.55121231080E+01  0.11154589850E+02  0.00000000000E+00 0.  1.
</event>
<event>
 7    1  0.5897985E-013  0.5052890E+02  0.7816164E-02  0.1300439E+00
        -11   -1    0    0    0    0  0.00000000000E+00  0.00000000000E+00  0.45593999997E+02  0.45594000000E+02  0.51100000000E-03 0.  1.
         11   -1    0    0    0    0 -0.00000000000E+00 -0.00000000000E+00 -0.45593999997E+02  0.45594000000E+02  0.51100000000E-03 0. -1.
    9900012    2    1    2    0    0  0.16615024505E+02 -0.31624517383E+02  0.19416315644E+02  0.50528899516E+02  0.30000120569E+02 0.  0.
         12    1    1    2    0    0 -0.16615024505E+02  0.31624517383E+02 -0.19416315644E+02  0.40659100484E+02  0.00000000000E+00 0. -1.
         11    1    3    3    0    0 -0.27055861926E+01 -0.48711708893E+01  0.82428588746E+01  0.99495339170E+01  0.51100000000E-03 0. -1.
        -11    1    3    3    0    0  0.13822890636E+02 -0.28412400068E+02  0.47304353649E+01  0.31948611897E+02  0.51100000000E-03 0.  1.
        -12    1    3    3    0    0  0.54977200619E+01  0.16590535751E+01  0.64430214042E+01  0.86307537017E+01  0.00000000000E+00 0.  1.
</event>
<event>
 7    1  0.5897985E-013  0.5052885E+02  0.7816164E-02  0.1300439E+00
        -11   -1    0    0    0    0  0.00000000000E+00  0.00000000000E+00  0.45593999997E+02  0.45594000000E+02  0.51100000000E-03 0.  1.
         11   -1    0    0    0    0 -0.00000000000E+00 -0.00000000000E+00 -0.45593999997E+02  0.45594000000E+02  0.51100000000E-03 0. -1.
    9900012    2    1    2    0    0  0.32247594037E+02 -0.50797792642E+01  0.24237466969E+02  0.50528852400E+02  0.29999977354E+02 0.  0.
         12    1    1    2    0    0 -0.32247594037E+02  0.50797792642E+01 -0.24237466969E+02  0.40659147600E+02  0.00000000000E+00 0. -1.
         11    1    3    3    0    0  0.23014794061E+02 -0.72628233732E+01  0.24329254152E+02  0.34268673112E+02  0.51100000000E-03 0.  1.
        -11    1    3    3    0    0 -0.15219937823E+01  0.13397692246E+01  0.41890992795E+01  0.46540304772E+01  0.51100000000E-03 0. -1.
         12    1    3    3    0    0  0.10754793758E+02  0.84327488437E+00 -0.42808864622E+01  0.11606148810E+02  0.00000000000E+00 0. -1.
</event>
<event>
 7    1  0.5897985E-013  0.5052886E+02  0.7816164E-02  0.1300439E+00
        -11   -1    0    0    0    0  0.00000000000E+00  0.00000000000E+00  0.45593999997E+02  0.45594000000E+02  0.51100000000E-03 0. -1.
         11   -1    0    0    0    0 -0.00000000000E+00 -0.00000000000E+00 -0.45593999997E+02  0.45594000000E+02  0.51100000000E-03 0.  1.
    9900012    2    1    2    0    0  0.27916844868E+02 -0.29314265771E+02  0.38064373490E+01  0.50528863630E+02  0.30000011489E+02 0.  0.
         12    1    1    2    0    0 -0.27916844868E+02  0.29314265771E+02 -0.38064373490E+01  0.40659136370E+02  0.00000000000E+00 0. -1.
         11    1    3    3    0    0  0.30822703766E+00  0.31015537812E+00 -0.19731644453E+00  0.47972315530E+00  0.51100000000E-03 0. -1.
        -11    1    3    3    0    0  0.10960140724E+02 -0.25952424599E+02 -0.78969668958E+01  0.29257735963E+02  0.51100000000E-03 0.  1.
        -12    1    3    3    0    0  0.16648477107E+02 -0.36719965496E+01  0.11900720689E+02  0.20791404511E+02  0.00000000000E+00 0.  1.
</event>
<event>
 7    1  0.5897985E-013  0.5052885E+02  0.7816164E-02  0.1300439E+00
        -11   -1    0    0    0    0  0.00000000000E+00  0.00000000000E+00  0.45593999997E+02  0.45594000000E+02  0.51100000000E-03 0. -1.
         11   -1    0    0    0    0 -0.00000000000E+00 -0.00000000000E+00 -0.45593999997E+02  0.45594000000E+02  0.51100000000E-03 0.  1.
    9900012    2    1    2    0    0  0.24242648252E+02  0.20129346892E+02 -0.25695709632E+02  0.50528854730E+02  0.29999984438E+02 0.  0.
         12    1    1    2    0    0 -0.24242648252E+02 -0.20129346892E+02  0.25695709632E+02  0.40659145270E+02  0.00000000000E+00 0. -1.
         11    1    3    3    0    0  0.16991760935E+02 -0.38280232907E+01 -0.59616898750E+01  0.18409656390E+02  0.51100000000E-03 0. -1.
        -11    1    3    3    0    0  0.69799749282E+01  0.17124992067E+02 -0.14828686640E+02  0.23703910037E+02  0.51100000000E-03 0.  1.
         12    1    3    3    0    0  0.27091238928E+00  0.68323781157E+01 -0.49053331164E+01  0.84152883029E+01  0.00000000000E+00 0. -1.
</event>
<event>
 7    1  0.5897985E-013  0.5052880E+02  0.7816164E-02  0.1300439E+00
        -11   -1    0    0    0    0  0.00000000000E+00  0.00000000000E+00  0.45593999997E+02  0.45594000000E+02  0.51100000000E-03 0.  1.
         11   -1    0    0    0    0 -0.00000000000E+00 -0.00000000000E+00 -0.45593999997E+02  0.45594000000E+02  0.51100000000E-03 0. -1.
    9900012    2    1    2    0    0 -0.69799131438E+01 -0.16034279503E+02  0.36706311459E+02  0.50528799225E+02  0.29999815725E+02 0.  0.
         12    1    1    2    0    0  0.69799131438E+01  0.16034279503E+02 -0.36706311459E+02  0.40659200775E+02  0.00000000000E+00 0. -1.
         11    1    3    3    0    0 -0.24892638073E+01  0.49524927008E+01  0.72159138496E+00  0.55896612278E+01  0.51100000000E-03 0. -1.
        -11    1    3    3    0    0  0.60124515261E+01 -0.10217085035E+02  0.16737182984E+02  0.20510282652E+02  0.51100000000E-03 0.  1.
        -12    1    3    3    0    0 -0.10503100863E+02 -0.10769687169E+02  0.19247537091E+02  0.24428855346E+02  0.00000000000E+00 0.  1.
</event>
<event>
 7    1  0.5897985E-013  0.5052890E+02  0.7816164E-02  0.1300439E+00
        -11   -1    0    0    0    0  0.00000000000E+00  0.00000000000E+00  0.45593999997E+02  0.45594000000E+02  0.51100000000E-03 0.  1.
         11   -1    0    0    0    0 -0.00000000000E+00 -0.00000000000E+00 -0.45593999997E+02  0.45594000000E+02  0.51100000000E-03 0. -1.
    9900012    2    1    2    0    0 -0.39925659711E+02  0.48946562949E+01 -0.59284632979E+01  0.50528897198E+02  0.30000113522E+02 0.  0.
         12    1    1    2    0    0  0.39925659711E+02 -0.48946562949E+01  0.59284632979E+01  0.40659102802E+02  0.00000000000E+00 0. -1.
         11    1    3    3    0    0  0.58397364465E+00  0.30546868479E+01 -0.74949271218E+01  0.81145591241E+01  0.51100000000E-03 0. -1.
        -11    1    3    3    0    0 -0.33063106390E+02  0.14213996753E+00 -0.35013787416E+01  0.33248291103E+02  0.51100000000E-03 0.  1.
         12    1    3    3    0    0 -0.74465269655E+01  0.16978294795E+01  0.50678425654E+01  0.91660469701E+01  0.00000000000E+00 0. -1.
</event>
<event>
 7    1  0.5897985E-013  0.5052886E+02  0.7816164E-02  0.1300439E+00
        -11   -1    0    0    0    0  0.00000000000E+00  0.00000000000E+00  0.45593999997E+02  0.45594000000E+02  0.51100000000E-03 0.  1.
         11   -1    0    0    0    0 -0.00000000000E+00 -0.00000000000E+00 -0.45593999997E+02  0.45594000000E+02  0.51100000000E-03 0. -1.
    9900012    2    1    2    0    0  0.12659487598E+01 -0.65801186575E+01  0.40103180860E+02  0.50528859541E+02  0.29999999060E+02 0.  0.
         12    1    1    2    0    0 -0.12659487598E+01  0.65801186575E+01 -0.40103180860E+02  0.40659140459E+02  0.00000000000E+00 0. -1.
         11    1    3    3    0    0 -0.16135584560E+01 -0.55283564438E+01 -0.22832305716E+01  0.61951140397E+01  0.51100000000E-03 0. -1.
        -11    1    3    3    0    0  0.73023685068E+01  0.13324583556E+01  0.18682036753E+02  0.20102699535E+02  0.51100000000E-03 0.  1.
         12    1    3    3    0    0 -0.44228612911E+01 -0.23842205693E+01  0.23704374679E+02  0.24231045966E+02  0.00000000000E+00 0. -1.
</event>
<event>
 7    1  0.5897985E-013  0.5052887E+02  0.7816164E-02  0.1300439E+00
        -11   -1    0    0    0    0  0.00000000000E+00  0.00000000000E+00  0.45593999997E+02  0.45594000000E+02  0.51100000000E-03 0. -1.
         11   -1    0    0    0    0 -0.00000000000E+00 -0.00000000000E+00 -0.45593999997E+02  0.45594000000E+02  0.51100000000E-03 0.  1.
    9900012    2    1    2    0    0  0.20271291849E+01  0.11085434375E+02 -0.39066214820E+02  0.50528865130E+02  0.30000016050E+02 0.  0.
         12    1    1    2    0    0 -0.20271291849E+01 -0.11085434375E+02  0.39066214820E+02  0.40659134870E+02  0.00000000000E+00 0. -1.
         11    1    3    3    0    0 -0.67681940139E+01 -0.12678981059E+01  0.96270495538E+00  0.69528998921E+01  0.51100000000E-03 0. -1.
        -11    1    3    3    0    0  0.75180258029E+01  0.11452698469E+02 -0.39674740201E+02  0.41973444277E+02  0.51100000000E-03 0.  1.
        -12    1    3    3    0    0  0.12772973959E+01  0.90063401189E+00 -0.35417957439E+00  0.16025209614E+01  0.00000000000E+00 0.  1.
</event>
<event>
 7    1  0.5897985E-013  0.5052886E+02  0.7816164E-02  0.1300439E+00
        -11   -1    0    0    0    0  0.00000000000E+00  0.00000000000E+00  0.45593999997E+02  0.45594000000E+02  0.51100000000E-03 0.  1.
         11   -1    0    0    0    0 -0.00000000000E+00 -0.00000000000E+00 -0.45593999997E+02  0.45594000000E+02  0.51100000000E-03 0. -1.
    9900012    2    1    2    0    0  0.17356113868E+02  0.16672160690E+02  0.32771484489E+02  0.50528858023E+02  0.29999994447E+02 0.  0.
         12    1    1    2    0    0 -0.17356113868E+02 -0.16672160690E+02 -0.32771484489E+02  0.40659141977E+02  0.00000000000E+00 0. -1.
         11    1    3    3    0    0  0.90525277572E+01 -0.76866947860E+01  0.92709759180E+01  0.15066005783E+02  0.51100000000E-03 0. -1.
        -11    1    3    3    0    0 -0.62236295823E+00  0.39273144589E+01  0.18541275467E+01  0.43873595398E+01  0.51100000000E-03 0.  1.
         12    1    3    3    0    0  0.89259490695E+01  0.20431541017E+02  0.21646381024E+02  0.31075492700E+02  0.00000000000E+00 0. -1.
</event>
<event>
 7    1  0.5897985E-013  0.5052885E+02  0.7816164E-02  0.1300439E+00
        -11   -1    0    0    0    0  0.00000000000E+00  0.00000000000E+00  0.45593999997E+02  0.45594000000E+02  0.51100000000E-03 0.  1.
         11   -1    0    0    0    0 -0.00000000000E+00 -0.00000000000E+00 -0.45593999997E+02  0.45594000000E+02  0.51100000000E-03 0. -1.
    9900012    2    1    2    0    0 -0.23797926952E+02  0.34882229525E+01  0.32781966883E+02  0.50528851223E+02  0.29999973777E+02 0.  0.
         12    1    1    2    0    0  0.23797926952E+02 -0.34882229525E+01 -0.32781966883E+02  0.40659148777E+02  0.00000000000E+00 0. -1.
         11    1    3    3    0    0  0.62592118857E+00 -0.22969663299E+01 -0.59424834187E+00  0.24537650678E+01  0.51100000000E-03 0. -1.
        -11    1    3    3    0    0 -0.26800290559E+02  0.44248711457E+01  0.35435632932E+02  0.44648842542E+02  0.51100000000E-03 0.  1.
        -12    1    3    3    0    0  0.23764424191E+01  0.13603181368E+01 -0.20594177074E+01  0.34262436134E+01  0.00000000000E+00 0.  1.
</event>
<event>
 7    1  0.5897985E-013  0.5052886E+02  0.7816164E-02  0.1300439E+00
        -11   -1    0    0    0    0  0.00000000000E+00  0.00000000000E+00  0.45593999997E+02  0.45594000000E+02  0.51100000000E-03 0.  1.
         11   -1    0    0    0    0 -0.00000000000E+00 -0.00000000000E+00 -0.45593999997E+02  0.45594000000E+02  0.51100000000E-03 0. -1.
    9900012    2    1    2    0    0 -0.20254017588E+02 -0.34263353617E+02 -0.83043855588E+01  0.50528862662E+02  0.30000008547E+02 0.  0.
         12    1    1    2    0    0  0.20254017588E+02  0.34263353617E+02  0.83043855588E+01  0.40659137338E+02  0.00000000000E+00 0. -1.
         11    1    3    3    0    0 -0.75787413900E+01  0.16823352740E+01 -0.50436276142E+01  0.92577401563E+01  0.51100000000E-03 0. -1.
        -11    1    3    3    0    0 -0.14630215697E+02 -0.22798310305E+02 -0.58896224114E+01  0.27721721024E+02  0.51100000000E-03 0.  1.
         12    1    3    3    0    0  0.19549394987E+01 -0.13147378586E+02  0.26288644668E+01  0.13549401482E+02  0.00000000000E+00 0. -1.
</event>
<event>
 7    1  0.5897985E-013  0.5052886E+02  0.7816164E-02  0.1300439E+00
        -11   -1    0    0    0    0  0.00000000000E+00  0.00000000000E+00  0.45593999997E+02  0.45594000000E+02  0.51100000000E-03 0.  1.
         11   -1    0    0    0    0 -0.00000000000E+00 -0.00000000000E+00 -0.45593999997E+02  0.45594000000E+02  0.51100000000E-03 0. -1.
    9900012    2    1    2    0    0 -0.27571816870E+02 -0.25935106289E+02  0.14843544683E+02  0.50528860283E+02  0.30000001317E+02 0.  0.
         12    1    1    2    0    0  0.27571816870E+02  0.25935106289E+02 -0.14843544683E+02  0.40659139717E+02  0.00000000000E+00 0. -1.
         11    1    3    3    0    0  0.14792162930E+01  0.12711993434E+01 -0.28301938963E+01  0.34371538173E+01  0.51100000000E-03 0. -1.
        -11    1    3    3    0    0 -0.19512939232E+02 -0.20625620767E+02  0.20673068597E+02  0.35121884844E+02  0.51100000000E-03 0.  1.
        -12    1    3    3    0    0 -0.95380939305E+01 -0.65806848650E+01 -0.29993300168E+01  0.11969821622E+02  0.00000000000E+00 0.  1.
</event>
<event>
 7    1  0.5897985E-013  0.5052885E+02  0.7816164E-02  0.1300439E+00
        -11   -1    0    0    0    0  0.00000000000E+00  0.00000000000E+00  0.45593999997E+02  0.45594000000E+02  0.51100000000E-03 0.  1.
         11   -1    0    0    0    0 -0.00000000000E+00 -0.00000000000E+00 -0.45593999997E+02  0.45594000000E+02  0.51100000000E-03 0. -1.
    9900012    2    1    2    0    0  0.21798426453E+02  0.34308473651E+02  0.96105851637E+00  0.50528851047E+02  0.29999973243E+02 0.  0.
         12    1    1    2    0    0 -0.21798426453E+02 -0.34308473651E+02 -0.96105851637E+00  0.40659148953E+02  0.00000000000E+00 0. -1.
         11    1    3    3    0    0 -0.40966737100E+01  0.86116998945E+01  0.15719442929E+00  0.95377576458E+01  0.51100000000E-03 0. -1.
        -11    1    3    3    0    0  0.17455832411E+02  0.43632663868E+01 -0.63322712992E+00  0.18004031648E+02  0.51100000000E-03 0.  1.
        -12    1    3    3    0    0  0.84392677526E+01  0.21333507370E+02  0.14370912170E+01  0.22987061754E+02  0.00000000000E+00 0.  1.
</event>
<event>
 7    1  0.5897985E-013  0.5052886E+02  0.7816164E-02  0.1300439E+00
        -11   -1    0    0    0    0  0.00000000000E+00  0.00000000000E+00  0.45593999997E+02  0.45594000000E+02  0.51100000000E-03 0.  1.
         11   -1    0    0    0    0 -0.00000000000E+00 -0.00000000000E+00 -0.45593999997E+02  0.45594000000E+02  0.51100000000E-03 0. -1.
    9900012    2    1    2    0    0  0.10925587076E+02  0.78124601522E+00  0.39155932644E+02  0.50528857615E+02  0.29999993205E+02 0.  0.
         12    1    1    2    0    0 -0.10925587076E+02 -0.78124601522E+00 -0.39155932644E+02  0.40659142385E+02  0.00000000000E+00 0. -1.
         11    1    3    3    0    0  0.12878008303E+01 -0.63657770286E+01  0.65303012726E+01  0.92101239475E+01  0.51100000000E-03 0. -1.
        -11    1    3    3    0    0  0.10970742936E+02  0.42037480303E+01  0.38515055858E+01  0.12363769394E+02  0.51100000000E-03 0.  1.
        -12    1    3    3    0    0 -0.13329566908E+01  0.29432750136E+01  0.28774125786E+02  0.28954964274E+02  0.00000000000E+00 0.  1.
</event>
<event>
 7    1  0.5897985E-013  0.5052885E+02  0.7816164E-02  0.1300439E+00
        -11   -1    0    0    0    0  0.00000000000E+00  0.00000000000E+00  0.45593999997E+02  0.45594000000E+02  0.51100000000E-03 0.  1.
         11   -1    0    0    0    0 -0.00000000000E+00 -0.00000000000E+00 -0.45593999997E+02  0.45594000000E+02  0.51100000000E-03 0. -1.
    9900012    2    1    2    0    0  0.39557382775E+02  0.69029991668E+01 -0.63818792291E+01  0.50528852050E+02  0.29999976292E+02 0.  0.
         12    1    1    2    0    0 -0.39557382775E+02 -0.69029991668E+01  0.63818792291E+01  0.40659147950E+02  0.00000000000E+00 0. -1.
         11    1    3    3    0    0  0.25805674647E+02 -0.31070010396E+01 -0.14799920647E+02  0.29910264975E+02  0.51100000000E-03 0. -1.
        -11    1    3    3    0    0  0.74810483740E+01  0.70719986145E+00  0.24050019178E+01  0.78898828194E+01  0.51100000000E-03 0.  1.
         12    1    3    3    0    0  0.62706597536E+01  0.93028003449E+01  0.60130395000E+01  0.12728704256E+02  0.00000000000E+00 0. -1.
</event>
<event>
 7    1  0.5897985E-013  0.5052886E+02  0.7816164E-02  0.1300439E+00
        -11   -1    0    0    0    0  0.00000000000E+00  0.00000000000E+00  0.45593999997E+02  0.45594000000E+02  0.51100000000E-03 0. -1.
         11   -1    0    0    0    0 -0.00000000000E+00 -0.00000000000E+00 -0.45593999997E+02  0.45594000000E+02  0.51100000000E-03 0.  1.
    9900012    2    1    2    0    0 -0.14730678117E+02  0.13938677195E+02 -0.35240404298E+02  0.50528859640E+02  0.29999999360E+02 0.  0.
         12    1    1    2    0    0  0.14730678117E+02 -0.13938677195E+02  0.35240404298E+02  0.40659140360E+02  0.00000000000E+00 0. -1.
         11    1    3    3    0    0 -0.26983628289E+01  0.18807747007E+02 -0.12724831674E+02  0.22867746955E+02  0.51100000000E-03 0. -1.
        -11    1    3    3    0    0 -0.11033083893E+02  0.65122920475E-01 -0.15355306352E+02  0.18908162645E+02  0.51100000000E-03 0.  1.
         12    1    3    3    0    0 -0.99923139517E+00 -0.49341927320E+01 -0.71602662729E+01  0.87529500397E+01  0.00000000000E+00 0. -1.
</event>
<event>
 7    1  0.5897985E-013  0.5052885E+02  0.7816164E-02  0.1300439E+00
        -11   -1    0    0    0    0  0.00000000000E+00  0.00000000000E+00  0.45593999997E+02  0.45594000000E+02  0.51100000000E-03 0.  1.
         11   -1    0    0    0    0 -0.00000000000E+00 -0.00000000000E+00 -0.45593999997E+02  0.45594000000E+02  0.51100000000E-03 0. -1.
    9900012    2    1    2    0    0  0.15244092390E+02 -0.22706902657E+02  0.30086215246E+02  0.50528854302E+02  0.29999983137E+02 0.  0.
         12    1    1    2    0    0 -0.15244092390E+02  0.22706902657E+02 -0.30086215246E+02  0.40659145698E+02  0.00000000000E+00 0. -1.
         11    1    3    3    0    0  0.12654284540E+02 -0.23758856507E+02  0.12098748862E+02  0.29512605849E+02  0.51100000000E-03 0. -1.
        -11    1    3    3    0    0  0.60332697419E+01 -0.19062301421E+01  0.10674119232E+02  0.12408500263E+02  0.51100000000E-03 0.  1.
         12    1    3    3    0    0 -0.34434618923E+01  0.29581839923E+01  0.73133471519E+01  0.86077481899E+01  0.00000000000E+00 0. -1.
</event>
<event>
 7    1  0.5897985E-013  0.5052886E+02  0.7816164E-02  0.1300439E+00
        -11   -1    0    0    0    0  0.00000000000E+00  0.00000000000E+00  0.45593999997E+02  0.45594000000E+02  0.51100000000E-03 0.  1.
         11   -1    0    0    0    0 -0.00000000000E+00 -0.00000000000E+00 -0.45593999997E+02  0.45594000000E+02  0.51100000000E-03 0. -1.
    9900012    2    1    2    0    0 -0.30648318989E+02  0.22042283943E+02 -0.15099123281E+02  0.50528864961E+02  0.30000015534E+02 0.  0.
         12    1    1    2    0    0  0.30648318989E+02 -0.22042283943E+02  0.15099123281E+02  0.40659135039E+02  0.00000000000E+00 0. -1.
         11    1    3    3    0    0 -0.76362159849E+00  0.73273082444E+01 -0.14632353491E+02  0.16382256651E+02  0.51100000000E-03 0. -1.
        -11    1    3    3    0    0 -0.55563137762E+01  0.60001126459E+01 -0.13550131648E+01  0.82891516744E+01  0.51100000000E-03 0.  1.
         12    1    3    3    0    0 -0.24328383615E+02  0.87148630528E+01  0.88824337488E+00  0.25857456635E+02  0.00000000000E+00 0. -1.
</event>
<event>
 7    1  0.5897985E-013  0.5052887E+02  0.7816164E-02  0.1300439E+00
        -11   -1    0    0    0    0  0.00000000000E+00  0.00000000000E+00  0.45593999997E+02  0.45594000000E+02  0.51100000000E-03 0.  1.
         11   -1    0    0    0    0 -0.00000000000E+00 -0.00000000000E+00 -0.45593999997E+02  0.45594000000E+02  0.51100000000E-03 0. -1.
    9900012    2    1    2    0    0 -0.10998374955E+02  0.35069229244E+02  0.17388206194E+02  0.50528870570E+02  0.30000032584E+02 0.  0.
         12    1    1    2    0    0  0.10998374955E+02 -0.35069229244E+02 -0.17388206194E+02  0.40659129430E+02  0.00000000000E+00 0. -1.
         11    1    3    3    0    0 -0.12046360680E+02  0.12185354946E+02  0.15025787347E+01  0.17200448363E+02  0.51100000000E-03 0. -1.
        -11    1    3    3    0    0  0.55123974470E+01  0.22835536893E+02  0.90719891607E+01  0.25182320354E+02  0.51100000000E-03 0.  1.
        -12    1    3    3    0    0 -0.44644117225E+01  0.48337404691E-01  0.68136382984E+01  0.81461018527E+01  0.00000000000E+00 0.  1.
</event>
<event>
 7    1  0.5897985E-013  0.5052884E+02  0.7816164E-02  0.1300439E+00
        -11   -1    0    0    0    0  0.00000000000E+00  0.00000000000E+00  0.45593999997E+02  0.45594000000E+02  0.51100000000E-03 0. -1.
         11   -1    0    0    0    0 -0.00000000000E+00 -0.00000000000E+00 -0.45593999997E+02  0.45594000000E+02  0.51100000000E-03 0.  1.
    9900012    2    1    2    0    0 -0.95152336900E+01  0.11660834080E+02 -0.37771054551E+02  0.50528840079E+02  0.29999939903E+02 0.  0.
         12    1    1    2    0    0  0.95152336900E+01 -0.11660834080E+02  0.37771054551E+02  0.40659159921E+02  0.00000000000E+00 0. -1.
         11    1    3    3    0    0 -0.32745942995E+01  0.12558142604E+02 -0.12311488681E+02  0.17888618373E+02  0.51100000000E-03 0. -1.
        -11    1    3    3    0    0  0.50148519346E+01 -0.61446910824E+00 -0.18998932399E+02  0.19659240697E+02  0.51100000000E-03 0.  1.
        -12    1    3    3    0    0 -0.11255491325E+02 -0.28283941573E+00 -0.64606334704E+01  0.12980981009E+02  0.00000000000E+00 0.  1.
</event>
<event>
 7    1  0.5897985E-013  0.5052881E+02  0.7816164E-02  0.1300439E+00
        -11   -1    0    0    0    0  0.00000000000E+00  0.00000000000E+00  0.45593999997E+02  0.45594000000E+02  0.51100000000E-03 0.  1.
         11   -1    0    0    0    0 -0.00000000000E+00 -0.00000000000E+00 -0.45593999997E+02  0.45594000000E+02  0.51100000000E-03 0. -1.
    9900012    2    1    2    0    0 -0.32789062399E+02 -0.65394506241E+01  0.23136183501E+02  0.50528806520E+02  0.29999837898E+02 0.  0.
         12    1    1    2    0    0  0.32789062399E+02  0.65394506241E+01 -0.23136183501E+02  0.40659193480E+02  0.00000000000E+00 0. -1.
         11    1    3    3    0    0  0.27383147505E+01 -0.60882234075E+01  0.11023074715E+02  0.12886931690E+02  0.51100000000E-03 0. -1.
        -11    1    3    3    0    0 -0.12008975237E+02  0.10292911916E+01  0.47224718840E+01  0.12945140693E+02  0.51100000000E-03 0.  1.
         12    1    3    3    0    0 -0.23518401912E+02 -0.14805184082E+01  0.73906369014E+01  0.24696734138E+02  0.00000000000E+00 0. -1.
</event>
<event>
 7    1  0.5897985E-013  0.5052883E+02  0.7816164E-02  0.1300439E+00
        -11   -1    0    0    0    0  0.00000000000E+00  0.00000000000E+00  0.45593999997E+02  0.45594000000E+02  0.51100000000E-03 0.  1.
         11   -1    0    0    0    0 -0.00000000000E+00 -0.00000000000E+00 -0.45593999997E+02  0.45594000000E+02  0.51100000000E-03 0. -1.
    9900012    2    1    2    0    0 -0.33034354227E+02  0.23017518340E+02 -0.56651013659E+01  0.50528830269E+02  0.29999910086E+02 0.  0.
         12    1    1    2    0    0  0.33034354227E+02 -0.23017518340E+02  0.56651013659E+01  0.40659169731E+02  0.00000000000E+00 0. -1.
         11    1    3    3    0    0 -0.14583086108E+02  0.26600574221E+02 -0.74291090035E+00  0.30344832611E+02  0.51100000000E-03 0. -1.
        -11    1    3    3    0    0 -0.10729428989E+02  0.68457826721E+00 -0.27888304617E+01  0.11107063943E+02  0.51100000000E-03 0.  1.
         12    1    3    3    0    0 -0.77218391297E+01 -0.42676341477E+01 -0.21333600039E+01  0.90769337151E+01  0.00000000000E+00 0. -1.
</event>
<event>
 7    1  0.5897985E-013  0.5052884E+02  0.7816164E-02  0.1300439E+00
        -11   -1    0    0    0    0  0.00000000000E+00  0.00000000000E+00  0.45593999997E+02  0.45594000000E+02  0.51100000000E-03 0. -1.
         11   -1    0    0    0    0 -0.00000000000E+00 -0.00000000000E+00 -0.45593999997E+02  0.45594000000E+02  0.51100000000E-03 0.  1.
    9900012    2    1    2    0    0 -0.13387037102E+02  0.24340079173E+02 -0.29690316456E+02  0.50528842264E+02  0.29999946546E+02 0.  0.
         12    1    1    2    0    0  0.13387037102E+02 -0.24340079173E+02  0.29690316456E+02  0.40659157736E+02  0.00000000000E+00 0. -1.
         11    1    3    3    0    0  0.54422864409E+01  0.17408254276E+02 -0.76637825439E+01  0.19783815653E+02  0.51100000000E-03 0. -1.
        -11    1    3    3    0    0 -0.48408672871E+01  0.54623820508E+01 -0.88540194284E+01  0.11474548970E+02  0.51100000000E-03 0.  1.
         12    1    3    3    0    0 -0.13988456256E+02  0.14694428459E+01 -0.13172514484E+02  0.19270477641E+02  0.00000000000E+00 0. -1.
</event>
<event>
 7    1  0.5897985E-013  0.5052886E+02  0.7816164E-02  0.1300439E+00
        -11   -1    0    0    0    0  0.00000000000E+00  0.00000000000E+00  0.45593999997E+02  0.45594000000E+02  0.51100000000E-03 0. -1.
         11   -1    0    0    0    0 -0.00000000000E+00 -0.00000000000E+00 -0.45593999997E+02  0.45594000000E+02  0.51100000000E-03 0.  1.
    9900012    2    1    2    0    0  0.36227566928E+02 -0.29600602380E+01 -0.18219967685E+02  0.50528858536E+02  0.29999996005E+02 0.  0.
         12    1    1    2    0    0 -0.36227566928E+02  0.29600602380E+01  0.18219967685E+02  0.40659141464E+02  0.00000000000E+00 0. -1.
         11    1    3    3    0    0  0.18214549709E+01 -0.90792203893E+01 -0.33443393539E+01  0.98455343717E+01  0.51100000000E-03 0. -1.
        -11    1    3    3    0    0  0.13141092703E+02  0.46253274466E+01  0.12014515954E+01  0.13983041787E+02  0.51100000000E-03 0.  1.
        -12    1    3    3    0    0  0.21265019254E+02  0.14938327047E+01 -0.16077079927E+02  0.26700282377E+02  0.00000000000E+00 0.  1.
</event>
<event>
 7    1  0.5897985E-013  0.5052885E+02  0.7816164E-02  0.1300439E+00
        -11   -1    0    0    0    0  0.00000000000E+00  0.00000000000E+00  0.45593999997E+02  0.45594000000E+02  0.51100000000E-03 0. -1.
         11   -1    0    0    0    0 -0.00000000000E+00 -0.00000000000E+00 -0.45593999997E+02  0.45594000000E+02  0.51100000000E-03 0.  1.
    9900012    2    1    2    0    0  0.17047603333E+02  0.26344324988E+02 -0.25855796898E+02  0.50528850087E+02  0.29999970323E+02 0.  0.
         12    1    1    2    0    0 -0.17047603333E+02 -0.26344324988E+02  0.25855796898E+02  0.40659149913E+02  0.00000000000E+00 0. -1.
         11    1    3    3    0    0 -0.67977846728E+01 -0.34212230169E+00 -0.67223349491E+01  0.95664367220E+01  0.51100000000E-03 0. -1.
        -11    1    3    3    0    0  0.89205067865E+01  0.12029666881E+02 -0.10710484807E+02  0.18412028993E+02  0.51100000000E-03 0.  1.
         12    1    3    3    0    0  0.14924881219E+02  0.14656780409E+02 -0.84229771417E+01  0.22550384371E+02  0.00000000000E+00 0. -1.
</event>
<event>
 7    1  0.5897985E-013  0.5052886E+02  0.7816164E-02  0.1300439E+00
        -11   -1    0    0    0    0  0.00000000000E+00  0.00000000000E+00  0.45593999997E+02  0.45594000000E+02  0.51100000000E-03 0.  1.
         11   -1    0    0    0    0 -0.00000000000E+00 -0.00000000000E+00 -0.45593999997E+02  0.45594000000E+02  0.51100000000E-03 0. -1.
    9900012    2    1    2    0    0 -0.20089402115E+01  0.11786251200E+02  0.38861478411E+02  0.50528855119E+02  0.29999985620E+02 0.  0.
         12    1    1    2    0    0  0.20089402115E+01 -0.11786251200E+02 -0.38861478411E+02  0.40659144881E+02  0.00000000000E+00 0. -1.
         11    1    3    3    0    0 -0.41582223355E+01 -0.17333338087E+01  0.28600702486E+01  0.53362216194E+01  0.51100000000E-03 0. -1.
        -11    1    3    3    0    0  0.36691785585E+01  0.11787042027E+02  0.38109489914E+01  0.12919774128E+02  0.51100000000E-03 0.  1.
        -12    1    3    3    0    0 -0.15198964345E+01  0.17325429812E+01  0.32190459171E+02  0.32272859372E+02  0.00000000000E+00 0.  1.
</event>
<event>
 7    1  0.5897985E-013  0.5052888E+02  0.7816164E-02  0.1300439E+00
        -11   -1    0    0    0    0  0.00000000000E+00  0.00000000000E+00  0.45593999997E+02  0.45594000000E+02  0.51100000000E-03 0.  1.
         11   -1    0    0    0    0 -0.00000000000E+00 -0.00000000000E+00 -0.45593999997E+02  0.45594000000E+02  0.51100000000E-03 0. -1.
    9900012    2    1    2    0    0  0.15805146608E+02  0.32409492712E+02 -0.18787926452E+02  0.50528879775E+02  0.30000060563E+02 0.  0.
         12    1    1    2    0    0 -0.15805146608E+02 -0.32409492712E+02  0.18787926452E+02  0.40659120225E+02  0.00000000000E+00 0. -1.
         11    1    3    3    0    0  0.92205698948E+01  0.16514712728E+02 -0.21916043309E+02  0.28949397235E+02  0.51100000000E-03 0. -1.
        -11    1    3    3    0    0 -0.16785593681E+01  0.11271990485E+01  0.41605348106E+01  0.46258177027E+01  0.51100000000E-03 0.  1.
        -12    1    3    3    0    0  0.82631360816E+01  0.14767580935E+02 -0.10324179533E+01  0.16953664837E+02  0.00000000000E+00 0.  1.
</event>
<event>
 7    1  0.5897985E-013  0.5052885E+02  0.7816164E-02  0.1300439E+00
        -11   -1    0    0    0    0  0.00000000000E+00  0.00000000000E+00  0.45593999997E+02  0.45594000000E+02  0.51100000000E-03 0.  1.
         11   -1    0    0    0    0 -0.00000000000E+00 -0.00000000000E+00 -0.45593999997E+02  0.45594000000E+02  0.51100000000E-03 0. -1.
    9900012    2    1    2    0    0 -0.72753746312E+01  0.25388013404E+02  0.30914143717E+02  0.50528848725E+02  0.29999966185E+02 0.  0.
         12    1    1    2    0    0  0.72753746312E+01 -0.25388013404E+02 -0.30914143717E+02  0.40659151275E+02  0.00000000000E+00 0. -1.
         11    1    3    3    0    0  0.18867064063E+01 -0.48135325223E+01  0.12077791260E+02  0.13137838421E+02  0.51100000000E-03 0. -1.
        -11    1    3    3    0    0 -0.98577036351E+01  0.22616049811E+02  0.14812227328E+02  0.28776068332E+02  0.51100000000E-03 0.  1.
         12    1    3    3    0    0  0.69562259758E+00  0.75854961155E+01  0.40241251297E+01  0.86149419717E+01  0.00000000000E+00 0. -1.
</event>
<event>
 7    1  0.6223253E-013  0.5052887E+02  0.7816164E-02  0.1300439E+00
        -11   -1    0    0    0    0  0.00000000000E+00  0.00000000000E+00  0.45593999997E+02  0.45594000000E+02  0.51100000000E-03 0. -1.
         11   -1    0    0    0    0 -0.00000000000E+00 -0.00000000000E+00 -0.45593999997E+02  0.45594000000E+02  0.51100000000E-03 0.  1.
    9900012    2    1    2    0    0 -0.31193443655E+02  0.25596965371E+02 -0.49929564037E+01  0.50528866009E+02  0.30000018720E+02 0.  0.
         12    1    1    2    0    0  0.31193443655E+02 -0.25596965371E+02  0.49929564037E+01  0.40659133991E+02  0.00000000000E+00 0. -1.
         11    1    3    3    0    0  0.10976938930E+01 -0.54613151914E-01 -0.31049287914E+01  0.32937057458E+01  0.51100000000E-03 0. -1.
        -11    1    3    3    0    0 -0.32213111383E+02  0.15152983404E+02 -0.57261506634E+01  0.36056708844E+02  0.51100000000E-03 0.  1.
        -12    1    3    3    0    0 -0.78026165002E-01  0.10498595119E+02  0.38381230512E+01  0.11178451419E+02  0.00000000000E+00 0.  1.
</event>
<event>
 7    1  0.5897985E-013  0.5052887E+02  0.7816164E-02  0.1300439E+00
        -11   -1    0    0    0    0  0.00000000000E+00  0.00000000000E+00  0.45593999997E+02  0.45594000000E+02  0.51100000000E-03 0.  1.
         11   -1    0    0    0    0 -0.00000000000E+00 -0.00000000000E+00 -0.45593999997E+02  0.45594000000E+02  0.51100000000E-03 0. -1.
    9900012    2    1    2    0    0 -0.35356908508E+02 -0.10470610949E+02  0.17129521149E+02  0.50528866122E+02  0.30000019065E+02 0.  0.
         12    1    1    2    0    0  0.35356908508E+02  0.10470610949E+02 -0.17129521149E+02  0.40659133878E+02  0.00000000000E+00 0. -1.
         11    1    3    3    0    0 -0.73074576409E+01 -0.21920748240E+01 -0.78247605127E+01  0.10928449412E+02  0.51100000000E-03 0. -1.
        -11    1    3    3    0    0 -0.16093888554E+02 -0.95633412612E+01  0.14909170194E+02  0.23932281567E+02  0.51100000000E-03 0.  1.
         12    1    3    3    0    0 -0.11955562313E+02  0.12848051360E+01  0.10045111468E+02  0.15668135143E+02  0.00000000000E+00 0. -1.
</event>
<event>
 7    1  0.5897985E-013  0.5052886E+02  0.7816164E-02  0.1300439E+00
        -11   -1    0    0    0    0  0.00000000000E+00  0.00000000000E+00  0.45593999997E+02  0.45594000000E+02  0.51100000000E-03 0. -1.
         11   -1    0    0    0    0 -0.00000000000E+00 -0.00000000000E+00 -0.45593999997E+02  0.45594000000E+02  0.51100000000E-03 0.  1.
    9900012    2    1    2    0    0  0.33426453606E+02 -0.53987553750E+01 -0.22509798377E+02  0.50528863472E+02  0.30000011009E+02 0.  0.
         12    1    1    2    0    0 -0.33426453606E+02  0.53987553750E+01  0.22509798377E+02  0.40659136528E+02  0.00000000000E+00 0. -1.
         11    1    3    3    0    0  0.40519867674E+01 -0.79788620239E+01 -0.68577805809E+01  0.11274306662E+02  0.51100000000E-03 0. -1.
        -11    1    3    3    0    0  0.94069354801E+01  0.20946680547E+01  0.47143879566E+01  0.10728631015E+02  0.51100000000E-03 0.  1.
        -12    1    3    3    0    0  0.19967531358E+02  0.48543859423E+00 -0.20366405752E+02  0.28525925795E+02  0.00000000000E+00 0.  1.
</event>
<event>
 7    1  0.5897985E-013  0.5052896E+02  0.7816164E-02  0.1300438E+00
        -11   -1    0    0    0    0  0.00000000000E+00  0.00000000000E+00  0.45593999997E+02  0.45594000000E+02  0.51100000000E-03 0.  1.
         11   -1    0    0    0    0 -0.00000000000E+00 -0.00000000000E+00 -0.45593999997E+02  0.45594000000E+02  0.51100000000E-03 0. -1.
    9900012    2    1    2    0    0 -0.32202646927E+01  0.28817442171E+02  0.28501619343E+02  0.50528961852E+02  0.30000310044E+02 0.  0.
         12    1    1    2    0    0  0.32202646927E+01 -0.28817442171E+02 -0.28501619343E+02  0.40659038148E+02  0.00000000000E+00 0. -1.
         11    1    3    3    0    0 -0.70219264806E+01  0.45806291074E+01  0.18643706102E+02  0.20442049603E+02  0.51100000000E-03 0. -1.
        -11    1    3    3    0    0  0.26934064265E+01  0.23013518554E+02  0.12977646846E+02  0.26557405602E+02  0.51100000000E-03 0.  1.
        -12    1    3    3    0    0  0.11082553614E+01  0.12232945097E+01 -0.31197336048E+01  0.35295066466E+01  0.00000000000E+00 0.  1.
</event>
<event>
 7    1  0.5897985E-013  0.5052886E+02  0.7816164E-02  0.1300439E+00
        -11   -1    0    0    0    0  0.00000000000E+00  0.00000000000E+00  0.45593999997E+02  0.45594000000E+02  0.51100000000E-03 0.  1.
         11   -1    0    0    0    0 -0.00000000000E+00 -0.00000000000E+00 -0.45593999997E+02  0.45594000000E+02  0.51100000000E-03 0. -1.
    9900012    2    1    2    0    0  0.18241419969E+02 -0.26540276402E+01  0.36240482344E+02  0.50528858030E+02  0.29999994469E+02 0.  0.
         12    1    1    2    0    0 -0.18241419969E+02  0.26540276402E+01 -0.36240482344E+02  0.40659141970E+02  0.00000000000E+00 0. -1.
         11    1    3    3    0    0  0.88892137982E+01 -0.89270242121E+01  0.65342593487E+01  0.14191773276E+02  0.51100000000E-03 0. -1.
        -11    1    3    3    0    0  0.55899679329E+01  0.11341685975E+02  0.11589698012E+02  0.17152337523E+02  0.51100000000E-03 0.  1.
        -12    1    3    3    0    0  0.37622382375E+01 -0.50686894035E+01  0.18116524984E+02  0.19184747231E+02  0.00000000000E+00 0.  1.
</event>
<event>
 7    1  0.5897985E-013  0.5052887E+02  0.7816164E-02  0.1300439E+00
        -11   -1    0    0    0    0  0.00000000000E+00  0.00000000000E+00  0.45593999997E+02  0.45594000000E+02  0.51100000000E-03 0.  1.
         11   -1    0    0    0    0 -0.00000000000E+00 -0.00000000000E+00 -0.45593999997E+02  0.45594000000E+02  0.51100000000E-03 0. -1.
    9900012    2    1    2    0    0  0.15944962485E+02  0.30722040851E+02  0.21332595527E+02  0.50528865053E+02  0.30000015816E+02 0.  0.
         12    1    1    2    0    0 -0.15944962485E+02 -0.30722040851E+02 -0.21332595527E+02  0.40659134947E+02  0.00000000000E+00 0. -1.
         11    1    3    3    0    0 -0.64520763345E+01  0.37103015652E+01  0.44529739990E+01  0.86732118865E+01  0.51100000000E-03 0. -1.
        -11    1    3    3    0    0  0.13992428668E+02  0.14218440279E+02  0.17498891053E+02  0.26536075300E+02  0.51100000000E-03 0.  1.
        -12    1    3    3    0    0  0.84046101509E+01  0.12793299007E+02 -0.61926952462E+00  0.15319577867E+02  0.00000000000E+00 0.  1.
</event>
<event>
 7    1  0.5897985E-013  0.5052887E+02  0.7816164E-02  0.1300439E+00
        -11   -1    0    0    0    0  0.00000000000E+00  0.00000000000E+00  0.45593999997E+02  0.45594000000E+02  0.51100000000E-03 0. -1.
         11   -1    0    0    0    0 -0.00000000000E+00 -0.00000000000E+00 -0.45593999997E+02  0.45594000000E+02  0.51100000000E-03 0.  1.
    9900012    2    1    2    0    0 -0.34002897245E+02  0.68880818120E-01 -0.22292667826E+02  0.50528870590E+02  0.30000032644E+02 0.  0.
         12    1    1    2    0    0  0.34002897245E+02 -0.68880818120E-01  0.22292667826E+02  0.40659129410E+02  0.00000000000E+00 0. -1.
         11    1    3    3    0    0 -0.58677898660E+01  0.78529276278E+01 -0.86000258191E+00  0.98406826461E+01  0.51100000000E-03 0. -1.
        -11    1    3    3    0    0 -0.18010662894E+02  0.26996538916E+01 -0.18225496702E+02  0.25765108953E+02  0.51100000000E-03 0.  1.
         12    1    3    3    0    0 -0.10124444484E+02 -0.10483700701E+02 -0.32071685419E+01  0.14923078991E+02  0.00000000000E+00 0. -1.
</event>
<event>
 7    1  0.5897985E-013  0.5052887E+02  0.7816164E-02  0.1300439E+00
        -11   -1    0    0    0    0  0.00000000000E+00  0.00000000000E+00  0.45593999997E+02  0.45594000000E+02  0.51100000000E-03 0.  1.
         11   -1    0    0    0    0 -0.00000000000E+00 -0.00000000000E+00 -0.45593999997E+02  0.45594000000E+02  0.51100000000E-03 0. -1.
    9900012    2    1    2    0    0  0.80286903031E+01  0.37405837907E+02  0.13766202622E+02  0.50528869264E+02  0.30000028616E+02 0.  0.
         12    1    1    2    0    0 -0.80286903031E+01 -0.37405837907E+02 -0.13766202622E+02  0.40659130736E+02  0.00000000000E+00 0. -1.
         11    1    3    3    0    0  0.24177321072E+01  0.14737330954E+02  0.19412459957E+02  0.24492406048E+02  0.51100000000E-03 0. -1.
        -11    1    3    3    0    0  0.30871077861E+01  0.64107608914E+01  0.26722374331E+01  0.76005883226E+01  0.51100000000E-03 0.  1.
         12    1    3    3    0    0  0.25238504097E+01  0.16257746062E+02 -0.83184947674E+01  0.18435874894E+02  0.00000000000E+00 0. -1.
</event>
<event>
 7    1  0.5897985E-013  0.5052887E+02  0.7816164E-02  0.1300439E+00
        -11   -1    0    0    0    0  0.00000000000E+00  0.00000000000E+00  0.45593999997E+02  0.45594000000E+02  0.51100000000E-03 0.  1.
         11   -1    0    0    0    0 -0.00000000000E+00 -0.00000000000E+00 -0.45593999997E+02  0.45594000000E+02  0.51100000000E-03 0. -1.
    9900012    2    1    2    0    0 -0.27112626282E+02  0.86990325304E+01  0.29024082249E+02  0.50528867923E+02  0.30000024538E+02 0.  0.
         12    1    1    2    0    0  0.27112626282E+02 -0.86990325304E+01 -0.29024082249E+02  0.40659132077E+02  0.00000000000E+00 0. -1.
         11    1    3    3    0    0 -0.83531841484E+01 -0.86119301700E+01  0.17357274023E+02  0.21100141906E+02  0.51100000000E-03 0.  1.
        -11    1    3    3    0    0 -0.10257976903E+02  0.50487799998E+01  0.18856864558E+01  0.11587583152E+02  0.51100000000E-03 0. -1.
         12    1    3    3    0    0 -0.85014652314E+01  0.12262182701E+02  0.97811217695E+01  0.17841142865E+02  0.00000000000E+00 0. -1.
</event>
<event>
 7    1  0.5897985E-013  0.5052876E+02  0.7816164E-02  0.1300439E+00
        -11   -1    0    0    0    0  0.00000000000E+00  0.00000000000E+00  0.45593999997E+02  0.45594000000E+02  0.51100000000E-03 0.  1.
         11   -1    0    0    0    0 -0.00000000000E+00 -0.00000000000E+00 -0.45593999997E+02  0.45594000000E+02  0.51100000000E-03 0. -1.
    9900012    2    1    2    0    0  0.39825241015E+02  0.80422456974E+01  0.15639448899E+01  0.50528764132E+02  0.29999709055E+02 0.  0.
         12    1    1    2    0    0 -0.39825241015E+02 -0.80422456974E+01 -0.15639448899E+01  0.40659235868E+02  0.00000000000E+00 0. -1.
         11    1    3    3    0    0  0.18143324616E+02  0.12565431575E+02 -0.98081453532E+01  0.24150983714E+02  0.51100000000E-03 0. -1.
        -11    1    3    3    0    0  0.18237878064E+02 -0.57454805067E+01  0.63126940246E+01  0.20136555034E+02  0.51100000000E-03 0.  1.
         12    1    3    3    0    0  0.34440383345E+01  0.12222946289E+01  0.50593962185E+01  0.62412253849E+01  0.00000000000E+00 0. -1.
</event>
<event>
 7    1  0.5897985E-013  0.5052886E+02  0.7816164E-02  0.1300439E+00
        -11   -1    0    0    0    0  0.00000000000E+00  0.00000000000E+00  0.45593999997E+02  0.45594000000E+02  0.51100000000E-03 0.  1.
         11   -1    0    0    0    0 -0.00000000000E+00 -0.00000000000E+00 -0.45593999997E+02  0.45594000000E+02  0.51100000000E-03 0. -1.
    9900012    2    1    2    0    0  0.38574668911E+02  0.12466520935E+02 -0.31219613322E+01  0.50528857506E+02  0.29999992874E+02 0.  0.
         12    1    1    2    0    0 -0.38574668911E+02 -0.12466520935E+02  0.31219613322E+01  0.40659142494E+02  0.00000000000E+00 0. -1.
         11    1    3    3    0    0  0.17396995779E+01 -0.92638470458E+00  0.72421927060E+01  0.75056044856E+01  0.51100000000E-03 0. -1.
        -11    1    3    3    0    0  0.22713817166E+02  0.13041367569E+02 -0.11988116158E+02  0.28804681696E+02  0.51100000000E-03 0.  1.
         12    1    3    3    0    0  0.14121152167E+02  0.35153807049E+00  0.16239621196E+01  0.14218571324E+02  0.00000000000E+00 0. -1.
</event>
<event>
 7    1  0.5897985E-013  0.5052886E+02  0.7816164E-02  0.1300439E+00
        -11   -1    0    0    0    0  0.00000000000E+00  0.00000000000E+00  0.45593999997E+02  0.45594000000E+02  0.51100000000E-03 0.  1.
         11   -1    0    0    0    0 -0.00000000000E+00 -0.00000000000E+00 -0.45593999997E+02  0.45594000000E+02  0.51100000000E-03 0. -1.
    9900012    2    1    2    0    0  0.16406209102E+02  0.15786289206E+02  0.33686716901E+02  0.50528861795E+02  0.30000005912E+02 0.  0.
         12    1    1    2    0    0 -0.16406209102E+02 -0.15786289206E+02 -0.33686716901E+02  0.40659138205E+02  0.00000000000E+00 0. -1.
         11    1    3    3    0    0  0.17073385738E+02 -0.30561944234E+01  0.20888473501E+02  0.27150859109E+02  0.51100000000E-03 0.  1.
        -11    1    3    3    0    0 -0.17804560721E+00  0.15763752246E+02  0.12725253188E+02  0.20259803900E+02  0.51100000000E-03 0. -1.
         12    1    3    3    0    0 -0.48913102875E+00  0.30787313831E+01  0.72990212331E-01  0.31181987851E+01  0.00000000000E+00 0. -1.
</event>
<event>
 7    1  0.5897985E-013  0.5052887E+02  0.7816164E-02  0.1300439E+00
        -11   -1    0    0    0    0  0.00000000000E+00  0.00000000000E+00  0.45593999997E+02  0.45594000000E+02  0.51100000000E-03 0.  1.
         11   -1    0    0    0    0 -0.00000000000E+00 -0.00000000000E+00 -0.45593999997E+02  0.45594000000E+02  0.51100000000E-03 0. -1.
    9900012    2    1    2    0    0  0.22703019735E+02  0.89685783125E+01  0.32516191959E+02  0.50528865214E+02  0.30000016304E+02 0.  0.
         12    1    1    2    0    0 -0.22703019735E+02 -0.89685783125E+01 -0.32516191959E+02  0.40659134786E+02  0.00000000000E+00 0. -1.
         11    1    3    3    0    0  0.83080721558E+01 -0.45924296078E+01  0.11397685829E+02  0.14833128974E+02  0.51100000000E-03 0. -1.
        -11    1    3    3    0    0 -0.10075087388E+01  0.10753976992E+02  0.19998575787E+01  0.10984649544E+02  0.51100000000E-03 0.  1.
        -12    1    3    3    0    0  0.15402456318E+02  0.28070309280E+01  0.19118648552E+02  0.24711086696E+02  0.00000000000E+00 0.  1.
</event>
<event>
 7    1  0.5897985E-013  0.5052886E+02  0.7816164E-02  0.1300439E+00
        -11   -1    0    0    0    0  0.00000000000E+00  0.00000000000E+00  0.45593999997E+02  0.45594000000E+02  0.51100000000E-03 0.  1.
         11   -1    0    0    0    0 -0.00000000000E+00 -0.00000000000E+00 -0.45593999997E+02  0.45594000000E+02  0.51100000000E-03 0. -1.
    9900012    2    1    2    0    0 -0.37045153471E+02 -0.25211721693E+01  0.16567004291E+02  0.50528864053E+02  0.30000012776E+02 0.  0.
         12    1    1    2    0    0  0.37045153471E+02  0.25211721693E+01 -0.16567004291E+02  0.40659135947E+02  0.00000000000E+00 0. -1.
         11    1    3    3    0    0 -0.16820319137E+02 -0.87311036912E+01 -0.38229832559E+01  0.19333145341E+02  0.51100000000E-03 0. -1.
        -11    1    3    3    0    0 -0.51558996458E+01 -0.19817636549E+01  0.91541816795E+01  0.10691572888E+02  0.51100000000E-03 0.  1.
         12    1    3    3    0    0 -0.15068934688E+02  0.81916951768E+01  0.11235805867E+02  0.20504145824E+02  0.00000000000E+00 0. -1.
</event>
<event>
 7    1  0.5897985E-013  0.5052886E+02  0.7816164E-02  0.1300439E+00
        -11   -1    0    0    0    0  0.00000000000E+00  0.00000000000E+00  0.45593999997E+02  0.45594000000E+02  0.51100000000E-03 0.  1.
         11   -1    0    0    0    0 -0.00000000000E+00 -0.00000000000E+00 -0.45593999997E+02  0.45594000000E+02  0.51100000000E-03 0. -1.
    9900012    2    1    2    0    0 -0.32804462938E+02  0.20963404757E+02  0.11728969691E+02  0.50528857637E+02  0.29999993273E+02 0.  0.
         12    1    1    2    0    0  0.32804462938E+02 -0.20963404757E+02 -0.11728969691E+02  0.40659142363E+02  0.00000000000E+00 0. -1.
         11    1    3    3    0    0 -0.75965773775E+01  0.14592621610E+02  0.14709973705E+02  0.22068890320E+02  0.51100000000E-03 0. -1.
        -11    1    3    3    0    0 -0.14836079387E+02  0.83200668672E+00  0.31646690861E+01  0.15192650111E+02  0.51100000000E-03 0.  1.
         12    1    3    3    0    0 -0.10371806174E+02  0.55387764608E+01 -0.61456731001E+01  0.13267317206E+02  0.00000000000E+00 0. -1.
</event>
<event>
 7    1  0.5897985E-013  0.5052886E+02  0.7816164E-02  0.1300439E+00
        -11   -1    0    0    0    0  0.00000000000E+00  0.00000000000E+00  0.45593999997E+02  0.45594000000E+02  0.51100000000E-03 0.  1.
         11   -1    0    0    0    0 -0.00000000000E+00 -0.00000000000E+00 -0.45593999997E+02  0.45594000000E+02  0.51100000000E-03 0. -1.
    9900012    2    1    2    0    0 -0.22322949884E+01 -0.53759295129E+01  0.40240301175E+02  0.50528860834E+02  0.30000002992E+02 0.  0.
         12    1    1    2    0    0  0.22322949884E+01  0.53759295129E+01 -0.40240301175E+02  0.40659139166E+02  0.00000000000E+00 0. -1.
         11    1    3    3    0    0  0.10665265470E+01 -0.28823201501E+01 -0.50904269379E+00  0.31151842719E+01  0.51100000000E-03 0. -1.
        -11    1    3    3    0    0 -0.47090715415E+01 -0.12320709818E+02  0.30053075128E+02  0.32820154937E+02  0.51100000000E-03 0.  1.
        -12    1    3    3    0    0  0.14102500061E+01  0.98271004555E+01  0.10696268741E+02  0.14593521625E+02  0.00000000000E+00 0.  1.
</event>
<event>
 7    1  0.5897985E-013  0.5052886E+02  0.7816164E-02  0.1300439E+00
        -11   -1    0    0    0    0  0.00000000000E+00  0.00000000000E+00  0.45593999997E+02  0.45594000000E+02  0.51100000000E-03 0.  1.
         11   -1    0    0    0    0 -0.00000000000E+00 -0.00000000000E+00 -0.45593999997E+02  0.45594000000E+02  0.51100000000E-03 0. -1.
    9900012    2    1    2    0    0  0.31366470640E+02 -0.24779853846E+02  0.74343157634E+01  0.50528859725E+02  0.29999999621E+02 0.  0.
         12    1    1    2    0    0 -0.31366470640E+02  0.24779853846E+02 -0.74343157634E+01  0.40659140275E+02  0.00000000000E+00 0. -1.
         11    1    3    3    0    0 -0.15077386302E+01  0.88021274873E-01 -0.31222526722E+01  0.34683548740E+01  0.51100000000E-03 0. -1.
        -11    1    3    3    0    0  0.22492342435E+02 -0.70806906836E+01 -0.69765071371E+00  0.23590853430E+02  0.51100000000E-03 0.  1.
        -12    1    3    3    0    0  0.10381866835E+02 -0.17787184437E+02  0.11254219149E+02  0.23469651422E+02  0.00000000000E+00 0.  1.
</event>
<event>
 7    1  0.5897985E-013  0.5052886E+02  0.7816164E-02  0.1300439E+00
        -11   -1    0    0    0    0  0.00000000000E+00  0.00000000000E+00  0.45593999997E+02  0.45594000000E+02  0.51100000000E-03 0. -1.
         11   -1    0    0    0    0 -0.00000000000E+00 -0.00000000000E+00 -0.45593999997E+02  0.45594000000E+02  0.51100000000E-03 0.  1.
    9900012    2    1    2    0    0 -0.35078207044E+01  0.34790079019E+02 -0.20748767117E+02  0.50528859071E+02  0.29999997631E+02 0.  0.
         12    1    1    2    0    0  0.35078207044E+01 -0.34790079019E+02  0.20748767117E+02  0.40659140929E+02  0.00000000000E+00 0. -1.
         11    1    3    3    0    0  0.10047647216E+01  0.99195559831E+00  0.64996527945E+01  0.66512415958E+01  0.51100000000E-03 0. -1.
        -11    1    3    3    0    0 -0.23144246545E+01  0.29230034452E+02 -0.23309942328E+02  0.37458041689E+02  0.51100000000E-03 0.  1.
         12    1    3    3    0    0 -0.21981607714E+01  0.45680889686E+01 -0.39384775834E+01  0.64195757864E+01  0.00000000000E+00 0. -1.
</event>
<event>
 7    1  0.5897985E-013  0.5052886E+02  0.7816164E-02  0.1300439E+00
        -11   -1    0    0    0    0  0.00000000000E+00  0.00000000000E+00  0.45593999997E+02  0.45594000000E+02  0.51100000000E-03 0. -1.
         11   -1    0    0    0    0 -0.00000000000E+00 -0.00000000000E+00 -0.45593999997E+02  0.45594000000E+02  0.51100000000E-03 0.  1.
    9900012    2    1    2    0    0 -0.67336817840E+01 -0.14419546802E+02 -0.37415235089E+02  0.50528860595E+02  0.30000002265E+02 0.  0.
         12    1    1    2    0    0  0.67336817840E+01  0.14419546802E+02  0.37415235089E+02  0.40659139405E+02  0.00000000000E+00 0. -1.
         11    1    3    3    0    0  0.54159840958E+01 -0.87557359436E+01 -0.94672814546E+01  0.13986608382E+02  0.51100000000E-03 0. -1.
        -11    1    3    3    0    0 -0.27256669931E+01  0.66385191301E+01 -0.13818592569E+02  0.15570892641E+02  0.51100000000E-03 0.  1.
        -12    1    3    3    0    0 -0.94239988866E+01 -0.12302329988E+02 -0.14129361066E+02  0.20971359572E+02  0.00000000000E+00 0.  1.
</event>
<event>
 7    1  0.5897985E-013  0.5052886E+02  0.7816164E-02  0.1300439E+00
        -11   -1    0    0    0    0  0.00000000000E+00  0.00000000000E+00  0.45593999997E+02  0.45594000000E+02  0.51100000000E-03 0.  1.
         11   -1    0    0    0    0 -0.00000000000E+00 -0.00000000000E+00 -0.45593999997E+02  0.45594000000E+02  0.51100000000E-03 0. -1.
    9900012    2    1    2    0    0 -0.69588067844E+01 -0.37214508308E+02  0.14826362716E+02  0.50528860168E+02  0.30000000966E+02 0.  0.
         12    1    1    2    0    0  0.69588067844E+01  0.37214508308E+02 -0.14826362716E+02  0.40659139832E+02  0.00000000000E+00 0. -1.
         11    1    3    3    0    0  0.17044318324E+01 -0.11477410274E+02  0.16794467487E+02  0.20412990298E+02  0.51100000000E-03 0. -1.
        -11    1    3    3    0    0 -0.10741584420E+02 -0.15470910437E+02 -0.44468149232E+01  0.19352128276E+02  0.51100000000E-03 0.  1.
        -12    1    3    3    0    0  0.20783458037E+01 -0.10266187598E+02  0.24787101524E+01  0.10763741593E+02  0.00000000000E+00 0.  1.
</event>
<event>
 7    1  0.5897985E-013  0.5052886E+02  0.7816164E-02  0.1300439E+00
        -11   -1    0    0    0    0  0.00000000000E+00  0.00000000000E+00  0.45593999997E+02  0.45594000000E+02  0.51100000000E-03 0.  1.
         11   -1    0    0    0    0 -0.00000000000E+00 -0.00000000000E+00 -0.45593999997E+02  0.45594000000E+02  0.51100000000E-03 0. -1.
    9900012    2    1    2    0    0  0.15815106549E+02  0.35324730158E+02  0.12458405607E+02  0.50528855565E+02  0.29999986976E+02 0.  0.
         12    1    1    2    0    0 -0.15815106549E+02 -0.35324730158E+02 -0.12458405607E+02  0.40659144435E+02  0.00000000000E+00 0. -1.
         11    1    3    3    0    0  0.19050413258E+02  0.16578952341E+02  0.71270460524E+01  0.26240706769E+02  0.51100000000E-03 0. -1.
        -11    1    3    3    0    0 -0.67202923949E-01  0.17272943496E+02 -0.73385068302E+00  0.17288656117E+02  0.51100000000E-03 0.  1.
        -12    1    3    3    0    0 -0.31681037855E+01  0.14728343209E+01  0.60652102381E+01  0.69994926791E+01  0.00000000000E+00 0.  1.
</event>
<event>
 7    1  0.5897985E-013  0.5052886E+02  0.7816164E-02  0.1300439E+00
        -11   -1    0    0    0    0  0.00000000000E+00  0.00000000000E+00  0.45593999997E+02  0.45594000000E+02  0.51100000000E-03 0. -1.
         11   -1    0    0    0    0 -0.00000000000E+00 -0.00000000000E+00 -0.45593999997E+02  0.45594000000E+02  0.51100000000E-03 0.  1.
    9900012    2    1    2    0    0  0.27152538690E+02  0.13648055097E+02 -0.27011776050E+02  0.50528858216E+02  0.29999995035E+02 0.  0.
         12    1    1    2    0    0 -0.27152538690E+02 -0.13648055097E+02  0.27011776050E+02  0.40659141784E+02  0.00000000000E+00 0. -1.
         11    1    3    3    0    0  0.98537831723E+01 -0.66541582160E+01 -0.16089288494E+02  0.20006000822E+02  0.51100000000E-03 0. -1.
        -11    1    3    3    0    0  0.12789877988E+02  0.18803453954E+02 -0.11908351533E+02  0.25670210285E+02  0.51100000000E-03 0.  1.
         12    1    3    3    0    0  0.45088775294E+01  0.14987593585E+01  0.98586397807E+00  0.48526471099E+01  0.00000000000E+00 0. -1.
</event>
<event>
 7    1  0.5897985E-013  0.5052883E+02  0.7816164E-02  0.1300439E+00
        -11   -1    0    0    0    0  0.00000000000E+00  0.00000000000E+00  0.45593999997E+02  0.45594000000E+02  0.51100000000E-03 0. -1.
         11   -1    0    0    0    0 -0.00000000000E+00 -0.00000000000E+00 -0.45593999997E+02  0.45594000000E+02  0.51100000000E-03 0.  1.
    9900012    2    1    2    0    0  0.23578741652E+02 -0.32686800067E+02 -0.53650589034E+01  0.50528833585E+02  0.29999920166E+02 0.  0.
         12    1    1    2    0    0 -0.23578741652E+02  0.32686800067E+02  0.53650589034E+01  0.40659166415E+02  0.00000000000E+00 0. -1.
         11    1    3    3    0    0  0.24836988523E+02 -0.18167449402E+02 -0.57281940964E+01  0.31300869389E+02  0.51100000000E-03 0. -1.
        -11    1    3    3    0    0 -0.45048275394E+01 -0.12447203659E+02  0.41038761374E+01  0.13858865383E+02  0.51100000000E-03 0.  1.
        -12    1    3    3    0    0  0.32465806687E+01 -0.20721470057E+01 -0.37407409444E+01  0.53690988131E+01  0.00000000000E+00 0.  1.
</event>
<event>
 7    1  0.5897985E-013  0.5052884E+02  0.7816164E-02  0.1300439E+00
        -11   -1    0    0    0    0  0.00000000000E+00  0.00000000000E+00  0.45593999997E+02  0.45594000000E+02  0.51100000000E-03 0.  1.
         11   -1    0    0    0    0 -0.00000000000E+00 -0.00000000000E+00 -0.45593999997E+02  0.45594000000E+02  0.51100000000E-03 0. -1.
    9900012    2    1    2    0    0 -0.25442637864E+02  0.30768208973E+02  0.76913237101E+01  0.50528844016E+02  0.29999951871E+02 0.  0.
         12    1    1    2    0    0  0.25442637864E+02 -0.30768208973E+02 -0.76913237101E+01  0.40659155984E+02  0.00000000000E+00 0. -1.
         11    1    3    3    0    0 -0.21796245485E+02  0.10074941675E+02 -0.47117407165E+01  0.24470007517E+02  0.51100000000E-03 0. -1.
        -11    1    3    3    0    0 -0.54611746733E+01  0.63387046494E+01  0.56189441177E+01  0.10078498832E+02  0.51100000000E-03 0.  1.
         12    1    3    3    0    0  0.18147822945E+01  0.14354562649E+02  0.67841203090E+01  0.15980337668E+02  0.00000000000E+00 0. -1.
</event>
<event>
 7    1  0.5897985E-013  0.5052886E+02  0.7816164E-02  0.1300439E+00
        -11   -1    0    0    0    0  0.00000000000E+00  0.00000000000E+00  0.45593999997E+02  0.45594000000E+02  0.51100000000E-03 0.  1.
         11   -1    0    0    0    0 -0.00000000000E+00 -0.00000000000E+00 -0.45593999997E+02  0.45594000000E+02  0.51100000000E-03 0. -1.
    9900012    2    1    2    0    0 -0.49559403447E+01 -0.18365681642E+02  0.35934746075E+02  0.50528861023E+02  0.30000003565E+02 0.  0.
         12    1    1    2    0    0  0.49559403447E+01  0.18365681642E+02 -0.35934746075E+02  0.40659138977E+02  0.00000000000E+00 0. -1.
         11    1    3    3    0    0 -0.14577176760E+02 -0.13048673640E+02  0.98844342286E+01  0.21919489189E+02  0.51100000000E-03 0. -1.
        -11    1    3    3    0    0  0.92882460181E+01 -0.44023626451E+01  0.20055911958E+02  0.22536457478E+02  0.51100000000E-03 0.  1.
         12    1    3    3    0    0  0.33299039729E+00 -0.91464535747E+00  0.59943998889E+01  0.60729143550E+01  0.00000000000E+00 0. -1.
</event>
<event>
 7    1  0.5897985E-013  0.5052886E+02  0.7816164E-02  0.1300439E+00
        -11   -1    0    0    0    0  0.00000000000E+00  0.00000000000E+00  0.45593999997E+02  0.45594000000E+02  0.51100000000E-03 0. -1.
         11   -1    0    0    0    0 -0.00000000000E+00 -0.00000000000E+00 -0.45593999997E+02  0.45594000000E+02  0.51100000000E-03 0.  1.
    9900012    2    1    2    0    0  0.37267379641E+02  0.13420986307E+01  0.16202064750E+02  0.50528859377E+02  0.29999998562E+02 0.  0.
         12    1    1    2    0    0 -0.37267379641E+02 -0.13420986307E+01 -0.16202064750E+02  0.40659140623E+02  0.00000000000E+00 0. -1.
         11    1    3    3    0    0  0.22898192072E+02 -0.10819139298E+02  0.14451766421E+02  0.29158781324E+02  0.51100000000E-03 0. -1.
        -11    1    3    3    0    0  0.60001604820E+01  0.34429453615E+01 -0.39953801041E+01  0.79886707911E+01  0.51100000000E-03 0.  1.
        -12    1    3    3    0    0  0.83690270870E+01  0.87182925671E+01  0.57456784324E+01  0.13381407262E+02  0.00000000000E+00 0.  1.
</event>
<event>
 7    1  0.5897985E-013  0.5052886E+02  0.7816164E-02  0.1300439E+00
        -11   -1    0    0    0    0  0.00000000000E+00  0.00000000000E+00  0.45593999997E+02  0.45594000000E+02  0.51100000000E-03 0.  1.
         11   -1    0    0    0    0 -0.00000000000E+00 -0.00000000000E+00 -0.45593999997E+02  0.45594000000E+02  0.51100000000E-03 0. -1.
    9900012    2    1    2    0    0 -0.69849081137E+01 -0.18216925830E+02  0.35672407992E+02  0.50528855641E+02  0.29999987207E+02 0.  0.
         12    1    1    2    0    0  0.69849081137E+01  0.18216925830E+02 -0.35672407992E+02  0.40659144359E+02  0.00000000000E+00 0. -1.
         11    1    3    3    0    0  0.45526679533E+01 -0.10043411320E+02  0.63370161610E+01  0.12718280958E+02  0.51100000000E-03 0. -1.
        -11    1    3    3    0    0 -0.13689924125E+02 -0.10076859390E+02  0.30331113478E+02  0.34769721925E+02  0.51100000000E-03 0.  1.
        -12    1    3    3    0    0  0.21523480582E+01  0.19033448802E+01 -0.99572164682E+00  0.30408527578E+01  0.00000000000E+00 0.  1.
</event>
<event>
 7    1  0.5897985E-013  0.5052885E+02  0.7816164E-02  0.1300439E+00
        -11   -1    0    0    0    0  0.00000000000E+00  0.00000000000E+00  0.45593999997E+02  0.45594000000E+02  0.51100000000E-03 0. -1.
         11   -1    0    0    0    0 -0.00000000000E+00 -0.00000000000E+00 -0.45593999997E+02  0.45594000000E+02  0.51100000000E-03 0.  1.
    9900012    2    1    2    0    0  0.10650591392E+02 -0.33319893909E+02  0.20724777067E+02  0.50528845906E+02  0.29999957617E+02 0.  0.
         12    1    1    2    0    0 -0.10650591392E+02  0.33319893909E+02 -0.20724777067E+02  0.40659154094E+02  0.00000000000E+00 0. -1.
         11    1    3    3    0    0  0.32591533499E+01  0.48386671329E+01  0.96305989487E-01  0.58347283815E+01  0.51100000000E-03 0. -1.
        -11    1    3    3    0    0  0.10452562378E+01 -0.18852673356E+02  0.13280278934E+02  0.23084229727E+02  0.51100000000E-03 0.  1.
         12    1    3    3    0    0  0.63461818047E+01 -0.19305887687E+02  0.73481921435E+01  0.21609887798E+02  0.00000000000E+00 0. -1.
</event>
<event>
 7    1  0.5897985E-013  0.5052886E+02  0.7816164E-02  0.1300439E+00
        -11   -1    0    0    0    0  0.00000000000E+00  0.00000000000E+00  0.45593999997E+02  0.45594000000E+02  0.51100000000E-03 0.  1.
         11   -1    0    0    0    0 -0.00000000000E+00 -0.00000000000E+00 -0.45593999997E+02  0.45594000000E+02  0.51100000000E-03 0. -1.
    9900012    2    1    2    0    0  0.19645392163E+02 -0.52058685749E+00  0.35594288660E+02  0.50528857988E+02  0.29999994342E+02 0.  0.
         12    1    1    2    0    0 -0.19645392163E+02  0.52058685749E+00 -0.35594288660E+02  0.40659142012E+02  0.00000000000E+00 0. -1.
         11    1    3    3    0    0  0.80192594784E+01 -0.13946650237E+02  0.22596917835E+02  0.27738750356E+02  0.51100000000E-03 0. -1.
        -11    1    3    3    0    0  0.43811039317E+01  0.58220868146E+01  0.89341212530E+01  0.11528629119E+02  0.51100000000E-03 0.  1.
         12    1    3    3    0    0  0.72450287529E+01  0.76039765647E+01  0.40632495717E+01  0.11261478513E+02  0.00000000000E+00 0. -1.
</event>
<event>
 7    1  0.5897985E-013  0.5052890E+02  0.7816164E-02  0.1300439E+00
        -11   -1    0    0    0    0  0.00000000000E+00  0.00000000000E+00  0.45593999997E+02  0.45594000000E+02  0.51100000000E-03 0.  1.
         11   -1    0    0    0    0 -0.00000000000E+00 -0.00000000000E+00 -0.45593999997E+02  0.45594000000E+02  0.51100000000E-03 0. -1.
    9900012    2    1    2    0    0 -0.39088777863E+02 -0.64111483251E+01 -0.91720992722E+01  0.50528895451E+02  0.30000108214E+02 0.  0.
         12    1    1    2    0    0  0.39088777863E+02  0.64111483251E+01  0.91720992722E+01  0.40659104549E+02  0.00000000000E+00 0. -1.
         11    1    3    3    0    0 -0.31308436829E+01 -0.86717751534E+01  0.45534855934E+01  0.10282805930E+02  0.51100000000E-03 0. -1.
        -11    1    3    3    0    0 -0.26689580587E+02 -0.34180771331E+01 -0.10759113814E+02  0.28978880129E+02  0.51100000000E-03 0.  1.
         12    1    3    3    0    0 -0.92683535927E+01  0.56787039613E+01 -0.29664710515E+01  0.11267209393E+02  0.00000000000E+00 0. -1.
</event>
<event>
 7    1  0.5897985E-013  0.5052885E+02  0.7816164E-02  0.1300439E+00
        -11   -1    0    0    0    0  0.00000000000E+00  0.00000000000E+00  0.45593999997E+02  0.45594000000E+02  0.51100000000E-03 0.  1.
         11   -1    0    0    0    0 -0.00000000000E+00 -0.00000000000E+00 -0.45593999997E+02  0.45594000000E+02  0.51100000000E-03 0. -1.
    9900012    2    1    2    0    0 -0.52590327494E+01  0.20263732322E+02  0.34855269936E+02  0.50528854468E+02  0.29999983640E+02 0.  0.
         12    1    1    2    0    0  0.52590327494E+01 -0.20263732322E+02 -0.34855269936E+02  0.40659145532E+02  0.00000000000E+00 0. -1.
         11    1    3    3    0    0 -0.72209694482E+01  0.95920956923E+01  0.22766969379E+02  0.25738795514E+02  0.51100000000E-03 0.  1.
        -11    1    3    3    0    0  0.62063122625E+01  0.14542757609E+02  0.98255298249E+01  0.18615884276E+02  0.51100000000E-03 0. -1.
         12    1    3    3    0    0 -0.42443755637E+01 -0.38711209795E+01  0.22627707327E+01  0.61741746778E+01  0.00000000000E+00 0. -1.
</event>
<event>
 7    1  0.5897985E-013  0.5052885E+02  0.7816164E-02  0.1300439E+00
        -11   -1    0    0    0    0  0.00000000000E+00  0.00000000000E+00  0.45593999997E+02  0.45594000000E+02  0.51100000000E-03 0. -1.
         11   -1    0    0    0    0 -0.00000000000E+00 -0.00000000000E+00 -0.45593999997E+02  0.45594000000E+02  0.51100000000E-03 0.  1.
    9900012    2    1    2    0    0  0.27137147913E+02 -0.22618316951E+02 -0.20128414158E+02  0.50528854472E+02  0.29999983653E+02 0.  0.
         12    1    1    2    0    0 -0.27137147913E+02  0.22618316951E+02  0.20128414158E+02  0.40659145528E+02  0.00000000000E+00 0. -1.
         11    1    3    3    0    0  0.15725474865E+01 -0.78358930810E+00  0.39004721901E+01  0.42779202152E+01  0.51100000000E-03 0. -1.
        -11    1    3    3    0    0  0.11737880597E+02 -0.60912905310E+01 -0.21368535318E+02  0.25129583425E+02  0.51100000000E-03 0.  1.
         12    1    3    3    0    0  0.13826719829E+02 -0.15743437112E+02 -0.26603510302E+01  0.21121350831E+02  0.00000000000E+00 0. -1.
</event>
<event>
 7    1  0.5897985E-013  0.5052889E+02  0.7816164E-02  0.1300439E+00
        -11   -1    0    0    0    0  0.00000000000E+00  0.00000000000E+00  0.45593999997E+02  0.45594000000E+02  0.51100000000E-03 0.  1.
         11   -1    0    0    0    0 -0.00000000000E+00 -0.00000000000E+00 -0.45593999997E+02  0.45594000000E+02  0.51100000000E-03 0. -1.
    9900012    2    1    2    0    0  0.10397099784E+02  0.95761697130E+01  0.38122968521E+02  0.50528887378E+02  0.30000083675E+02 0.  0.
         12    1    1    2    0    0 -0.10397099784E+02 -0.95761697130E+01 -0.38122968521E+02  0.40659112622E+02  0.00000000000E+00 0. -1.
         11    1    3    3    0    0 -0.11784334950E+01 -0.35062347204E+01  0.23742777327E+01  0.43954046946E+01  0.51100000000E-03 0. -1.
        -11    1    3    3    0    0  0.18045058304E+02  0.12862918232E+02  0.23636688233E+02  0.32400182492E+02  0.51100000000E-03 0.  1.
        -12    1    3    3    0    0 -0.64695250251E+01  0.21948620165E+00  0.12112002556E+02  0.13733300192E+02  0.00000000000E+00 0.  1.
</event>
<event>
 7    1  0.5897985E-013  0.5052886E+02  0.7816164E-02  0.1300439E+00
        -11   -1    0    0    0    0  0.00000000000E+00  0.00000000000E+00  0.45593999997E+02  0.45594000000E+02  0.51100000000E-03 0.  1.
         11   -1    0    0    0    0 -0.00000000000E+00 -0.00000000000E+00 -0.45593999997E+02  0.45594000000E+02  0.51100000000E-03 0. -1.
    9900012    2    1    2    0    0  0.77639176024E+01  0.91942275120E+01  0.38837526588E+02  0.50528859484E+02  0.29999998886E+02 0.  0.
         12    1    1    2    0    0 -0.77639176024E+01 -0.91942275120E+01 -0.38837526588E+02  0.40659140516E+02  0.00000000000E+00 0. -1.
         11    1    3    3    0    0  0.15105095682E+02  0.89863653196E+01  0.25838888636E+02  0.31250069495E+02  0.51100000000E-03 0. -1.
        -11    1    3    3    0    0 -0.19233750006E+01 -0.48499524700E+01  0.10008153696E+02  0.11286476466E+02  0.51100000000E-03 0.  1.
         12    1    3    3    0    0 -0.54178030789E+01  0.50578146623E+01  0.29904842554E+01  0.79923135225E+01  0.00000000000E+00 0. -1.
</event>
<event>
 7    1  0.5897985E-013  0.5052886E+02  0.7816164E-02  0.1300439E+00
        -11   -1    0    0    0    0  0.00000000000E+00  0.00000000000E+00  0.45593999997E+02  0.45594000000E+02  0.51100000000E-03 0.  1.
         11   -1    0    0    0    0 -0.00000000000E+00 -0.00000000000E+00 -0.45593999997E+02  0.45594000000E+02  0.51100000000E-03 0. -1.
    9900012    2    1    2    0    0  0.77531459480E+01 -0.62627663456E+01  0.39418681585E+02  0.50528856228E+02  0.29999988989E+02 0.  0.
         12    1    1    2    0    0 -0.77531459480E+01  0.62627663456E+01 -0.39418681585E+02  0.40659143772E+02  0.00000000000E+00 0. -1.
         11    1    3    3    0    0  0.77529162401E+01 -0.95337059855E+01  0.31143229297E+01  0.12676682043E+02  0.51100000000E-03 0. -1.
        -11    1    3    3    0    0  0.44681131186E+01  0.39829224952E+01  0.24219783942E+02  0.24948459690E+02  0.51100000000E-03 0.  1.
         12    1    3    3    0    0 -0.44678834107E+01 -0.71198285534E+00  0.12084574713E+02  0.12903714495E+02  0.00000000000E+00 0. -1.
</event>
<event>
 7    1  0.5897985E-013  0.5052886E+02  0.7816164E-02  0.1300439E+00
        -11   -1    0    0    0    0  0.00000000000E+00  0.00000000000E+00  0.45593999997E+02  0.45594000000E+02  0.51100000000E-03 0.  1.
         11   -1    0    0    0    0 -0.00000000000E+00 -0.00000000000E+00 -0.45593999997E+02  0.45594000000E+02  0.51100000000E-03 0. -1.
    9900012    2    1    2    0    0 -0.32070057067E+01  0.82438247955E+01  0.39685267407E+02  0.50528856108E+02  0.29999988625E+02 0.  0.
         12    1    1    2    0    0  0.32070057067E+01 -0.82438247955E+01 -0.39685267407E+02  0.40659143892E+02  0.00000000000E+00 0. -1.
         11    1    3    3    0    0 -0.11759718146E+02  0.87006908182E+01  0.35486371519E+02  0.38383271818E+02  0.51100000000E-03 0.  1.
        -11    1    3    3    0    0  0.27278536814E+01 -0.13333866028E+01 -0.19673809012E+01  0.36179681330E+01  0.51100000000E-03 0. -1.
        -12    1    3    3    0    0  0.58248587578E+01  0.87652058006E+00  0.61662767896E+01  0.85276161570E+01  0.00000000000E+00 0.  1.
</event>
<event>
 7    1  0.5897985E-013  0.5052886E+02  0.7816164E-02  0.1300439E+00
        -11   -1    0    0    0    0  0.00000000000E+00  0.00000000000E+00  0.45593999997E+02  0.45594000000E+02  0.51100000000E-03 0.  1.
         11   -1    0    0    0    0 -0.00000000000E+00 -0.00000000000E+00 -0.45593999997E+02  0.45594000000E+02  0.51100000000E-03 0. -1.
    9900012    2    1    2    0    0 -0.19635743111E+02  0.16246205540E+02  0.31680658777E+02  0.50528859053E+02  0.29999997578E+02 0.  0.
         12    1    1    2    0    0  0.19635743111E+02 -0.16246205540E+02 -0.31680658777E+02  0.40659140947E+02  0.00000000000E+00 0. -1.
         11    1    3    3    0    0 -0.57535969348E+01  0.82297554107E+01  0.27852756760E+00  0.10045413365E+02  0.51100000000E-03 0. -1.
        -11    1    3    3    0    0 -0.11555089451E+02  0.14093560968E+02  0.27185952530E+02  0.32729567186E+02  0.51100000000E-03 0.  1.
        -12    1    3    3    0    0 -0.23270567257E+01 -0.60771108395E+01  0.42161786798E+01  0.77538785017E+01  0.00000000000E+00 0.  1.
</event>
<event>
 7    1  0.5897985E-013  0.5052886E+02  0.7816164E-02  0.1300439E+00
        -11   -1    0    0    0    0  0.00000000000E+00  0.00000000000E+00  0.45593999997E+02  0.45594000000E+02  0.51100000000E-03 0. -1.
         11   -1    0    0    0    0 -0.00000000000E+00 -0.00000000000E+00 -0.45593999997E+02  0.45594000000E+02  0.51100000000E-03 0.  1.
    9900012    2    1    2    0    0  0.10037877284E+02  0.38397501604E+02 -0.88339607199E+01  0.50528856234E+02  0.29999989009E+02 0.  0.
         12    1    1    2    0    0 -0.10037877284E+02 -0.38397501604E+02  0.88339607199E+01  0.40659143766E+02  0.00000000000E+00 0. -1.
         11    1    3    3    0    0 -0.78366872499E+00  0.38093387481E+01  0.66848868316E+01  0.77338806935E+01  0.51100000000E-03 0. -1.
        -11    1    3    3    0    0  0.26784570302E+01  0.29526421204E+02 -0.82830681307E+01  0.30782996915E+02  0.51100000000E-03 0.  1.
         12    1    3    3    0    0  0.81430889786E+01  0.50617416519E+01 -0.72357794208E+01  0.12011978625E+02  0.00000000000E+00 0. -1.
</event>
<event>
 7    1  0.5897985E-013  0.5052886E+02  0.7816164E-02  0.1300439E+00
        -11   -1    0    0    0    0  0.00000000000E+00  0.00000000000E+00  0.45593999997E+02  0.45594000000E+02  0.51100000000E-03 0. -1.
         11   -1    0    0    0    0 -0.00000000000E+00 -0.00000000000E+00 -0.45593999997E+02  0.45594000000E+02  0.51100000000E-03 0.  1.
    9900012    2    1    2    0    0  0.19717029714E+02  0.17478555946E+01 -0.35515481601E+02  0.50528859659E+02  0.29999999418E+02 0.  0.
         12    1    1    2    0    0 -0.19717029714E+02 -0.17478555946E+01  0.35515481601E+02  0.40659140341E+02  0.00000000000E+00 0. -1.
         11    1    3    3    0    0  0.21641183917E+02 -0.29041372208E+01 -0.14587232886E+02  0.26259516710E+02  0.51100000000E-03 0. -1.
        -11    1    3    3    0    0 -0.96970884633E-02 -0.34794714721E+01 -0.94713748123E+01  0.10090280316E+02  0.51100000000E-03 0.  1.
         12    1    3    3    0    0 -0.19144571142E+01  0.81314642875E+01 -0.11456873903E+02  0.14179062632E+02  0.00000000000E+00 0. -1.
</event>
<event>
 7    1  0.5897985E-013  0.5052885E+02  0.7816164E-02  0.1300439E+00
        -11   -1    0    0    0    0  0.00000000000E+00  0.00000000000E+00  0.45593999997E+02  0.45594000000E+02  0.51100000000E-03 0.  1.
         11   -1    0    0    0    0 -0.00000000000E+00 -0.00000000000E+00 -0.45593999997E+02  0.45594000000E+02  0.51100000000E-03 0. -1.
    9900012    2    1    2    0    0  0.39865598522E+02 -0.10307083119E+01  0.79270303466E+01  0.50528854470E+02  0.29999983646E+02 0.  0.
         12    1    1    2    0    0 -0.39865598522E+02  0.10307083119E+01 -0.79270303466E+01  0.40659145530E+02  0.00000000000E+00 0. -1.
         11    1    3    3    0    0  0.28863146724E+02 -0.36014238176E+01 -0.50921846754E+01  0.29529338587E+02  0.51100000000E-03 0.  1.
        -11    1    3    3    0    0  0.30289603191E+01  0.65112418924E+01  0.35586856376E+01  0.80146812366E+01  0.51100000000E-03 0. -1.
         12    1    3    3    0    0  0.79734914785E+01 -0.39405263867E+01  0.94605293844E+01  0.12984834646E+02  0.00000000000E+00 0. -1.
</event>
<event>
 7    1  0.5897985E-013  0.5052886E+02  0.7816164E-02  0.1300439E+00
        -11   -1    0    0    0    0  0.00000000000E+00  0.00000000000E+00  0.45593999997E+02  0.45594000000E+02  0.51100000000E-03 0.  1.
         11   -1    0    0    0    0 -0.00000000000E+00 -0.00000000000E+00 -0.45593999997E+02  0.45594000000E+02  0.51100000000E-03 0. -1.
    9900012    2    1    2    0    0 -0.16076979855E+02 -0.34472202225E+02  0.14365358907E+02  0.50528861494E+02  0.30000004998E+02 0.  0.
         12    1    1    2    0    0  0.16076979855E+02  0.34472202225E+02 -0.14365358907E+02  0.40659138506E+02  0.00000000000E+00 0. -1.
         11    1    3    3    0    0 -0.34115633535E+01  0.40225046099E+01  0.57212038004E+00  0.53053397480E+01  0.51100000000E-03 0. -1.
        -11    1    3    3    0    0 -0.12350172589E+02 -0.31775586727E+02  0.54785640861E+01  0.34528674164E+02  0.51100000000E-03 0.  1.
         12    1    3    3    0    0 -0.31524391216E+00 -0.67191201078E+01  0.83146744413E+01  0.10694847582E+02  0.00000000000E+00 0. -1.
</event>
<event>
 7    1  0.5897985E-013  0.5052886E+02  0.7816164E-02  0.1300439E+00
        -11   -1    0    0    0    0  0.00000000000E+00  0.00000000000E+00  0.45593999997E+02  0.45594000000E+02  0.51100000000E-03 0.  1.
         11   -1    0    0    0    0 -0.00000000000E+00 -0.00000000000E+00 -0.45593999997E+02  0.45594000000E+02  0.51100000000E-03 0. -1.
    9900012    2    1    2    0    0 -0.26681758941E+02  0.12075626550E+02  0.28203343674E+02  0.50528860669E+02  0.30000002488E+02 0.  0.
         12    1    1    2    0    0  0.26681758941E+02 -0.12075626550E+02 -0.28203343674E+02  0.40659139331E+02  0.00000000000E+00 0. -1.
         11    1    3    3    0    0 -0.17363817581E+02  0.17486339344E+02  0.26442385106E+02  0.36145178862E+02  0.51100000000E-03 0.  1.
        -11    1    3    3    0    0 -0.10428256492E+02 -0.46100177717E+01  0.37204034283E+01  0.11993423166E+02  0.51100000000E-03 0. -1.
        -12    1    3    3    0    0  0.11103151307E+01 -0.80069502295E+00 -0.19594448599E+01  0.23902586404E+01  0.00000000000E+00 0.  1.
</event>
<event>
 7    1  0.5897985E-013  0.5052885E+02  0.7816164E-02  0.1300439E+00
        -11   -1    0    0    0    0  0.00000000000E+00  0.00000000000E+00  0.45593999997E+02  0.45594000000E+02  0.51100000000E-03 0. -1.
         11   -1    0    0    0    0 -0.00000000000E+00 -0.00000000000E+00 -0.45593999997E+02  0.45594000000E+02  0.51100000000E-03 0.  1.
    9900012    2    1    2    0    0 -0.12192675506E+02  0.38645704610E+02 -0.33188439627E+01  0.50528849172E+02  0.29999967543E+02 0.  0.
         12    1    1    2    0    0  0.12192675506E+02 -0.38645704610E+02  0.33188439627E+01  0.40659150828E+02  0.00000000000E+00 0. -1.
         11    1    3    3    0    0 -0.14489759494E+01  0.82936821105E+01  0.69823666295E+01  0.10937922027E+02  0.51100000000E-03 0. -1.
        -11    1    3    3    0    0  0.19583418925E+00  0.10530459975E+02 -0.13066405453E+02  0.16782725942E+02  0.51100000000E-03 0.  1.
        -12    1    3    3    0    0 -0.10939533746E+02  0.19821562525E+02  0.27651948613E+01  0.22808201203E+02  0.00000000000E+00 0.  1.
</event>
<event>
 7    1  0.5897985E-013  0.5052883E+02  0.7816164E-02  0.1300439E+00
        -11   -1    0    0    0    0  0.00000000000E+00  0.00000000000E+00  0.45593999997E+02  0.45594000000E+02  0.51100000000E-03 0.  1.
         11   -1    0    0    0    0 -0.00000000000E+00 -0.00000000000E+00 -0.45593999997E+02  0.45594000000E+02  0.51100000000E-03 0. -1.
    9900012    2    1    2    0    0 -0.12646188073E+01  0.35587548777E+02  0.19623848159E+02  0.50528827539E+02  0.29999901786E+02 0.  0.
         12    1    1    2    0    0  0.12646188073E+01 -0.35587548777E+02 -0.19623848159E+02  0.40659172461E+02  0.00000000000E+00 0. -1.
         11    1    3    3    0    0  0.80325634201E+01  0.13928912237E+02 -0.77124673348E+00  0.16097561709E+02  0.51100000000E-03 0. -1.
        -11    1    3    3    0    0 -0.71663491895E+01  0.23224449810E+02  0.20483803918E+02  0.31785497525E+02  0.51100000000E-03 0.  1.
         12    1    3    3    0    0 -0.21308330378E+01 -0.15658132699E+01 -0.88709025512E-01  0.26457683048E+01  0.00000000000E+00 0. -1.
</event>
<event>
 7    1  0.5897985E-013  0.5052883E+02  0.7816164E-02  0.1300439E+00
        -11   -1    0    0    0    0  0.00000000000E+00  0.00000000000E+00  0.45593999997E+02  0.45594000000E+02  0.51100000000E-03 0. -1.
         11   -1    0    0    0    0 -0.00000000000E+00 -0.00000000000E+00 -0.45593999997E+02  0.45594000000E+02  0.51100000000E-03 0.  1.
    9900012    2    1    2    0    0  0.35474498723E+02 -0.18048004651E+02 -0.83064836678E+01  0.50528828802E+02  0.29999905628E+02 0.  0.
         12    1    1    2    0    0 -0.35474498723E+02  0.18048004651E+02  0.83064836678E+01  0.40659171198E+02  0.00000000000E+00 0. -1.
         11    1    3    3    0    0  0.91595984746E+01  0.42511158548E+01 -0.39361483485E+01  0.10838057682E+02  0.51100000000E-03 0. -1.
        -11    1    3    3    0    0  0.22222538489E+02 -0.20672677768E+02  0.36208722601E+01  0.30566510092E+02  0.51100000000E-03 0.  1.
        -12    1    3    3    0    0  0.40923617593E+01 -0.16264427379E+01 -0.79912075794E+01  0.91242610290E+01  0.00000000000E+00 0.  1.
</event>
<event>
 7    1  0.5897985E-013  0.5052887E+02  0.7816164E-02  0.1300439E+00
        -11   -1    0    0    0    0  0.00000000000E+00  0.00000000000E+00  0.45593999997E+02  0.45594000000E+02  0.51100000000E-03 0.  1.
         11   -1    0    0    0    0 -0.00000000000E+00 -0.00000000000E+00 -0.45593999997E+02  0.45594000000E+02  0.51100000000E-03 0. -1.
    9900012    2    1    2    0    0  0.22702108075E+02 -0.23675796458E+02  0.24025740060E+02  0.50528865302E+02  0.30000016572E+02 0.  0.
         12    1    1    2    0    0 -0.22702108075E+02  0.23675796458E+02 -0.24025740060E+02  0.40659134698E+02  0.00000000000E+00 0. -1.
         11    1    3    3    0    0  0.57428482090E+01 -0.36266430147E+00 -0.55911208287E+01  0.80232451869E+01  0.51100000000E-03 0. -1.
        -11    1    3    3    0    0  0.11236639285E+02 -0.17799066106E+02  0.14929548791E+02  0.25806205534E+02  0.51100000000E-03 0.  1.
        -12    1    3    3    0    0  0.57226205814E+01 -0.55140660503E+01  0.14687312097E+02  0.16699414582E+02  0.00000000000E+00 0.  1.
</event>
<event>
 7    1  0.5897985E-013  0.5052887E+02  0.7816164E-02  0.1300439E+00
        -11   -1    0    0    0    0  0.00000000000E+00  0.00000000000E+00  0.45593999997E+02  0.45594000000E+02  0.51100000000E-03 0.  1.
         11   -1    0    0    0    0 -0.00000000000E+00 -0.00000000000E+00 -0.45593999997E+02  0.45594000000E+02  0.51100000000E-03 0. -1.
    9900012    2    1    2    0    0  0.21396789324E+02 -0.32765098817E+02  0.11035863212E+02  0.50528873464E+02  0.30000041381E+02 0.  0.
         12    1    1    2    0    0 -0.21396789324E+02  0.32765098817E+02 -0.11035863212E+02  0.40659126536E+02  0.00000000000E+00 0. -1.
         11    1    3    3    0    0 -0.55485441377E+00  0.33221911852E+01 -0.10026211216E+01  0.35142662201E+01  0.51100000000E-03 0. -1.
        -11    1    3    3    0    0  0.11099215310E+02 -0.28598548380E+02  0.13934861459E+02  0.33693469903E+02  0.51100000000E-03 0.  1.
        -12    1    3    3    0    0  0.10852428427E+02 -0.74887416219E+01 -0.18963771254E+01  0.13321137341E+02  0.00000000000E+00 0.  1.
</event>
<event>
 7    1  0.5897985E-013  0.5052886E+02  0.7816164E-02  0.1300439E+00
        -11   -1    0    0    0    0  0.00000000000E+00  0.00000000000E+00  0.45593999997E+02  0.45594000000E+02  0.51100000000E-03 0.  1.
         11   -1    0    0    0    0 -0.00000000000E+00 -0.00000000000E+00 -0.45593999997E+02  0.45594000000E+02  0.51100000000E-03 0. -1.
    9900012    2    1    2    0    0  0.16399215879E+02 -0.55163483090E+01  0.36794041461E+02  0.50528857521E+02  0.29999992920E+02 0.  0.
         12    1    1    2    0    0 -0.16399215879E+02  0.55163483090E+01 -0.36794041461E+02  0.40659142479E+02  0.00000000000E+00 0. -1.
         11    1    3    3    0    0 -0.89615142923E+00 -0.73395342876E+01  0.35371130588E+00  0.74024970713E+01  0.51100000000E-03 0. -1.
        -11    1    3    3    0    0  0.13709141762E+02 -0.29353176304E+01  0.33832106582E+02  0.36621961901E+02  0.51100000000E-03 0.  1.
         12    1    3    3    0    0  0.35862255462E+01  0.47585036089E+01  0.26082235728E+01  0.65043985480E+01  0.00000000000E+00 0. -1.
</event>
<event>
 7    1  0.5897985E-013  0.5052885E+02  0.7816164E-02  0.1300439E+00
        -11   -1    0    0    0    0  0.00000000000E+00  0.00000000000E+00  0.45593999997E+02  0.45594000000E+02  0.51100000000E-03 0. -1.
         11   -1    0    0    0    0 -0.00000000000E+00 -0.00000000000E+00 -0.45593999997E+02  0.45594000000E+02  0.51100000000E-03 0.  1.
    9900012    2    1    2    0    0 -0.39805158889E+02  0.77453859126E+01 -0.29537397024E+01  0.50528852747E+02  0.29999978409E+02 0.  0.
         12    1    1    2    0    0  0.39805158889E+02 -0.77453859126E+01  0.29537397024E+01  0.40659147253E+02  0.00000000000E+00 0. -1.
         11    1    3    3    0    0 -0.13444306098E+02  0.13323285191E+02  0.78566911688E+01  0.20493581706E+02  0.51100000000E-03 0. -1.
        -11    1    3    3    0    0 -0.32826016676E+01 -0.89554446535E+00 -0.45265809834E+01  0.56628093079E+01  0.51100000000E-03 0.  1.
         12    1    3    3    0    0 -0.23078251123E+02 -0.46823548132E+01 -0.62838498878E+01  0.24372461733E+02  0.00000000000E+00 0. -1.
</event>
<event>
 7    1  0.5897985E-013  0.5052887E+02  0.7816164E-02  0.1300439E+00
        -11   -1    0    0    0    0  0.00000000000E+00  0.00000000000E+00  0.45593999997E+02  0.45594000000E+02  0.51100000000E-03 0. -1.
         11   -1    0    0    0    0 -0.00000000000E+00 -0.00000000000E+00 -0.45593999997E+02  0.45594000000E+02  0.51100000000E-03 0.  1.
    9900012    2    1    2    0    0 -0.34280182856E+02 -0.18767258268E+02 -0.11217129960E+02  0.50528869117E+02  0.30000028169E+02 0.  0.
         12    1    1    2    0    0  0.34280182856E+02  0.18767258268E+02  0.11217129960E+02  0.40659130883E+02  0.00000000000E+00 0. -1.
         11    1    3    3    0    0 -0.36390098199E+01 -0.15579471340E+02 -0.48541698093E+01  0.16719009675E+02  0.51100000000E-03 0. -1.
        -11    1    3    3    0    0 -0.26088427725E+02  0.20990843554E+01 -0.58181542653E+01  0.26811623144E+02  0.51100000000E-03 0.  1.
         12    1    3    3    0    0 -0.45527453117E+01 -0.52868712839E+01 -0.54480588569E+00  0.69982362991E+01  0.00000000000E+00 0. -1.
</event>
<event>
 7    1  0.5897985E-013  0.5052885E+02  0.7816164E-02  0.1300439E+00
        -11   -1    0    0    0    0  0.00000000000E+00  0.00000000000E+00  0.45593999997E+02  0.45594000000E+02  0.51100000000E-03 0. -1.
         11   -1    0    0    0    0 -0.00000000000E+00 -0.00000000000E+00 -0.45593999997E+02  0.45594000000E+02  0.51100000000E-03 0.  1.
    9900012    2    1    2    0    0 -0.26106869014E+02  0.19603653224E+02 -0.24234156400E+02  0.50528853848E+02  0.29999981755E+02 0.  0.
         12    1    1    2    0    0  0.26106869014E+02 -0.19603653224E+02  0.24234156400E+02  0.40659146152E+02  0.00000000000E+00 0. -1.
         11    1    3    3    0    0 -0.10586321215E+02  0.21707859156E+02 -0.62339763083E+01  0.24943211639E+02  0.51100000000E-03 0. -1.
        -11    1    3    3    0    0 -0.89392145478E+01  0.10410963640E+00 -0.16055257093E+02  0.18376389094E+02  0.51100000000E-03 0.  1.
        -12    1    3    3    0    0 -0.65813332507E+01 -0.22083155680E+01 -0.19449229988E+01  0.72092531150E+01  0.00000000000E+00 0.  1.
</event>
<event>
 7    1  0.5897985E-013  0.5052886E+02  0.7816164E-02  0.1300439E+00
        -11   -1    0    0    0    0  0.00000000000E+00  0.00000000000E+00  0.45593999997E+02  0.45594000000E+02  0.51100000000E-03 0.  1.
         11   -1    0    0    0    0 -0.00000000000E+00 -0.00000000000E+00 -0.45593999997E+02  0.45594000000E+02  0.51100000000E-03 0. -1.
    9900012    2    1    2    0    0 -0.17854000707E+02  0.21544839083E+02  0.29499500202E+02  0.50528856569E+02  0.29999990027E+02 0.  0.
         12    1    1    2    0    0  0.17854000707E+02 -0.21544839083E+02 -0.29499500202E+02  0.40659143431E+02  0.00000000000E+00 0. -1.
         11    1    3    3    0    0  0.54318331414E+01  0.87326487577E+01  0.15817984715E+02  0.18867236319E+02  0.51100000000E-03 0. -1.
        -11    1    3    3    0    0 -0.10329766244E+02  0.10013071366E+02  0.11068539113E+02  0.18151535120E+02  0.51100000000E-03 0.  1.
         12    1    3    3    0    0 -0.12956067604E+02  0.27991189595E+01  0.26129763739E+01  0.13510085131E+02  0.00000000000E+00 0. -1.
</event>
<event>
 7    1  0.5897985E-013  0.5052886E+02  0.7816164E-02  0.1300439E+00
        -11   -1    0    0    0    0  0.00000000000E+00  0.00000000000E+00  0.45593999997E+02  0.45594000000E+02  0.51100000000E-03 0.  1.
         11   -1    0    0    0    0 -0.00000000000E+00 -0.00000000000E+00 -0.45593999997E+02  0.45594000000E+02  0.51100000000E-03 0. -1.
    9900012    2    1    2    0    0 -0.27785565962E+02  0.11004218189E+02  0.27568728056E+02  0.50528864981E+02  0.30000015598E+02 0.  0.
         12    1    1    2    0    0  0.27785565962E+02 -0.11004218189E+02 -0.27568728056E+02  0.40659135019E+02  0.00000000000E+00 0. -1.
         11    1    3    3    0    0 -0.15693596108E+02  0.19878286566E+02  0.18636548031E+02  0.31444493291E+02  0.51100000000E-03 0. -1.
        -11    1    3    3    0    0 -0.12252720346E+02 -0.94782041429E+01  0.68997167251E+01  0.16957936219E+02  0.51100000000E-03 0.  1.
        -12    1    3    3    0    0  0.16075049168E+00  0.60413576642E+00  0.20324633006E+01  0.21264354712E+01  0.00000000000E+00 0.  1.
</event>
<event>
 7    1  0.5897985E-013  0.5052886E+02  0.7816164E-02  0.1300439E+00
        -11   -1    0    0    0    0  0.00000000000E+00  0.00000000000E+00  0.45593999997E+02  0.45594000000E+02  0.51100000000E-03 0. -1.
         11   -1    0    0    0    0 -0.00000000000E+00 -0.00000000000E+00 -0.45593999997E+02  0.45594000000E+02  0.51100000000E-03 0.  1.
    9900012    2    1    2    0    0 -0.16080504174E+02 -0.21075157975E+02 -0.30828893429E+02  0.50528861197E+02  0.30000004094E+02 0.  0.
         12    1    1    2    0    0  0.16080504174E+02  0.21075157975E+02  0.30828893429E+02  0.40659138803E+02  0.00000000000E+00 0. -1.
         11    1    3    3    0    0 -0.14698228722E+02 -0.70417702881E+01 -0.40839797341E+01  0.16801885224E+02  0.51100000000E-03 0. -1.
        -11    1    3    3    0    0  0.26828740505E+01 -0.62219399987E+00 -0.15546250276E+02  0.15788313287E+02  0.51100000000E-03 0.  1.
         12    1    3    3    0    0 -0.40651495023E+01 -0.13411193687E+02 -0.11198663419E+02  0.17938662686E+02  0.00000000000E+00 0. -1.
</event>
<event>
 7    1  0.5897985E-013  0.5052886E+02  0.7816164E-02  0.1300439E+00
        -11   -1    0    0    0    0  0.00000000000E+00  0.00000000000E+00  0.45593999997E+02  0.45594000000E+02  0.51100000000E-03 0.  1.
         11   -1    0    0    0    0 -0.00000000000E+00 -0.00000000000E+00 -0.45593999997E+02  0.45594000000E+02  0.51100000000E-03 0. -1.
    9900012    2    1    2    0    0  0.10635973599E+02 -0.60867894491E+01  0.38768447881E+02  0.50528862143E+02  0.30000006970E+02 0.  0.
         12    1    1    2    0    0 -0.10635973599E+02  0.60867894491E+01 -0.38768447881E+02  0.40659137857E+02  0.00000000000E+00 0. -1.
         11    1    3    3    0    0 -0.81134363542E+01  0.58158423902E-01  0.78140306603E+01  0.11264559792E+02  0.51100000000E-03 0. -1.
        -11    1    3    3    0    0  0.10519230717E+02 -0.20693794005E+01  0.51881881851E+01  0.11910241093E+02  0.51100000000E-03 0.  1.
         12    1    3    3    0    0  0.82301792356E+01 -0.40755684725E+01  0.25766229035E+02  0.27354061258E+02  0.00000000000E+00 0. -1.
</event>
<event>
 7    1  0.5897985E-013  0.5052885E+02  0.7816164E-02  0.1300439E+00
        -11   -1    0    0    0    0  0.00000000000E+00  0.00000000000E+00  0.45593999997E+02  0.45594000000E+02  0.51100000000E-03 0.  1.
         11   -1    0    0    0    0 -0.00000000000E+00 -0.00000000000E+00 -0.45593999997E+02  0.45594000000E+02  0.51100000000E-03 0. -1.
    9900012    2    1    2    0    0  0.36306355091E+01  0.30766400188E+02  0.26332742909E+02  0.50528852889E+02  0.29999978840E+02 0.  0.
         12    1    1    2    0    0 -0.36306355091E+01 -0.30766400188E+02 -0.26332742909E+02  0.40659147111E+02  0.00000000000E+00 0. -1.
         11    1    3    3    0    0  0.12104307689E+02  0.23535529160E+02  0.12724934429E+02  0.29365955696E+02  0.51100000000E-03 0. -1.
        -11    1    3    3    0    0 -0.11352486927E+02  0.53823602370E+01  0.91449906533E+01  0.15539614392E+02  0.51100000000E-03 0.  1.
         12    1    3    3    0    0  0.28788147475E+01  0.18485107910E+01  0.44628178270E+01  0.56232828003E+01  0.00000000000E+00 0. -1.
</event>
<event>
 7    1  0.5897985E-013  0.5052886E+02  0.7816164E-02  0.1300439E+00
        -11   -1    0    0    0    0  0.00000000000E+00  0.00000000000E+00  0.45593999997E+02  0.45594000000E+02  0.51100000000E-03 0.  1.
         11   -1    0    0    0    0 -0.00000000000E+00 -0.00000000000E+00 -0.45593999997E+02  0.45594000000E+02  0.51100000000E-03 0. -1.
    9900012    2    1    2    0    0  0.46528137361E+01  0.30380412356E+02  0.26618554455E+02  0.50528861152E+02  0.30000003958E+02 0.  0.
         12    1    1    2    0    0 -0.46528137361E+01 -0.30380412356E+02 -0.26618554455E+02  0.40659138848E+02  0.00000000000E+00 0. -1.
         11    1    3    3    0    0 -0.33616388299E+01  0.91830093211E+01 -0.46750513980E+01  0.10839021250E+02  0.51100000000E-03 0. -1.
        -11    1    3    3    0    0 -0.17410744214E+01  0.58707940556E+01  0.96855603391E+01  0.11458954679E+02  0.51100000000E-03 0.  1.
         12    1    3    3    0    0  0.97555269874E+01  0.15326608979E+02  0.21608045514E+02  0.28230885224E+02  0.00000000000E+00 0. -1.
</event>
<event>
 7    1  0.5897985E-013  0.5052885E+02  0.7816164E-02  0.1300439E+00
        -11   -1    0    0    0    0  0.00000000000E+00  0.00000000000E+00  0.45593999997E+02  0.45594000000E+02  0.51100000000E-03 0.  1.
         11   -1    0    0    0    0 -0.00000000000E+00 -0.00000000000E+00 -0.45593999997E+02  0.45594000000E+02  0.51100000000E-03 0. -1.
    9900012    2    1    2    0    0  0.28536307655E+01  0.16025958187E+02  0.37258443369E+02  0.50528854083E+02  0.29999982472E+02 0.  0.
         12    1    1    2    0    0 -0.28536307655E+01 -0.16025958187E+02 -0.37258443369E+02  0.40659145917E+02  0.00000000000E+00 0. -1.
         11    1    3    3    0    0 -0.24391700334E+01 -0.35524738158E+01 -0.60940361691E+00  0.43521251927E+01  0.51100000000E-03 0. -1.
        -11    1    3    3    0    0  0.31772691000E+01  0.22322987840E+02  0.29582406190E+02  0.37195827471E+02  0.51100000000E-03 0.  1.
         12    1    3    3    0    0  0.21155316989E+01 -0.27445558370E+01  0.82854407965E+01  0.89809014193E+01  0.00000000000E+00 0. -1.
</event>
<event>
 7    1  0.5897985E-013  0.5052883E+02  0.7816164E-02  0.1300439E+00
        -11   -1    0    0    0    0  0.00000000000E+00  0.00000000000E+00  0.45593999997E+02  0.45594000000E+02  0.51100000000E-03 0.  1.
         11   -1    0    0    0    0 -0.00000000000E+00 -0.00000000000E+00 -0.45593999997E+02  0.45594000000E+02  0.51100000000E-03 0. -1.
    9900012    2    1    2    0    0 -0.40190133497E+02 -0.93558747696E+00 -0.60865104673E+01  0.50528834193E+02  0.29999922014E+02 0.  0.
         12    1    1    2    0    0  0.40190133497E+02  0.93558747696E+00  0.60865104673E+01  0.40659165807E+02  0.00000000000E+00 0. -1.
         11    1    3    3    0    0  0.18419226841E+01  0.24730983427E+01 -0.39660335979E+01  0.50237752087E+01  0.51100000000E-03 0. -1.
        -11    1    3    3    0    0 -0.22764318443E+02 -0.19034529451E+01  0.73310433788E+01  0.23991280178E+02  0.51100000000E-03 0.  1.
         12    1    3    3    0    0 -0.19267737738E+02 -0.15052328746E+01 -0.94515202482E+01  0.21513778807E+02  0.00000000000E+00 0. -1.
</event>
<event>
 7    1  0.5897985E-013  0.5052886E+02  0.7816164E-02  0.1300439E+00
        -11   -1    0    0    0    0  0.00000000000E+00  0.00000000000E+00  0.45593999997E+02  0.45594000000E+02  0.51100000000E-03 0. -1.
         11   -1    0    0    0    0 -0.00000000000E+00 -0.00000000000E+00 -0.45593999997E+02  0.45594000000E+02  0.51100000000E-03 0.  1.
    9900012    2    1    2    0    0  0.16043175004E+02 -0.58280886259E+01 -0.36902785584E+02  0.50528860005E+02  0.30000000473E+02 0.  0.
         12    1    1    2    0    0 -0.16043175004E+02  0.58280886259E+01  0.36902785584E+02  0.40659139995E+02  0.00000000000E+00 0. -1.
         11    1    3    3    0    0  0.35059719150E+01 -0.13859252998E+02 -0.11223002675E+02  0.18174887125E+02  0.51100000000E-03 0. -1.
        -11    1    3    3    0    0 -0.21780453547E+01  0.20892977543E+01 -0.82358972067E+01  0.87714907362E+01  0.51100000000E-03 0.  1.
         12    1    3    3    0    0  0.14715248444E+02  0.59418666175E+01 -0.17443885703E+02  0.23582482144E+02  0.00000000000E+00 0. -1.
</event>
<event>
 7    1  0.5897985E-013  0.5052886E+02  0.7816164E-02  0.1300439E+00
        -11   -1    0    0    0    0  0.00000000000E+00  0.00000000000E+00  0.45593999997E+02  0.45594000000E+02  0.51100000000E-03 0.  1.
         11   -1    0    0    0    0 -0.00000000000E+00 -0.00000000000E+00 -0.45593999997E+02  0.45594000000E+02  0.51100000000E-03 0. -1.
    9900012    2    1    2    0    0 -0.25184228306E+02 -0.22394140177E+02  0.22746926839E+02  0.50528861418E+02  0.30000004765E+02 0.  0.
         12    1    1    2    0    0  0.25184228306E+02  0.22394140177E+02 -0.22746926839E+02  0.40659138582E+02  0.00000000000E+00 0. -1.
         11    1    3    3    0    0 -0.16344033544E+02 -0.24276316046E+01  0.39067371598E+01  0.16978911131E+02  0.51100000000E-03 0. -1.
        -11    1    3    3    0    0 -0.78268089405E+01 -0.22917030058E+02  0.14571103340E+02  0.28262453143E+02  0.51100000000E-03 0.  1.
        -12    1    3    3    0    0 -0.10133858220E+01  0.29505214865E+01  0.42690863399E+01  0.52874971437E+01  0.00000000000E+00 0.  1.
</event>
<event>
 7    1  0.5897985E-013  0.5052884E+02  0.7816164E-02  0.1300439E+00
        -11   -1    0    0    0    0  0.00000000000E+00  0.00000000000E+00  0.45593999997E+02  0.45594000000E+02  0.51100000000E-03 0.  1.
         11   -1    0    0    0    0 -0.00000000000E+00 -0.00000000000E+00 -0.45593999997E+02  0.45594000000E+02  0.51100000000E-03 0. -1.
    9900012    2    1    2    0    0  0.30704279073E+02  0.24783548410E+02  0.98076601361E+01  0.50528840853E+02  0.29999942256E+02 0.  0.
         12    1    1    2    0    0 -0.30704279073E+02 -0.24783548410E+02 -0.98076601361E+01  0.40659159147E+02  0.00000000000E+00 0. -1.
         11    1    3    3    0    0  0.13561595503E+02  0.32201032745E+01 -0.65142372242E+01  0.15385747449E+02  0.51100000000E-03 0. -1.
        -11    1    3    3    0    0  0.51755060353E+01  0.14961578905E+02  0.31103968429E+01  0.16134102852E+02  0.51100000000E-03 0.  1.
         12    1    3    3    0    0  0.11967177535E+02  0.66018662310E+01  0.13211500517E+02  0.19008990552E+02  0.00000000000E+00 0. -1.
</event>
<event>
 7    1  0.5897985E-013  0.5052876E+02  0.7816164E-02  0.1300439E+00
        -11   -1    0    0    0    0  0.00000000000E+00  0.00000000000E+00  0.45593999997E+02  0.45594000000E+02  0.51100000000E-03 0.  1.
         11   -1    0    0    0    0 -0.00000000000E+00 -0.00000000000E+00 -0.45593999997E+02  0.45594000000E+02  0.51100000000E-03 0. -1.
    9900012    2    1    2    0    0 -0.20621388792E+02  0.48659491623E+01  0.34702377095E+02  0.50528756119E+02  0.29999684697E+02 0.  0.
         12    1    1    2    0    0  0.20621388792E+02 -0.48659491623E+01 -0.34702377095E+02  0.40659243881E+02  0.00000000000E+00 0. -1.
         11    1    3    3    0    0 -0.57748680733E+01  0.13856654221E+02  0.53777749128E+01  0.15946047496E+02  0.51100000000E-03 0. -1.
        -11    1    3    3    0    0 -0.14868986503E+02 -0.84809419545E+01  0.29444410670E+02  0.34058573899E+02  0.51100000000E-03 0.  1.
        -12    1    3    3    0    0  0.22465783824E-01 -0.50976310463E+00 -0.11980848844E+00  0.52413472332E+00  0.00000000000E+00 0.  1.
</event>
<event>
 7    1  0.5897985E-013  0.5052886E+02  0.7816164E-02  0.1300439E+00
        -11   -1    0    0    0    0  0.00000000000E+00  0.00000000000E+00  0.45593999997E+02  0.45594000000E+02  0.51100000000E-03 0.  1.
         11   -1    0    0    0    0 -0.00000000000E+00 -0.00000000000E+00 -0.45593999997E+02  0.45594000000E+02  0.51100000000E-03 0. -1.
    9900012    2    1    2    0    0  0.38957313127E+02 -0.55854392686E+01  0.10212544583E+02  0.50528862715E+02  0.30000008708E+02 0.  0.
         12    1    1    2    0    0 -0.38957313127E+02  0.55854392686E+01 -0.10212544583E+02  0.40659137285E+02  0.00000000000E+00 0. -1.
         11    1    3    3    0    0  0.12813299844E+02 -0.85713308314E+01  0.72833647853E+01  0.17049802579E+02  0.51100000000E-03 0.  1.
        -11    1    3    3    0    0  0.17579205136E+02  0.98883969596E+01  0.75657344427E+01  0.21541800890E+02  0.51100000000E-03 0. -1.
        -12    1    3    3    0    0  0.85648081470E+01 -0.69025053968E+01 -0.46365546447E+01  0.11937259247E+02  0.00000000000E+00 0.  1.
</event>
<event>
 7    1  0.5897985E-013  0.5052880E+02  0.7816164E-02  0.1300439E+00
        -11   -1    0    0    0    0  0.00000000000E+00  0.00000000000E+00  0.45593999997E+02  0.45594000000E+02  0.51100000000E-03 0.  1.
         11   -1    0    0    0    0 -0.00000000000E+00 -0.00000000000E+00 -0.45593999997E+02  0.45594000000E+02  0.51100000000E-03 0. -1.
    9900012    2    1    2    0    0  0.22861646391E+02 -0.18215426211E+02  0.28261528331E+02  0.50528799180E+02  0.29999815586E+02 0.  0.
         12    1    1    2    0    0 -0.22861646391E+02  0.18215426211E+02 -0.28261528331E+02  0.40659200820E+02  0.00000000000E+00 0. -1.
         11    1    3    3    0    0  0.68100561443E+01 -0.18291306283E+02  0.18378229712E+02  0.26808731373E+02  0.51100000000E-03 0. -1.
        -11    1    3    3    0    0  0.16711270582E+02 -0.38341166288E+01  0.59864848734E+01  0.18160534579E+02  0.51100000000E-03 0.  1.
         12    1    3    3    0    0 -0.65968033502E+00  0.39099967010E+01  0.38968137451E+01  0.55595332277E+01  0.00000000000E+00 0. -1.
</event>
<event>
 7    1  0.5897985E-013  0.5052887E+02  0.7816164E-02  0.1300439E+00
        -11   -1    0    0    0    0  0.00000000000E+00  0.00000000000E+00  0.45593999997E+02  0.45594000000E+02  0.51100000000E-03 0.  1.
         11   -1    0    0    0    0 -0.00000000000E+00 -0.00000000000E+00 -0.45593999997E+02  0.45594000000E+02  0.51100000000E-03 0. -1.
    9900012    2    1    2    0    0 -0.24178527470E+02 -0.31592353431E+02 -0.83956675196E+01  0.50528865491E+02  0.30000017147E+02 0.  0.
         12    1    1    2    0    0  0.24178527470E+02  0.31592353431E+02  0.83956675196E+01  0.40659134509E+02  0.00000000000E+00 0. -1.
         11    1    3    3    0    0 -0.23023310729E+02 -0.25868094818E+02 -0.16686495505E+02  0.38440477351E+02  0.51100000000E-03 0. -1.
        -11    1    3    3    0    0 -0.75359801313E+00 -0.66323343593E+01  0.87409665280E+01  0.10998193721E+02  0.51100000000E-03 0.  1.
        -12    1    3    3    0    0 -0.40161872810E+00  0.90807574683E+00 -0.45013854267E+00  0.10901944195E+01  0.00000000000E+00 0.  1.
</event>
<event>
 7    1  0.5897985E-013  0.5052886E+02  0.7816164E-02  0.1300439E+00
        -11   -1    0    0    0    0  0.00000000000E+00  0.00000000000E+00  0.45593999997E+02  0.45594000000E+02  0.51100000000E-03 0. -1.
         11   -1    0    0    0    0 -0.00000000000E+00 -0.00000000000E+00 -0.45593999997E+02  0.45594000000E+02  0.51100000000E-03 0.  1.
    9900012    2    1    2    0    0 -0.31724020667E+02 -0.21155267482E+02 -0.14114056205E+02  0.50528863118E+02  0.30000009932E+02 0.  0.
         12    1    1    2    0    0  0.31724020667E+02  0.21155267482E+02  0.14114056205E+02  0.40659136882E+02  0.00000000000E+00 0. -1.
         11    1    3    3    0    0 -0.23729703781E+02 -0.16467019577E+02 -0.29715699830E+01  0.29036043183E+02  0.51100000000E-03 0.  1.
        -11    1    3    3    0    0 -0.30915365745E+00  0.39196624509E+01  0.16506715240E+01  0.42642756072E+01  0.51100000000E-03 0. -1.
        -12    1    3    3    0    0 -0.76851632282E+01 -0.86079103550E+01 -0.12793157746E+02  0.17228544327E+02  0.00000000000E+00 0.  1.
</event>
<event>
 7    1  0.5897985E-013  0.5052886E+02  0.7816164E-02  0.1300439E+00
        -11   -1    0    0    0    0  0.00000000000E+00  0.00000000000E+00  0.45593999997E+02  0.45594000000E+02  0.51100000000E-03 0.  1.
         11   -1    0    0    0    0 -0.00000000000E+00 -0.00000000000E+00 -0.45593999997E+02  0.45594000000E+02  0.51100000000E-03 0. -1.
    9900012    2    1    2    0    0  0.31445725530E+01  0.35285876415E+01  0.40383491322E+02  0.50528860331E+02  0.30000001461E+02 0.  0.
         12    1    1    2    0    0 -0.31445725530E+01 -0.35285876415E+01 -0.40383491322E+02  0.40659139669E+02  0.00000000000E+00 0. -1.
         11    1    3    3    0    0 -0.25302264112E+01  0.10977164427E+02  0.87287585191E+01  0.14251014353E+02  0.51100000000E-03 0. -1.
        -11    1    3    3    0    0  0.63071598966E+01  0.42725150286E+00  0.25473234677E+02  0.26245923397E+02  0.51100000000E-03 0.  1.
         12    1    3    3    0    0 -0.63236093239E+00 -0.78758282882E+01  0.61814981262E+01  0.10031922580E+02  0.00000000000E+00 0. -1.
</event>
<event>
 7    1  0.5897985E-013  0.5052886E+02  0.7816164E-02  0.1300439E+00
        -11   -1    0    0    0    0  0.00000000000E+00  0.00000000000E+00  0.45593999997E+02  0.45594000000E+02  0.51100000000E-03 0.  1.
         11   -1    0    0    0    0 -0.00000000000E+00 -0.00000000000E+00 -0.45593999997E+02  0.45594000000E+02  0.51100000000E-03 0. -1.
    9900012    2    1    2    0    0  0.39347919341E+01 -0.81007843481E+01  0.39649218960E+02  0.50528857624E+02  0.29999993233E+02 0.  0.
         12    1    1    2    0    0 -0.39347919341E+01  0.81007843481E+01 -0.39649218960E+02  0.40659142376E+02  0.00000000000E+00 0. -1.
         11    1    3    3    0    0 -0.89525877622E+01 -0.12540121812E+02  0.27056946946E+02  0.31136503673E+02  0.51100000000E-03 0. -1.
        -11    1    3    3    0    0  0.12601424253E+02  0.35279384574E+01  0.12913289508E+02  0.18384648192E+02  0.51100000000E-03 0.  1.
        -12    1    3    3    0    0  0.28595544345E+00  0.91139900680E+00 -0.32101749336E+00  0.10077057588E+01  0.00000000000E+00 0.  1.
</event>
<event>
 7    1  0.5897985E-013  0.5052886E+02  0.7816164E-02  0.1300439E+00
        -11   -1    0    0    0    0  0.00000000000E+00  0.00000000000E+00  0.45593999997E+02  0.45594000000E+02  0.51100000000E-03 0.  1.
         11   -1    0    0    0    0 -0.00000000000E+00 -0.00000000000E+00 -0.45593999997E+02  0.45594000000E+02  0.51100000000E-03 0. -1.
    9900012    2    1    2    0    0 -0.35037013325E+02  0.98109084024E+01  0.18147150818E+02  0.50528864382E+02  0.30000013775E+02 0.  0.
         12    1    1    2    0    0  0.35037013325E+02 -0.98109084024E+01 -0.18147150818E+02  0.40659135618E+02  0.00000000000E+00 0. -1.
         11    1    3    3    0    0 -0.10959114745E+02  0.10110295473E+02 -0.11531064258E+01  0.14954929797E+02  0.51100000000E-03 0. -1.
        -11    1    3    3    0    0 -0.15932166475E+02 -0.61744546863E+01  0.18962096573E+02  0.25524868774E+02  0.51100000000E-03 0.  1.
        -12    1    3    3    0    0 -0.81457321054E+01  0.58750676157E+01  0.33816067062E+00  0.10049065810E+02  0.00000000000E+00 0.  1.
</event>
<event>
 7    1  0.5897985E-013  0.5052886E+02  0.7816164E-02  0.1300439E+00
        -11   -1    0    0    0    0  0.00000000000E+00  0.00000000000E+00  0.45593999997E+02  0.45594000000E+02  0.51100000000E-03 0.  1.
         11   -1    0    0    0    0 -0.00000000000E+00 -0.00000000000E+00 -0.45593999997E+02  0.45594000000E+02  0.51100000000E-03 0. -1.
    9900012    2    1    2    0    0  0.15308904032E+02  0.39978616373E+01  0.37454240847E+02  0.50528860833E+02  0.30000002989E+02 0.  0.
         12    1    1    2    0    0 -0.15308904032E+02 -0.39978616373E+01 -0.37454240847E+02  0.40659139167E+02  0.00000000000E+00 0. -1.
         11    1    3    3    0    0 -0.81665576047E+01 -0.56998117112E+00  0.74092982371E+01  0.11041523549E+02  0.51100000000E-03 0. -1.
        -11    1    3    3    0    0  0.12209685020E+02 -0.18204121157E+01  0.11525160404E+02  0.16888446677E+02  0.51100000000E-03 0.  1.
         12    1    3    3    0    0  0.11265776616E+02  0.63882549241E+01  0.18519782206E+02  0.22598890608E+02  0.00000000000E+00 0. -1.
</event>
<event>
 7    1  0.5897985E-013  0.5052886E+02  0.7816164E-02  0.1300439E+00
        -11   -1    0    0    0    0  0.00000000000E+00  0.00000000000E+00  0.45593999997E+02  0.45594000000E+02  0.51100000000E-03 0.  1.
         11   -1    0    0    0    0 -0.00000000000E+00 -0.00000000000E+00 -0.45593999997E+02  0.45594000000E+02  0.51100000000E-03 0. -1.
    9900012    2    1    2    0    0 -0.31918849915E+02  0.63684965467E+01  0.24367910983E+02  0.50528858176E+02  0.29999994913E+02 0.  0.
         12    1    1    2    0    0  0.31918849915E+02 -0.63684965467E+01 -0.24367910983E+02  0.40659141824E+02  0.00000000000E+00 0. -1.
         11    1    3    3    0    0 -0.39901116377E+01  0.75005509999E+01 -0.45322533272E+01  0.96291524376E+01  0.51100000000E-03 0. -1.
        -11    1    3    3    0    0 -0.17212871372E+02 -0.17681125315E+01  0.12692486133E+02  0.21459458690E+02  0.51100000000E-03 0.  1.
         12    1    3    3    0    0 -0.10715866906E+02  0.63605807827E+00  0.16207678177E+02  0.19440247049E+02  0.00000000000E+00 0. -1.
</event>
<event>
 7    1  0.5897985E-013  0.5052886E+02  0.7816164E-02  0.1300439E+00
        -11   -1    0    0    0    0  0.00000000000E+00  0.00000000000E+00  0.45593999997E+02  0.45594000000E+02  0.51100000000E-03 0. -1.
         11   -1    0    0    0    0 -0.00000000000E+00 -0.00000000000E+00 -0.45593999997E+02  0.45594000000E+02  0.51100000000E-03 0.  1.
    9900012    2    1    2    0    0  0.21999692957E+02  0.60112901011E+01 -0.33660712267E+02  0.50528860201E+02  0.30000001067E+02 0.  0.
         12    1    1    2    0    0 -0.21999692957E+02 -0.60112901011E+01  0.33660712267E+02  0.40659139799E+02  0.00000000000E+00 0. -1.
         11    1    3    3    0    0  0.11175084691E+02 -0.30746022333E+01  0.16131325396E+01  0.11702046556E+02  0.51100000000E-03 0. -1.
        -11    1    3    3    0    0  0.23429335163E+01  0.32610645083E+01 -0.20075521375E+02  0.20473163848E+02  0.51100000000E-03 0.  1.
         12    1    3    3    0    0  0.84816747494E+01  0.58248278260E+01 -0.15198323431E+02  0.18353649797E+02  0.00000000000E+00 0. -1.
</event>
<event>
 7    1  0.5897985E-013  0.5052886E+02  0.7816164E-02  0.1300439E+00
        -11   -1    0    0    0    0  0.00000000000E+00  0.00000000000E+00  0.45593999997E+02  0.45594000000E+02  0.51100000000E-03 0.  1.
         11   -1    0    0    0    0 -0.00000000000E+00 -0.00000000000E+00 -0.45593999997E+02  0.45594000000E+02  0.51100000000E-03 0. -1.
    9900012    2    1    2    0    0  0.12153292619E+02  0.34956867152E+02  0.16836883805E+02  0.50528859099E+02  0.29999997718E+02 0.  0.
         12    1    1    2    0    0 -0.12153292619E+02 -0.34956867152E+02 -0.16836883805E+02  0.40659140901E+02  0.00000000000E+00 0. -1.
         11    1    3    3    0    0 -0.68625244688E+01  0.16551519593E+02  0.12255349577E+02  0.21708077677E+02  0.51100000000E-03 0. -1.
        -11    1    3    3    0    0  0.18247132951E+02  0.12394764288E+02  0.53895629957E+01  0.22707607365E+02  0.51100000000E-03 0.  1.
        -12    1    3    3    0    0  0.76868413658E+00  0.60105832712E+01 -0.80802876832E+00  0.61131740571E+01  0.00000000000E+00 0.  1.
</event>
<event>
 7    1  0.5897985E-013  0.5052879E+02  0.7816164E-02  0.1300439E+00
        -11   -1    0    0    0    0  0.00000000000E+00  0.00000000000E+00  0.45593999997E+02  0.45594000000E+02  0.51100000000E-03 0. -1.
         11   -1    0    0    0    0 -0.00000000000E+00 -0.00000000000E+00 -0.45593999997E+02  0.45594000000E+02  0.51100000000E-03 0.  1.
    9900012    2    1    2    0    0 -0.20512489895E+02 -0.29572269804E+02 -0.18917983779E+02  0.50528788334E+02  0.29999782619E+02 0.  0.
         12    1    1    2    0    0  0.20512489895E+02  0.29572269804E+02  0.18917983779E+02  0.40659211666E+02  0.00000000000E+00 0. -1.
         11    1    3    3    0    0 -0.20818921085E+02 -0.26284940220E+02 -0.17893778344E+02  0.38006747575E+02  0.51100000000E-03 0. -1.
        -11    1    3    3    0    0  0.39473302809E+01 -0.14282928715E+01 -0.51968967996E+01  0.66805069778E+01  0.51100000000E-03 0.  1.
         12    1    3    3    0    0 -0.36408990909E+01 -0.18590367126E+01  0.41726913651E+01  0.58415337812E+01  0.00000000000E+00 0. -1.
</event>
<event>
 7    1  0.5897985E-013  0.5052886E+02  0.7816164E-02  0.1300439E+00
        -11   -1    0    0    0    0  0.00000000000E+00  0.00000000000E+00  0.45593999997E+02  0.45594000000E+02  0.51100000000E-03 0.  1.
         11   -1    0    0    0    0 -0.00000000000E+00 -0.00000000000E+00 -0.45593999997E+02  0.45594000000E+02  0.51100000000E-03 0. -1.
    9900012    2    1    2    0    0 -0.38539920816E+02  0.11834495717E+01  0.12901151492E+02  0.50528858848E+02  0.29999996955E+02 0.  0.
         12    1    1    2    0    0  0.38539920816E+02 -0.11834495717E+01 -0.12901151492E+02  0.40659141152E+02  0.00000000000E+00 0. -1.
         11    1    3    3    0    0 -0.64237283249E+01 -0.38454928570E+01  0.10007369391E+02  0.12497981569E+02  0.51100000000E-03 0. -1.
        -11    1    3    3    0    0 -0.29910304474E+02  0.54157541948E+00 -0.32706393766E+01  0.30093466066E+02  0.51100000000E-03 0.  1.
        -12    1    3    3    0    0 -0.22058880172E+01  0.44873670092E+01  0.61644214777E+01  0.79374112137E+01  0.00000000000E+00 0.  1.
</event>
<event>
 7    1  0.5897985E-013  0.5052887E+02  0.7816164E-02  0.1300439E+00
        -11   -1    0    0    0    0  0.00000000000E+00  0.00000000000E+00  0.45593999997E+02  0.45594000000E+02  0.51100000000E-03 0. -1.
         11   -1    0    0    0    0 -0.00000000000E+00 -0.00000000000E+00 -0.45593999997E+02  0.45594000000E+02  0.51100000000E-03 0.  1.
    9900012    2    1    2    0    0  0.26618930106E+02 -0.93775814821E+01 -0.29268730681E+02  0.50528867322E+02  0.30000022712E+02 0.  0.
         12    1    1    2    0    0 -0.26618930106E+02  0.93775814821E+01  0.29268730681E+02  0.40659132678E+02  0.00000000000E+00 0. -1.
         11    1    3    3    0    0  0.25292224151E+02 -0.37478463249E+01 -0.82059866908E+01  0.26852954631E+02  0.51100000000E-03 0. -1.
        -11    1    3    3    0    0  0.48997211217E+01 -0.52848711840E+01 -0.13440348256E+02  0.15250576776E+02  0.51100000000E-03 0.  1.
         12    1    3    3    0    0 -0.35730151673E+01 -0.34486397328E+00 -0.76223957347E+01  0.84253359151E+01  0.00000000000E+00 0. -1.
</event>
<event>
 7    1  0.5897985E-013  0.5052886E+02  0.7816164E-02  0.1300439E+00
        -11   -1    0    0    0    0  0.00000000000E+00  0.00000000000E+00  0.45593999997E+02  0.45594000000E+02  0.51100000000E-03 0.  1.
         11   -1    0    0    0    0 -0.00000000000E+00 -0.00000000000E+00 -0.45593999997E+02  0.45594000000E+02  0.51100000000E-03 0. -1.
    9900012    2    1    2    0    0  0.37328309299E+02 -0.89614347758E+01  0.13396116603E+02  0.50528856768E+02  0.29999990631E+02 0.  0.
         12    1    1    2    0    0 -0.37328309299E+02  0.89614347758E+01 -0.13396116603E+02  0.40659143232E+02  0.00000000000E+00 0. -1.
         11    1    3    3    0    0  0.18229526085E+02  0.11817383229E+01 -0.61364614128E+01  0.19270918132E+02  0.51100000000E-03 0. -1.
        -11    1    3    3    0    0  0.15325929400E+02 -0.12531562651E+02  0.14560098371E+02  0.24574796831E+02  0.51100000000E-03 0.  1.
         12    1    3    3    0    0  0.37728538148E+01  0.23883895526E+01  0.49724796449E+01  0.66831418047E+01  0.00000000000E+00 0. -1.
</event>
<event>
 7    1  0.5897985E-013  0.5052886E+02  0.7816164E-02  0.1300439E+00
        -11   -1    0    0    0    0  0.00000000000E+00  0.00000000000E+00  0.45593999997E+02  0.45594000000E+02  0.51100000000E-03 0. -1.
         11   -1    0    0    0    0 -0.00000000000E+00 -0.00000000000E+00 -0.45593999997E+02  0.45594000000E+02  0.51100000000E-03 0.  1.
    9900012    2    1    2    0    0  0.22038237546E+02  0.22325269506E+02 -0.25866265729E+02  0.50528864798E+02  0.30000015040E+02 0.  0.
         12    1    1    2    0    0 -0.22038237546E+02 -0.22325269506E+02  0.25866265729E+02  0.40659135202E+02  0.00000000000E+00 0. -1.
         11    1    3    3    0    0  0.15721460128E+02  0.59181395963E+01 -0.96404379686E+01  0.19368188591E+02  0.51100000000E-03 0. -1.
        -11    1    3    3    0    0  0.58152139464E+01  0.17556538945E+02 -0.19966141628E+02  0.27215723117E+02  0.51100000000E-03 0.  1.
        -12    1    3    3    0    0  0.50156347179E+00 -0.11494090351E+01  0.37403138686E+01  0.39449530899E+01  0.00000000000E+00 0.  1.
</event>
<event>
 7    1  0.5897985E-013  0.5052885E+02  0.7816164E-02  0.1300439E+00
        -11   -1    0    0    0    0  0.00000000000E+00  0.00000000000E+00  0.45593999997E+02  0.45594000000E+02  0.51100000000E-03 0.  1.
         11   -1    0    0    0    0 -0.00000000000E+00 -0.00000000000E+00 -0.45593999997E+02  0.45594000000E+02  0.51100000000E-03 0. -1.
    9900012    2    1    2    0    0 -0.23471696693E+02 -0.30458315291E+02  0.13211236776E+02  0.50528852282E+02  0.29999976996E+02 0.  0.
         12    1    1    2    0    0  0.23471696693E+02  0.30458315291E+02 -0.13211236776E+02  0.40659147718E+02  0.00000000000E+00 0. -1.
         11    1    3    3    0    0 -0.50051616463E+01  0.49300255769E+00  0.51961070463E+01  0.72314744918E+01  0.51100000000E-03 0. -1.
        -11    1    3    3    0    0 -0.19185975406E+02 -0.28861973094E+02  0.13647218698E+02  0.37247304890E+02  0.51100000000E-03 0.  1.
        -12    1    3    3    0    0  0.71944035916E+00 -0.20893447553E+01 -0.56320889690E+01  0.60500728997E+01  0.00000000000E+00 0.  1.
</event>
<event>
 7    1  0.5897985E-013  0.5052885E+02  0.7816164E-02  0.1300439E+00
        -11   -1    0    0    0    0  0.00000000000E+00  0.00000000000E+00  0.45593999997E+02  0.45594000000E+02  0.51100000000E-03 0.  1.
         11   -1    0    0    0    0 -0.00000000000E+00 -0.00000000000E+00 -0.45593999997E+02  0.45594000000E+02  0.51100000000E-03 0. -1.
    9900012    2    1    2    0    0  0.23007643683E+02  0.32026495522E+02  0.99054784713E+01  0.50528848668E+02  0.29999966012E+02 0.  0.
         12    1    1    2    0    0 -0.23007643683E+02 -0.32026495522E+02 -0.99054784713E+01  0.40659151332E+02  0.00000000000E+00 0. -1.
         11    1    3    3    0    0  0.14079146423E+02  0.25299253629E+01  0.72416893338E+01  0.16033245180E+02  0.51100000000E-03 0. -1.
        -11    1    3    3    0    0  0.10893370926E+02  0.19165116405E+02 -0.34773060614E+01  0.22317232684E+02  0.51100000000E-03 0.  1.
         12    1    3    3    0    0 -0.19648736666E+01  0.10331453755E+02  0.61410951990E+01  0.12178370805E+02  0.00000000000E+00 0. -1.
</event>
<event>
 7    1  0.5897985E-013  0.5052882E+02  0.7816164E-02  0.1300439E+00
        -11   -1    0    0    0    0  0.00000000000E+00  0.00000000000E+00  0.45593999997E+02  0.45594000000E+02  0.51100000000E-03 0.  1.
         11   -1    0    0    0    0 -0.00000000000E+00 -0.00000000000E+00 -0.45593999997E+02  0.45594000000E+02  0.51100000000E-03 0. -1.
    9900012    2    1    2    0    0 -0.28883016920E+02  0.28588369425E+02 -0.12826477794E+01  0.50528822462E+02  0.29999886354E+02 0.  0.
         12    1    1    2    0    0  0.28883016920E+02 -0.28588369425E+02  0.12826477794E+01  0.40659177538E+02  0.00000000000E+00 0. -1.
         11    1    3    3    0    0  0.69440815501E+00 -0.70324376220E+00 -0.60692483442E+01  0.61491893937E+01  0.51100000000E-03 0. -1.
        -11    1    3    3    0    0 -0.21405249284E+02  0.26163331050E+02 -0.11196249867E+01  0.33822450368E+02  0.51100000000E-03 0.  1.
        -12    1    3    3    0    0 -0.81721757908E+01  0.31282821371E+01  0.59062255515E+01  0.10557182699E+02  0.00000000000E+00 0.  1.
</event>
<event>
 7    1  0.5897985E-013  0.5052887E+02  0.7816164E-02  0.1300439E+00
        -11   -1    0    0    0    0  0.00000000000E+00  0.00000000000E+00  0.45593999997E+02  0.45594000000E+02  0.51100000000E-03 0.  1.
         11   -1    0    0    0    0 -0.00000000000E+00 -0.00000000000E+00 -0.45593999997E+02  0.45594000000E+02  0.51100000000E-03 0. -1.
    9900012    2    1    2    0    0  0.18120442857E+02  0.26467055923E+02  0.24986188423E+02  0.50528866826E+02  0.30000021203E+02 0.  0.
         12    1    1    2    0    0 -0.18120442857E+02 -0.26467055923E+02 -0.24986188423E+02  0.40659133174E+02  0.00000000000E+00 0. -1.
         11    1    3    3    0    0  0.12655099211E+02 -0.22410289219E+01  0.35670861494E+01  0.13337835302E+02  0.51100000000E-03 0. -1.
        -11    1    3    3    0    0  0.35111408932E+01  0.70121735031E+01  0.22099135831E+01  0.81475398689E+01  0.51100000000E-03 0.  1.
         12    1    3    3    0    0  0.19542027526E+01  0.21695911342E+02  0.19209188691E+02  0.29043491655E+02  0.00000000000E+00 0. -1.
</event>
<event>
 7    1  0.5897985E-013  0.5052888E+02  0.7816164E-02  0.1300439E+00
        -11   -1    0    0    0    0  0.00000000000E+00  0.00000000000E+00  0.45593999997E+02  0.45594000000E+02  0.51100000000E-03 0. -1.
         11   -1    0    0    0    0 -0.00000000000E+00 -0.00000000000E+00 -0.45593999997E+02  0.45594000000E+02  0.51100000000E-03 0.  1.
    9900012    2    1    2    0    0 -0.14595182710E+02 -0.94047615523E+01 -0.36765408998E+02  0.50528878059E+02  0.30000055348E+02 0.  0.
         12    1    1    2    0    0  0.14595182710E+02  0.94047615523E+01  0.36765408998E+02  0.40659121941E+02  0.00000000000E+00 0. -1.
         11    1    3    3    0    0  0.31300691883E+01  0.15830182019E+01  0.19228687336E+01  0.40000880214E+01  0.51100000000E-03 0. -1.
        -11    1    3    3    0    0 -0.12742598702E+02 -0.13267285487E+02 -0.35995285031E+02  0.40423449019E+02  0.51100000000E-03 0.  1.
        -12    1    3    3    0    0 -0.49826531970E+01  0.22795057324E+01 -0.26929927008E+01  0.61053410185E+01  0.00000000000E+00 0.  1.
</event>
<event>
 7    1  0.5897985E-013  0.5052887E+02  0.7816164E-02  0.1300439E+00
        -11   -1    0    0    0    0  0.00000000000E+00  0.00000000000E+00  0.45593999997E+02  0.45594000000E+02  0.51100000000E-03 0. -1.
         11   -1    0    0    0    0 -0.00000000000E+00 -0.00000000000E+00 -0.45593999997E+02  0.45594000000E+02  0.51100000000E-03 0.  1.
    9900012    2    1    2    0    0  0.36699867578E+02  0.57166721603E+00 -0.17491645837E+02  0.50528871163E+02  0.30000034388E+02 0.  0.
         12    1    1    2    0    0 -0.36699867578E+02 -0.57166721603E+00  0.17491645837E+02  0.40659128837E+02  0.00000000000E+00 0. -1.
         11    1    3    3    0    0  0.17653365362E+02 -0.10444991358E+02 -0.15452469866E+02  0.25681082109E+02  0.51100000000E-03 0. -1.
        -11    1    3    3    0    0  0.19611511596E+02  0.74910500287E+01 -0.61167329031E+00  0.21002413244E+02  0.51100000000E-03 0.  1.
         12    1    3    3    0    0 -0.56500938001E+00  0.35256085452E+01 -0.14275026804E+01  0.38453758095E+01  0.00000000000E+00 0. -1.
</event>
<event>
 7    1  0.5897985E-013  0.5052886E+02  0.7816164E-02  0.1300439E+00
        -11   -1    0    0    0    0  0.00000000000E+00  0.00000000000E+00  0.45593999997E+02  0.45594000000E+02  0.51100000000E-03 0. -1.
         11   -1    0    0    0    0 -0.00000000000E+00 -0.00000000000E+00 -0.45593999997E+02  0.45594000000E+02  0.51100000000E-03 0.  1.
    9900012    2    1    2    0    0  0.20506067127E+02 -0.79584454405E+01 -0.34195463369E+02  0.50528863783E+02  0.30000011956E+02 0.  0.
         12    1    1    2    0    0 -0.20506067127E+02  0.79584454405E+01  0.34195463369E+02  0.40659136217E+02  0.00000000000E+00 0. -1.
         11    1    3    3    0    0  0.12623854542E+01 -0.20856179675E+01 -0.29050872116E+02  0.29152985959E+02  0.51100000000E-03 0. -1.
        -11    1    3    3    0    0  0.12105240025E+02 -0.61916823773E+01 -0.35987642367E+01  0.14065022965E+02  0.51100000000E-03 0.  1.
         12    1    3    3    0    0  0.71384416476E+01  0.31885490434E+00 -0.15458270161E+01  0.73108548591E+01  0.00000000000E+00 0. -1.
</event>
<event>
 7    1  0.5897985E-013  0.5052887E+02  0.7816164E-02  0.1300439E+00
        -11   -1    0    0    0    0  0.00000000000E+00  0.00000000000E+00  0.45593999997E+02  0.45594000000E+02  0.51100000000E-03 0.  1.
         11   -1    0    0    0    0 -0.00000000000E+00 -0.00000000000E+00 -0.45593999997E+02  0.45594000000E+02  0.51100000000E-03 0. -1.
    9900012    2    1    2    0    0 -0.20403942743E+02 -0.35110993449E+02  0.20154597183E+01  0.50528870419E+02  0.30000032124E+02 0.  0.
         12    1    1    2    0    0  0.20403942743E+02  0.35110993449E+02 -0.20154597183E+01  0.40659129581E+02  0.00000000000E+00 0. -1.
         11    1    3    3    0    0 -0.49182915797E+01 -0.85178228818E+00  0.67859764898E+01  0.84240490449E+01  0.51100000000E-03 0. -1.
        -11    1    3    3    0    0 -0.15581604866E+02 -0.20385948467E+02 -0.96276396703E+01  0.27405560585E+02  0.51100000000E-03 0.  1.
        -12    1    3    3    0    0  0.95953702443E-01 -0.13873262693E+02  0.48571228988E+01  0.14699260788E+02  0.00000000000E+00 0.  1.
</event>
<event>
 7    1  0.5897985E-013  0.5052886E+02  0.7816164E-02  0.1300439E+00
        -11   -1    0    0    0    0  0.00000000000E+00  0.00000000000E+00  0.45593999997E+02  0.45594000000E+02  0.51100000000E-03 0.  1.
         11   -1    0    0    0    0 -0.00000000000E+00 -0.00000000000E+00 -0.45593999997E+02  0.45594000000E+02  0.51100000000E-03 0. -1.
    9900012    2    1    2    0    0 -0.36218560636E+02 -0.11520541894E+02  0.14445010573E+02  0.50528863874E+02  0.30000012230E+02 0.  0.
         12    1    1    2    0    0  0.36218560636E+02  0.11520541894E+02 -0.14445010573E+02  0.40659136126E+02  0.00000000000E+00 0. -1.
         11    1    3    3    0    0  0.32630207606E+01 -0.41848415125E+00 -0.64661835912E+00  0.33526928032E+01  0.51100000000E-03 0. -1.
        -11    1    3    3    0    0 -0.28261355304E+02 -0.46215763951E+01  0.18095989255E+02  0.33875182647E+02  0.51100000000E-03 0.  1.
        -12    1    3    3    0    0 -0.11220226093E+02 -0.64804813476E+01 -0.30043603236E+01  0.13300988423E+02  0.00000000000E+00 0.  1.
</event>
<event>
 7    1  0.5897985E-013  0.5052885E+02  0.7816164E-02  0.1300439E+00
        -11   -1    0    0    0    0  0.00000000000E+00  0.00000000000E+00  0.45593999997E+02  0.45594000000E+02  0.51100000000E-03 0.  1.
         11   -1    0    0    0    0 -0.00000000000E+00 -0.00000000000E+00 -0.45593999997E+02  0.45594000000E+02  0.51100000000E-03 0. -1.
    9900012    2    1    2    0    0  0.31505120290E+02  0.25690369006E+02 -0.77374207285E+00  0.50528851694E+02  0.29999975210E+02 0.  0.
         12    1    1    2    0    0 -0.31505120290E+02 -0.25690369006E+02  0.77374207285E+00  0.40659148306E+02  0.00000000000E+00 0. -1.
         11    1    3    3    0    0  0.48997067927E+01 -0.18316969159E+01 -0.81259766886E+01  0.96640435456E+01  0.51100000000E-03 0. -1.
        -11    1    3    3    0    0  0.18333051839E+02  0.23236604946E+02  0.98938686350E+01  0.31207839336E+02  0.51100000000E-03 0.  1.
        -12    1    3    3    0    0  0.82723616577E+01  0.42854609756E+01 -0.25416340193E+01  0.96569688131E+01  0.00000000000E+00 0.  1.
</event>
<event>
 7    1  0.5897985E-013  0.5052886E+02  0.7816164E-02  0.1300439E+00
        -11   -1    0    0    0    0  0.00000000000E+00  0.00000000000E+00  0.45593999997E+02  0.45594000000E+02  0.51100000000E-03 0.  1.
         11   -1    0    0    0    0 -0.00000000000E+00 -0.00000000000E+00 -0.45593999997E+02  0.45594000000E+02  0.51100000000E-03 0. -1.
    9900012    2    1    2    0    0 -0.69458341697E+01  0.39664987023E+02 -0.56222532691E+01  0.50528861547E+02  0.30000005160E+02 0.  0.
         12    1    1    2    0    0  0.69458341697E+01 -0.39664987023E+02  0.56222532691E+01  0.40659138453E+02  0.00000000000E+00 0. -1.
         11    1    3    3    0    0 -0.11911222953E+02  0.13606662986E+02 -0.93122051377E+01  0.20340493471E+02  0.51100000000E-03 0. -1.
        -11    1    3    3    0    0  0.32232961530E+01  0.33430006937E+01  0.56600662492E+01  0.73213142218E+01  0.51100000000E-03 0.  1.
        -12    1    3    3    0    0  0.17420926299E+01  0.22715323343E+02 -0.19701143805E+01  0.22867053855E+02  0.00000000000E+00 0.  1.
</event>
<event>
 7    1  0.5897985E-013  0.5052885E+02  0.7816164E-02  0.1300439E+00
        -11   -1    0    0    0    0  0.00000000000E+00  0.00000000000E+00  0.45593999997E+02  0.45594000000E+02  0.51100000000E-03 0. -1.
         11   -1    0    0    0    0 -0.00000000000E+00 -0.00000000000E+00 -0.45593999997E+02  0.45594000000E+02  0.51100000000E-03 0.  1.
    9900012    2    1    2    0    0 -0.94375303006E+01 -0.36619911521E+02 -0.14935906103E+02  0.50528853562E+02  0.29999980887E+02 0.  0.
         12    1    1    2    0    0  0.94375303006E+01  0.36619911521E+02  0.14935906103E+02  0.40659146438E+02  0.00000000000E+00 0. -1.
         11    1    3    3    0    0  0.35045414930E+01 -0.82767918296E+01 -0.15174270765E+02  0.17636484558E+02  0.51100000000E-03 0. -1.
        -11    1    3    3    0    0 -0.12531503460E+02 -0.24488212042E+02 -0.32213541116E+01  0.27696357713E+02  0.51100000000E-03 0.  1.
         12    1    3    3    0    0 -0.41056833374E+00 -0.38549076493E+01  0.34597187741E+01  0.51960112911E+01  0.00000000000E+00 0. -1.
</event>
<event>
 7    1  0.5897985E-013  0.5052886E+02  0.7816164E-02  0.1300439E+00
        -11   -1    0    0    0    0  0.00000000000E+00  0.00000000000E+00  0.45593999997E+02  0.45594000000E+02  0.51100000000E-03 0.  1.
         11   -1    0    0    0    0 -0.00000000000E+00 -0.00000000000E+00 -0.45593999997E+02  0.45594000000E+02  0.51100000000E-03 0. -1.
    9900012    2    1    2    0    0  0.23705927542E+02 -0.32797400484E+02  0.39402305142E+01  0.50528857171E+02  0.29999991856E+02 0.  0.
         12    1    1    2    0    0 -0.23705927542E+02  0.32797400484E+02 -0.39402305142E+01  0.40659142829E+02  0.00000000000E+00 0. -1.
         11    1    3    3    0    0  0.22528093517E+02 -0.20553923174E+02 -0.57394622968E+01  0.31030955240E+02  0.51100000000E-03 0. -1.
        -11    1    3    3    0    0  0.33878208945E+01 -0.96815811171E+01  0.11698136155E+02  0.15558172550E+02  0.51100000000E-03 0.  1.
         12    1    3    3    0    0 -0.22099868696E+01 -0.25618961923E+01 -0.20184433436E+01  0.39397293810E+01  0.00000000000E+00 0. -1.
</event>
<event>
 7    1  0.5897985E-013  0.5052886E+02  0.7816164E-02  0.1300439E+00
        -11   -1    0    0    0    0  0.00000000000E+00  0.00000000000E+00  0.45593999997E+02  0.45594000000E+02  0.51100000000E-03 0.  1.
         11   -1    0    0    0    0 -0.00000000000E+00 -0.00000000000E+00 -0.45593999997E+02  0.45594000000E+02  0.51100000000E-03 0. -1.
    9900012    2    1    2    0    0  0.27526088515E+02 -0.22494729385E+02  0.19734934870E+02  0.50528855231E+02  0.29999985959E+02 0.  0.
         12    1    1    2    0    0 -0.27526088515E+02  0.22494729385E+02 -0.19734934870E+02  0.40659144769E+02  0.00000000000E+00 0. -1.
         11    1    3    3    0    0 -0.38443185969E+01 -0.31671157260E+01 -0.29096316677E+01  0.57684802330E+01  0.51100000000E-03 0. -1.
        -11    1    3    3    0    0  0.22780235998E+02 -0.74884635503E+01  0.13792714258E+02  0.27663246471E+02  0.51100000000E-03 0.  1.
        -12    1    3    3    0    0  0.85901711146E+01 -0.11839150109E+02  0.88518522792E+01  0.17097128527E+02  0.00000000000E+00 0.  1.
</event>
<event>
 7    1  0.5897985E-013  0.5052880E+02  0.7816164E-02  0.1300439E+00
        -11   -1    0    0    0    0  0.00000000000E+00  0.00000000000E+00  0.45593999997E+02  0.45594000000E+02  0.51100000000E-03 0. -1.
         11   -1    0    0    0    0 -0.00000000000E+00 -0.00000000000E+00 -0.45593999997E+02  0.45594000000E+02  0.51100000000E-03 0.  1.
    9900012    2    1    2    0    0 -0.11114637308E+01 -0.32868776312E+02 -0.23907706027E+02  0.50528804049E+02  0.29999830387E+02 0.  0.
         12    1    1    2    0    0  0.11114637308E+01  0.32868776312E+02  0.23907706027E+02  0.40659195951E+02  0.00000000000E+00 0. -1.
         11    1    3    3    0    0  0.29353609581E+01  0.59275910060E+00  0.43590539842E+00  0.30261726791E+01  0.51100000000E-03 0. -1.
        -11    1    3    3    0    0 -0.11676643536E+02 -0.29028894915E+02 -0.22362236358E+02  0.38458943816E+02  0.51100000000E-03 0.  1.
        -12    1    3    3    0    0  0.76298188469E+01 -0.44326404985E+01 -0.19813750674E+01  0.90436875545E+01  0.00000000000E+00 0.  1.
</event>
<event>
 7    1  0.5897985E-013  0.5052887E+02  0.7816164E-02  0.1300439E+00
        -11   -1    0    0    0    0  0.00000000000E+00  0.00000000000E+00  0.45593999997E+02  0.45594000000E+02  0.51100000000E-03 0.  1.
         11   -1    0    0    0    0 -0.00000000000E+00 -0.00000000000E+00 -0.45593999997E+02  0.45594000000E+02  0.51100000000E-03 0. -1.
    9900012    2    1    2    0    0  0.31418689239E+02 -0.23949326070E+02  0.96156497329E+01  0.50528868523E+02  0.30000026362E+02 0.  0.
         12    1    1    2    0    0 -0.31418689239E+02  0.23949326070E+02 -0.96156497329E+01  0.40659131477E+02  0.00000000000E+00 0. -1.
         11    1    3    3    0    0  0.16287329502E+02 -0.12614786622E+02 -0.98035629002E+01  0.22814902797E+02  0.51100000000E-03 0. -1.
        -11    1    3    3    0    0  0.11245053586E+02 -0.64404947709E+01  0.98180791244E+01  0.16258102011E+02  0.51100000000E-03 0.  1.
         12    1    3    3    0    0  0.38863061499E+01 -0.48940446777E+01  0.96011335087E+01  0.11455863715E+02  0.00000000000E+00 0. -1.
</event>
<event>
 7    1  0.5897985E-013  0.5052886E+02  0.7816164E-02  0.1300439E+00
        -11   -1    0    0    0    0  0.00000000000E+00  0.00000000000E+00  0.45593999997E+02  0.45594000000E+02  0.51100000000E-03 0.  1.
         11   -1    0    0    0    0 -0.00000000000E+00 -0.00000000000E+00 -0.45593999997E+02  0.45594000000E+02  0.51100000000E-03 0. -1.
    9900012    2    1    2    0    0  0.36344706617E+02 -0.17637137617E+02 -0.45999108269E+01  0.50528862011E+02  0.30000006570E+02 0.  0.
         12    1    1    2    0    0 -0.36344706617E+02  0.17637137617E+02  0.45999108269E+01  0.40659137989E+02  0.00000000000E+00 0. -1.
         11    1    3    3    0    0  0.80437219025E+01  0.56782141741E+01 -0.29759204509E+01  0.10285897192E+02  0.51100000000E-03 0. -1.
        -11    1    3    3    0    0  0.27826326701E+02 -0.16331153568E+02  0.20638901119E+01  0.32330646099E+02  0.51100000000E-03 0.  1.
         12    1    3    3    0    0  0.47465801337E+00 -0.69841982224E+01 -0.36878804879E+01  0.79123187203E+01  0.00000000000E+00 0. -1.
</event>
<event>
 7    1  0.5897985E-013  0.5052887E+02  0.7816164E-02  0.1300439E+00
        -11   -1    0    0    0    0  0.00000000000E+00  0.00000000000E+00  0.45593999997E+02  0.45594000000E+02  0.51100000000E-03 0.  1.
         11   -1    0    0    0    0 -0.00000000000E+00 -0.00000000000E+00 -0.45593999997E+02  0.45594000000E+02  0.51100000000E-03 0. -1.
    9900012    2    1    2    0    0  0.11914776732E+02  0.38710934675E+02 -0.35590046582E+01  0.50528869634E+02  0.30000029739E+02 0.  0.
         12    1    1    2    0    0 -0.11914776732E+02 -0.38710934675E+02  0.35590046582E+01  0.40659130366E+02  0.00000000000E+00 0. -1.
         11    1    3    3    0    0 -0.24119395647E+01 -0.36419859397E+01 -0.28340418571E+01  0.52070440326E+01  0.51100000000E-03 0. -1.
        -11    1    3    3    0    0  0.33159043765E+01  0.18245105279E+02 -0.27252103588E+01  0.18743155023E+02  0.51100000000E-03 0.  1.
         12    1    3    3    0    0  0.11010811920E+02  0.24107815336E+02  0.20002475577E+01  0.26578670578E+02  0.00000000000E+00 0. -1.
</event>
<event>
 7    1  0.5897985E-013  0.5052886E+02  0.7816164E-02  0.1300439E+00
        -11   -1    0    0    0    0  0.00000000000E+00  0.00000000000E+00  0.45593999997E+02  0.45594000000E+02  0.51100000000E-03 0. -1.
         11   -1    0    0    0    0 -0.00000000000E+00 -0.00000000000E+00 -0.45593999997E+02  0.45594000000E+02  0.51100000000E-03 0.  1.
    9900012    2    1    2    0    0  0.78398937738E+01 -0.22009395920E+02 -0.33275942369E+02  0.50528858547E+02  0.29999996040E+02 0.  0.
         12    1    1    2    0    0 -0.78398937738E+01  0.22009395920E+02  0.33275942369E+02  0.40659141453E+02  0.00000000000E+00 0. -1.
         11    1    3    3    0    0  0.19440428236E+01  0.28960993542E+00 -0.23616163106E+02  0.23697812906E+02  0.51100000000E-03 0. -1.
        -11    1    3    3    0    0  0.69230253026E+00 -0.78272174099E+01 -0.82411493091E+01  0.11386885323E+02  0.51100000000E-03 0.  1.
         12    1    3    3    0    0  0.52035484199E+01 -0.14471788445E+02 -0.14186299540E+01  0.15444160318E+02  0.00000000000E+00 0. -1.
</event>
<event>
 7    1  0.5897985E-013  0.5052886E+02  0.7816164E-02  0.1300439E+00
        -11   -1    0    0    0    0  0.00000000000E+00  0.00000000000E+00  0.45593999997E+02  0.45594000000E+02  0.51100000000E-03 0. -1.
         11   -1    0    0    0    0 -0.00000000000E+00 -0.00000000000E+00 -0.45593999997E+02  0.45594000000E+02  0.51100000000E-03 0.  1.
    9900012    2    1    2    0    0  0.29257077645E+02 -0.81927756137E+00 -0.28222644241E+02  0.50528862577E+02  0.30000008290E+02 0.  0.
         12    1    1    2    0    0 -0.29257077645E+02  0.81927756137E+00  0.28222644241E+02  0.40659137423E+02  0.00000000000E+00 0. -1.
         11    1    3    3    0    0  0.68902873334E+01  0.44882387791E+01 -0.28384480466E+01  0.86992605691E+01  0.51100000000E-03 0. -1.
        -11    1    3    3    0    0  0.17911227205E+02 -0.13930064167E+02 -0.21849933159E+02  0.31500449632E+02  0.51100000000E-03 0.  1.
        -12    1    3    3    0    0  0.44555631059E+01  0.86225478266E+01 -0.35342630349E+01  0.10329152376E+02  0.00000000000E+00 0.  1.
</event>
<event>
 7    1  0.5897985E-013  0.5052886E+02  0.7816164E-02  0.1300439E+00
        -11   -1    0    0    0    0  0.00000000000E+00  0.00000000000E+00  0.45593999997E+02  0.45594000000E+02  0.51100000000E-03 0. -1.
         11   -1    0    0    0    0 -0.00000000000E+00 -0.00000000000E+00 -0.45593999997E+02  0.45594000000E+02  0.51100000000E-03 0.  1.
    9900012    2    1    2    0    0 -0.39265704961E+02 -0.10388973251E+02  0.18544676765E+01  0.50528863245E+02  0.30000010321E+02 0.  0.
         12    1    1    2    0    0  0.39265704961E+02  0.10388973251E+02 -0.18544676765E+01  0.40659136755E+02  0.00000000000E+00 0. -1.
         11    1    3    3    0    0 -0.23193991502E+02 -0.10070818430E+02 -0.91276343848E+01  0.26883012022E+02  0.51100000000E-03 0. -1.
        -11    1    3    3    0    0 -0.58054886074E+01  0.63967389168E+01  0.38660433093E+01  0.94640508172E+01  0.51100000000E-03 0.  1.
         12    1    3    3    0    0 -0.10266224851E+02 -0.67148937381E+01  0.71160587519E+01  0.14181800406E+02  0.00000000000E+00 0. -1.
</event>
<event>
 7    1  0.5897985E-013  0.5052886E+02  0.7816164E-02  0.1300439E+00
        -11   -1    0    0    0    0  0.00000000000E+00  0.00000000000E+00  0.45593999997E+02  0.45594000000E+02  0.51100000000E-03 0.  1.
         11   -1    0    0    0    0 -0.00000000000E+00 -0.00000000000E+00 -0.45593999997E+02  0.45594000000E+02  0.51100000000E-03 0. -1.
    9900012    2    1    2    0    0  0.31462215887E+01 -0.20572262484E+02  0.34929194011E+02  0.50528864639E+02  0.30000014558E+02 0.  0.
         12    1    1    2    0    0 -0.31462215887E+01  0.20572262484E+02 -0.34929194011E+02  0.40659135361E+02  0.00000000000E+00 0. -1.
         11    1    3    3    0    0 -0.50682542022E+01 -0.46695042584E+01  0.58904474578E+01  0.90658062074E+01  0.51100000000E-03 0. -1.
        -11    1    3    3    0    0  0.96400573078E+01  0.18954186822E+01  0.37713264798E+01  0.10523603022E+02  0.51100000000E-03 0.  1.
        -12    1    3    3    0    0 -0.14255815170E+01 -0.17798176908E+02  0.25267420074E+02  0.30939455410E+02  0.00000000000E+00 0.  1.
</event>
<event>
 7    1  0.5897985E-013  0.5052886E+02  0.7816164E-02  0.1300439E+00
        -11   -1    0    0    0    0  0.00000000000E+00  0.00000000000E+00  0.45593999997E+02  0.45594000000E+02  0.51100000000E-03 0.  1.
         11   -1    0    0    0    0 -0.00000000000E+00 -0.00000000000E+00 -0.45593999997E+02  0.45594000000E+02  0.51100000000E-03 0. -1.
    9900012    2    1    2    0    0  0.10188951344E+02 -0.69331373403E+01  0.38746389529E+02  0.50528858047E+02  0.29999994518E+02 0.  0.
         12    1    1    2    0    0 -0.10188951344E+02  0.69331373403E+01 -0.38746389529E+02  0.40659141953E+02  0.00000000000E+00 0. -1.
         11    1    3    3    0    0 -0.11349703124E+01 -0.11662734751E+02  0.53429896981E+01  0.12878473460E+02  0.51100000000E-03 0. -1.
        -11    1    3    3    0    0  0.67502159095E+01 -0.26253903119E+01  0.23000688754E+02  0.24114099041E+02  0.51100000000E-03 0.  1.
         12    1    3    3    0    0  0.45737057473E+01  0.73549877221E+01  0.10402711076E+02  0.13536285546E+02  0.00000000000E+00 0. -1.
</event>
<event>
 7    1  0.5897985E-013  0.5052882E+02  0.7816164E-02  0.1300439E+00
        -11   -1    0    0    0    0  0.00000000000E+00  0.00000000000E+00  0.45593999997E+02  0.45594000000E+02  0.51100000000E-03 0. -1.
         11   -1    0    0    0    0 -0.00000000000E+00 -0.00000000000E+00 -0.45593999997E+02  0.45594000000E+02  0.51100000000E-03 0.  1.
    9900012    2    1    2    0    0 -0.21268133736E+02 -0.31363578500E+02 -0.14736388293E+02  0.50528822576E+02  0.29999886701E+02 0.  0.
         12    1    1    2    0    0  0.21268133736E+02  0.31363578500E+02  0.14736388293E+02  0.40659177424E+02  0.00000000000E+00 0. -1.
         11    1    3    3    0    0 -0.13765819739E+02 -0.20103388092E+01 -0.31197904155E+01  0.14257361176E+02  0.51100000000E-03 0. -1.
        -11    1    3    3    0    0 -0.51069028399E+01 -0.26058136617E+02 -0.29777849913E+01  0.26720294614E+02  0.51100000000E-03 0.  1.
        -12    1    3    3    0    0 -0.23954111570E+01 -0.32951030736E+01 -0.86388128859E+01  0.95511667849E+01  0.00000000000E+00 0.  1.
</event>
<event>
 7    1  0.5897985E-013  0.5052886E+02  0.7816164E-02  0.1300439E+00
        -11   -1    0    0    0    0  0.00000000000E+00  0.00000000000E+00  0.45593999997E+02  0.45594000000E+02  0.51100000000E-03 0.  1.
         11   -1    0    0    0    0 -0.00000000000E+00 -0.00000000000E+00 -0.45593999997E+02  0.45594000000E+02  0.51100000000E-03 0. -1.
    9900012    2    1    2    0    0  0.27567481539E+02 -0.24915316449E+02  0.16505346010E+02  0.50528862293E+02  0.30000007425E+02 0.  0.
         12    1    1    2    0    0 -0.27567481539E+02  0.24915316449E+02 -0.16505346010E+02  0.40659137707E+02  0.00000000000E+00 0. -1.
         11    1    3    3    0    0 -0.10563341153E+01 -0.96819164187E+00  0.79942608855E+01  0.81216651116E+01  0.51100000000E-03 0. -1.
        -11    1    3    3    0    0  0.13860886611E+02 -0.19879410597E+02 -0.12174142498E+01  0.24265144571E+02  0.51100000000E-03 0.  1.
        -12    1    3    3    0    0  0.14762929044E+02 -0.40677142106E+01  0.97284993739E+01  0.18142052611E+02  0.00000000000E+00 0.  1.
</event>
<event>
 7    1  0.5897985E-013  0.5052899E+02  0.7816164E-02  0.1300438E+00
        -11   -1    0    0    0    0  0.00000000000E+00  0.00000000000E+00  0.45593999997E+02  0.45594000000E+02  0.51100000000E-03 0. -1.
         11   -1    0    0    0    0 -0.00000000000E+00 -0.00000000000E+00 -0.45593999997E+02  0.45594000000E+02  0.51100000000E-03 0.  1.
    9900012    2    1    2    0    0 -0.12208856749E+02 -0.27082018563E+01 -0.38688045007E+02  0.50528986647E+02  0.30000385409E+02 0.  0.
         12    1    1    2    0    0  0.12208856749E+02  0.27082018563E+01  0.38688045007E+02  0.40659013353E+02  0.00000000000E+00 0. -1.
         11    1    3    3    0    0  0.43787141826E+01 -0.74358221378E+01 -0.27878763918E+01  0.90684532195E+01  0.51100000000E-03 0. -1.
        -11    1    3    3    0    0 -0.11677278047E+02  0.70751144089E+01 -0.31921240522E+02  0.34718606873E+02  0.51100000000E-03 0.  1.
        -12    1    3    3    0    0 -0.49102928850E+01 -0.23474941274E+01 -0.39789280930E+01  0.67419265543E+01  0.00000000000E+00 0.  1.
</event>
<event>
 7    1  0.5897985E-013  0.5052886E+02  0.7816164E-02  0.1300439E+00
        -11   -1    0    0    0    0  0.00000000000E+00  0.00000000000E+00  0.45593999997E+02  0.45594000000E+02  0.51100000000E-03 0. -1.
         11   -1    0    0    0    0 -0.00000000000E+00 -0.00000000000E+00 -0.45593999997E+02  0.45594000000E+02  0.51100000000E-03 0.  1.
    9900012    2    1    2    0    0  0.13684867277E+02  0.37729903702E+02  0.65072610749E+01  0.50528859915E+02  0.30000000199E+02 0.  0.
         12    1    1    2    0    0 -0.13684867277E+02 -0.37729903702E+02 -0.65072610749E+01  0.40659140085E+02  0.00000000000E+00 0. -1.
         11    1    3    3    0    0 -0.82964726564E+00 -0.10470350176E+01  0.77499608907E+01  0.78642540004E+01  0.51100000000E-03 0. -1.
        -11    1    3    3    0    0  0.11293819712E+02  0.34446340209E+02  0.21085943167E+01  0.36311800944E+02  0.51100000000E-03 0.  1.
         12    1    3    3    0    0  0.32206948303E+01  0.43305985098E+01 -0.33512941326E+01  0.63528049715E+01  0.00000000000E+00 0. -1.
</event>
<event>
 7    1  0.5897985E-013  0.5052887E+02  0.7816164E-02  0.1300439E+00
        -11   -1    0    0    0    0  0.00000000000E+00  0.00000000000E+00  0.45593999997E+02  0.45594000000E+02  0.51100000000E-03 0.  1.
         11   -1    0    0    0    0 -0.00000000000E+00 -0.00000000000E+00 -0.45593999997E+02  0.45594000000E+02  0.51100000000E-03 0. -1.
    9900012    2    1    2    0    0 -0.21351547216E+02  0.19997084128E+02  0.28238151860E+02  0.50528866184E+02  0.30000019254E+02 0.  0.
         12    1    1    2    0    0  0.21351547216E+02 -0.19997084128E+02 -0.28238151860E+02  0.40659133816E+02  0.00000000000E+00 0. -1.
         11    1    3    3    0    0  0.41376534894E+01  0.73163982836E+00 -0.20089771844E+01  0.46574094543E+01  0.51100000000E-03 0. -1.
        -11    1    3    3    0    0 -0.13231752838E+02  0.15709065278E+02  0.24221960653E+02  0.31757792638E+02  0.51100000000E-03 0.  1.
         12    1    3    3    0    0 -0.12257447867E+02  0.35563790223E+01  0.60251683914E+01  0.14113664092E+02  0.00000000000E+00 0. -1.
</event>
<event>
 7    1  0.5897985E-013  0.5052887E+02  0.7816164E-02  0.1300439E+00
        -11   -1    0    0    0    0  0.00000000000E+00  0.00000000000E+00  0.45593999997E+02  0.45594000000E+02  0.51100000000E-03 0.  1.
         11   -1    0    0    0    0 -0.00000000000E+00 -0.00000000000E+00 -0.45593999997E+02  0.45594000000E+02  0.51100000000E-03 0. -1.
    9900012    2    1    2    0    0  0.23633506989E+02  0.58387730383E+01  0.32565800067E+02  0.50528865022E+02  0.30000015720E+02 0.  0.
         12    1    1    2    0    0 -0.23633506989E+02 -0.58387730383E+01 -0.32565800067E+02  0.40659134978E+02  0.00000000000E+00 0. -1.
         11    1    3    3    0    0  0.18426506832E+02 -0.10363042436E+02  0.21833947175E+02  0.30391611541E+02  0.51100000000E-03 0. -1.
        -11    1    3    3    0    0  0.12055951880E+01  0.50128486691E+01  0.33208449044E+01  0.61327092444E+01  0.51100000000E-03 0.  1.
         12    1    3    3    0    0  0.40014049686E+01  0.11188966805E+02  0.74110079876E+01  0.14004544237E+02  0.00000000000E+00 0. -1.
</event>
<event>
 7    1  0.5897985E-013  0.5052886E+02  0.7816164E-02  0.1300439E+00
        -11   -1    0    0    0    0  0.00000000000E+00  0.00000000000E+00  0.45593999997E+02  0.45594000000E+02  0.51100000000E-03 0. -1.
         11   -1    0    0    0    0 -0.00000000000E+00 -0.00000000000E+00 -0.45593999997E+02  0.45594000000E+02  0.51100000000E-03 0.  1.
    9900012    2    1    2    0    0  0.23258384348E+02  0.23117483055E+01 -0.33269640984E+02  0.50528860389E+02  0.30000001638E+02 0.  0.
         12    1    1    2    0    0 -0.23258384348E+02 -0.23117483055E+01  0.33269640984E+02  0.40659139611E+02  0.00000000000E+00 0. -1.
         11    1    3    3    0    0  0.17420912146E+02 -0.35480034886E+01 -0.23758993070E+02  0.29674336736E+02  0.51100000000E-03 0.  1.
        -11    1    3    3    0    0  0.88793042323E+00  0.11197978098E+02 -0.50431824574E+01  0.12313278340E+02  0.51100000000E-03 0. -1.
        -12    1    3    3    0    0  0.49495417787E+01 -0.53382263038E+01 -0.44674654569E+01  0.85412453131E+01  0.00000000000E+00 0.  1.
</event>
<event>
 7    1  0.5897985E-013  0.5052887E+02  0.7816164E-02  0.1300439E+00
        -11   -1    0    0    0    0  0.00000000000E+00  0.00000000000E+00  0.45593999997E+02  0.45594000000E+02  0.51100000000E-03 0.  1.
         11   -1    0    0    0    0 -0.00000000000E+00 -0.00000000000E+00 -0.45593999997E+02  0.45594000000E+02  0.51100000000E-03 0. -1.
    9900012    2    1    2    0    0 -0.38063841342E+02 -0.91471497669E+01  0.10983561794E+02  0.50528868230E+02  0.30000025473E+02 0.  0.
         12    1    1    2    0    0  0.38063841342E+02  0.91471497669E+01 -0.10983561794E+02  0.40659131770E+02  0.00000000000E+00 0. -1.
         11    1    3    3    0    0 -0.76301982449E+01 -0.78003319699E+01 -0.62483568964E+01  0.12574063316E+02  0.51100000000E-03 0. -1.
        -11    1    3    3    0    0 -0.16134077558E+02  0.54381289468E+01  0.44164045874E+01  0.17589381309E+02  0.51100000000E-03 0.  1.
        -12    1    3    3    0    0 -0.14299565540E+02 -0.67849467438E+01  0.12815514103E+02  0.20365423606E+02  0.00000000000E+00 0.  1.
</event>
<event>
 7    1  0.5897985E-013  0.5052886E+02  0.7816164E-02  0.1300439E+00
        -11   -1    0    0    0    0  0.00000000000E+00  0.00000000000E+00  0.45593999997E+02  0.45594000000E+02  0.51100000000E-03 0.  1.
         11   -1    0    0    0    0 -0.00000000000E+00 -0.00000000000E+00 -0.45593999997E+02  0.45594000000E+02  0.51100000000E-03 0. -1.
    9900012    2    1    2    0    0  0.17784824385E+02 -0.42223797144E+01  0.36318553303E+02  0.50528858557E+02  0.29999996071E+02 0.  0.
         12    1    1    2    0    0 -0.17784824385E+02  0.42223797144E+01 -0.36318553303E+02  0.40659141443E+02  0.00000000000E+00 0. -1.
         11    1    3    3    0    0 -0.11768406454E+01  0.45135703748E+01 -0.16926880725E+01  0.49621028410E+01  0.51100000000E-03 0. -1.
        -11    1    3    3    0    0  0.15984096903E+02 -0.11695317905E+02  0.24998046613E+02  0.31893167755E+02  0.51100000000E-03 0.  1.
         12    1    3    3    0    0  0.29775681272E+01  0.29593678161E+01  0.13013194762E+02  0.13673587962E+02  0.00000000000E+00 0. -1.
</event>
<event>
 7    1  0.5897985E-013  0.5052885E+02  0.7816164E-02  0.1300439E+00
        -11   -1    0    0    0    0  0.00000000000E+00  0.00000000000E+00  0.45593999997E+02  0.45594000000E+02  0.51100000000E-03 0. -1.
         11   -1    0    0    0    0 -0.00000000000E+00 -0.00000000000E+00 -0.45593999997E+02  0.45594000000E+02  0.51100000000E-03 0.  1.
    9900012    2    1    2    0    0  0.32170933823E+02  0.26439541716E+00 -0.24862170136E+02  0.50528851068E+02  0.29999973307E+02 0.  0.
         12    1    1    2    0    0 -0.32170933823E+02 -0.26439541716E+00  0.24862170136E+02  0.40659148932E+02  0.00000000000E+00 0. -1.
         11    1    3    3    0    0  0.86544668205E+01  0.12050404977E+02 -0.17096353603E+02  0.22636195856E+02  0.51100000000E-03 0. -1.
        -11    1    3    3    0    0  0.11142669157E+02 -0.33550361680E+01 -0.18015430224E+01  0.11775436347E+02  0.51100000000E-03 0.  1.
         12    1    3    3    0    0  0.12373797846E+02 -0.84309733914E+01 -0.59642735098E+01  0.16117218865E+02  0.00000000000E+00 0. -1.
</event>
<event>
 7    1  0.5897985E-013  0.5052884E+02  0.7816164E-02  0.1300439E+00
        -11   -1    0    0    0    0  0.00000000000E+00  0.00000000000E+00  0.45593999997E+02  0.45594000000E+02  0.51100000000E-03 0. -1.
         11   -1    0    0    0    0 -0.00000000000E+00 -0.00000000000E+00 -0.45593999997E+02  0.45594000000E+02  0.51100000000E-03 0.  1.
    9900012    2    1    2    0    0  0.32780942762E+02  0.69966975373E+01 -0.23013537986E+02  0.50528844630E+02  0.29999953737E+02 0.  0.
         12    1    1    2    0    0 -0.32780942762E+02 -0.69966975373E+01  0.23013537986E+02  0.40659155370E+02  0.00000000000E+00 0. -1.
         11    1    3    3    0    0 -0.43290504405E+01  0.39206802578E+01 -0.60035071021E+01  0.83758288656E+01  0.51100000000E-03 0.  1.
        -11    1    3    3    0    0  0.22731479887E+02 -0.26538201868E+01 -0.80022822286E+01  0.24244575900E+02  0.51100000000E-03 0. -1.
         12    1    3    3    0    0  0.14378513315E+02  0.57298374663E+01 -0.90077486553E+01  0.17908439864E+02  0.00000000000E+00 0. -1.
</event>
<event>
 7    1  0.5897985E-013  0.5052886E+02  0.7816164E-02  0.1300439E+00
        -11   -1    0    0    0    0  0.00000000000E+00  0.00000000000E+00  0.45593999997E+02  0.45594000000E+02  0.51100000000E-03 0.  1.
         11   -1    0    0    0    0 -0.00000000000E+00 -0.00000000000E+00 -0.45593999997E+02  0.45594000000E+02  0.51100000000E-03 0. -1.
    9900012    2    1    2    0    0 -0.10299334016E+02  0.33736171779E+02  0.20222757240E+02  0.50528862308E+02  0.30000007472E+02 0.  0.
         12    1    1    2    0    0  0.10299334016E+02 -0.33736171779E+02 -0.20222757240E+02  0.40659137692E+02  0.00000000000E+00 0. -1.
         11    1    3    3    0    0 -0.53809362198E+01 -0.77102968957E+00 -0.32639858585E+01  0.63405492924E+01  0.51100000000E-03 0. -1.
        -11    1    3    3    0    0 -0.69069822000E+01  0.31864157319E+02  0.16685931574E+02  0.36625827466E+02  0.51100000000E-03 0.  1.
        -12    1    3    3    0    0  0.19885844039E+01  0.26430441490E+01  0.68008115241E+01  0.75624855498E+01  0.00000000000E+00 0.  1.
</event>
<event>
 7    1  0.5897985E-013  0.5052886E+02  0.7816164E-02  0.1300439E+00
        -11   -1    0    0    0    0  0.00000000000E+00  0.00000000000E+00  0.45593999997E+02  0.45594000000E+02  0.51100000000E-03 0. -1.
         11   -1    0    0    0    0 -0.00000000000E+00 -0.00000000000E+00 -0.45593999997E+02  0.45594000000E+02  0.51100000000E-03 0.  1.
    9900012    2    1    2    0    0  0.29173451356E+02 -0.83986747653E+01 -0.27046950269E+02  0.50528861782E+02  0.30000005871E+02 0.  0.
         12    1    1    2    0    0 -0.29173451356E+02  0.83986747653E+01  0.27046950269E+02  0.40659138218E+02  0.00000000000E+00 0. -1.
         11    1    3    3    0    0  0.10002449468E+01 -0.28969646992E+00  0.60448574750E+01  0.61338989356E+01  0.51100000000E-03 0. -1.
        -11    1    3    3    0    0  0.19347806460E+02 -0.38768453632E+01 -0.23575350758E+02  0.30743531164E+02  0.51100000000E-03 0.  1.
         12    1    3    3    0    0  0.88253999497E+01 -0.42321329322E+01 -0.95164569852E+01  0.13651431682E+02  0.00000000000E+00 0. -1.
</event>
<event>
 7    1  0.5897985E-013  0.5052886E+02  0.7816164E-02  0.1300439E+00
        -11   -1    0    0    0    0  0.00000000000E+00  0.00000000000E+00  0.45593999997E+02  0.45594000000E+02  0.51100000000E-03 0. -1.
         11   -1    0    0    0    0 -0.00000000000E+00 -0.00000000000E+00 -0.45593999997E+02  0.45594000000E+02  0.51100000000E-03 0.  1.
    9900012    2    1    2    0    0 -0.19820673499E+02 -0.20121567050E+02 -0.29247719716E+02  0.50528859981E+02  0.30000000398E+02 0.  0.
         12    1    1    2    0    0  0.19820673499E+02  0.20121567050E+02  0.29247719716E+02  0.40659140019E+02  0.00000000000E+00 0. -1.
         11    1    3    3    0    0 -0.27674389046E+01  0.68609954792E+01 -0.60191820637E+01  0.95374278521E+01  0.51100000000E-03 0. -1.
        -11    1    3    3    0    0 -0.18464694761E+02 -0.22826831775E+02 -0.19654757289E+02  0.35331553685E+02  0.51100000000E-03 0.  1.
        -12    1    3    3    0    0  0.14114601671E+01 -0.41557307546E+01 -0.35737803639E+01  0.56598784437E+01  0.00000000000E+00 0.  1.
</event>
<event>
 7    1  0.5897985E-013  0.5052883E+02  0.7816164E-02  0.1300439E+00
        -11   -1    0    0    0    0  0.00000000000E+00  0.00000000000E+00  0.45593999997E+02  0.45594000000E+02  0.51100000000E-03 0.  1.
         11   -1    0    0    0    0 -0.00000000000E+00 -0.00000000000E+00 -0.45593999997E+02  0.45594000000E+02  0.51100000000E-03 0. -1.
    9900012    2    1    2    0    0 -0.18299581035E+02 -0.34931211326E+02 -0.99047263587E+01  0.50528833813E+02  0.29999920859E+02 0.  0.
         12    1    1    2    0    0  0.18299581035E+02  0.34931211326E+02  0.99047263587E+01  0.40659166187E+02  0.00000000000E+00 0. -1.
         11    1    3    3    0    0 -0.27742448954E+01 -0.18634943072E+02 -0.98685406179E+01  0.21268418658E+02  0.51100000000E-03 0. -1.
        -11    1    3    3    0    0 -0.12749268625E+02 -0.23084864016E+01 -0.53831355416E+01  0.14030363803E+02  0.51100000000E-03 0.  1.
        -12    1    3    3    0    0 -0.27760675147E+01 -0.13987781853E+02  0.53469498008E+01  0.15230051352E+02  0.00000000000E+00 0.  1.
</event>
<event>
 7    1  0.5897985E-013  0.5052886E+02  0.7816164E-02  0.1300439E+00
        -11   -1    0    0    0    0  0.00000000000E+00  0.00000000000E+00  0.45593999997E+02  0.45594000000E+02  0.51100000000E-03 0. -1.
         11   -1    0    0    0    0 -0.00000000000E+00 -0.00000000000E+00 -0.45593999997E+02  0.45594000000E+02  0.51100000000E-03 0.  1.
    9900012    2    1    2    0    0  0.30188011958E+01  0.16633637268E+02 -0.36978025113E+02  0.50528863380E+02  0.30000010730E+02 0.  0.
         12    1    1    2    0    0 -0.30188011958E+01 -0.16633637268E+02  0.36978025113E+02  0.40659136620E+02  0.00000000000E+00 0. -1.
         11    1    3    3    0    0  0.35178171342E+01 -0.49216471368E+01  0.10405280240E+01  0.61384319462E+01  0.51100000000E-03 0. -1.
        -11    1    3    3    0    0 -0.23337334200E+01  0.76862712889E+01 -0.83369641463E+01  0.11577134768E+02  0.51100000000E-03 0.  1.
         12    1    3    3    0    0  0.18347174816E+01  0.13869013116E+02 -0.29681588991E+02  0.32813296666E+02  0.00000000000E+00 0. -1.
</event>
<event>
 7    1  0.5897985E-013  0.5052896E+02  0.7816164E-02  0.1300438E+00
        -11   -1    0    0    0    0  0.00000000000E+00  0.00000000000E+00  0.45593999997E+02  0.45594000000E+02  0.51100000000E-03 0.  1.
         11   -1    0    0    0    0 -0.00000000000E+00 -0.00000000000E+00 -0.45593999997E+02  0.45594000000E+02  0.51100000000E-03 0. -1.
    9900012    2    1    2    0    0 -0.34378290395E+02 -0.87483549914E+01  0.19868498701E+02  0.50528956649E+02  0.30000294229E+02 0.  0.
         12    1    1    2    0    0  0.34378290395E+02  0.87483549914E+01 -0.19868498701E+02  0.40659043351E+02  0.00000000000E+00 0. -1.
         11    1    3    3    0    0 -0.55234514471E+01 -0.13608885672E+02  0.25601419813E+01  0.14908541590E+02  0.51100000000E-03 0. -1.
        -11    1    3    3    0    0 -0.15450641310E+02  0.11241653547E+01  0.14908110265E+02  0.21499716663E+02  0.51100000000E-03 0.  1.
         12    1    3    3    0    0 -0.13404197638E+02  0.37363653256E+01  0.24002464551E+01  0.14120698396E+02  0.00000000000E+00 0. -1.
</event>
<event>
 7    1  0.5897985E-013  0.5052886E+02  0.7816164E-02  0.1300439E+00
        -11   -1    0    0    0    0  0.00000000000E+00  0.00000000000E+00  0.45593999997E+02  0.45594000000E+02  0.51100000000E-03 0. -1.
         11   -1    0    0    0    0 -0.00000000000E+00 -0.00000000000E+00 -0.45593999997E+02  0.45594000000E+02  0.51100000000E-03 0.  1.
    9900012    2    1    2    0    0  0.30087203192E+02 -0.14766539816E+02 -0.23019025096E+02  0.50528855759E+02  0.29999987565E+02 0.  0.
         12    1    1    2    0    0 -0.30087203192E+02  0.14766539816E+02  0.23019025096E+02  0.40659144241E+02  0.00000000000E+00 0. -1.
         11    1    3    3    0    0  0.13638276831E+02 -0.81489502597E+01  0.20142473615E+01  0.16014530213E+02  0.51100000000E-03 0. -1.
        -11    1    3    3    0    0  0.17921194751E+02 -0.87741058808E+01 -0.17497418141E+02  0.26538911002E+02  0.51100000000E-03 0.  1.
         12    1    3    3    0    0 -0.14722683898E+01  0.21565163244E+01 -0.75358543167E+01  0.79754145442E+01  0.00000000000E+00 0. -1.
</event>
<event>
 7    1  0.5897985E-013  0.5052887E+02  0.7816164E-02  0.1300439E+00
        -11   -1    0    0    0    0  0.00000000000E+00  0.00000000000E+00  0.45593999997E+02  0.45594000000E+02  0.51100000000E-03 0. -1.
         11   -1    0    0    0    0 -0.00000000000E+00 -0.00000000000E+00 -0.45593999997E+02  0.45594000000E+02  0.51100000000E-03 0.  1.
    9900012    2    1    2    0    0  0.21828434368E+02 -0.33563686207E+02 -0.70826014681E+01  0.50528870369E+02  0.30000031974E+02 0.  0.
         12    1    1    2    0    0 -0.21828434368E+02  0.33563686207E+02  0.70826014681E+01  0.40659129631E+02  0.00000000000E+00 0. -1.
         11    1    3    3    0    0  0.16692666156E+02 -0.13387729028E+02  0.54858472039E+01  0.22090063642E+02  0.51100000000E-03 0. -1.
        -11    1    3    3    0    0  0.45059467817E+01 -0.21220269459E+02 -0.70845125690E+01  0.22820905130E+02  0.51100000000E-03 0.  1.
         12    1    3    3    0    0  0.62982143087E+00  0.10443122803E+01 -0.54839361029E+01  0.56179015971E+01  0.00000000000E+00 0. -1.
</event>
<event>
 7    1  0.5897985E-013  0.5052886E+02  0.7816164E-02  0.1300439E+00
        -11   -1    0    0    0    0  0.00000000000E+00  0.00000000000E+00  0.45593999997E+02  0.45594000000E+02  0.51100000000E-03 0. -1.
         11   -1    0    0    0    0 -0.00000000000E+00 -0.00000000000E+00 -0.45593999997E+02  0.45594000000E+02  0.51100000000E-03 0.  1.
    9900012    2    1    2    0    0  0.95235796118E+00  0.39721811673E+02 -0.86276557669E+01  0.50528858933E+02  0.29999997214E+02 0.  0.
         12    1    1    2    0    0 -0.95235796118E+00 -0.39721811673E+02  0.86276557669E+01  0.40659141067E+02  0.00000000000E+00 0. -1.
         11    1    3    3    0    0  0.71471058833E+01  0.90162734386E+01  0.66733029242E+01  0.13300649661E+02  0.51100000000E-03 0. -1.
        -11    1    3    3    0    0 -0.85113487684E+01  0.10128340359E+02 -0.57922741321E+01  0.14442187375E+02  0.51100000000E-03 0.  1.
        -12    1    3    3    0    0  0.23166008462E+01  0.20577197875E+02 -0.95086845590E+01  0.22786021898E+02  0.00000000000E+00 0.  1.
</event>
<event>
 7    1  0.5897985E-013  0.5052886E+02  0.7816164E-02  0.1300439E+00
        -11   -1    0    0    0    0  0.00000000000E+00  0.00000000000E+00  0.45593999997E+02  0.45594000000E+02  0.51100000000E-03 0.  1.
         11   -1    0    0    0    0 -0.00000000000E+00 -0.00000000000E+00 -0.45593999997E+02  0.45594000000E+02  0.51100000000E-03 0. -1.
    9900012    2    1    2    0    0 -0.94036886120E+01 -0.12163768400E+02  0.37640126901E+02  0.50528858662E+02  0.29999996390E+02 0.  0.
         12    1    1    2    0    0  0.94036886120E+01  0.12163768400E+02 -0.37640126901E+02  0.40659141338E+02  0.00000000000E+00 0. -1.
         11    1    3    3    0    0 -0.12194922907E+02 -0.46385092846E+01  0.13597657061E+02  0.18844845208E+02  0.51100000000E-03 0. -1.
        -11    1    3    3    0    0  0.84525533589E+01 -0.62737998795E+00  0.32858068564E+01  0.90904230315E+01  0.51100000000E-03 0.  1.
        -12    1    3    3    0    0 -0.56613190642E+01 -0.68978791275E+01  0.20756662983E+02  0.22593590423E+02  0.00000000000E+00 0.  1.
</event>
<event>
 7    1  0.5897985E-013  0.5052886E+02  0.7816164E-02  0.1300439E+00
        -11   -1    0    0    0    0  0.00000000000E+00  0.00000000000E+00  0.45593999997E+02  0.45594000000E+02  0.51100000000E-03 0.  1.
         11   -1    0    0    0    0 -0.00000000000E+00 -0.00000000000E+00 -0.45593999997E+02  0.45594000000E+02  0.51100000000E-03 0. -1.
    9900012    2    1    2    0    0 -0.36987851957E+02 -0.16883234685E+02 -0.14450004466E+00  0.50528859748E+02  0.29999999689E+02 0.  0.
         12    1    1    2    0    0  0.36987851957E+02  0.16883234685E+02  0.14450004466E+00  0.40659140252E+02  0.00000000000E+00 0. -1.
         11    1    3    3    0    0  0.36835046864E+01 -0.34039053243E+01  0.79999623952E+00  0.50788554297E+01  0.51100000000E-03 0. -1.
        -11    1    3    3    0    0 -0.39022043766E+02 -0.14812094018E+02 -0.37797741040E+01  0.41909482476E+02  0.51100000000E-03 0.  1.
        -12    1    3    3    0    0 -0.16493128775E+01  0.13327646571E+01  0.28352778199E+01  0.35405218422E+01  0.00000000000E+00 0.  1.
</event>
<event>
 7    1  0.5897985E-013  0.5052886E+02  0.7816164E-02  0.1300439E+00
        -11   -1    0    0    0    0  0.00000000000E+00  0.00000000000E+00  0.45593999997E+02  0.45594000000E+02  0.51100000000E-03 0. -1.
         11   -1    0    0    0    0 -0.00000000000E+00 -0.00000000000E+00 -0.45593999997E+02  0.45594000000E+02  0.51100000000E-03 0.  1.
    9900012    2    1    2    0    0  0.36609260689E+02  0.17049883121E+02  0.47147529259E+01  0.50528863538E+02  0.30000011212E+02 0.  0.
         12    1    1    2    0    0 -0.36609260689E+02 -0.17049883121E+02 -0.47147529259E+01  0.40659136462E+02  0.00000000000E+00 0. -1.
         11    1    3    3    0    0  0.14526144059E+02  0.62743238763E+01  0.12334805453E+02  0.20062986496E+02  0.51100000000E-03 0. -1.
        -11    1    3    3    0    0  0.23687045352E+02  0.10090677964E+02 -0.34894600859E+01  0.25982190655E+02  0.51100000000E-03 0.  1.
        -12    1    3    3    0    0 -0.16039287213E+01  0.68488128080E+00 -0.41305924409E+01  0.44836863879E+01  0.00000000000E+00 0.  1.
</event>
<event>
 7    1  0.5897985E-013  0.5052888E+02  0.7816164E-02  0.1300439E+00
        -11   -1    0    0    0    0  0.00000000000E+00  0.00000000000E+00  0.45593999997E+02  0.45594000000E+02  0.51100000000E-03 0.  1.
         11   -1    0    0    0    0 -0.00000000000E+00 -0.00000000000E+00 -0.45593999997E+02  0.45594000000E+02  0.51100000000E-03 0. -1.
    9900012    2    1    2    0    0  0.29295658233E+02  0.18016623404E+01  0.28136853741E+02  0.50528879044E+02  0.30000058341E+02 0.  0.
         12    1    1    2    0    0 -0.29295658233E+02 -0.18016623404E+01 -0.28136853741E+02  0.40659120956E+02  0.00000000000E+00 0. -1.
         11    1    3    3    0    0  0.33179293626E+01  0.85610565845E+01  0.10445560520E+02  0.13907195258E+02  0.51100000000E-03 0. -1.
        -11    1    3    3    0    0  0.20285868067E+02 -0.71384914408E+01  0.41146646766E+01  0.21895318426E+02  0.51100000000E-03 0.  1.
        -12    1    3    3    0    0  0.56918608034E+01  0.37909719665E+00  0.13576628544E+02  0.14726365360E+02  0.00000000000E+00 0.  1.
</event>
<event>
 7    1  0.5897985E-013  0.5052888E+02  0.7816164E-02  0.1300439E+00
        -11   -1    0    0    0    0  0.00000000000E+00  0.00000000000E+00  0.45593999997E+02  0.45594000000E+02  0.51100000000E-03 0.  1.
         11   -1    0    0    0    0 -0.00000000000E+00 -0.00000000000E+00 -0.45593999997E+02  0.45594000000E+02  0.51100000000E-03 0. -1.
    9900012    2    1    2    0    0 -0.86636265502E+01 -0.77700771296E+01  0.38958070943E+02  0.50528882754E+02  0.30000069620E+02 0.  0.
         12    1    1    2    0    0  0.86636265502E+01  0.77700771296E+01 -0.38958070943E+02  0.40659117246E+02  0.00000000000E+00 0. -1.
         11    1    3    3    0    0 -0.68959316662E+01  0.28260755070E+01  0.22944070039E+01  0.77977483979E+01  0.51100000000E-03 0. -1.
        -11    1    3    3    0    0  0.47972554915E+01 -0.88283250323E+01  0.33958803511E+02  0.35414027155E+02  0.51100000000E-03 0.  1.
        -12    1    3    3    0    0 -0.65649503755E+01 -0.17678276042E+01  0.27048604275E+01  0.73171072019E+01  0.00000000000E+00 0.  1.
</event>
<event>
 7    1  0.5897985E-013  0.5052887E+02  0.7816164E-02  0.1300439E+00
        -11   -1    0    0    0    0  0.00000000000E+00  0.00000000000E+00  0.45593999997E+02  0.45594000000E+02  0.51100000000E-03 0. -1.
         11   -1    0    0    0    0 -0.00000000000E+00 -0.00000000000E+00 -0.45593999997E+02  0.45594000000E+02  0.51100000000E-03 0.  1.
    9900012    2    1    2    0    0 -0.14411736601E+02  0.24887228980E+02 -0.28741823761E+02  0.50528871243E+02  0.30000034630E+02 0.  0.
         12    1    1    2    0    0  0.14411736601E+02 -0.24887228980E+02  0.28741823761E+02  0.40659128757E+02  0.00000000000E+00 0. -1.
         11    1    3    3    0    0 -0.13171744882E+02 -0.88085316945E+00 -0.38979736919E+01  0.13764627300E+02  0.51100000000E-03 0. -1.
        -11    1    3    3    0    0 -0.18458034089E+01  0.24504380562E+02 -0.19885884924E+02  0.31612024238E+02  0.51100000000E-03 0.  1.
         12    1    3    3    0    0  0.60581169016E+00  0.12637015882E+01 -0.49579651454E+01  0.51522197053E+01  0.00000000000E+00 0. -1.
</event>
<event>
 7    1  0.5897985E-013  0.5052887E+02  0.7816164E-02  0.1300439E+00
        -11   -1    0    0    0    0  0.00000000000E+00  0.00000000000E+00  0.45593999997E+02  0.45594000000E+02  0.51100000000E-03 0.  1.
         11   -1    0    0    0    0 -0.00000000000E+00 -0.00000000000E+00 -0.45593999997E+02  0.45594000000E+02  0.51100000000E-03 0. -1.
    9900012    2    1    2    0    0  0.26189128158E+02 -0.82907141058E+01  0.29975968752E+02  0.50528867241E+02  0.30000022466E+02 0.  0.
         12    1    1    2    0    0 -0.26189128158E+02  0.82907141058E+01 -0.29975968752E+02  0.40659132759E+02  0.00000000000E+00 0. -1.
         11    1    3    3    0    0 -0.32472015697E+01  0.28293829169E+01 -0.18534644699E+01  0.46888225097E+01  0.51100000000E-03 0. -1.
        -11    1    3    3    0    0  0.22785819605E+02 -0.98137243943E+01  0.18710792164E+02  0.31074048742E+02  0.51100000000E-03 0.  1.
        -12    1    3    3    0    0  0.66505101229E+01 -0.13063726284E+01  0.13118641058E+02  0.14765995989E+02  0.00000000000E+00 0.  1.
</event>
<event>
 7    1  0.5897985E-013  0.5052879E+02  0.7816164E-02  0.1300439E+00
        -11   -1    0    0    0    0  0.00000000000E+00  0.00000000000E+00  0.45593999997E+02  0.45594000000E+02  0.51100000000E-03 0. -1.
         11   -1    0    0    0    0 -0.00000000000E+00 -0.00000000000E+00 -0.45593999997E+02  0.45594000000E+02  0.51100000000E-03 0.  1.
    9900012    2    1    2    0    0 -0.32044510761E+01  0.16883858190E+02 -0.36848857426E+02  0.50528788649E+02  0.29999783578E+02 0.  0.
         12    1    1    2    0    0  0.32044510761E+01 -0.16883858190E+02  0.36848857426E+02  0.40659211351E+02  0.00000000000E+00 0. -1.
         11    1    3    3    0    0  0.12581542888E+02  0.32169938249E+01 -0.15812845541E+02  0.20461924520E+02  0.51100000000E-03 0. -1.
        -11    1    3    3    0    0 -0.94403714210E+01  0.60561451219E+01 -0.84207772757E+01  0.14025227146E+02  0.51100000000E-03 0.  1.
         12    1    3    3    0    0 -0.63456225430E+01  0.76107192430E+01 -0.12615234609E+02  0.16041636983E+02  0.00000000000E+00 0. -1.
</event>
<event>
 7    1  0.5897985E-013  0.5052886E+02  0.7816164E-02  0.1300439E+00
        -11   -1    0    0    0    0  0.00000000000E+00  0.00000000000E+00  0.45593999997E+02  0.45594000000E+02  0.51100000000E-03 0.  1.
         11   -1    0    0    0    0 -0.00000000000E+00 -0.00000000000E+00 -0.45593999997E+02  0.45594000000E+02  0.51100000000E-03 0. -1.
    9900012    2    1    2    0    0  0.21304994635E+01  0.39751002604E+02  0.82755412854E+01  0.50528858106E+02  0.29999994699E+02 0.  0.
         12    1    1    2    0    0 -0.21304994635E+01 -0.39751002604E+02 -0.82755412854E+01  0.40659141894E+02  0.00000000000E+00 0. -1.
         11    1    3    3    0    0 -0.14875273212E+00 -0.43750710752E+01 -0.22352489804E+01  0.49152530508E+01  0.51100000000E-03 0. -1.
        -11    1    3    3    0    0  0.12537117383E+01  0.41289671422E+02  0.91772617274E+01  0.42315846823E+02  0.51100000000E-03 0.  1.
         12    1    3    3    0    0  0.10255404573E+01  0.28364022570E+01  0.13335285384E+01  0.32977582319E+01  0.00000000000E+00 0. -1.
</event>
<event>
 7    1  0.5897985E-013  0.5052891E+02  0.7816164E-02  0.1300439E+00
        -11   -1    0    0    0    0  0.00000000000E+00  0.00000000000E+00  0.45593999997E+02  0.45594000000E+02  0.51100000000E-03 0. -1.
         11   -1    0    0    0    0 -0.00000000000E+00 -0.00000000000E+00 -0.45593999997E+02  0.45594000000E+02  0.51100000000E-03 0.  1.
    9900012    2    1    2    0    0 -0.48449894845E+01  0.28751542461E+02 -0.28337904779E+02  0.50528905516E+02  0.30000138805E+02 0.  0.
         12    1    1    2    0    0  0.48449894845E+01 -0.28751542461E+02  0.28337904779E+02  0.40659094484E+02  0.00000000000E+00 0. -1.
         11    1    3    3    0    0  0.34964017117E+00 -0.39486534202E+01 -0.94607150475E+01  0.10257643080E+02  0.51100000000E-03 0. -1.
        -11    1    3    3    0    0 -0.19652240674E+01  0.32228471817E+02 -0.17533491629E+02  0.36741799497E+02  0.51100000000E-03 0.  1.
         12    1    3    3    0    0 -0.32294055883E+01  0.47172406449E+00 -0.13436981024E+01  0.35294629389E+01  0.00000000000E+00 0. -1.
</event>
<event>
 7    1  0.5897985E-013  0.5052886E+02  0.7816164E-02  0.1300439E+00
        -11   -1    0    0    0    0  0.00000000000E+00  0.00000000000E+00  0.45593999997E+02  0.45594000000E+02  0.51100000000E-03 0.  1.
         11   -1    0    0    0    0 -0.00000000000E+00 -0.00000000000E+00 -0.45593999997E+02  0.45594000000E+02  0.51100000000E-03 0. -1.
    9900012    2    1    2    0    0 -0.29019745506E+02 -0.11775814888E+02  0.25929721509E+02  0.50528857080E+02  0.29999991580E+02 0.  0.
         12    1    1    2    0    0  0.29019745506E+02  0.11775814888E+02 -0.25929721509E+02  0.40659142920E+02  0.00000000000E+00 0. -1.
         11    1    3    3    0    0 -0.29450679118E+01  0.50912736368E+01  0.35917918940E+01  0.68916951123E+01  0.51100000000E-03 0. -1.
        -11    1    3    3    0    0 -0.27289573645E+02 -0.20031340365E+02  0.18736145732E+02  0.38691324398E+02  0.51100000000E-03 0.  1.
        -12    1    3    3    0    0  0.12148960511E+01  0.31642518402E+01  0.36017838830E+01  0.49458375694E+01  0.00000000000E+00 0.  1.
</event>
<event>
 7    1  0.5897985E-013  0.5052887E+02  0.7816164E-02  0.1300439E+00
        -11   -1    0    0    0    0  0.00000000000E+00  0.00000000000E+00  0.45593999997E+02  0.45594000000E+02  0.51100000000E-03 0. -1.
         11   -1    0    0    0    0 -0.00000000000E+00 -0.00000000000E+00 -0.45593999997E+02  0.45594000000E+02  0.51100000000E-03 0.  1.
    9900012    2    1    2    0    0  0.33188203984E+02 -0.10497792292E+02 -0.21012010455E+02  0.50528866831E+02  0.30000021219E+02 0.  0.
         12    1    1    2    0    0 -0.33188203984E+02  0.10497792292E+02  0.21012010455E+02  0.40659133169E+02  0.00000000000E+00 0. -1.
         11    1    3    3    0    0  0.17907799058E+01 -0.42833565641E+01  0.66214854652E+01  0.80869095551E+01  0.51100000000E-03 0. -1.
        -11    1    3    3    0    0  0.24512099546E+02 -0.38177215552E+01 -0.22808862640E+02  0.33699588087E+02  0.51100000000E-03 0.  1.
         12    1    3    3    0    0  0.68853245319E+01 -0.23967141729E+01 -0.48246332801E+01  0.87423691883E+01  0.00000000000E+00 0. -1.
</event>
<event>
 7    1  0.5897985E-013  0.5052898E+02  0.7816164E-02  0.1300438E+00
        -11   -1    0    0    0    0  0.00000000000E+00  0.00000000000E+00  0.45593999997E+02  0.45594000000E+02  0.51100000000E-03 0. -1.
         11   -1    0    0    0    0 -0.00000000000E+00 -0.00000000000E+00 -0.45593999997E+02  0.45594000000E+02  0.51100000000E-03 0.  1.
    9900012    2    1    2    0    0  0.15508821629E+02  0.36354754985E+02 -0.95374987917E+01  0.50528983268E+02  0.30000375140E+02 0.  0.
         12    1    1    2    0    0 -0.15508821629E+02 -0.36354754985E+02  0.95374987917E+01  0.40659016732E+02  0.00000000000E+00 0. -1.
         11    1    3    3    0    0 -0.38179940404E+01  0.61316092877E+01 -0.39279279259E+01  0.82220635488E+01  0.51100000000E-03 0. -1.
        -11    1    3    3    0    0  0.50662130764E+01  0.88030950687E+01  0.82443540653E+01  0.13081680776E+02  0.51100000000E-03 0.  1.
        -12    1    3    3    0    0  0.14260602593E+02  0.21420050629E+02 -0.13853924931E+02  0.29225238943E+02  0.00000000000E+00 0.  1.
</event>
<event>
 7    1  0.5897985E-013  0.5052886E+02  0.7816164E-02  0.1300439E+00
        -11   -1    0    0    0    0  0.00000000000E+00  0.00000000000E+00  0.45593999997E+02  0.45594000000E+02  0.51100000000E-03 0.  1.
         11   -1    0    0    0    0 -0.00000000000E+00 -0.00000000000E+00 -0.45593999997E+02  0.45594000000E+02  0.51100000000E-03 0. -1.
    9900012    2    1    2    0    0 -0.28761047683E+02  0.22001245887E+02  0.18490889021E+02  0.50528860053E+02  0.30000000618E+02 0.  0.
         12    1    1    2    0    0  0.28761047683E+02 -0.22001245887E+02 -0.18490889021E+02  0.40659139947E+02  0.00000000000E+00 0. -1.
         11    1    3    3    0    0 -0.11021375428E+02  0.40025191310E+00  0.67357916046E+00  0.11049191241E+02  0.51100000000E-03 0. -1.
        -11    1    3    3    0    0 -0.73419907246E+01  0.22556260217E+02  0.76971912086E+01  0.24938653844E+02  0.51100000000E-03 0.  1.
        -12    1    3    3    0    0 -0.10397681530E+02 -0.95526624300E+00  0.10120118652E+02  0.14541014969E+02  0.00000000000E+00 0.  1.
</event>
<event>
 7    1  0.5897985E-013  0.5052890E+02  0.7816164E-02  0.1300439E+00
        -11   -1    0    0    0    0  0.00000000000E+00  0.00000000000E+00  0.45593999997E+02  0.45594000000E+02  0.51100000000E-03 0. -1.
         11   -1    0    0    0    0 -0.00000000000E+00 -0.00000000000E+00 -0.45593999997E+02  0.45594000000E+02  0.51100000000E-03 0.  1.
    9900012    2    1    2    0    0 -0.35398218881E+02  0.96734308836E+01 -0.17508664081E+02  0.50528899138E+02  0.30000119419E+02 0.  0.
         12    1    1    2    0    0  0.35398218881E+02 -0.96734308836E+01  0.17508664081E+02  0.40659100862E+02  0.00000000000E+00 0. -1.
         11    1    3    3    0    0 -0.21429042655E+02 -0.16116381535E+01 -0.12443195000E+02  0.24832123323E+02  0.51100000000E-03 0.  1.
        -11    1    3    3    0    0 -0.59230718622E+01  0.46109810001E+01  0.66266003071E+01  0.10012779732E+02  0.51100000000E-03 0. -1.
        -12    1    3    3    0    0 -0.80461043643E+01  0.66740880370E+01 -0.11692069388E+02  0.15683996083E+02  0.00000000000E+00 0.  1.
</event>
<event>
 7    1  0.5897985E-013  0.5052886E+02  0.7816164E-02  0.1300439E+00
        -11   -1    0    0    0    0  0.00000000000E+00  0.00000000000E+00  0.45593999997E+02  0.45594000000E+02  0.51100000000E-03 0.  1.
         11   -1    0    0    0    0 -0.00000000000E+00 -0.00000000000E+00 -0.45593999997E+02  0.45594000000E+02  0.51100000000E-03 0. -1.
    9900012    2    1    2    0    0  0.28741225599E+02  0.16047689619E+02  0.23865855575E+02  0.50528862609E+02  0.30000008386E+02 0.  0.
         12    1    1    2    0    0 -0.28741225599E+02 -0.16047689619E+02 -0.23865855575E+02  0.40659137391E+02  0.00000000000E+00 0. -1.
         11    1    3    3    0    0  0.29570604307E+02  0.58576054167E+01  0.13351013043E+02  0.32969405967E+02  0.51100000000E-03 0. -1.
        -11    1    3    3    0    0 -0.37537772129E+00  0.10268475364E+02  0.12119981009E+02  0.15889507061E+02  0.51100000000E-03 0.  1.
        -12    1    3    3    0    0 -0.45400098640E+00 -0.78391161873E-01 -0.16051384769E+01  0.16699495800E+01  0.00000000000E+00 0.  1.
</event>
<event>
 7    1  0.5897985E-013  0.5052888E+02  0.7816164E-02  0.1300439E+00
        -11   -1    0    0    0    0  0.00000000000E+00  0.00000000000E+00  0.45593999997E+02  0.45594000000E+02  0.51100000000E-03 0.  1.
         11   -1    0    0    0    0 -0.00000000000E+00 -0.00000000000E+00 -0.45593999997E+02  0.45594000000E+02  0.51100000000E-03 0. -1.
    9900012    2    1    2    0    0 -0.13637535636E+01  0.48090147254E+01  0.40350682503E+02  0.50528880176E+02  0.30000061784E+02 0.  0.
         12    1    1    2    0    0  0.13637535636E+01 -0.48090147254E+01 -0.40350682503E+02  0.40659119824E+02  0.00000000000E+00 0. -1.
         11    1    3    3    0    0 -0.38060428939E+00  0.75319894451E+00 -0.96852638520E+00  0.12846057353E+01  0.51100000000E-03 0. -1.
        -11    1    3    3    0    0  0.26844285705E+00 -0.76441379678E+01  0.35122272086E+02  0.35945499072E+02  0.51100000000E-03 0.  1.
        -12    1    3    3    0    0 -0.12515921312E+01  0.11699953749E+02  0.61969368022E+01  0.13298775369E+02  0.00000000000E+00 0.  1.
</event>
<event>
 7    1  0.5897985E-013  0.5052887E+02  0.7816164E-02  0.1300439E+00
        -11   -1    0    0    0    0  0.00000000000E+00  0.00000000000E+00  0.45593999997E+02  0.45594000000E+02  0.51100000000E-03 0. -1.
         11   -1    0    0    0    0 -0.00000000000E+00 -0.00000000000E+00 -0.45593999997E+02  0.45594000000E+02  0.51100000000E-03 0.  1.
    9900012    2    1    2    0    0 -0.34219305605E+02 -0.49243063318E+01 -0.21399892349E+02  0.50528867428E+02  0.30000023035E+02 0.  0.
         12    1    1    2    0    0  0.34219305605E+02  0.49243063318E+01  0.21399892349E+02  0.40659132572E+02  0.00000000000E+00 0. -1.
         11    1    3    3    0    0 -0.26131471448E+02  0.70474189968E+01 -0.94359026672E+01  0.28662801223E+02  0.51100000000E-03 0. -1.
        -11    1    3    3    0    0  0.21029298676E+01 -0.54797639632E+01 -0.59924605240E+01  0.83880695344E+01  0.51100000000E-03 0.  1.
        -12    1    3    3    0    0 -0.10190764025E+02 -0.64919613653E+01 -0.59715291576E+01  0.13477996671E+02  0.00000000000E+00 0.  1.
</event>
<event>
 7    1  0.5897985E-013  0.5052892E+02  0.7816164E-02  0.1300439E+00
        -11   -1    0    0    0    0  0.00000000000E+00  0.00000000000E+00  0.45593999997E+02  0.45594000000E+02  0.51100000000E-03 0.  1.
         11   -1    0    0    0    0 -0.00000000000E+00 -0.00000000000E+00 -0.45593999997E+02  0.45594000000E+02  0.51100000000E-03 0. -1.
    9900012    2    1    2    0    0  0.18269360822E+01 -0.33647831335E+02 -0.22751848836E+02  0.50528918917E+02  0.30000179541E+02 0.  0.
         12    1    1    2    0    0 -0.18269360822E+01  0.33647831335E+02  0.22751848836E+02  0.40659081083E+02  0.00000000000E+00 0. -1.
         11    1    3    3    0    0 -0.34117787890E+00 -0.16617758187E+01 -0.53296370489E+01  0.55931147450E+01  0.51100000000E-03 0. -1.
        -11    1    3    3    0    0 -0.52243417515E+01  0.27268471549E+01 -0.31509774121E+01  0.66826717004E+01  0.51100000000E-03 0.  1.
        -12    1    3    3    0    0  0.73924557126E+01 -0.34712902671E+02 -0.14271234375E+02  0.38253132472E+02  0.00000000000E+00 0.  1.
</event>
<event>
 7    1  0.5897985E-013  0.5052881E+02  0.7816164E-02  0.1300439E+00
        -11   -1    0    0    0    0  0.00000000000E+00  0.00000000000E+00  0.45593999997E+02  0.45594000000E+02  0.51100000000E-03 0.  1.
         11   -1    0    0    0    0 -0.00000000000E+00 -0.00000000000E+00 -0.45593999997E+02  0.45594000000E+02  0.51100000000E-03 0. -1.
    9900012    2    1    2    0    0  0.23073641868E+02 -0.33338558042E+02 -0.30524497893E+01  0.50528808529E+02  0.29999844005E+02 0.  0.
         12    1    1    2    0    0 -0.23073641868E+02  0.33338558042E+02  0.30524497893E+01  0.40659191471E+02  0.00000000000E+00 0. -1.
         11    1    3    3    0    0  0.50312333786E+01 -0.55736594349E+01 -0.86221773884E+01  0.11433325500E+02  0.51100000000E-03 0. -1.
        -11    1    3    3    0    0  0.15492578711E+02 -0.71932892132E+01  0.66702108311E+01  0.18337260363E+02  0.51100000000E-03 0.  1.
        -12    1    3    3    0    0  0.25498297782E+01 -0.20571609393E+02 -0.11004832320E+01  0.20758222667E+02  0.00000000000E+00 0.  1.
</event>
<event>
 7    1  0.5897985E-013  0.5052886E+02  0.7816164E-02  0.1300439E+00
        -11   -1    0    0    0    0  0.00000000000E+00  0.00000000000E+00  0.45593999997E+02  0.45594000000E+02  0.51100000000E-03 0. -1.
         11   -1    0    0    0    0 -0.00000000000E+00 -0.00000000000E+00 -0.45593999997E+02  0.45594000000E+02  0.51100000000E-03 0.  1.
    9900012    2    1    2    0    0 -0.34961385180E+02 -0.18886834253E+02 -0.86113063957E+01  0.50528861302E+02  0.30000004414E+02 0.  0.
         12    1    1    2    0    0  0.34961385180E+02  0.18886834253E+02  0.86113063957E+01  0.40659138698E+02  0.00000000000E+00 0. -1.
         11    1    3    3    0    0 -0.16929257183E+01 -0.10474210882E+02 -0.59761279828E+01  0.12177405184E+02  0.51100000000E-03 0. -1.
        -11    1    3    3    0    0 -0.31329521707E+02 -0.12300721754E+02 -0.89068405383E+00  0.33669570897E+02  0.51100000000E-03 0.  1.
         12    1    3    3    0    0 -0.19389377550E+01  0.38880983830E+01 -0.17444943591E+01  0.46818852210E+01  0.00000000000E+00 0. -1.
</event>
<event>
 7    1  0.5897985E-013  0.5052886E+02  0.7816164E-02  0.1300439E+00
        -11   -1    0    0    0    0  0.00000000000E+00  0.00000000000E+00  0.45593999997E+02  0.45594000000E+02  0.51100000000E-03 0. -1.
         11   -1    0    0    0    0 -0.00000000000E+00 -0.00000000000E+00 -0.45593999997E+02  0.45594000000E+02  0.51100000000E-03 0.  1.
    9900012    2    1    2    0    0 -0.47176261598E+01  0.13262818366E+02 -0.38144558319E+02  0.50528859859E+02  0.30000000028E+02 0.  0.
         12    1    1    2    0    0  0.47176261598E+01 -0.13262818366E+02  0.38144558319E+02  0.40659140141E+02  0.00000000000E+00 0. -1.
         11    1    3    3    0    0  0.46002350585E+01  0.46422666086E+01 -0.14360400166E+01  0.66914133820E+01  0.51100000000E-03 0. -1.
        -11    1    3    3    0    0 -0.13349814909E+02  0.16548120032E+01 -0.12639526921E+02  0.18458429022E+02  0.51100000000E-03 0.  1.
        -12    1    3    3    0    0  0.40319536912E+01  0.69657397547E+01 -0.24068991381E+02  0.25379017456E+02  0.00000000000E+00 0.  1.
</event>
<event>
 7    1  0.5897985E-013  0.5052886E+02  0.7816164E-02  0.1300439E+00
        -11   -1    0    0    0    0  0.00000000000E+00  0.00000000000E+00  0.45593999997E+02  0.45594000000E+02  0.51100000000E-03 0. -1.
         11   -1    0    0    0    0 -0.00000000000E+00 -0.00000000000E+00 -0.45593999997E+02  0.45594000000E+02  0.51100000000E-03 0.  1.
    9900012    2    1    2    0    0 -0.22945436274E+02  0.57638252616E+01 -0.33067372436E+02  0.50528857765E+02  0.29999993662E+02 0.  0.
         12    1    1    2    0    0  0.22945436274E+02 -0.57638252616E+01  0.33067372436E+02  0.40659142235E+02  0.00000000000E+00 0. -1.
         11    1    3    3    0    0 -0.61325565731E+01 -0.21401583901E+01 -0.97700784193E+01  0.11732133678E+02  0.51100000000E-03 0. -1.
        -11    1    3    3    0    0 -0.71462070514E+01  0.12724936421E+02 -0.23871549644E+02  0.27979334603E+02  0.51100000000E-03 0.  1.
        -12    1    3    3    0    0 -0.96666726496E+01 -0.48209527697E+01  0.57425562715E+00  0.10817389484E+02  0.00000000000E+00 0.  1.
</event>
<event>
 7    1  0.5897985E-013  0.5052887E+02  0.7816164E-02  0.1300439E+00
        -11   -1    0    0    0    0  0.00000000000E+00  0.00000000000E+00  0.45593999997E+02  0.45594000000E+02  0.51100000000E-03 0.  1.
         11   -1    0    0    0    0 -0.00000000000E+00 -0.00000000000E+00 -0.45593999997E+02  0.45594000000E+02  0.51100000000E-03 0. -1.
    9900012    2    1    2    0    0 -0.96987212724E+01 -0.17610170677E+02  0.35340928180E+02  0.50528874207E+02  0.30000043639E+02 0.  0.
         12    1    1    2    0    0  0.96987212724E+01  0.17610170677E+02 -0.35340928180E+02  0.40659125793E+02  0.00000000000E+00 0. -1.
         11    1    3    3    0    0 -0.38813594822E+01  0.38382956134E+00  0.12420806065E+02  0.13018782590E+02  0.51100000000E-03 0. -1.
        -11    1    3    3    0    0 -0.10695087998E+02 -0.21212756571E+02  0.17171388700E+02  0.29312497996E+02  0.51100000000E-03 0.  1.
        -12    1    3    3    0    0  0.48777262082E+01  0.32187563324E+01  0.57487334152E+01  0.81975936205E+01  0.00000000000E+00 0.  1.
</event>
<event>
 7    1  0.5897985E-013  0.5052885E+02  0.7816164E-02  0.1300439E+00
        -11   -1    0    0    0    0  0.00000000000E+00  0.00000000000E+00  0.45593999997E+02  0.45594000000E+02  0.51100000000E-03 0.  1.
         11   -1    0    0    0    0 -0.00000000000E+00 -0.00000000000E+00 -0.45593999997E+02  0.45594000000E+02  0.51100000000E-03 0. -1.
    9900012    2    1    2    0    0  0.40647964130E+02 -0.90170952144E+00  0.31057922592E+00  0.50528849401E+02  0.29999968238E+02 0.  0.
         12    1    1    2    0    0 -0.40647964130E+02  0.90170952144E+00 -0.31057922592E+00  0.40659150599E+02  0.00000000000E+00 0. -1.
         11    1    3    3    0    0  0.27438750345E+02  0.45324027977E+01 -0.55921080325E+01  0.28367223483E+02  0.51100000000E-03 0. -1.
        -11    1    3    3    0    0  0.14841094983E+02 -0.82983638175E+01  0.73962747375E+01  0.18542540888E+02  0.51100000000E-03 0.  1.
         12    1    3    3    0    0 -0.16318811979E+01  0.28642514984E+01 -0.14935874791E+01  0.36190850290E+01  0.00000000000E+00 0. -1.
</event>
<event>
 7    1  0.5897985E-013  0.5052889E+02  0.7816164E-02  0.1300439E+00
        -11   -1    0    0    0    0  0.00000000000E+00  0.00000000000E+00  0.45593999997E+02  0.45594000000E+02  0.51100000000E-03 0.  1.
         11   -1    0    0    0    0 -0.00000000000E+00 -0.00000000000E+00 -0.45593999997E+02  0.45594000000E+02  0.51100000000E-03 0. -1.
    9900012    2    1    2    0    0 -0.70065234323E+01 -0.39903592197E+02 -0.34315388875E+01  0.50528886631E+02  0.30000081402E+02 0.  0.
         12    1    1    2    0    0  0.70065234323E+01  0.39903592197E+02  0.34315388875E+01  0.40659113369E+02  0.00000000000E+00 0. -1.
         11    1    3    3    0    0  0.20600177781E+01 -0.34768770494E+02 -0.23440818758E+01  0.34908534702E+02  0.51100000000E-03 0.  1.
        -11    1    3    3    0    0 -0.10518414028E+02 -0.61655031735E+01 -0.34416360133E+01  0.12668674822E+02  0.51100000000E-03 0. -1.
        -12    1    3    3    0    0  0.14518728175E+01  0.10306814702E+01  0.23541790016E+01  0.29516771068E+01  0.00000000000E+00 0.  1.
</event>
<event>
 7    1  0.5897985E-013  0.5052886E+02  0.7816164E-02  0.1300439E+00
        -11   -1    0    0    0    0  0.00000000000E+00  0.00000000000E+00  0.45593999997E+02  0.45594000000E+02  0.51100000000E-03 0.  1.
         11   -1    0    0    0    0 -0.00000000000E+00 -0.00000000000E+00 -0.45593999997E+02  0.45594000000E+02  0.51100000000E-03 0. -1.
    9900012    2    1    2    0    0 -0.36612338190E+02 -0.85644338502E+01  0.15471027920E+02  0.50528861546E+02  0.30000005155E+02 0.  0.
         12    1    1    2    0    0  0.36612338190E+02  0.85644338502E+01 -0.15471027920E+02  0.40659138454E+02  0.00000000000E+00 0. -1.
         11    1    3    3    0    0 -0.13979993359E+02 -0.74616205010E+01 -0.71834226123E+01  0.17398780288E+02  0.51100000000E-03 0. -1.
        -11    1    3    3    0    0 -0.20294354420E+02  0.29306486163E+00  0.15695235665E+02  0.25657106836E+02  0.51100000000E-03 0.  1.
         12    1    3    3    0    0 -0.23379904101E+01 -0.13958782108E+01  0.69592148676E+01  0.74729744219E+01  0.00000000000E+00 0. -1.
</event>
<event>
 7    1  0.5897985E-013  0.5052886E+02  0.7816164E-02  0.1300439E+00
        -11   -1    0    0    0    0  0.00000000000E+00  0.00000000000E+00  0.45593999997E+02  0.45594000000E+02  0.51100000000E-03 0.  1.
         11   -1    0    0    0    0 -0.00000000000E+00 -0.00000000000E+00 -0.45593999997E+02  0.45594000000E+02  0.51100000000E-03 0. -1.
    9900012    2    1    2    0    0 -0.37830918482E+02  0.13874463241E+02  0.54301655853E+01  0.50528858080E+02  0.29999994620E+02 0.  0.
         12    1    1    2    0    0  0.37830918482E+02 -0.13874463241E+02 -0.54301655853E+01  0.40659141920E+02  0.00000000000E+00 0. -1.
         11    1    3    3    0    0 -0.82278399503E+01  0.78648544887E+00 -0.39594025278E+01  0.91647574026E+01  0.51100000000E-03 0. -1.
        -11    1    3    3    0    0 -0.89271147379E+01  0.50665803909E+01  0.15289270723E+02  0.18415358099E+02  0.51100000000E-03 0.  1.
        -12    1    3    3    0    0 -0.20675963794E+02  0.80213974008E+01 -0.58997026099E+01  0.22948742579E+02  0.00000000000E+00 0.  1.
</event>
<event>
 7    1  0.5897985E-013  0.5052886E+02  0.7816164E-02  0.1300439E+00
        -11   -1    0    0    0    0  0.00000000000E+00  0.00000000000E+00  0.45593999997E+02  0.45594000000E+02  0.51100000000E-03 0. -1.
         11   -1    0    0    0    0 -0.00000000000E+00 -0.00000000000E+00 -0.45593999997E+02  0.45594000000E+02  0.51100000000E-03 0.  1.
    9900012    2    1    2    0    0  0.20521844545E+02  0.33023482291E+02  0.11894067844E+02  0.50528864052E+02  0.30000012773E+02 0.  0.
         12    1    1    2    0    0 -0.20521844545E+02 -0.33023482291E+02 -0.11894067844E+02  0.40659135948E+02  0.00000000000E+00 0. -1.
         11    1    3    3    0    0  0.14054988505E+02  0.97668153696E+01  0.15170447878E+02  0.22870852048E+02  0.51100000000E-03 0. -1.
        -11    1    3    3    0    0  0.40638686611E+00  0.18103041431E+02  0.18376500436E+01  0.18200610355E+02  0.51100000000E-03 0.  1.
         12    1    3    3    0    0  0.60604691744E+01  0.51536254901E+01 -0.51140300782E+01  0.94574016488E+01  0.00000000000E+00 0. -1.
</event>
<event>
 7    1  0.5897985E-013  0.5052890E+02  0.7816164E-02  0.1300439E+00
        -11   -1    0    0    0    0  0.00000000000E+00  0.00000000000E+00  0.45593999997E+02  0.45594000000E+02  0.51100000000E-03 0.  1.
         11   -1    0    0    0    0 -0.00000000000E+00 -0.00000000000E+00 -0.45593999997E+02  0.45594000000E+02  0.51100000000E-03 0. -1.
    9900012    2    1    2    0    0 -0.45478652599E+01 -0.21134256385E+00  0.40403395061E+02  0.50528904135E+02  0.30000134608E+02 0.  0.
         12    1    1    2    0    0  0.45478652599E+01  0.21134256385E+00 -0.40403395061E+02  0.40659095865E+02  0.00000000000E+00 0. -1.
         11    1    3    3    0    0  0.85045982812E+01  0.58500643451E+01  0.13057024779E+02  0.16644438744E+02  0.51100000000E-03 0. -1.
        -11    1    3    3    0    0 -0.12163107095E+02 -0.10534364967E+01  0.25841306265E+02  0.28580133177E+02  0.51100000000E-03 0.  1.
        -12    1    3    3    0    0 -0.88935644560E+00 -0.50079704123E+01  0.15050640172E+01  0.53043322137E+01  0.00000000000E+00 0.  1.
</event>
<event>
 7    1  0.5897985E-013  0.5052886E+02  0.7816164E-02  0.1300439E+00
        -11   -1    0    0    0    0  0.00000000000E+00  0.00000000000E+00  0.45593999997E+02  0.45594000000E+02  0.51100000000E-03 0.  1.
         11   -1    0    0    0    0 -0.00000000000E+00 -0.00000000000E+00 -0.45593999997E+02  0.45594000000E+02  0.51100000000E-03 0. -1.
    9900012    2    1    2    0    0 -0.22776576877E+02 -0.23337780529E+02 -0.24284585657E+02  0.50528861362E+02  0.30000004596E+02 0.  0.
         12    1    1    2    0    0  0.22776576877E+02  0.23337780529E+02  0.24284585657E+02  0.40659138638E+02  0.00000000000E+00 0. -1.
         11    1    3    3    0    0  0.55293170736E+01 -0.35348739636E+01 -0.23740461763E+01  0.69788807661E+01  0.51100000000E-03 0. -1.
        -11    1    3    3    0    0 -0.16894983901E+02 -0.39758359960E+01 -0.59696731567E+01  0.18354420469E+02  0.51100000000E-03 0.  1.
        -12    1    3    3    0    0 -0.11410910050E+02 -0.15827070569E+02 -0.15940866324E+02  0.25195560127E+02  0.00000000000E+00 0.  1.
</event>
<event>
 7    1  0.5897985E-013  0.5052886E+02  0.7816164E-02  0.1300439E+00
        -11   -1    0    0    0    0  0.00000000000E+00  0.00000000000E+00  0.45593999997E+02  0.45594000000E+02  0.51100000000E-03 0. -1.
         11   -1    0    0    0    0 -0.00000000000E+00 -0.00000000000E+00 -0.45593999997E+02  0.45594000000E+02  0.51100000000E-03 0.  1.
    9900012    2    1    2    0    0  0.38754974219E+02  0.11814841542E+02 -0.34098030844E+01  0.50528864932E+02  0.30000015449E+02 0.  0.
         12    1    1    2    0    0 -0.38754974219E+02 -0.11814841542E+02  0.34098030844E+01  0.40659135068E+02  0.00000000000E+00 0. -1.
         11    1    3    3    0    0 -0.21008351060E+01  0.10947159006E+01 -0.56290716617E+01  0.61072382530E+01  0.51100000000E-03 0. -1.
        -11    1    3    3    0    0  0.15130362227E+02  0.73387662086E+01  0.66797136891E+01  0.18094306448E+02  0.51100000000E-03 0.  1.
         12    1    3    3    0    0  0.25725447098E+02  0.33813594323E+01 -0.44604451118E+01  0.26327320232E+02  0.00000000000E+00 0. -1.
</event>
<event>
 7    1  0.5897985E-013  0.5052887E+02  0.7816164E-02  0.1300439E+00
        -11   -1    0    0    0    0  0.00000000000E+00  0.00000000000E+00  0.45593999997E+02  0.45594000000E+02  0.51100000000E-03 0.  1.
         11   -1    0    0    0    0 -0.00000000000E+00 -0.00000000000E+00 -0.45593999997E+02  0.45594000000E+02  0.51100000000E-03 0. -1.
    9900012    2    1    2    0    0 -0.22354275305E+02 -0.15124966771E+02  0.30408654852E+02  0.50528873913E+02  0.30000042746E+02 0.  0.
         12    1    1    2    0    0  0.22354275305E+02  0.15124966771E+02 -0.30408654852E+02  0.40659126087E+02  0.00000000000E+00 0. -1.
         11    1    3    3    0    0  0.19402467603E+01 -0.87986095575E+01  0.19698718831E+01  0.92228240325E+01  0.51100000000E-03 0. -1.
        -11    1    3    3    0    0 -0.14513939767E+02  0.10972751329E+01  0.60326307270E+01  0.15755985974E+02  0.51100000000E-03 0.  1.
        -12    1    3    3    0    0 -0.97805822984E+01 -0.74236323469E+01  0.22406152242E+02  0.25550063906E+02  0.00000000000E+00 0.  1.
</event>
<event>
 7    1  0.5897985E-013  0.5052884E+02  0.7816164E-02  0.1300439E+00
        -11   -1    0    0    0    0  0.00000000000E+00  0.00000000000E+00  0.45593999997E+02  0.45594000000E+02  0.51100000000E-03 0.  1.
         11   -1    0    0    0    0 -0.00000000000E+00 -0.00000000000E+00 -0.45593999997E+02  0.45594000000E+02  0.51100000000E-03 0. -1.
    9900012    2    1    2    0    0 -0.71422400152E+01  0.38115205566E+02  0.12222376527E+02  0.50528843888E+02  0.29999951481E+02 0.  0.
         12    1    1    2    0    0  0.71422400152E+01 -0.38115205566E+02 -0.12222376527E+02  0.40659156112E+02  0.00000000000E+00 0. -1.
         11    1    3    3    0    0  0.12247194750E+01 -0.23684740066E+01  0.17270864014E+01  0.31768592370E+01  0.51100000000E-03 0. -1.
        -11    1    3    3    0    0 -0.61660026596E+01  0.37521929651E+02  0.19859445603E+01  0.38077011038E+02  0.51100000000E-03 0.  1.
        -12    1    3    3    0    0 -0.22009568306E+01  0.29617499217E+01  0.85093455653E+01  0.92749736128E+01  0.00000000000E+00 0.  1.
</event>
<event>
 7    1  0.5897985E-013  0.5052887E+02  0.7816164E-02  0.1300439E+00
        -11   -1    0    0    0    0  0.00000000000E+00  0.00000000000E+00  0.45593999997E+02  0.45594000000E+02  0.51100000000E-03 0. -1.
         11   -1    0    0    0    0 -0.00000000000E+00 -0.00000000000E+00 -0.45593999997E+02  0.45594000000E+02  0.51100000000E-03 0.  1.
    9900012    2    1    2    0    0  0.31717623820E+01  0.86687650010E+01 -0.39597443817E+02  0.50528866707E+02  0.30000020844E+02 0.  0.
         12    1    1    2    0    0 -0.31717623820E+01 -0.86687650010E+01  0.39597443817E+02  0.40659133293E+02  0.00000000000E+00 0. -1.
         11    1    3    3    0    0  0.15674430305E+02  0.14331813009E+01 -0.15868010664E+02  0.22350291647E+02  0.51100000000E-03 0. -1.
        -11    1    3    3    0    0 -0.21391595894E+01  0.32263071166E+01 -0.42202524296E+01  0.57267435940E+01  0.51100000000E-03 0.  1.
         12    1    3    3    0    0 -0.10363508333E+02  0.40092765835E+01 -0.19509180723E+02  0.22451831466E+02  0.00000000000E+00 0. -1.
</event>
<event>
 7    1  0.5897985E-013  0.5052885E+02  0.7816164E-02  0.1300439E+00
        -11   -1    0    0    0    0  0.00000000000E+00  0.00000000000E+00  0.45593999997E+02  0.45594000000E+02  0.51100000000E-03 0.  1.
         11   -1    0    0    0    0 -0.00000000000E+00 -0.00000000000E+00 -0.45593999997E+02  0.45594000000E+02  0.51100000000E-03 0. -1.
    9900012    2    1    2    0    0  0.47032369105E+00 -0.21771137425E+02  0.34336022985E+02  0.50528854613E+02  0.29999984083E+02 0.  0.
         12    1    1    2    0    0 -0.47032369105E+00  0.21771137425E+02 -0.34336022985E+02  0.40659145387E+02  0.00000000000E+00 0. -1.
         11    1    3    3    0    0 -0.63909181676E+00  0.55029166220E+01  0.12828288166E+02  0.13973385675E+02  0.51100000000E-03 0. -1.
        -11    1    3    3    0    0 -0.39898507520E+01 -0.54523524186E+01  0.26151098158E+01  0.72447122461E+01  0.51100000000E-03 0.  1.
         12    1    3    3    0    0  0.50992662598E+01 -0.21821701629E+02  0.18892625003E+02  0.29310756692E+02  0.00000000000E+00 0. -1.
</event>
<event>
 7    1  0.5897985E-013  0.5052886E+02  0.7816164E-02  0.1300439E+00
        -11   -1    0    0    0    0  0.00000000000E+00  0.00000000000E+00  0.45593999997E+02  0.45594000000E+02  0.51100000000E-03 0.  1.
         11   -1    0    0    0    0 -0.00000000000E+00 -0.00000000000E+00 -0.45593999997E+02  0.45594000000E+02  0.51100000000E-03 0. -1.
    9900012    2    1    2    0    0  0.18223631372E+02 -0.26027686783E+02  0.25369753629E+02  0.50528860574E+02  0.30000002201E+02 0.  0.
         12    1    1    2    0    0 -0.18223631372E+02  0.26027686783E+02 -0.25369753629E+02  0.40659139426E+02  0.00000000000E+00 0. -1.
         11    1    3    3    0    0 -0.58332110236E+01 -0.76710142927E+01  0.12743508043E+02  0.15977102635E+02  0.51100000000E-03 0. -1.
        -11    1    3    3    0    0  0.20123541748E+02 -0.18377786250E+02  0.78423585270E+01  0.28358465182E+02  0.51100000000E-03 0.  1.
         12    1    3    3    0    0  0.39333006471E+01  0.21113760091E-01  0.47838870595E+01  0.61932927566E+01  0.00000000000E+00 0. -1.
</event>
<event>
 7    1  0.5897985E-013  0.5052886E+02  0.7816164E-02  0.1300439E+00
        -11   -1    0    0    0    0  0.00000000000E+00  0.00000000000E+00  0.45593999997E+02  0.45594000000E+02  0.51100000000E-03 0. -1.
         11   -1    0    0    0    0 -0.00000000000E+00 -0.00000000000E+00 -0.45593999997E+02  0.45594000000E+02  0.51100000000E-03 0.  1.
    9900012    2    1    2    0    0  0.60876925352E+01 -0.21989964192E+02 -0.33653341571E+02  0.50528856816E+02  0.29999990779E+02 0.  0.
         12    1    1    2    0    0 -0.60876925352E+01  0.21989964192E+02  0.33653341571E+02  0.40659143184E+02  0.00000000000E+00 0. -1.
         11    1    3    3    0    0 -0.63790467551E+01  0.10048453184E+01 -0.16065896719E+02  0.17315166452E+02  0.51100000000E-03 0. -1.
        -11    1    3    3    0    0  0.11830651351E+02 -0.12293707695E+02 -0.13439795639E+02  0.21719292516E+02  0.51100000000E-03 0.  1.
        -12    1    3    3    0    0  0.63608793888E+00 -0.10701101815E+02 -0.41476492126E+01  0.11494397849E+02  0.00000000000E+00 0.  1.
</event>
<event>
 7    1  0.5897985E-013  0.5052886E+02  0.7816164E-02  0.1300439E+00
        -11   -1    0    0    0    0  0.00000000000E+00  0.00000000000E+00  0.45593999997E+02  0.45594000000E+02  0.51100000000E-03 0. -1.
         11   -1    0    0    0    0 -0.00000000000E+00 -0.00000000000E+00 -0.45593999997E+02  0.45594000000E+02  0.51100000000E-03 0.  1.
    9900012    2    1    2    0    0 -0.19926208238E+02 -0.13519372018E+02  0.32761842712E+02  0.50528861638E+02  0.30000005434E+02 0.  0.
         12    1    1    2    0    0  0.19926208238E+02  0.13519372018E+02 -0.32761842712E+02  0.40659138362E+02  0.00000000000E+00 0. -1.
         11    1    3    3    0    0 -0.13858565473E+02 -0.42091657099E+01  0.24873668607E+02  0.28783264289E+02  0.51100000000E-03 0. -1.
        -11    1    3    3    0    0 -0.50647588108E+01  0.39938469457E+01  0.43861022688E+00  0.64649032808E+01  0.51100000000E-03 0.  1.
         12    1    3    3    0    0 -0.10028839542E+01 -0.13304053254E+02  0.74495638778E+01  0.15280694068E+02  0.00000000000E+00 0. -1.
</event>
<event>
 7    1  0.5897985E-013  0.5052887E+02  0.7816164E-02  0.1300439E+00
        -11   -1    0    0    0    0  0.00000000000E+00  0.00000000000E+00  0.45593999997E+02  0.45594000000E+02  0.51100000000E-03 0. -1.
         11   -1    0    0    0    0 -0.00000000000E+00 -0.00000000000E+00 -0.45593999997E+02  0.45594000000E+02  0.51100000000E-03 0.  1.
    9900012    2    1    2    0    0  0.19452362078E+02  0.25291208006E+02  0.25201697633E+02  0.50528866261E+02  0.30000019487E+02 0.  0.
         12    1    1    2    0    0 -0.19452362078E+02 -0.25291208006E+02 -0.25201697633E+02  0.40659133739E+02  0.00000000000E+00 0. -1.
         11    1    3    3    0    0  0.33714724327E-01  0.15854931755E+02  0.82315052700E+01  0.17864424897E+02  0.51100000000E-03 0. -1.
        -11    1    3    3    0    0  0.68053481757E+01  0.47413007519E-01 -0.28383143848E+01  0.73736721241E+01  0.51100000000E-03 0.  1.
        -12    1    3    3    0    0  0.12613299178E+02  0.93888632437E+01  0.19808506748E+02  0.25290769240E+02  0.00000000000E+00 0.  1.
</event>
<event>
 7    1  0.5897985E-013  0.5052885E+02  0.7816164E-02  0.1300439E+00
        -11   -1    0    0    0    0  0.00000000000E+00  0.00000000000E+00  0.45593999997E+02  0.45594000000E+02  0.51100000000E-03 0. -1.
         11   -1    0    0    0    0 -0.00000000000E+00 -0.00000000000E+00 -0.45593999997E+02  0.45594000000E+02  0.51100000000E-03 0.  1.
    9900012    2    1    2    0    0 -0.38506588273E+02 -0.74267038475E+01 -0.10735599628E+02  0.50528851339E+02  0.29999974130E+02 0.  0.
         12    1    1    2    0    0  0.38506588273E+02  0.74267038475E+01  0.10735599628E+02  0.40659148661E+02  0.00000000000E+00 0. -1.
         11    1    3    3    0    0 -0.13031683275E+02 -0.12361717516E+02  0.63243002465E+01  0.19042941023E+02  0.51100000000E-03 0. -1.
        -11    1    3    3    0    0 -0.15837279022E+02  0.17520928780E+01 -0.12961901272E+02  0.20540207426E+02  0.51100000000E-03 0.  1.
         12    1    3    3    0    0 -0.96376259762E+01  0.31829207906E+01 -0.40979986025E+01  0.10945702890E+02  0.00000000000E+00 0. -1.
</event>
<event>
 7    1  0.5897985E-013  0.5052886E+02  0.7816164E-02  0.1300439E+00
        -11   -1    0    0    0    0  0.00000000000E+00  0.00000000000E+00  0.45593999997E+02  0.45594000000E+02  0.51100000000E-03 0.  1.
         11   -1    0    0    0    0 -0.00000000000E+00 -0.00000000000E+00 -0.45593999997E+02  0.45594000000E+02  0.51100000000E-03 0. -1.
    9900012    2    1    2    0    0 -0.19719228301E+02  0.26927440750E+02  0.23221331916E+02  0.50528864666E+02  0.30000014640E+02 0.  0.
         12    1    1    2    0    0  0.19719228301E+02 -0.26927440750E+02 -0.23221331916E+02  0.40659135334E+02  0.00000000000E+00 0. -1.
         11    1    3    3    0    0 -0.10220109210E+02  0.76328953241E+01  0.85703120215E+01  0.15367562321E+02  0.51100000000E-03 0. -1.
        -11    1    3    3    0    0  0.67883188066E+01  0.11978501662E+02  0.89356109472E+01  0.16413741729E+02  0.51100000000E-03 0.  1.
        -12    1    3    3    0    0 -0.16287437898E+02  0.73160437644E+01  0.57154089469E+01  0.18747560616E+02  0.00000000000E+00 0.  1.
</event>
<event>
 7    1  0.5897985E-013  0.5052886E+02  0.7816164E-02  0.1300439E+00
        -11   -1    0    0    0    0  0.00000000000E+00  0.00000000000E+00  0.45593999997E+02  0.45594000000E+02  0.51100000000E-03 0.  1.
         11   -1    0    0    0    0 -0.00000000000E+00 -0.00000000000E+00 -0.45593999997E+02  0.45594000000E+02  0.51100000000E-03 0. -1.
    9900012    2    1    2    0    0 -0.15377264418E+02  0.33408337812E+02 -0.17337484493E+02  0.50528860008E+02  0.30000000480E+02 0.  0.
         12    1    1    2    0    0  0.15377264418E+02 -0.33408337812E+02  0.17337484493E+02  0.40659139992E+02  0.00000000000E+00 0. -1.
         11    1    3    3    0    0 -0.12979203996E+02  0.21938283515E+02 -0.20085217279E+01  0.25569164627E+02  0.51100000000E-03 0. -1.
        -11    1    3    3    0    0  0.18788148974E+01 -0.20183528615E+01  0.13639082224E+01  0.30763516692E+01  0.51100000000E-03 0.  1.
         12    1    3    3    0    0 -0.42768753197E+01  0.13488407159E+02 -0.16692870988E+02  0.21883343711E+02  0.00000000000E+00 0. -1.
</event>
<event>
 7    1  0.5897985E-013  0.5052887E+02  0.7816164E-02  0.1300439E+00
        -11   -1    0    0    0    0  0.00000000000E+00  0.00000000000E+00  0.45593999997E+02  0.45594000000E+02  0.51100000000E-03 0.  1.
         11   -1    0    0    0    0 -0.00000000000E+00 -0.00000000000E+00 -0.45593999997E+02  0.45594000000E+02  0.51100000000E-03 0. -1.
    9900012    2    1    2    0    0 -0.16262223372E+02 -0.39376524806E+01  0.37056714031E+02  0.50528867313E+02  0.30000022685E+02 0.  0.
         12    1    1    2    0    0  0.16262223372E+02  0.39376524806E+01 -0.37056714031E+02  0.40659132687E+02  0.00000000000E+00 0. -1.
         11    1    3    3    0    0 -0.14532476392E+02 -0.85964154606E+01  0.11727837467E+02  0.20558049537E+02  0.51100000000E-03 0. -1.
        -11    1    3    3    0    0  0.22369542436E+01 -0.20732664231E+01  0.20627409854E+02  0.20851677043E+02  0.51100000000E-03 0.  1.
         12    1    3    3    0    0 -0.39667012235E+01  0.67320294032E+01  0.47014667102E+01  0.91191407330E+01  0.00000000000E+00 0. -1.
</event>
<event>
 7    1  0.5897985E-013  0.5052886E+02  0.7816164E-02  0.1300439E+00
        -11   -1    0    0    0    0  0.00000000000E+00  0.00000000000E+00  0.45593999997E+02  0.45594000000E+02  0.51100000000E-03 0.  1.
         11   -1    0    0    0    0 -0.00000000000E+00 -0.00000000000E+00 -0.45593999997E+02  0.45594000000E+02  0.51100000000E-03 0. -1.
    9900012    2    1    2    0    0 -0.24120438136E+02  0.29742270434E+02  0.13666295645E+02  0.50528858062E+02  0.29999994566E+02 0.  0.
         12    1    1    2    0    0  0.24120438136E+02 -0.29742270434E+02 -0.13666295645E+02  0.40659141938E+02  0.00000000000E+00 0. -1.
         11    1    3    3    0    0 -0.46168118775E+01  0.24576700287E+00 -0.47298927289E+00  0.46474802254E+01  0.51100000000E-03 0. -1.
        -11    1    3    3    0    0 -0.23432056005E+01  0.25612686354E+02  0.55912873453E+01  0.26320387710E+02  0.51100000000E-03 0.  1.
        -12    1    3    3    0    0 -0.17160420658E+02  0.38838170772E+01  0.85479975722E+01  0.19560990127E+02  0.00000000000E+00 0.  1.
</event>
<event>
 7    1  0.5897985E-013  0.5052885E+02  0.7816164E-02  0.1300439E+00
        -11   -1    0    0    0    0  0.00000000000E+00  0.00000000000E+00  0.45593999997E+02  0.45594000000E+02  0.51100000000E-03 0. -1.
         11   -1    0    0    0    0 -0.00000000000E+00 -0.00000000000E+00 -0.45593999997E+02  0.45594000000E+02  0.51100000000E-03 0.  1.
    9900012    2    1    2    0    0  0.40230177678E+02 -0.54577216262E+00 -0.58652569535E+01  0.50528852168E+02  0.29999976650E+02 0.  0.
         12    1    1    2    0    0 -0.40230177678E+02  0.54577216262E+00  0.58652569535E+01  0.40659147832E+02  0.00000000000E+00 0. -1.
         11    1    3    3    0    0  0.92112640046E+01  0.57840577723E+01 -0.11328240154E+02  0.15704513177E+02  0.51100000000E-03 0. -1.
        -11    1    3    3    0    0  0.24531909001E+02  0.71360448938E+00  0.19309076778E+01  0.24618127372E+02  0.51100000000E-03 0.  1.
        -12    1    3    3    0    0  0.64870046730E+01 -0.70434344243E+01  0.35320755228E+01  0.10206211619E+02  0.00000000000E+00 0.  1.
</event>
<event>
 7    1  0.5897985E-013  0.5052887E+02  0.7816164E-02  0.1300439E+00
        -11   -1    0    0    0    0  0.00000000000E+00  0.00000000000E+00  0.45593999997E+02  0.45594000000E+02  0.51100000000E-03 0.  1.
         11   -1    0    0    0    0 -0.00000000000E+00 -0.00000000000E+00 -0.45593999997E+02  0.45594000000E+02  0.51100000000E-03 0. -1.
    9900012    2    1    2    0    0  0.11951185708E+02  0.29197826980E+02 -0.25648027506E+02  0.50528865046E+02  0.30000015795E+02 0.  0.
         12    1    1    2    0    0 -0.11951185708E+02 -0.29197826980E+02  0.25648027506E+02  0.40659134954E+02  0.00000000000E+00 0. -1.
         11    1    3    3    0    0 -0.76883348793E+01  0.13453998629E+02 -0.17639446733E+02  0.23479153597E+02  0.51100000000E-03 0. -1.
        -11    1    3    3    0    0  0.69409121544E+01  0.33896554746E+01 -0.46545315019E+01  0.90183529280E+01  0.51100000000E-03 0.  1.
         12    1    3    3    0    0  0.12698608433E+02  0.12354172877E+02 -0.33540492720E+01  0.18031358521E+02  0.00000000000E+00 0. -1.
</event>
<event>
 7    1  0.5897985E-013  0.5052887E+02  0.7816164E-02  0.1300439E+00
        -11   -1    0    0    0    0  0.00000000000E+00  0.00000000000E+00  0.45593999997E+02  0.45594000000E+02  0.51100000000E-03 0. -1.
         11   -1    0    0    0    0 -0.00000000000E+00 -0.00000000000E+00 -0.45593999997E+02  0.45594000000E+02  0.51100000000E-03 0.  1.
    9900012    2    1    2    0    0 -0.69869176141E+01  0.31783480713E+02 -0.24375360235E+02  0.50528870022E+02  0.30000030919E+02 0.  0.
         12    1    1    2    0    0  0.69869176141E+01 -0.31783480713E+02  0.24375360235E+02  0.40659129978E+02  0.00000000000E+00 0. -1.
         11    1    3    3    0    0 -0.20482729515E+01 -0.22215731902E+01 -0.89164387101E+01  0.94145466729E+01  0.51100000000E-03 0. -1.
        -11    1    3    3    0    0 -0.48062771196E+00  0.29396810890E+02 -0.17705568150E+02  0.34320411379E+02  0.51100000000E-03 0.  1.
        -12    1    3    3    0    0 -0.44580169506E+01  0.46082430131E+01  0.22466466245E+01  0.67939119699E+01  0.00000000000E+00 0.  1.
</event>
<event>
 7    1  0.5897985E-013  0.5052897E+02  0.7816164E-02  0.1300438E+00
        -11   -1    0    0    0    0  0.00000000000E+00  0.00000000000E+00  0.45593999997E+02  0.45594000000E+02  0.51100000000E-03 0.  1.
         11   -1    0    0    0    0 -0.00000000000E+00 -0.00000000000E+00 -0.45593999997E+02  0.45594000000E+02  0.51100000000E-03 0. -1.
    9900012    2    1    2    0    0  0.15538709585E+02  0.45258577721E+01  0.37299080910E+02  0.50528974915E+02  0.30000349750E+02 0.  0.
         12    1    1    2    0    0 -0.15538709585E+02 -0.45258577721E+01 -0.37299080910E+02  0.40659025085E+02  0.00000000000E+00 0. -1.
         11    1    3    3    0    0  0.28281022720E+01 -0.46687505641E+01 -0.28630818334E+01  0.61638163613E+01  0.51100000000E-03 0. -1.
        -11    1    3    3    0    0  0.11317776083E+02  0.23988884311E+01  0.29006157909E+02  0.31228255124E+02  0.51100000000E-03 0.  1.
         12    1    3    3    0    0  0.13928312299E+01  0.67957199051E+01  0.11156004834E+02  0.13136903430E+02  0.00000000000E+00 0. -1.
</event>
<event>
 7    1  0.5897985E-013  0.5052886E+02  0.7816164E-02  0.1300439E+00
        -11   -1    0    0    0    0  0.00000000000E+00  0.00000000000E+00  0.45593999997E+02  0.45594000000E+02  0.51100000000E-03 0.  1.
         11   -1    0    0    0    0 -0.00000000000E+00 -0.00000000000E+00 -0.45593999997E+02  0.45594000000E+02  0.51100000000E-03 0. -1.
    9900012    2    1    2    0    0  0.96501545596E+01 -0.26854785875E+02  0.28963089587E+02  0.50528861226E+02  0.30000004182E+02 0.  0.
         12    1    1    2    0    0 -0.96501545596E+01  0.26854785875E+02 -0.28963089587E+02  0.40659138774E+02  0.00000000000E+00 0. -1.
         11    1    3    3    0    0  0.15529418812E+01 -0.19408091940E+02  0.25205012410E+01  0.19632589947E+02  0.51100000000E-03 0. -1.
        -11    1    3    3    0    0 -0.88541451551E+00 -0.60082837225E+01  0.15614526358E+02  0.16754010439E+02  0.51100000000E-03 0.  1.
         12    1    3    3    0    0  0.89826271939E+01 -0.14384102119E+01  0.10828061989E+02  0.14142260840E+02  0.00000000000E+00 0. -1.
</event>
<event>
 7    1  0.5897985E-013  0.5052887E+02  0.7816164E-02  0.1300439E+00
        -11   -1    0    0    0    0  0.00000000000E+00  0.00000000000E+00  0.45593999997E+02  0.45594000000E+02  0.51100000000E-03 0. -1.
         11   -1    0    0    0    0 -0.00000000000E+00 -0.00000000000E+00 -0.45593999997E+02  0.45594000000E+02  0.51100000000E-03 0.  1.
    9900012    2    1    2    0    0 -0.40515224006E+02 -0.24877703499E+01 -0.23435323905E+01  0.50528874067E+02  0.30000043213E+02 0.  0.
         12    1    1    2    0    0  0.40515224006E+02  0.24877703499E+01  0.23435323905E+01  0.40659125933E+02  0.00000000000E+00 0. -1.
         11    1    3    3    0    0 -0.33669719219E+02 -0.56090289638E+01  0.12478486839E+01  0.34156526826E+02  0.51100000000E-03 0. -1.
        -11    1    3    3    0    0 -0.81579134550E+01  0.22082020948E+01 -0.80279041822E+01  0.11656541264E+02  0.51100000000E-03 0.  1.
         12    1    3    3    0    0  0.13124086677E+01  0.91305651913E+00  0.44365231078E+01  0.47158059761E+01  0.00000000000E+00 0. -1.
</event>
<event>
 7    1  0.5897985E-013  0.5052886E+02  0.7816164E-02  0.1300439E+00
        -11   -1    0    0    0    0  0.00000000000E+00  0.00000000000E+00  0.45593999997E+02  0.45594000000E+02  0.51100000000E-03 0. -1.
         11   -1    0    0    0    0 -0.00000000000E+00 -0.00000000000E+00 -0.45593999997E+02  0.45594000000E+02  0.51100000000E-03 0.  1.
    9900012    2    1    2    0    0 -0.35498865456E+02 -0.17904104175E+02  0.85111411929E+01  0.50528856878E+02  0.29999990967E+02 0.  0.
         12    1    1    2    0    0  0.35498865456E+02  0.17904104175E+02 -0.85111411929E+01  0.40659143122E+02  0.00000000000E+00 0. -1.
         11    1    3    3    0    0 -0.24566860785E+02 -0.11173925000E+02  0.13928369877E+02  0.30370820477E+02  0.51100000000E-03 0. -1.
        -11    1    3    3    0    0  0.23181728395E+01 -0.52921112266E+01 -0.17069751374E-01  0.57775996907E+01  0.51100000000E-03 0.  1.
        -12    1    3    3    0    0 -0.13250177510E+02 -0.14380679482E+01 -0.54001589329E+01  0.14380436710E+02  0.00000000000E+00 0.  1.
</event>
<event>
 7    1  0.5897985E-013  0.5052886E+02  0.7816164E-02  0.1300439E+00
        -11   -1    0    0    0    0  0.00000000000E+00  0.00000000000E+00  0.45593999997E+02  0.45594000000E+02  0.51100000000E-03 0. -1.
         11   -1    0    0    0    0 -0.00000000000E+00 -0.00000000000E+00 -0.45593999997E+02  0.45594000000E+02  0.51100000000E-03 0.  1.
    9900012    2    1    2    0    0 -0.39607867996E+02 -0.39717164565E+01 -0.82830131361E+01  0.50528855329E+02  0.29999986257E+02 0.  0.
         12    1    1    2    0    0  0.39607867996E+02  0.39717164565E+01  0.82830131361E+01  0.40659144671E+02  0.00000000000E+00 0. -1.
         11    1    3    3    0    0 -0.89591436240E+01  0.23549434647E+01  0.11719644979E+01  0.93373183646E+01  0.51100000000E-03 0. -1.
        -11    1    3    3    0    0 -0.14895878831E+02 -0.12279123741E+02 -0.13884154494E+02  0.23778852627E+02  0.51100000000E-03 0.  1.
        -12    1    3    3    0    0 -0.15752845541E+02  0.59524638198E+01  0.44291768596E+01  0.17412684337E+02  0.00000000000E+00 0.  1.
</event>
<event>
 7    1  0.5897985E-013  0.5052884E+02  0.7816164E-02  0.1300439E+00
        -11   -1    0    0    0    0  0.00000000000E+00  0.00000000000E+00  0.45593999997E+02  0.45594000000E+02  0.51100000000E-03 0. -1.
         11   -1    0    0    0    0 -0.00000000000E+00 -0.00000000000E+00 -0.45593999997E+02  0.45594000000E+02  0.51100000000E-03 0.  1.
    9900012    2    1    2    0    0  0.43878313331E+01  0.18339057125E+02 -0.36022118866E+02  0.50528842020E+02  0.29999945805E+02 0.  0.
         12    1    1    2    0    0 -0.43878313331E+01 -0.18339057125E+02  0.36022118866E+02  0.40659157980E+02  0.00000000000E+00 0. -1.
         11    1    3    3    0    0  0.58331365179E+01 -0.44629328441E+01 -0.16905911439E+01  0.75366670276E+01  0.51100000000E-03 0. -1.
        -11    1    3    3    0    0  0.15622850753E+01  0.22775106280E+02 -0.31076787249E+02  0.38560509679E+02  0.51100000000E-03 0.  1.
         12    1    3    3    0    0 -0.30075902601E+01  0.26883688244E-01 -0.32547404732E+01  0.44316653138E+01  0.00000000000E+00 0. -1.
</event>
<event>
 7    1  0.5897985E-013  0.5052887E+02  0.7816164E-02  0.1300439E+00
        -11   -1    0    0    0    0  0.00000000000E+00  0.00000000000E+00  0.45593999997E+02  0.45594000000E+02  0.51100000000E-03 0. -1.
         11   -1    0    0    0    0 -0.00000000000E+00 -0.00000000000E+00 -0.45593999997E+02  0.45594000000E+02  0.51100000000E-03 0.  1.
    9900012    2    1    2    0    0  0.29066127613E+01 -0.35229440378E+02 -0.20089882423E+02  0.50528865198E+02  0.30000016255E+02 0.  0.
         12    1    1    2    0    0 -0.29066127613E+01  0.35229440378E+02  0.20089882423E+02  0.40659134802E+02  0.00000000000E+00 0. -1.
         11    1    3    3    0    0  0.58448071570E+01  0.90920889802E+00 -0.13289351504E+01  0.60625490033E+01  0.51100000000E-03 0. -1.
        -11    1    3    3    0    0 -0.10784805216E+01 -0.37435546873E+02 -0.15585789756E+02  0.40564764667E+02  0.51100000000E-03 0.  1.
         12    1    3    3    0    0 -0.18597138741E+01  0.12968975964E+01 -0.31751575159E+01  0.39015515272E+01  0.00000000000E+00 0. -1.
</event>
<event>
 7    1  0.5897985E-013  0.5052886E+02  0.7816164E-02  0.1300439E+00
        -11   -1    0    0    0    0  0.00000000000E+00  0.00000000000E+00  0.45593999997E+02  0.45594000000E+02  0.51100000000E-03 0.  1.
         11   -1    0    0    0    0 -0.00000000000E+00 -0.00000000000E+00 -0.45593999997E+02  0.45594000000E+02  0.51100000000E-03 0. -1.
    9900012    2    1    2    0    0 -0.20252396119E+02  0.27431199586E+02  0.22148042697E+02  0.50528855216E+02  0.29999985915E+02 0.  0.
         12    1    1    2    0    0  0.20252396119E+02 -0.27431199586E+02 -0.22148042697E+02  0.40659144784E+02  0.00000000000E+00 0. -1.
         11    1    3    3    0    0 -0.22017330279E+02  0.16283701264E+02  0.41810274854E+01  0.27702035134E+02  0.51100000000E-03 0.  1.
        -11    1    3    3    0    0 -0.44373207784E+00 -0.10861489804E+01  0.27690502688E+00  0.12055266150E+01  0.51100000000E-03 0. -1.
         12    1    3    3    0    0  0.22086662382E+01  0.12233647302E+02  0.17690110184E+02  0.21621293467E+02  0.00000000000E+00 0. -1.
</event>
<event>
 7    1  0.5897985E-013  0.5052887E+02  0.7816164E-02  0.1300439E+00
        -11   -1    0    0    0    0  0.00000000000E+00  0.00000000000E+00  0.45593999997E+02  0.45594000000E+02  0.51100000000E-03 0. -1.
         11   -1    0    0    0    0 -0.00000000000E+00 -0.00000000000E+00 -0.45593999997E+02  0.45594000000E+02  0.51100000000E-03 0.  1.
    9900012    2    1    2    0    0 -0.37053694329E+02 -0.25567037603E+01 -0.16542422925E+02  0.50528871213E+02  0.30000034538E+02 0.  0.
         12    1    1    2    0    0  0.37053694329E+02  0.25567037603E+01  0.16542422925E+02  0.40659128787E+02  0.00000000000E+00 0. -1.
         11    1    3    3    0    0 -0.24554341748E+02  0.23234563294E+01  0.21018023527E+00  0.24664920920E+02  0.51100000000E-03 0. -1.
        -11    1    3    3    0    0 -0.42438621491E+01  0.44071055625E+01 -0.99959793965E+01  0.11719750413E+02  0.51100000000E-03 0.  1.
         12    1    3    3    0    0 -0.82554904318E+01 -0.92872656521E+01 -0.67566237633E+01  0.14144199880E+02  0.00000000000E+00 0. -1.
</event>
<event>
 7    1  0.5897985E-013  0.5052886E+02  0.7816164E-02  0.1300439E+00
        -11   -1    0    0    0    0  0.00000000000E+00  0.00000000000E+00  0.45593999997E+02  0.45594000000E+02  0.51100000000E-03 0.  1.
         11   -1    0    0    0    0 -0.00000000000E+00 -0.00000000000E+00 -0.45593999997E+02  0.45594000000E+02  0.51100000000E-03 0. -1.
    9900012    2    1    2    0    0  0.27324849349E+02 -0.30107930331E+02  0.17507050191E+00  0.50528861908E+02  0.30000006254E+02 0.  0.
         12    1    1    2    0    0 -0.27324849349E+02  0.30107930331E+02 -0.17507050191E+00  0.40659138092E+02  0.00000000000E+00 0. -1.
         11    1    3    3    0    0  0.94851096459E+01 -0.23241566934E+02 -0.10005896787E+02  0.27023243871E+02  0.51100000000E-03 0. -1.
        -11    1    3    3    0    0  0.14946880560E+02 -0.80866836746E+01  0.54863930257E+01  0.17857889014E+02  0.51100000000E-03 0.  1.
         12    1    3    3    0    0  0.28928591427E+01  0.12203202781E+01  0.46945742631E+01  0.56477290226E+01  0.00000000000E+00 0. -1.
</event>
<event>
 7    1  0.5897985E-013  0.5052888E+02  0.7816164E-02  0.1300439E+00
        -11   -1    0    0    0    0  0.00000000000E+00  0.00000000000E+00  0.45593999997E+02  0.45594000000E+02  0.51100000000E-03 0. -1.
         11   -1    0    0    0    0 -0.00000000000E+00 -0.00000000000E+00 -0.45593999997E+02  0.45594000000E+02  0.51100000000E-03 0.  1.
    9900012    2    1    2    0    0  0.11838339086E+02 -0.20641622972E+02 -0.32968796933E+02  0.50528875041E+02  0.30000046173E+02 0.  0.
         12    1    1    2    0    0 -0.11838339086E+02  0.20641622972E+02  0.32968796933E+02  0.40659124959E+02  0.00000000000E+00 0. -1.
         11    1    3    3    0    0  0.39424358232E+01 -0.65049181181E+01 -0.57246464604E+01  0.95198916644E+01  0.51100000000E-03 0. -1.
        -11    1    3    3    0    0  0.43431397156E+01  0.47039268342E+01 -0.19160502642E+02  0.20201847737E+02  0.51100000000E-03 0.  1.
        -12    1    3    3    0    0  0.35527635476E+01 -0.18840631688E+02 -0.80836478306E+01  0.20807135639E+02  0.00000000000E+00 0.  1.
</event>
<event>
 7    1  0.5897985E-013  0.5052883E+02  0.7816164E-02  0.1300439E+00
        -11   -1    0    0    0    0  0.00000000000E+00  0.00000000000E+00  0.45593999997E+02  0.45594000000E+02  0.51100000000E-03 0.  1.
         11   -1    0    0    0    0 -0.00000000000E+00 -0.00000000000E+00 -0.45593999997E+02  0.45594000000E+02  0.51100000000E-03 0. -1.
    9900012    2    1    2    0    0 -0.33250693289E+01 -0.45984811974E+01  0.40261217138E+02  0.50528834726E+02  0.29999923633E+02 0.  0.
         12    1    1    2    0    0  0.33250693289E+01  0.45984811974E+01 -0.40261217138E+02  0.40659165274E+02  0.00000000000E+00 0. -1.
         11    1    3    3    0    0  0.21431274453E+01 -0.86568544825E+01  0.23779606388E+01  0.92297790785E+01  0.51100000000E-03 0. -1.
        -11    1    3    3    0    0 -0.57082073467E+00  0.89621312411E+01  0.16041106362E+02  0.18383762571E+02  0.51100000000E-03 0.  1.
         12    1    3    3    0    0 -0.48973760395E+01 -0.49037579560E+01  0.21842150137E+02  0.22915293076E+02  0.00000000000E+00 0. -1.
</event>
<event>
 7    1  0.5897985E-013  0.5052883E+02  0.7816164E-02  0.1300439E+00
        -11   -1    0    0    0    0  0.00000000000E+00  0.00000000000E+00  0.45593999997E+02  0.45594000000E+02  0.51100000000E-03 0. -1.
         11   -1    0    0    0    0 -0.00000000000E+00 -0.00000000000E+00 -0.45593999997E+02  0.45594000000E+02  0.51100000000E-03 0.  1.
    9900012    2    1    2    0    0  0.35271403830E+02  0.17699356480E+02 -0.97892159856E+01  0.50528832552E+02  0.29999917024E+02 0.  0.
         12    1    1    2    0    0 -0.35271403830E+02 -0.17699356480E+02  0.97892159856E+01  0.40659167448E+02  0.00000000000E+00 0. -1.
         11    1    3    3    0    0  0.65734255918E+01 -0.24048528701E+01 -0.59129450050E+01  0.91627594223E+01  0.51100000000E-03 0. -1.
        -11    1    3    3    0    0  0.31862789296E+02  0.20553381139E+02 -0.42212409265E+01  0.38150985481E+02  0.51100000000E-03 0.  1.
        -12    1    3    3    0    0 -0.31648110570E+01 -0.44917178884E+00  0.34496994586E+00  0.32150876482E+01  0.00000000000E+00 0.  1.
</event>
<event>
 7    1  0.5897985E-013  0.5052887E+02  0.7816164E-02  0.1300439E+00
        -11   -1    0    0    0    0  0.00000000000E+00  0.00000000000E+00  0.45593999997E+02  0.45594000000E+02  0.51100000000E-03 0.  1.
         11   -1    0    0    0    0 -0.00000000000E+00 -0.00000000000E+00 -0.45593999997E+02  0.45594000000E+02  0.51100000000E-03 0. -1.
    9900012    2    1    2    0    0  0.20939275814E+01  0.27948003769E+02  0.29456574962E+02  0.50528865038E+02  0.30000015769E+02 0.  0.
         12    1    1    2    0    0 -0.20939275814E+01 -0.27948003769E+02 -0.29456574962E+02  0.40659134962E+02  0.00000000000E+00 0. -1.
         11    1    3    3    0    0  0.27434132458E+01 -0.50347213006E+01  0.58716486423E+01  0.82067650662E+01  0.51100000000E-03 0. -1.
        -11    1    3    3    0    0 -0.34725899640E+01  0.31932827178E+02  0.21814598219E+02  0.38828353408E+02  0.51100000000E-03 0.  1.
        -12    1    3    3    0    0  0.28231042996E+01  0.10498978916E+01  0.17703281005E+01  0.34937465639E+01  0.00000000000E+00 0.  1.
</event>
<event>
 7    1  0.5897985E-013  0.5052886E+02  0.7816164E-02  0.1300439E+00
        -11   -1    0    0    0    0  0.00000000000E+00  0.00000000000E+00  0.45593999997E+02  0.45594000000E+02  0.51100000000E-03 0.  1.
         11   -1    0    0    0    0 -0.00000000000E+00 -0.00000000000E+00 -0.45593999997E+02  0.45594000000E+02  0.51100000000E-03 0. -1.
    9900012    2    1    2    0    0 -0.33359698072E+01 -0.11759171979E+02  0.38778328024E+02  0.50528861488E+02  0.30000004979E+02 0.  0.
         12    1    1    2    0    0  0.33359698072E+01  0.11759171979E+02 -0.38778328024E+02  0.40659138512E+02  0.00000000000E+00 0. -1.
         11    1    3    3    0    0 -0.10408166464E+02 -0.41253221742E+01  0.25561270303E+01  0.11483988760E+02  0.51100000000E-03 0. -1.
        -11    1    3    3    0    0  0.20970907532E+01 -0.91363779258E+01  0.22819316886E+02  0.24669665880E+02  0.51100000000E-03 0.  1.
         12    1    3    3    0    0  0.49751059038E+01  0.15025281210E+01  0.13402884108E+02  0.14375206848E+02  0.00000000000E+00 0. -1.
</event>
<event>
 7    1  0.5897985E-013  0.5052881E+02  0.7816164E-02  0.1300439E+00
        -11   -1    0    0    0    0  0.00000000000E+00  0.00000000000E+00  0.45593999997E+02  0.45594000000E+02  0.51100000000E-03 0.  1.
         11   -1    0    0    0    0 -0.00000000000E+00 -0.00000000000E+00 -0.45593999997E+02  0.45594000000E+02  0.51100000000E-03 0. -1.
    9900012    2    1    2    0    0  0.19570045391E+02 -0.35544737562E+02  0.25989068130E+01  0.50528814549E+02  0.29999862302E+02 0.  0.
         12    1    1    2    0    0 -0.19570045391E+02  0.35544737562E+02 -0.25989068130E+01  0.40659185451E+02  0.00000000000E+00 0. -1.
         11    1    3    3    0    0  0.66720646058E+01 -0.60523490083E+01 -0.52977535881E+01  0.10450529554E+02  0.51100000000E-03 0. -1.
        -11    1    3    3    0    0 -0.62950861286E+01 -0.95978201232E+01  0.40330542312E+01  0.12166009501E+02  0.51100000000E-03 0.  1.
        -12    1    3    3    0    0  0.19193066914E+02 -0.19894568430E+02  0.38636061699E+01  0.27912275493E+02  0.00000000000E+00 0.  1.
</event>
<event>
 7    1  0.5897985E-013  0.5052883E+02  0.7816164E-02  0.1300439E+00
        -11   -1    0    0    0    0  0.00000000000E+00  0.00000000000E+00  0.45593999997E+02  0.45594000000E+02  0.51100000000E-03 0.  1.
         11   -1    0    0    0    0 -0.00000000000E+00 -0.00000000000E+00 -0.45593999997E+02  0.45594000000E+02  0.51100000000E-03 0. -1.
    9900012    2    1    2    0    0 -0.10187319686E+02  0.25868180888E+02  0.29668566883E+02  0.50528829747E+02  0.29999908498E+02 0.  0.
         12    1    1    2    0    0  0.10187319686E+02 -0.25868180888E+02 -0.29668566883E+02  0.40659170253E+02  0.00000000000E+00 0. -1.
         11    1    3    3    0    0 -0.94326805194E+01  0.42846185981E+01 -0.18761644384E+01  0.10528694676E+02  0.51100000000E-03 0. -1.
        -11    1    3    3    0    0  0.14371683811E+01  0.21905135506E+02  0.30425583405E+02  0.37518216113E+02  0.51100000000E-03 0.  1.
        -12    1    3    3    0    0 -0.21918075473E+01 -0.32157321583E+00  0.11191479156E+01  0.24819189581E+01  0.00000000000E+00 0.  1.
</event>
<event>
 7    1  0.5897985E-013  0.5052889E+02  0.7816164E-02  0.1300439E+00
        -11   -1    0    0    0    0  0.00000000000E+00  0.00000000000E+00  0.45593999997E+02  0.45594000000E+02  0.51100000000E-03 0.  1.
         11   -1    0    0    0    0 -0.00000000000E+00 -0.00000000000E+00 -0.45593999997E+02  0.45594000000E+02  0.51100000000E-03 0. -1.
    9900012    2    1    2    0    0 -0.10130848648E+02  0.38908129965E+02  0.60569494961E+01  0.50528888980E+02  0.30000088545E+02 0.  0.
         12    1    1    2    0    0  0.10130848648E+02 -0.38908129965E+02 -0.60569494961E+01  0.40659111020E+02  0.00000000000E+00 0. -1.
         11    1    3    3    0    0  0.77186730457E+01  0.58837703771E+01 -0.42837416378E+01  0.10608822278E+02  0.51100000000E-03 0. -1.
        -11    1    3    3    0    0 -0.90427986129E+01  0.12780132427E+02  0.27851166446E+00  0.15658274509E+02  0.51100000000E-03 0.  1.
         12    1    3    3    0    0 -0.88067230807E+01  0.20244227161E+02  0.10062179469E+02  0.24261792193E+02  0.00000000000E+00 0. -1.
</event>
<event>
 7    1  0.5897985E-013  0.5052886E+02  0.7816164E-02  0.1300439E+00
        -11   -1    0    0    0    0  0.00000000000E+00  0.00000000000E+00  0.45593999997E+02  0.45594000000E+02  0.51100000000E-03 0.  1.
         11   -1    0    0    0    0 -0.00000000000E+00 -0.00000000000E+00 -0.45593999997E+02  0.45594000000E+02  0.51100000000E-03 0. -1.
    9900012    2    1    2    0    0  0.95335084990E+01 -0.38523829757E+02 -0.88426459152E+01  0.50528860434E+02  0.30000001776E+02 0.  0.
         12    1    1    2    0    0 -0.95335084990E+01  0.38523829757E+02  0.88426459152E+01  0.40659139566E+02  0.00000000000E+00 0. -1.
         11    1    3    3    0    0  0.52796566172E+01 -0.12693934821E+02 -0.59996842040E+01  0.15000232200E+02  0.51100000000E-03 0. -1.
        -11    1    3    3    0    0 -0.86726924413E+01 -0.97026564689E+01  0.42292958465E+01  0.13683715882E+02  0.51100000000E-03 0.  1.
        -12    1    3    3    0    0  0.12926544323E+02 -0.16127238467E+02 -0.70722575577E+01  0.21844912352E+02  0.00000000000E+00 0.  1.
</event>
<event>
 7    1  0.5897985E-013  0.5052888E+02  0.7816164E-02  0.1300439E+00
        -11   -1    0    0    0    0  0.00000000000E+00  0.00000000000E+00  0.45593999997E+02  0.45594000000E+02  0.51100000000E-03 0.  1.
         11   -1    0    0    0    0 -0.00000000000E+00 -0.00000000000E+00 -0.45593999997E+02  0.45594000000E+02  0.51100000000E-03 0. -1.
    9900012    2    1    2    0    0 -0.32398647739E+02  0.66118751472E+01  0.23659565982E+02  0.50528876414E+02  0.30000050349E+02 0.  0.
         12    1    1    2    0    0  0.32398647739E+02 -0.66118751472E+01 -0.23659565982E+02  0.40659123586E+02  0.00000000000E+00 0. -1.
         11    1    3    3    0    0 -0.93008800673E+00  0.63423571860E+01  0.89117749700E+00  0.64718433207E+01  0.51100000000E-03 0. -1.
        -11    1    3    3    0    0 -0.23685082783E+02 -0.75187622631E+01  0.90048995582E+01  0.26431101921E+02  0.51100000000E-03 0.  1.
        -12    1    3    3    0    0 -0.77834769491E+01  0.77882802243E+01  0.13763488927E+02  0.17625931173E+02  0.00000000000E+00 0.  1.
</event>
<event>
 7    1  0.5897985E-013  0.5052886E+02  0.7816164E-02  0.1300439E+00
        -11   -1    0    0    0    0  0.00000000000E+00  0.00000000000E+00  0.45593999997E+02  0.45594000000E+02  0.51100000000E-03 0.  1.
         11   -1    0    0    0    0 -0.00000000000E+00 -0.00000000000E+00 -0.45593999997E+02  0.45594000000E+02  0.51100000000E-03 0. -1.
    9900012    2    1    2    0    0 -0.69426160841E+01  0.37456717449E+02 -0.14211273463E+02  0.50528857196E+02  0.29999991932E+02 0.  0.
         12    1    1    2    0    0  0.69426160841E+01 -0.37456717449E+02  0.14211273463E+02  0.40659142804E+02  0.00000000000E+00 0. -1.
         11    1    3    3    0    0 -0.34349995449E+00  0.21427717426E+02 -0.17946605901E+02  0.27952562136E+02  0.51100000000E-03 0. -1.
        -11    1    3    3    0    0 -0.97483620773E+01  0.16415796498E+02  0.32278962511E+01  0.19363064126E+02  0.51100000000E-03 0.  1.
        -12    1    3    3    0    0  0.31492459477E+01 -0.38679647541E+00  0.50743618737E+00  0.32132309342E+01  0.00000000000E+00 0.  1.
</event>
<event>
 7    1  0.5897985E-013  0.5052886E+02  0.7816164E-02  0.1300439E+00
        -11   -1    0    0    0    0  0.00000000000E+00  0.00000000000E+00  0.45593999997E+02  0.45594000000E+02  0.51100000000E-03 0.  1.
         11   -1    0    0    0    0 -0.00000000000E+00 -0.00000000000E+00 -0.45593999997E+02  0.45594000000E+02  0.51100000000E-03 0. -1.
    9900012    2    1    2    0    0  0.11523998660E+02  0.35708839872E+02  0.15660208693E+02  0.50528856791E+02  0.29999990703E+02 0.  0.
         12    1    1    2    0    0 -0.11523998660E+02 -0.35708839872E+02 -0.15660208693E+02  0.40659143209E+02  0.00000000000E+00 0. -1.
         11    1    3    3    0    0  0.54462401215E+01 -0.42833380800E+00 -0.41995736168E+01  0.68906763192E+01  0.51100000000E-03 0. -1.
        -11    1    3    3    0    0  0.83769931049E+01  0.17404567730E+02  0.60117769512E+01  0.20229544081E+02  0.51100000000E-03 0.  1.
         12    1    3    3    0    0 -0.22992345668E+01  0.18732605951E+02  0.13848005359E+02  0.23408636392E+02  0.00000000000E+00 0. -1.
</event>
<event>
 7    1  0.5897985E-013  0.5052886E+02  0.7816164E-02  0.1300439E+00
        -11   -1    0    0    0    0  0.00000000000E+00  0.00000000000E+00  0.45593999997E+02  0.45594000000E+02  0.51100000000E-03 0.  1.
         11   -1    0    0    0    0 -0.00000000000E+00 -0.00000000000E+00 -0.45593999997E+02  0.45594000000E+02  0.51100000000E-03 0. -1.
    9900012    2    1    2    0    0  0.23266066672E+02 -0.15465532064E+02  0.29541045455E+02  0.50528857031E+02  0.29999991431E+02 0.  0.
         12    1    1    2    0    0 -0.23266066672E+02  0.15465532064E+02 -0.29541045455E+02  0.40659142969E+02  0.00000000000E+00 0. -1.
         11    1    3    3    0    0 -0.71042064471E+00 -0.47721749962E+00  0.27602817378E+01  0.28899116885E+01  0.51100000000E-03 0. -1.
        -11    1    3    3    0    0  0.26331358091E+02 -0.18626185582E+02  0.28437406741E+02  0.42999550122E+02  0.51100000000E-03 0.  1.
        -12    1    3    3    0    0 -0.23548707747E+01  0.36378710178E+01 -0.16566430231E+01  0.46393952207E+01  0.00000000000E+00 0.  1.
</event>
<event>
 7    1  0.5897985E-013  0.5052886E+02  0.7816164E-02  0.1300439E+00
        -11   -1    0    0    0    0  0.00000000000E+00  0.00000000000E+00  0.45593999997E+02  0.45594000000E+02  0.51100000000E-03 0.  1.
         11   -1    0    0    0    0 -0.00000000000E+00 -0.00000000000E+00 -0.45593999997E+02  0.45594000000E+02  0.51100000000E-03 0. -1.
    9900012    2    1    2    0    0  0.87673287868E+01  0.21056475794E+02  0.33658946622E+02  0.50528856937E+02  0.29999991146E+02 0.  0.
         12    1    1    2    0    0 -0.87673287868E+01 -0.21056475794E+02 -0.33658946622E+02  0.40659143063E+02  0.00000000000E+00 0. -1.
         11    1    3    3    0    0  0.66139173684E+01  0.19767042915E+02  0.61379224094E+01  0.21729104453E+02  0.51100000000E-03 0. -1.
        -11    1    3    3    0    0  0.14178624901E+01  0.39041170864E+01  0.23979472784E+02  0.24336548226E+02  0.51100000000E-03 0.  1.
        -12    1    3    3    0    0  0.73554892832E+00 -0.26146842079E+01  0.35415514283E+01  0.44632042584E+01  0.00000000000E+00 0.  1.
</event>
<event>
 7    1  0.5897985E-013  0.5052888E+02  0.7816164E-02  0.1300439E+00
        -11   -1    0    0    0    0  0.00000000000E+00  0.00000000000E+00  0.45593999997E+02  0.45594000000E+02  0.51100000000E-03 0.  1.
         11   -1    0    0    0    0 -0.00000000000E+00 -0.00000000000E+00 -0.45593999997E+02  0.45594000000E+02  0.51100000000E-03 0. -1.
    9900012    2    1    2    0    0 -0.16312765090E+02  0.71284327652E+01  0.36554657355E+02  0.50528882536E+02  0.30000068958E+02 0.  0.
         12    1    1    2    0    0  0.16312765090E+02 -0.71284327652E+01 -0.36554657355E+02  0.40659117464E+02  0.00000000000E+00 0. -1.
         11    1    3    3    0    0 -0.11566833576E+02 -0.25617181878E+01  0.25179409746E+02  0.27827265666E+02  0.51100000000E-03 0. -1.
        -11    1    3    3    0    0 -0.22617851717E+01  0.11440072178E+02  0.78930243413E+00  0.11688195849E+02  0.51100000000E-03 0.  1.
        -12    1    3    3    0    0 -0.24841463426E+01 -0.17499212252E+01  0.10585945175E+02  0.11013421022E+02  0.00000000000E+00 0.  1.
</event>
<event>
 7    1  0.5897985E-013  0.5052886E+02  0.7816164E-02  0.1300439E+00
        -11   -1    0    0    0    0  0.00000000000E+00  0.00000000000E+00  0.45593999997E+02  0.45594000000E+02  0.51100000000E-03 0. -1.
         11   -1    0    0    0    0 -0.00000000000E+00 -0.00000000000E+00 -0.45593999997E+02  0.45594000000E+02  0.51100000000E-03 0.  1.
    9900012    2    1    2    0    0 -0.37711563543E+02 -0.10913960660E+02 -0.10577781569E+02  0.50528855579E+02  0.29999987018E+02 0.  0.
         12    1    1    2    0    0  0.37711563543E+02  0.10913960660E+02  0.10577781569E+02  0.40659144421E+02  0.00000000000E+00 0. -1.
         11    1    3    3    0    0 -0.86284828149E+01  0.40919959592E+01 -0.19611186308E+01  0.97489042031E+01  0.51100000000E-03 0. -1.
        -11    1    3    3    0    0 -0.15528096261E+02 -0.11340999028E+02  0.63572008072E+01  0.20252259993E+02  0.51100000000E-03 0.  1.
        -12    1    3    3    0    0 -0.13554984467E+02 -0.36649575910E+01 -0.14973863746E+02  0.20527691383E+02  0.00000000000E+00 0.  1.
</event>
<event>
 7    1  0.5897985E-013  0.5052886E+02  0.7816164E-02  0.1300439E+00
        -11   -1    0    0    0    0  0.00000000000E+00  0.00000000000E+00  0.45593999997E+02  0.45594000000E+02  0.51100000000E-03 0.  1.
         11   -1    0    0    0    0 -0.00000000000E+00 -0.00000000000E+00 -0.45593999997E+02  0.45594000000E+02  0.51100000000E-03 0. -1.
    9900012    2    1    2    0    0 -0.90549200482E+01  0.79522339356E+01  0.38832147922E+02  0.50528864324E+02  0.30000013600E+02 0.  0.
         12    1    1    2    0    0  0.90549200482E+01 -0.79522339356E+01 -0.38832147922E+02  0.40659135676E+02  0.00000000000E+00 0. -1.
         11    1    3    3    0    0  0.82346520091E+01  0.10908544144E+02  0.13592874254E+02  0.19276204497E+02  0.51100000000E-03 0. -1.
        -11    1    3    3    0    0 -0.83194840578E+01 -0.38463557173E+01  0.10149762878E+02  0.13675743272E+02  0.51100000000E-03 0.  1.
         12    1    3    3    0    0 -0.89700879995E+01  0.89004550868E+00  0.15089510790E+02  0.17576916556E+02  0.00000000000E+00 0. -1.
</event>
<event>
 7    1  0.5897985E-013  0.5052887E+02  0.7816164E-02  0.1300439E+00
        -11   -1    0    0    0    0  0.00000000000E+00  0.00000000000E+00  0.45593999997E+02  0.45594000000E+02  0.51100000000E-03 0.  1.
         11   -1    0    0    0    0 -0.00000000000E+00 -0.00000000000E+00 -0.45593999997E+02  0.45594000000E+02  0.51100000000E-03 0. -1.
    9900012    2    1    2    0    0  0.18534731433E+02  0.16356060595E+02  0.32281700038E+02  0.50528866403E+02  0.30000019919E+02 0.  0.
         12    1    1    2    0    0 -0.18534731433E+02 -0.16356060595E+02 -0.32281700038E+02  0.40659133597E+02  0.00000000000E+00 0. -1.
         11    1    3    3    0    0  0.14336395898E+02 -0.43192300427E+01  0.17907844957E+02  0.23342641384E+02  0.51100000000E-03 0.  1.
        -11    1    3    3    0    0  0.46892451822E+01  0.12231221580E+02  0.37876535221E+01  0.13635912921E+02  0.51100000000E-03 0. -1.
        -12    1    3    3    0    0 -0.49090964679E+00  0.84440690578E+01  0.10586201559E+02  0.13550312099E+02  0.00000000000E+00 0.  1.
</event>
<event>
 7    1  0.5897985E-013  0.5052886E+02  0.7816164E-02  0.1300439E+00
        -11   -1    0    0    0    0  0.00000000000E+00  0.00000000000E+00  0.45593999997E+02  0.45594000000E+02  0.51100000000E-03 0.  1.
         11   -1    0    0    0    0 -0.00000000000E+00 -0.00000000000E+00 -0.45593999997E+02  0.45594000000E+02  0.51100000000E-03 0. -1.
    9900012    2    1    2    0    0  0.20776799170E+02  0.26911964857E+02  0.22298802416E+02  0.50528858034E+02  0.29999994481E+02 0.  0.
         12    1    1    2    0    0 -0.20776799170E+02 -0.26911964857E+02 -0.22298802416E+02  0.40659141966E+02  0.00000000000E+00 0. -1.
         11    1    3    3    0    0 -0.77019885905E+00  0.28209894944E+01  0.74640320098E+01  0.80164182847E+01  0.51100000000E-03 0. -1.
        -11    1    3    3    0    0  0.26387337325E+02  0.21796546519E+02  0.11092627740E+02  0.35978151727E+02  0.51100000000E-03 0.  1.
        -12    1    3    3    0    0 -0.48403392963E+01  0.22944288435E+01  0.37421426664E+01  0.65342880222E+01  0.00000000000E+00 0.  1.
</event>
<event>
 7    1  0.5897985E-013  0.5052886E+02  0.7816164E-02  0.1300439E+00
        -11   -1    0    0    0    0  0.00000000000E+00  0.00000000000E+00  0.45593999997E+02  0.45594000000E+02  0.51100000000E-03 0.  1.
         11   -1    0    0    0    0 -0.00000000000E+00 -0.00000000000E+00 -0.45593999997E+02  0.45594000000E+02  0.51100000000E-03 0. -1.
    9900012    2    1    2    0    0 -0.45648955679E+01 -0.18688973716E+02  0.35819680580E+02  0.50528861704E+02  0.30000005636E+02 0.  0.
         12    1    1    2    0    0  0.45648955679E+01  0.18688973716E+02 -0.35819680580E+02  0.40659138296E+02  0.00000000000E+00 0. -1.
         11    1    3    3    0    0  0.13344310857E+00  0.40868203980E+01 -0.18266715045E+01  0.44784636959E+01  0.51100000000E-03 0. -1.
        -11    1    3    3    0    0 -0.39756039213E+01 -0.24257468270E+02  0.36631269562E+02  0.44114397915E+02  0.51100000000E-03 0.  1.
        -12    1    3    3    0    0 -0.72273475521E+00  0.14816741566E+01  0.10150825231E+01  0.19360000934E+01  0.00000000000E+00 0.  1.
</event>
<event>
 7    1  0.5897985E-013  0.5052886E+02  0.7816164E-02  0.1300439E+00
        -11   -1    0    0    0    0  0.00000000000E+00  0.00000000000E+00  0.45593999997E+02  0.45594000000E+02  0.51100000000E-03 0.  1.
         11   -1    0    0    0    0 -0.00000000000E+00 -0.00000000000E+00 -0.45593999997E+02  0.45594000000E+02  0.51100000000E-03 0. -1.
    9900012    2    1    2    0    0 -0.34174974713E+02  0.12007356602E+02  0.18467820082E+02  0.50528857267E+02  0.29999992149E+02 0.  0.
         12    1    1    2    0    0  0.34174974713E+02 -0.12007356602E+02 -0.18467820082E+02  0.40659142733E+02  0.00000000000E+00 0. -1.
         11    1    3    3    0    0 -0.77097072077E+01  0.41631820949E+01  0.17253988761E+02  0.19351273829E+02  0.51100000000E-03 0. -1.
        -11    1    3    3    0    0 -0.71931512111E+01  0.37318407564E+01 -0.61160353338E+01  0.10152534080E+02  0.51100000000E-03 0.  1.
        -12    1    3    3    0    0 -0.19272116294E+02  0.41123337507E+01  0.73298666546E+01  0.21025049358E+02  0.00000000000E+00 0.  1.
</event>
<event>
 7    1  0.5897985E-013  0.5052887E+02  0.7816164E-02  0.1300439E+00
        -11   -1    0    0    0    0  0.00000000000E+00  0.00000000000E+00  0.45593999997E+02  0.45594000000E+02  0.51100000000E-03 0.  1.
         11   -1    0    0    0    0 -0.00000000000E+00 -0.00000000000E+00 -0.45593999997E+02  0.45594000000E+02  0.51100000000E-03 0. -1.
    9900012    2    1    2    0    0 -0.84080525452E+01  0.32910265397E+02  0.22346907512E+02  0.50528865830E+02  0.30000018176E+02 0.  0.
         12    1    1    2    0    0  0.84080525452E+01 -0.32910265397E+02 -0.22346907512E+02  0.40659134170E+02  0.00000000000E+00 0. -1.
         11    1    3    3    0    0 -0.37142850148E+01  0.10079235760E+01 -0.57410073073E+01  0.69116559716E+01  0.51100000000E-03 0. -1.
        -11    1    3    3    0    0 -0.57515825154E+01  0.14380607006E+02  0.16226766294E+02  0.22431908165E+02  0.51100000000E-03 0.  1.
         12    1    3    3    0    0  0.10578149850E+01  0.17521734815E+02  0.11861148525E+02  0.21185301693E+02  0.00000000000E+00 0. -1.
</event>
<event>
 7    1  0.5897985E-013  0.5052884E+02  0.7816164E-02  0.1300439E+00
        -11   -1    0    0    0    0  0.00000000000E+00  0.00000000000E+00  0.45593999997E+02  0.45594000000E+02  0.51100000000E-03 0.  1.
         11   -1    0    0    0    0 -0.00000000000E+00 -0.00000000000E+00 -0.45593999997E+02  0.45594000000E+02  0.51100000000E-03 0. -1.
    9900012    2    1    2    0    0 -0.17988413789E+02  0.32963096517E+02  0.15589039263E+02  0.50528844724E+02  0.29999954023E+02 0.  0.
         12    1    1    2    0    0  0.17988413789E+02 -0.32963096517E+02 -0.15589039263E+02  0.40659155276E+02  0.00000000000E+00 0. -1.
         11    1    3    3    0    0 -0.28794772100E+01 -0.17574455360E+00  0.28687758562E+01  0.40684333994E+01  0.51100000000E-03 0. -1.
        -11    1    3    3    0    0 -0.29009784460E+01  0.31913617456E+02  0.64738740513E+01  0.32692593971E+02  0.51100000000E-03 0.  1.
        -12    1    3    3    0    0 -0.12207958133E+02  0.12252236142E+01  0.62463893555E+01  0.13767817353E+02  0.00000000000E+00 0.  1.
</event>
<event>
 7    1  0.5897985E-013  0.5052891E+02  0.7816164E-02  0.1300439E+00
        -11   -1    0    0    0    0  0.00000000000E+00  0.00000000000E+00  0.45593999997E+02  0.45594000000E+02  0.51100000000E-03 0.  1.
         11   -1    0    0    0    0 -0.00000000000E+00 -0.00000000000E+00 -0.45593999997E+02  0.45594000000E+02  0.51100000000E-03 0. -1.
    9900012    2    1    2    0    0  0.11861247838E+02 -0.18177848070E+02  0.34380782851E+02  0.50528910116E+02  0.30000152789E+02 0.  0.
         12    1    1    2    0    0 -0.11861247838E+02  0.18177848070E+02 -0.34380782851E+02  0.40659089884E+02  0.00000000000E+00 0. -1.
         11    1    3    3    0    0  0.28858832193E+01  0.49311748074E+01 -0.68184078129E+00  0.57541041048E+01  0.51100000000E-03 0. -1.
        -11    1    3    3    0    0  0.11417047042E+02 -0.12514740521E+02  0.20270910342E+02  0.26417371175E+02  0.51100000000E-03 0.  1.
         12    1    3    3    0    0 -0.24416824228E+01 -0.10594282357E+02  0.14791713290E+02  0.18357434836E+02  0.00000000000E+00 0. -1.
</event>
<event>
 7    1  0.5897985E-013  0.5052886E+02  0.7816164E-02  0.1300439E+00
        -11   -1    0    0    0    0  0.00000000000E+00  0.00000000000E+00  0.45593999997E+02  0.45594000000E+02  0.51100000000E-03 0. -1.
         11   -1    0    0    0    0 -0.00000000000E+00 -0.00000000000E+00 -0.45593999997E+02  0.45594000000E+02  0.51100000000E-03 0.  1.
    9900012    2    1    2    0    0  0.22689632980E+02  0.22181038450E+02 -0.25423370707E+02  0.50528859704E+02  0.29999999557E+02 0.  0.
         12    1    1    2    0    0 -0.22689632980E+02 -0.22181038450E+02  0.25423370707E+02  0.40659140296E+02  0.00000000000E+00 0. -1.
         11    1    3    3    0    0 -0.23780812611E+01  0.12238526686E+02 -0.94860532290E+01  0.15665950723E+02  0.51100000000E-03 0. -1.
        -11    1    3    3    0    0  0.25272986888E+02  0.11543566305E+02 -0.17317206665E+02  0.32739325531E+02  0.51100000000E-03 0.  1.
        -12    1    3    3    0    0 -0.20527264708E+00 -0.16010545412E+01  0.13798891869E+01  0.21235834506E+01  0.00000000000E+00 0.  1.
</event>
<event>
 7    1  0.5897985E-013  0.5052885E+02  0.7816164E-02  0.1300439E+00
        -11   -1    0    0    0    0  0.00000000000E+00  0.00000000000E+00  0.45593999997E+02  0.45594000000E+02  0.51100000000E-03 0. -1.
         11   -1    0    0    0    0 -0.00000000000E+00 -0.00000000000E+00 -0.45593999997E+02  0.45594000000E+02  0.51100000000E-03 0.  1.
    9900012    2    1    2    0    0  0.19212778585E+02  0.31912808105E+02  0.16297489083E+02  0.50528851798E+02  0.29999975524E+02 0.  0.
         12    1    1    2    0    0 -0.19212778585E+02 -0.31912808105E+02 -0.16297489083E+02  0.40659148202E+02  0.00000000000E+00 0. -1.
         11    1    3    3    0    0  0.19626814284E+01 -0.49552033610E+01  0.50442594060E+01  0.73383044332E+01  0.51100000000E-03 0. -1.
        -11    1    3    3    0    0  0.16757618614E+02  0.31508751028E+02  0.12221169420E+02  0.37722356172E+02  0.51100000000E-03 0.  1.
         12    1    3    3    0    0  0.49247854240E+00  0.53592604389E+01 -0.96793974316E+00  0.54681911921E+01  0.00000000000E+00 0. -1.
</event>
<event>
 7    1  0.5897985E-013  0.5052886E+02  0.7816164E-02  0.1300439E+00
        -11   -1    0    0    0    0  0.00000000000E+00  0.00000000000E+00  0.45593999997E+02  0.45594000000E+02  0.51100000000E-03 0.  1.
         11   -1    0    0    0    0 -0.00000000000E+00 -0.00000000000E+00 -0.45593999997E+02  0.45594000000E+02  0.51100000000E-03 0. -1.
    9900012    2    1    2    0    0 -0.15266509036E+02 -0.94745859547E+01  0.36473709372E+02  0.50528861390E+02  0.30000004682E+02 0.  0.
         12    1    1    2    0    0  0.15266509036E+02  0.94745859547E+01 -0.36473709372E+02  0.40659138610E+02  0.00000000000E+00 0. -1.
         11    1    3    3    0    0 -0.13306786366E+02  0.65402758696E+01  0.28136685933E+02  0.31804384405E+02  0.51100000000E-03 0.  1.
        -11    1    3    3    0    0 -0.16906005286E+01 -0.15664715317E+02  0.68626483530E+01  0.17185382707E+02  0.51100000000E-03 0. -1.
         12    1    3    3    0    0 -0.26912214164E+00 -0.35014650754E+00  0.14743750856E+01  0.15390942781E+01  0.00000000000E+00 0. -1.
</event>
<event>
 7    1  0.5897985E-013  0.5052879E+02  0.7816164E-02  0.1300439E+00
        -11   -1    0    0    0    0  0.00000000000E+00  0.00000000000E+00  0.45593999997E+02  0.45594000000E+02  0.51100000000E-03 0.  1.
         11   -1    0    0    0    0 -0.00000000000E+00 -0.00000000000E+00 -0.45593999997E+02  0.45594000000E+02  0.51100000000E-03 0. -1.
    9900012    2    1    2    0    0 -0.34062990591E+02  0.11071414628E+02  0.19243392727E+02  0.50528785626E+02  0.29999774388E+02 0.  0.
         12    1    1    2    0    0  0.34062990591E+02 -0.11071414628E+02 -0.19243392727E+02  0.40659214374E+02  0.00000000000E+00 0. -1.
         11    1    3    3    0    0 -0.21871902902E+02 -0.42246366336E+01  0.52508703800E+00  0.22282356426E+02  0.51100000000E-03 0. -1.
        -11    1    3    3    0    0 -0.11978512591E+02  0.95139250429E+01  0.14584194926E+02  0.21135237768E+02  0.51100000000E-03 0.  1.
         12    1    3    3    0    0 -0.21257509837E+00  0.57821262191E+01  0.41341107623E+01  0.71111914319E+01  0.00000000000E+00 0. -1.
</event>
<event>
 7    1  0.5897985E-013  0.5052888E+02  0.7816164E-02  0.1300439E+00
        -11   -1    0    0    0    0  0.00000000000E+00  0.00000000000E+00  0.45593999997E+02  0.45594000000E+02  0.51100000000E-03 0.  1.
         11   -1    0    0    0    0 -0.00000000000E+00 -0.00000000000E+00 -0.45593999997E+02  0.45594000000E+02  0.51100000000E-03 0. -1.
    9900012    2    1    2    0    0 -0.82066291177E+01  0.29015037197E+02  0.27275319453E+02  0.50528878068E+02  0.30000055376E+02 0.  0.
         12    1    1    2    0    0  0.82066291177E+01 -0.29015037197E+02 -0.27275319453E+02  0.40659121932E+02  0.00000000000E+00 0. -1.
         11    1    3    3    0    0  0.26407691719E+01 -0.24450733843E+01  0.99015558663E+01  0.10535314637E+02  0.51100000000E-03 0. -1.
        -11    1    3    3    0    0 -0.15711904785E+01  0.12424380884E+02  0.13593988319E+02  0.18483246429E+02  0.51100000000E-03 0.  1.
         12    1    3    3    0    0 -0.92762078111E+01  0.19035729697E+02  0.37797752678E+01  0.21510317002E+02  0.00000000000E+00 0. -1.
</event>
<event>
 7    1  0.5897985E-013  0.5052888E+02  0.7816164E-02  0.1300439E+00
        -11   -1    0    0    0    0  0.00000000000E+00  0.00000000000E+00  0.45593999997E+02  0.45594000000E+02  0.51100000000E-03 0. -1.
         11   -1    0    0    0    0 -0.00000000000E+00 -0.00000000000E+00 -0.45593999997E+02  0.45594000000E+02  0.51100000000E-03 0.  1.
    9900012    2    1    2    0    0  0.11383700654E+02  0.19533737041E+02 -0.33793611248E+02  0.50528884361E+02  0.30000074503E+02 0.  0.
         12    1    1    2    0    0 -0.11383700654E+02 -0.19533737041E+02  0.33793611248E+02  0.40659115639E+02  0.00000000000E+00 0. -1.
         11    1    3    3    0    0 -0.63101133110E+01  0.21264787300E+01 -0.12975424975E+02  0.14584275619E+02  0.51100000000E-03 0. -1.
        -11    1    3    3    0    0  0.98793019763E+01 -0.14780550473E+00 -0.50997747156E+01  0.11118909857E+02  0.51100000000E-03 0.  1.
         12    1    3    3    0    0  0.78145119888E+01  0.17555063816E+02 -0.15718411557E+02  0.24825698884E+02  0.00000000000E+00 0. -1.
</event>
<event>
 7    1  0.5897985E-013  0.5052886E+02  0.7816164E-02  0.1300439E+00
        -11   -1    0    0    0    0  0.00000000000E+00  0.00000000000E+00  0.45593999997E+02  0.45594000000E+02  0.51100000000E-03 0. -1.
         11   -1    0    0    0    0 -0.00000000000E+00 -0.00000000000E+00 -0.45593999997E+02  0.45594000000E+02  0.51100000000E-03 0.  1.
    9900012    2    1    2    0    0  0.66770215977E+01 -0.23289804299E+02 -0.32652232397E+02  0.50528857335E+02  0.29999992357E+02 0.  0.
         12    1    1    2    0    0 -0.66770215977E+01  0.23289804299E+02  0.32652232397E+02  0.40659142665E+02  0.00000000000E+00 0. -1.
         11    1    3    3    0    0  0.14807245328E+02 -0.11117955401E+02 -0.54042868034E+01  0.19289109949E+02  0.51100000000E-03 0. -1.
        -11    1    3    3    0    0 -0.31853224921E+01 -0.86190632256E+01 -0.16135822027E+02  0.18568771715E+02  0.51100000000E-03 0.  1.
         12    1    3    3    0    0 -0.49449012387E+01 -0.35527856724E+01 -0.11112123566E+02  0.12670975671E+02  0.00000000000E+00 0. -1.
</event>
<event>
 7    1  0.5897985E-013  0.5052885E+02  0.7816164E-02  0.1300439E+00
        -11   -1    0    0    0    0  0.00000000000E+00  0.00000000000E+00  0.45593999997E+02  0.45594000000E+02  0.51100000000E-03 0. -1.
         11   -1    0    0    0    0 -0.00000000000E+00 -0.00000000000E+00 -0.45593999997E+02  0.45594000000E+02  0.51100000000E-03 0.  1.
    9900012    2    1    2    0    0  0.19449755496E+02 -0.14544262433E+02 -0.32608868354E+02  0.50528845386E+02  0.29999956034E+02 0.  0.
         12    1    1    2    0    0 -0.19449755496E+02  0.14544262433E+02  0.32608868354E+02  0.40659154614E+02  0.00000000000E+00 0. -1.
         11    1    3    3    0    0 -0.59026706217E+00  0.57031666707E+00  0.20883771734E+01  0.22438796280E+01  0.51100000000E-03 0. -1.
        -11    1    3    3    0    0  0.23943894480E+02 -0.81448799871E+01 -0.28963587084E+02  0.38451768879E+02  0.51100000000E-03 0.  1.
         12    1    3    3    0    0 -0.39038719214E+01 -0.69696991131E+01 -0.57336584435E+01  0.98331968786E+01  0.00000000000E+00 0. -1.
</event>
<event>
 7    1  0.5897985E-013  0.5052885E+02  0.7816164E-02  0.1300439E+00
        -11   -1    0    0    0    0  0.00000000000E+00  0.00000000000E+00  0.45593999997E+02  0.45594000000E+02  0.51100000000E-03 0.  1.
         11   -1    0    0    0    0 -0.00000000000E+00 -0.00000000000E+00 -0.45593999997E+02  0.45594000000E+02  0.51100000000E-03 0. -1.
    9900012    2    1    2    0    0  0.19802851011E+02  0.37456115562E+01  0.35312660483E+02  0.50528849683E+02  0.29999969098E+02 0.  0.
         12    1    1    2    0    0 -0.19802851011E+02 -0.37456115562E+01 -0.35312660483E+02  0.40659150317E+02  0.00000000000E+00 0. -1.
         11    1    3    3    0    0  0.72635386918E+01  0.36322821217E+00 -0.13364097665E+01  0.73943843819E+01  0.51100000000E-03 0. -1.
        -11    1    3    3    0    0  0.34520674285E+01  0.67751089641E+00  0.32658833983E+02  0.32847758339E+02  0.51100000000E-03 0.  1.
        -12    1    3    3    0    0  0.90872448908E+01  0.27048724476E+01  0.39902362665E+01  0.10286706962E+02  0.00000000000E+00 0.  1.
</event>
<event>
 7    1  0.5897985E-013  0.5052886E+02  0.7816164E-02  0.1300439E+00
        -11   -1    0    0    0    0  0.00000000000E+00  0.00000000000E+00  0.45593999997E+02  0.45594000000E+02  0.51100000000E-03 0.  1.
         11   -1    0    0    0    0 -0.00000000000E+00 -0.00000000000E+00 -0.45593999997E+02  0.45594000000E+02  0.51100000000E-03 0. -1.
    9900012    2    1    2    0    0  0.26985725899E+02 -0.12239158074E+00  0.30412519818E+02  0.50528859039E+02  0.29999997536E+02 0.  0.
         12    1    1    2    0    0 -0.26985725899E+02  0.12239158074E+00 -0.30412519818E+02  0.40659140961E+02  0.00000000000E+00 0. -1.
         11    1    3    3    0    0 -0.34510590915E+01  0.69768477033E+00  0.27336440915E+01  0.44575086284E+01  0.51100000000E-03 0. -1.
        -11    1    3    3    0    0  0.28406867135E+02  0.56461207038E+01  0.26369681674E+02  0.39168723380E+02  0.51100000000E-03 0.  1.
         12    1    3    3    0    0  0.20299178555E+01 -0.64661970548E+01  0.13091940527E+01  0.69026270303E+01  0.00000000000E+00 0. -1.
</event>
<event>
 7    1  0.5897985E-013  0.5052886E+02  0.7816164E-02  0.1300439E+00
        -11   -1    0    0    0    0  0.00000000000E+00  0.00000000000E+00  0.45593999997E+02  0.45594000000E+02  0.51100000000E-03 0. -1.
         11   -1    0    0    0    0 -0.00000000000E+00 -0.00000000000E+00 -0.45593999997E+02  0.45594000000E+02  0.51100000000E-03 0.  1.
    9900012    2    1    2    0    0  0.29754470177E+01 -0.69458033680E+01 -0.39950820510E+02  0.50528861681E+02  0.30000005566E+02 0.  0.
         12    1    1    2    0    0 -0.29754470177E+01  0.69458033680E+01  0.39950820510E+02  0.40659138319E+02  0.00000000000E+00 0. -1.
         11    1    3    3    0    0 -0.21786529557E+01  0.13636704401E+01  0.18636784999E+01  0.31748107948E+01  0.51100000000E-03 0. -1.
        -11    1    3    3    0    0  0.76685573246E+01 -0.94531344602E+01 -0.42740957839E+02  0.44440499545E+02  0.51100000000E-03 0.  1.
        -12    1    3    3    0    0 -0.25144573512E+01  0.11436606521E+01  0.92645882877E+00  0.29135513415E+01  0.00000000000E+00 0.  1.
</event>
<event>
 7    1  0.5897985E-013  0.5052886E+02  0.7816164E-02  0.1300439E+00
        -11   -1    0    0    0    0  0.00000000000E+00  0.00000000000E+00  0.45593999997E+02  0.45594000000E+02  0.51100000000E-03 0. -1.
         11   -1    0    0    0    0 -0.00000000000E+00 -0.00000000000E+00 -0.45593999997E+02  0.45594000000E+02  0.51100000000E-03 0.  1.
    9900012    2    1    2    0    0 -0.31661350477E+02 -0.38535751133E+00 -0.25506400075E+02  0.50528855159E+02  0.29999985742E+02 0.  0.
         12    1    1    2    0    0  0.31661350477E+02  0.38535751133E+00  0.25506400075E+02  0.40659144841E+02  0.00000000000E+00 0. -1.
         11    1    3    3    0    0  0.34097626788E+01  0.17235718755E+01  0.22589965550E+01  0.44384960552E+01  0.51100000000E-03 0. -1.
        -11    1    3    3    0    0 -0.22872318532E+02 -0.60260690021E+01 -0.20851694910E+02  0.31531724398E+02  0.51100000000E-03 0.  1.
         12    1    3    3    0    0 -0.12198794623E+02  0.39171396153E+01 -0.69137017199E+01  0.14558634706E+02  0.00000000000E+00 0. -1.
</event>
<event>
 7    1  0.5897985E-013  0.5052886E+02  0.7816164E-02  0.1300439E+00
        -11   -1    0    0    0    0  0.00000000000E+00  0.00000000000E+00  0.45593999997E+02  0.45594000000E+02  0.51100000000E-03 0. -1.
         11   -1    0    0    0    0 -0.00000000000E+00 -0.00000000000E+00 -0.45593999997E+02  0.45594000000E+02  0.51100000000E-03 0.  1.
    9900012    2    1    2    0    0 -0.19680011581E+02  0.29647275269E+02 -0.19669824917E+02  0.50528858359E+02  0.29999995468E+02 0.  0.
         12    1    1    2    0    0  0.19680011581E+02 -0.29647275269E+02  0.19669824917E+02  0.40659141641E+02  0.00000000000E+00 0. -1.
         11    1    3    3    0    0  0.22291496141E+01  0.16157590983E+02 -0.13964085930E+02  0.21471668554E+02  0.51100000000E-03 0. -1.
        -11    1    3    3    0    0 -0.11281436579E+02  0.27510457357E+01 -0.75287253884E+01  0.13839102939E+02  0.51100000000E-03 0.  1.
         12    1    3    3    0    0 -0.10627724616E+02  0.10738638551E+02  0.18229864016E+01  0.15218086866E+02  0.00000000000E+00 0. -1.
</event>
<event>
 7    1  0.5897985E-013  0.5052890E+02  0.7816164E-02  0.1300439E+00
        -11   -1    0    0    0    0  0.00000000000E+00  0.00000000000E+00  0.45593999997E+02  0.45594000000E+02  0.51100000000E-03 0. -1.
         11   -1    0    0    0    0 -0.00000000000E+00 -0.00000000000E+00 -0.45593999997E+02  0.45594000000E+02  0.51100000000E-03 0.  1.
    9900012    2    1    2    0    0  0.24374354596E+02  0.32145632268E+02  0.50706282569E+01  0.50528903764E+02  0.30000133480E+02 0.  0.
         12    1    1    2    0    0 -0.24374354596E+02 -0.32145632268E+02 -0.50706282569E+01  0.40659096236E+02  0.00000000000E+00 0. -1.
         11    1    3    3    0    0  0.32035504173E+00 -0.47236233657E+01 -0.23647359432E+01  0.52921849359E+01  0.51100000000E-03 0. -1.
        -11    1    3    3    0    0  0.15454959109E+02  0.18622777653E+02  0.16713794336E+01  0.24258135090E+02  0.51100000000E-03 0.  1.
         12    1    3    3    0    0  0.85990404447E+01  0.18246477980E+02  0.57639847665E+01  0.20978583738E+02  0.00000000000E+00 0. -1.
</event>
<event>
 7    1  0.5897985E-013  0.5052886E+02  0.7816164E-02  0.1300439E+00
        -11   -1    0    0    0    0  0.00000000000E+00  0.00000000000E+00  0.45593999997E+02  0.45594000000E+02  0.51100000000E-03 0.  1.
         11   -1    0    0    0    0 -0.00000000000E+00 -0.00000000000E+00 -0.45593999997E+02  0.45594000000E+02  0.51100000000E-03 0. -1.
    9900012    2    1    2    0    0  0.30466929152E+01 -0.35139173088E+02  0.20226759874E+02  0.50528860339E+02  0.30000001485E+02 0.  0.
         12    1    1    2    0    0 -0.30466929152E+01  0.35139173088E+02 -0.20226759874E+02  0.40659139661E+02  0.00000000000E+00 0. -1.
         11    1    3    3    0    0 -0.57755438496E+01 -0.40217384388E+01  0.10111875656E+02  0.12319956022E+02  0.51100000000E-03 0. -1.
        -11    1    3    3    0    0  0.98983376000E+01 -0.26316279208E+02  0.13393503457E+01  0.28148134897E+02  0.51100000000E-03 0.  1.
        -12    1    3    3    0    0 -0.10761008352E+01 -0.48011554411E+01  0.87755338717E+01  0.10060769419E+02  0.00000000000E+00 0.  1.
</event>
<event>
 7    1  0.5897985E-013  0.5052886E+02  0.7816164E-02  0.1300439E+00
        -11   -1    0    0    0    0  0.00000000000E+00  0.00000000000E+00  0.45593999997E+02  0.45594000000E+02  0.51100000000E-03 0.  1.
         11   -1    0    0    0    0 -0.00000000000E+00 -0.00000000000E+00 -0.45593999997E+02  0.45594000000E+02  0.51100000000E-03 0. -1.
    9900012    2    1    2    0    0  0.49855739727E+01  0.20218130492E+02  0.34921869241E+02  0.50528859580E+02  0.29999999179E+02 0.  0.
         12    1    1    2    0    0 -0.49855739727E+01 -0.20218130492E+02 -0.34921869241E+02  0.40659140420E+02  0.00000000000E+00 0. -1.
         11    1    3    3    0    0  0.14386424572E+02  0.21856308669E+02  0.24917438653E+02  0.36132342712E+02  0.51100000000E-03 0.  1.
        -11    1    3    3    0    0 -0.60912349809E+01 -0.17114379005E+01  0.38448726800E+01  0.74037294296E+01  0.51100000000E-03 0. -1.
        -12    1    3    3    0    0 -0.33096156184E+01  0.73259723024E-01  0.61595579084E+01  0.69927874382E+01  0.00000000000E+00 0.  1.
</event>
<event>
 7    1  0.5897985E-013  0.5052879E+02  0.7816164E-02  0.1300439E+00
        -11   -1    0    0    0    0  0.00000000000E+00  0.00000000000E+00  0.45593999997E+02  0.45594000000E+02  0.51100000000E-03 0.  1.
         11   -1    0    0    0    0 -0.00000000000E+00 -0.00000000000E+00 -0.45593999997E+02  0.45594000000E+02  0.51100000000E-03 0. -1.
    9900012    2    1    2    0    0 -0.30361791039E+02  0.15190892987E+02  0.22373416136E+02  0.50528790288E+02  0.29999788558E+02 0.  0.
         12    1    1    2    0    0  0.30361791039E+02 -0.15190892987E+02 -0.22373416136E+02  0.40659209712E+02  0.00000000000E+00 0. -1.
         11    1    3    3    0    0  0.13265557175E+01  0.34084794475E+01 -0.11654843011E+00  0.36593805505E+01  0.51100000000E-03 0. -1.
        -11    1    3    3    0    0 -0.11284435312E+02 -0.70309796016E+01  0.85945410930E+01  0.15831591560E+02  0.51100000000E-03 0.  1.
        -12    1    3    3    0    0 -0.20403911445E+02  0.18813393141E+02  0.13895423473E+02  0.31037818177E+02  0.00000000000E+00 0.  1.
</event>
<event>
 7    1  0.5897985E-013  0.5052886E+02  0.7816164E-02  0.1300439E+00
        -11   -1    0    0    0    0  0.00000000000E+00  0.00000000000E+00  0.45593999997E+02  0.45594000000E+02  0.51100000000E-03 0.  1.
         11   -1    0    0    0    0 -0.00000000000E+00 -0.00000000000E+00 -0.45593999997E+02  0.45594000000E+02  0.51100000000E-03 0. -1.
    9900012    2    1    2    0    0  0.25540336572E+02 -0.22439639097E+02  0.22300663260E+02  0.50528858631E+02  0.29999996296E+02 0.  0.
         12    1    1    2    0    0 -0.25540336572E+02  0.22439639097E+02 -0.22300663260E+02  0.40659141369E+02  0.00000000000E+00 0. -1.
         11    1    3    3    0    0 -0.64476440452E+01 -0.15963099014E+01  0.24187618381E+01  0.70689976747E+01  0.51100000000E-03 0. -1.
        -11    1    3    3    0    0  0.18588155621E+02 -0.93253039139E+01  0.12826566291E+02  0.24433616710E+02  0.51100000000E-03 0.  1.
         12    1    3    3    0    0  0.13399824996E+02 -0.11518025282E+02  0.70553351306E+01  0.19026244247E+02  0.00000000000E+00 0. -1.
</event>
<event>
 7    1  0.5897985E-013  0.5052886E+02  0.7816164E-02  0.1300439E+00
        -11   -1    0    0    0    0  0.00000000000E+00  0.00000000000E+00  0.45593999997E+02  0.45594000000E+02  0.51100000000E-03 0. -1.
         11   -1    0    0    0    0 -0.00000000000E+00 -0.00000000000E+00 -0.45593999997E+02  0.45594000000E+02  0.51100000000E-03 0.  1.
    9900012    2    1    2    0    0 -0.37899295658E+01 -0.22971153776E+02 -0.33333585470E+02  0.50528863362E+02  0.30000010674E+02 0.  0.
         12    1    1    2    0    0  0.37899295658E+01  0.22971153776E+02  0.33333585470E+02  0.40659136638E+02  0.00000000000E+00 0. -1.
         11    1    3    3    0    0 -0.78287431930E+01  0.29985104269E+01 -0.13898664882E+02  0.16231240573E+02  0.51100000000E-03 0. -1.
        -11    1    3    3    0    0  0.31469654112E+01 -0.11162981122E+02 -0.14704708250E+02  0.18728160182E+02  0.51100000000E-03 0.  1.
         12    1    3    3    0    0  0.89184821608E+00 -0.14806683081E+02 -0.47302123373E+01  0.15569462606E+02  0.00000000000E+00 0. -1.
</event>
<event>
 7    1  0.5897985E-013  0.5052886E+02  0.7816164E-02  0.1300439E+00
        -11   -1    0    0    0    0  0.00000000000E+00  0.00000000000E+00  0.45593999997E+02  0.45594000000E+02  0.51100000000E-03 0. -1.
         11   -1    0    0    0    0 -0.00000000000E+00 -0.00000000000E+00 -0.45593999997E+02  0.45594000000E+02  0.51100000000E-03 0.  1.
    9900012    2    1    2    0    0  0.21785645196E+02  0.29616078742E+02 -0.17362000879E+02  0.50528861652E+02  0.30000005478E+02 0.  0.
         12    1    1    2    0    0 -0.21785645196E+02 -0.29616078742E+02  0.17362000879E+02  0.40659138348E+02  0.00000000000E+00 0. -1.
         11    1    3    3    0    0  0.71928396819E+00 -0.37508092310E+01 -0.87046907348E+01  0.95056604381E+01  0.51100000000E-03 0. -1.
        -11    1    3    3    0    0  0.12094035338E+02  0.23461016993E+02 -0.32050973503E+01  0.26588675378E+02  0.51100000000E-03 0.  1.
        -12    1    3    3    0    0  0.89723258902E+01  0.99058709799E+01 -0.54522127939E+01  0.14434525836E+02  0.00000000000E+00 0.  1.
</event>
<event>
 7    1  0.5897985E-013  0.5052886E+02  0.7816164E-02  0.1300439E+00
        -11   -1    0    0    0    0  0.00000000000E+00  0.00000000000E+00  0.45593999997E+02  0.45594000000E+02  0.51100000000E-03 0.  1.
         11   -1    0    0    0    0 -0.00000000000E+00 -0.00000000000E+00 -0.45593999997E+02  0.45594000000E+02  0.51100000000E-03 0. -1.
    9900012    2    1    2    0    0 -0.28874910316E+02 -0.47714732288E+01  0.28224775935E+02  0.50528863523E+02  0.30000011163E+02 0.  0.
         12    1    1    2    0    0  0.28874910316E+02  0.47714732288E+01 -0.28224775935E+02  0.40659136477E+02  0.00000000000E+00 0. -1.
         11    1    3    3    0    0 -0.35925219336E+00 -0.53785994899E+01  0.14049468524E+02  0.15048121500E+02  0.51100000000E-03 0. -1.
        -11    1    3    3    0    0 -0.29176985008E+02  0.64918301652E+00  0.16180043920E+02  0.33369322952E+02  0.51100000000E-03 0.  1.
         12    1    3    3    0    0  0.66132688567E+00 -0.42056755421E-01 -0.20047365093E+01  0.21114190707E+01  0.00000000000E+00 0. -1.
</event>
<event>
 7    1  0.5897985E-013  0.5052886E+02  0.7816164E-02  0.1300439E+00
        -11   -1    0    0    0    0  0.00000000000E+00  0.00000000000E+00  0.45593999997E+02  0.45594000000E+02  0.51100000000E-03 0. -1.
         11   -1    0    0    0    0 -0.00000000000E+00 -0.00000000000E+00 -0.45593999997E+02  0.45594000000E+02  0.51100000000E-03 0.  1.
    9900012    2    1    2    0    0 -0.28063951214E+02  0.29219374812E+02  0.34363341497E+01  0.50528860627E+02  0.30000002363E+02 0.  0.
         12    1    1    2    0    0  0.28063951214E+02 -0.29219374812E+02 -0.34363341497E+01  0.40659139373E+02  0.00000000000E+00 0. -1.
         11    1    3    3    0    0 -0.26919692210E+01  0.58812754191E+01 -0.99146573035E+01  0.11837927544E+02  0.51100000000E-03 0.  1.
        -11    1    3    3    0    0 -0.11071800381E+02  0.73746547475E+01  0.10746418441E+02  0.17101339302E+02  0.51100000000E-03 0. -1.
        -12    1    3    3    0    0 -0.14300181612E+02  0.15963444645E+02  0.26045730117E+01  0.21589593781E+02  0.00000000000E+00 0.  1.
</event>
<event>
 7    1  0.5897985E-013  0.5052888E+02  0.7816164E-02  0.1300439E+00
        -11   -1    0    0    0    0  0.00000000000E+00  0.00000000000E+00  0.45593999997E+02  0.45594000000E+02  0.51100000000E-03 0.  1.
         11   -1    0    0    0    0 -0.00000000000E+00 -0.00000000000E+00 -0.45593999997E+02  0.45594000000E+02  0.51100000000E-03 0. -1.
    9900012    2    1    2    0    0  0.36910733985E+02 -0.34405508464E+01  0.16701033158E+02  0.50528878244E+02  0.30000055909E+02 0.  0.
         12    1    1    2    0    0 -0.36910733985E+02  0.34405508464E+01 -0.16701033158E+02  0.40659121756E+02  0.00000000000E+00 0. -1.
         11    1    3    3    0    0  0.32392172002E+02 -0.51784632455E+01  0.10203966587E+02  0.34353896766E+02  0.51100000000E-03 0. -1.
        -11    1    3    3    0    0  0.24464451307E+01 -0.35002413513E+01  0.90373958401E+01  0.99955643726E+01  0.51100000000E-03 0.  1.
         12    1    3    3    0    0  0.20721168523E+01  0.52381537504E+01 -0.25403292696E+01  0.61794171053E+01  0.00000000000E+00 0. -1.
</event>
<event>
 7    1  0.5897985E-013  0.5052886E+02  0.7816164E-02  0.1300439E+00
        -11   -1    0    0    0    0  0.00000000000E+00  0.00000000000E+00  0.45593999997E+02  0.45594000000E+02  0.51100000000E-03 0.  1.
         11   -1    0    0    0    0 -0.00000000000E+00 -0.00000000000E+00 -0.45593999997E+02  0.45594000000E+02  0.51100000000E-03 0. -1.
    9900012    2    1    2    0    0 -0.68074785530E+01  0.40002317001E+02 -0.25765776500E+01  0.50528857337E+02  0.29999992363E+02 0.  0.
         12    1    1    2    0    0  0.68074785530E+01 -0.40002317001E+02  0.25765776500E+01  0.40659142663E+02  0.00000000000E+00 0. -1.
         11    1    3    3    0    0 -0.67305936919E+01  0.75610385990E+01  0.62075931955E+01  0.11874527767E+02  0.51100000000E-03 0. -1.
        -11    1    3    3    0    0  0.25886167962E+01  0.32752760381E+02 -0.39054259612E+01  0.33086199566E+02  0.51100000000E-03 0.  1.
         12    1    3    3    0    0 -0.26655016572E+01 -0.31148197925E+00 -0.48787448843E+01  0.55681300051E+01  0.00000000000E+00 0. -1.
</event>
<event>
 7    1  0.5897985E-013  0.5052890E+02  0.7816164E-02  0.1300439E+00
        -11   -1    0    0    0    0  0.00000000000E+00  0.00000000000E+00  0.45593999997E+02  0.45594000000E+02  0.51100000000E-03 0.  1.
         11   -1    0    0    0    0 -0.00000000000E+00 -0.00000000000E+00 -0.45593999997E+02  0.45594000000E+02  0.51100000000E-03 0. -1.
    9900012    2    1    2    0    0 -0.37431931651E+02 -0.14992371999E+02  0.52193569202E+01  0.50528900010E+02  0.30000122071E+02 0.  0.
         12    1    1    2    0    0  0.37431931651E+02  0.14992371999E+02 -0.52193569202E+01  0.40659099990E+02  0.00000000000E+00 0. -1.
         11    1    3    3    0    0 -0.80755952706E+01  0.70151361617E+01  0.84582321928E+01  0.13637047570E+02  0.51100000000E-03 0. -1.
        -11    1    3    3    0    0 -0.27587272309E+02 -0.20266860185E+02 -0.34280504286E+01  0.34402830482E+02  0.51100000000E-03 0.  1.
         12    1    3    3    0    0 -0.17690640719E+01 -0.17406479760E+01  0.18917515596E+00  0.24890219578E+01  0.00000000000E+00 0. -1.
</event>
<event>
 7    1  0.5897985E-013  0.5052887E+02  0.7816164E-02  0.1300439E+00
        -11   -1    0    0    0    0  0.00000000000E+00  0.00000000000E+00  0.45593999997E+02  0.45594000000E+02  0.51100000000E-03 0. -1.
         11   -1    0    0    0    0 -0.00000000000E+00 -0.00000000000E+00 -0.45593999997E+02  0.45594000000E+02  0.51100000000E-03 0.  1.
    9900012    2    1    2    0    0  0.38200591580E+02 -0.13467012551E+02 -0.35382827859E+01  0.50528867334E+02  0.30000022747E+02 0.  0.
         12    1    1    2    0    0 -0.38200591580E+02  0.13467012551E+02  0.35382827859E+01  0.40659132666E+02  0.00000000000E+00 0. -1.
         11    1    3    3    0    0  0.37813014924E+01 -0.63547033637E+01 -0.42643322061E+01  0.85361012906E+01  0.51100000000E-03 0. -1.
        -11    1    3    3    0    0  0.25001748831E+02  0.42558224588E+01  0.64350349788E+01  0.26165036687E+02  0.51100000000E-03 0.  1.
        -12    1    3    3    0    0  0.94175412563E+01 -0.11368131647E+02 -0.57089855585E+01  0.15827729356E+02  0.00000000000E+00 0.  1.
</event>
<event>
 7    1  0.5897985E-013  0.5052886E+02  0.7816164E-02  0.1300439E+00
        -11   -1    0    0    0    0  0.00000000000E+00  0.00000000000E+00  0.45593999997E+02  0.45594000000E+02  0.51100000000E-03 0. -1.
         11   -1    0    0    0    0 -0.00000000000E+00 -0.00000000000E+00 -0.45593999997E+02  0.45594000000E+02  0.51100000000E-03 0.  1.
    9900012    2    1    2    0    0  0.40279249961E+02 -0.32029859414E+01  0.45264689627E+01  0.50528855670E+02  0.29999987295E+02 0.  0.
         12    1    1    2    0    0 -0.40279249961E+02  0.32029859414E+01 -0.45264689627E+01  0.40659144330E+02  0.00000000000E+00 0. -1.
         11    1    3    3    0    0  0.32529249419E+02 -0.95774929962E+01  0.25178665306E+01  0.34003236493E+02  0.51100000000E-03 0. -1.
        -11    1    3    3    0    0  0.24866254042E+01  0.18294311790E+01 -0.54901681810E+01  0.62985769231E+01  0.51100000000E-03 0.  1.
         12    1    3    3    0    0  0.52633751377E+01  0.45450758759E+01  0.74987706131E+01  0.10227042254E+02  0.00000000000E+00 0. -1.
</event>
<event>
 7    1  0.5897985E-013  0.5052886E+02  0.7816164E-02  0.1300439E+00
        -11   -1    0    0    0    0  0.00000000000E+00  0.00000000000E+00  0.45593999997E+02  0.45594000000E+02  0.51100000000E-03 0.  1.
         11   -1    0    0    0    0 -0.00000000000E+00 -0.00000000000E+00 -0.45593999997E+02  0.45594000000E+02  0.51100000000E-03 0. -1.
    9900012    2    1    2    0    0  0.15259137991E+02  0.64918158855E+01  0.37123857344E+02  0.50528858963E+02  0.29999997305E+02 0.  0.
         12    1    1    2    0    0 -0.15259137991E+02 -0.64918158855E+01 -0.37123857344E+02  0.40659141037E+02  0.00000000000E+00 0. -1.
         11    1    3    3    0    0 -0.59903285793E+01 -0.15784055883E+01  0.39102368753E+00  0.62071169213E+01  0.51100000000E-03 0. -1.
        -11    1    3    3    0    0  0.56463168045E+01  0.64054063338E+01  0.17718610412E+02  0.19668738622E+02  0.51100000000E-03 0.  1.
         12    1    3    3    0    0  0.15603149766E+02  0.16648151399E+01  0.19014223244E+02  0.24653003420E+02  0.00000000000E+00 0. -1.
</event>
<event>
 7    1  0.5897985E-013  0.5052886E+02  0.7816164E-02  0.1300439E+00
        -11   -1    0    0    0    0  0.00000000000E+00  0.00000000000E+00  0.45593999997E+02  0.45594000000E+02  0.51100000000E-03 0.  1.
         11   -1    0    0    0    0 -0.00000000000E+00 -0.00000000000E+00 -0.45593999997E+02  0.45594000000E+02  0.51100000000E-03 0. -1.
    9900012    2    1    2    0    0 -0.11622106564E+02 -0.33285690100E+02  0.20252284472E+02  0.50528861387E+02  0.30000004671E+02 0.  0.
         12    1    1    2    0    0  0.11622106564E+02  0.33285690100E+02 -0.20252284472E+02  0.40659138613E+02  0.00000000000E+00 0. -1.
         11    1    3    3    0    0 -0.74820998002E+01 -0.70010759609E+00  0.88017908157E+01  0.11573395780E+02  0.51100000000E-03 0. -1.
        -11    1    3    3    0    0 -0.59262780865E+01 -0.21885671433E+02 -0.67728398399E+00  0.22683961291E+02  0.51100000000E-03 0.  1.
        -12    1    3    3    0    0  0.17862713232E+01 -0.10699911072E+02  0.12127777640E+02  0.16271504315E+02  0.00000000000E+00 0.  1.
</event>
<event>
 7    1  0.5897985E-013  0.5052886E+02  0.7816164E-02  0.1300439E+00
        -11   -1    0    0    0    0  0.00000000000E+00  0.00000000000E+00  0.45593999997E+02  0.45594000000E+02  0.51100000000E-03 0.  1.
         11   -1    0    0    0    0 -0.00000000000E+00 -0.00000000000E+00 -0.45593999997E+02  0.45594000000E+02  0.51100000000E-03 0. -1.
    9900012    2    1    2    0    0  0.12443866268E+02 -0.43066489007E+01  0.38467759639E+02  0.50528861248E+02  0.30000004248E+02 0.  0.
         12    1    1    2    0    0 -0.12443866268E+02  0.43066489007E+01 -0.38467759639E+02  0.40659138752E+02  0.00000000000E+00 0. -1.
         11    1    3    3    0    0  0.86007064713E+01 -0.98241963097E+01  0.39718194405E+01  0.13647795971E+02  0.51100000000E-03 0. -1.
        -11    1    3    3    0    0  0.46602385485E+01  0.47612292526E+01  0.82171075010E+01  0.10578656969E+02  0.51100000000E-03 0.  1.
         12    1    3    3    0    0 -0.81707875139E+00  0.75631815640E+00  0.26278832697E+02  0.26302408307E+02  0.00000000000E+00 0. -1.
</event>
<event>
 7    1  0.5897985E-013  0.5052885E+02  0.7816164E-02  0.1300439E+00
        -11   -1    0    0    0    0  0.00000000000E+00  0.00000000000E+00  0.45593999997E+02  0.45594000000E+02  0.51100000000E-03 0.  1.
         11   -1    0    0    0    0 -0.00000000000E+00 -0.00000000000E+00 -0.45593999997E+02  0.45594000000E+02  0.51100000000E-03 0. -1.
    9900012    2    1    2    0    0  0.37158131199E+02 -0.45390492895E+01  0.15869363040E+02  0.50528851387E+02  0.29999974275E+02 0.  0.
         12    1    1    2    0    0 -0.37158131199E+02  0.45390492895E+01 -0.15869363040E+02  0.40659148613E+02  0.00000000000E+00 0. -1.
         11    1    3    3    0    0  0.43531546311E+01 -0.13043023161E+02  0.50082022857E+01  0.14633950213E+02  0.51100000000E-03 0. -1.
        -11    1    3    3    0    0  0.20027733197E+02  0.61467351357E+01  0.88708335278E+01  0.22750475547E+02  0.51100000000E-03 0.  1.
         12    1    3    3    0    0  0.12777243371E+02  0.23572387362E+01  0.19903272260E+01  0.13144425628E+02  0.00000000000E+00 0. -1.
</event>
<event>
 7    1  0.5897985E-013  0.5052891E+02  0.7816164E-02  0.1300439E+00
        -11   -1    0    0    0    0  0.00000000000E+00  0.00000000000E+00  0.45593999997E+02  0.45594000000E+02  0.51100000000E-03 0.  1.
         11   -1    0    0    0    0 -0.00000000000E+00 -0.00000000000E+00 -0.45593999997E+02  0.45594000000E+02  0.51100000000E-03 0. -1.
    9900012    2    1    2    0    0 -0.29902507972E+02  0.11931898002E+02  0.24832056409E+02  0.50528914934E+02  0.30000167432E+02 0.  0.
         12    1    1    2    0    0  0.29902507972E+02 -0.11931898002E+02 -0.24832056409E+02  0.40659085066E+02  0.00000000000E+00 0. -1.
         11    1    3    3    0    0 -0.27495145135E+02  0.15027569840E+02  0.19784926911E+02  0.37057444521E+02  0.51100000000E-03 0.  1.
        -11    1    3    3    0    0  0.19143607755E+01 -0.64646437014E+01  0.41549638106E+01  0.79196035187E+01  0.51100000000E-03 0. -1.
         12    1    3    3    0    0 -0.43217236120E+01  0.33689718638E+01  0.89216568746E+00  0.55518668943E+01  0.00000000000E+00 0. -1.
</event>
<event>
 7    1  0.5897985E-013  0.5052884E+02  0.7816164E-02  0.1300439E+00
        -11   -1    0    0    0    0  0.00000000000E+00  0.00000000000E+00  0.45593999997E+02  0.45594000000E+02  0.51100000000E-03 0.  1.
         11   -1    0    0    0    0 -0.00000000000E+00 -0.00000000000E+00 -0.45593999997E+02  0.45594000000E+02  0.51100000000E-03 0. -1.
    9900012    2    1    2    0    0  0.21093263232E+02  0.19808327151E+02  0.28563463417E+02  0.50528843336E+02  0.29999949803E+02 0.  0.
         12    1    1    2    0    0 -0.21093263232E+02 -0.19808327151E+02 -0.28563463417E+02  0.40659156664E+02  0.00000000000E+00 0. -1.
         11    1    3    3    0    0  0.56060466053E+01  0.90196390928E+01 -0.13993057023E+01  0.10711662085E+02  0.51100000000E-03 0. -1.
        -11    1    3    3    0    0  0.56456243389E+01  0.80629280868E+01  0.27645497161E+02  0.29345483418E+02  0.51100000000E-03 0.  1.
        -12    1    3    3    0    0  0.98415922877E+01  0.27257599714E+01  0.23172719583E+01  0.10471697833E+02  0.00000000000E+00 0.  1.
</event>
<event>
 7    1  0.5897985E-013  0.5052883E+02  0.7816164E-02  0.1300439E+00
        -11   -1    0    0    0    0  0.00000000000E+00  0.00000000000E+00  0.45593999997E+02  0.45594000000E+02  0.51100000000E-03 0.  1.
         11   -1    0    0    0    0 -0.00000000000E+00 -0.00000000000E+00 -0.45593999997E+02  0.45594000000E+02  0.51100000000E-03 0. -1.
    9900012    2    1    2    0    0  0.19496092642E+02 -0.30485182971E+02  0.18539789551E+02  0.50528833682E+02  0.29999920459E+02 0.  0.
         12    1    1    2    0    0 -0.19496092642E+02  0.30485182971E+02 -0.18539789551E+02  0.40659166318E+02  0.00000000000E+00 0. -1.
         11    1    3    3    0    0 -0.33042983029E+01 -0.93099699982E+01  0.27437841369E+01  0.10252915697E+02  0.51100000000E-03 0.  1.
        -11    1    3    3    0    0  0.26074300449E+02 -0.17677295662E+02  0.10670335864E+02  0.33259765386E+02  0.51100000000E-03 0. -1.
         12    1    3    3    0    0 -0.32739095042E+01 -0.34979173110E+01  0.51256695494E+01  0.70161525985E+01  0.00000000000E+00 0. -1.
</event>
<event>
 7    1  0.5897985E-013  0.5052885E+02  0.7816164E-02  0.1300439E+00
        -11   -1    0    0    0    0  0.00000000000E+00  0.00000000000E+00  0.45593999997E+02  0.45594000000E+02  0.51100000000E-03 0. -1.
         11   -1    0    0    0    0 -0.00000000000E+00 -0.00000000000E+00 -0.45593999997E+02  0.45594000000E+02  0.51100000000E-03 0.  1.
    9900012    2    1    2    0    0 -0.27425800933E+02 -0.28583624481E+02  0.91634064924E+01  0.50528853872E+02  0.29999981829E+02 0.  0.
         12    1    1    2    0    0  0.27425800933E+02  0.28583624481E+02 -0.91634064924E+01  0.40659146128E+02  0.00000000000E+00 0. -1.
         11    1    3    3    0    0 -0.26991152262E+02 -0.23220044174E+02  0.10658196126E+02  0.37165708614E+02  0.51100000000E-03 0.  1.
        -11    1    3    3    0    0  0.42832926695E+01  0.86556114802E+00 -0.31357464178E+01  0.53785405131E+01  0.51100000000E-03 0. -1.
         12    1    3    3    0    0 -0.47179413413E+01 -0.62291414551E+01  0.16409567842E+01  0.79846047451E+01  0.00000000000E+00 0. -1.
</event>
<event>
 7    1  0.5897985E-013  0.5052886E+02  0.7816164E-02  0.1300439E+00
        -11   -1    0    0    0    0  0.00000000000E+00  0.00000000000E+00  0.45593999997E+02  0.45594000000E+02  0.51100000000E-03 0.  1.
         11   -1    0    0    0    0 -0.00000000000E+00 -0.00000000000E+00 -0.45593999997E+02  0.45594000000E+02  0.51100000000E-03 0. -1.
    9900012    2    1    2    0    0 -0.27040645722E+02 -0.25932838389E+02  0.15794204376E+02  0.50528861792E+02  0.30000005902E+02 0.  0.
         12    1    1    2    0    0  0.27040645722E+02  0.25932838389E+02 -0.15794204376E+02  0.40659138208E+02  0.00000000000E+00 0. -1.
         11    1    3    3    0    0 -0.92007849085E+01 -0.12650116105E+02 -0.31774913096E+01  0.15961714560E+02  0.51100000000E-03 0. -1.
        -11    1    3    3    0    0 -0.17420821819E+02 -0.13998896519E+02  0.22040288218E+02  0.31388348819E+02  0.51100000000E-03 0.  1.
        -12    1    3    3    0    0 -0.41903899523E+00  0.71617423568E+00 -0.30685925326E+01  0.31787984124E+01  0.00000000000E+00 0.  1.
</event>
<event>
 7    1  0.5897985E-013  0.5052886E+02  0.7816164E-02  0.1300439E+00
        -11   -1    0    0    0    0  0.00000000000E+00  0.00000000000E+00  0.45593999997E+02  0.45594000000E+02  0.51100000000E-03 0.  1.
         11   -1    0    0    0    0 -0.00000000000E+00 -0.00000000000E+00 -0.45593999997E+02  0.45594000000E+02  0.51100000000E-03 0. -1.
    9900012    2    1    2    0    0  0.55909771175E+01 -0.20637577620E+02  0.34583188670E+02  0.50528861129E+02  0.30000003887E+02 0.  0.
         12    1    1    2    0    0 -0.55909771175E+01  0.20637577620E+02 -0.34583188670E+02  0.40659138871E+02  0.00000000000E+00 0. -1.
         11    1    3    3    0    0  0.14155416325E+02 -0.17528280386E+02  0.18973661604E+02  0.29455326505E+02  0.51100000000E-03 0.  1.
        -11    1    3    3    0    0 -0.81590485762E+01 -0.23009615350E+01  0.39038525683E+01  0.93329825239E+01  0.51100000000E-03 0. -1.
        -12    1    3    3    0    0 -0.40539063084E+00 -0.80833569961E+00  0.11705674497E+02  0.11740552100E+02  0.00000000000E+00 0.  1.
</event>
<event>
 7    1  0.5897985E-013  0.5052883E+02  0.7816164E-02  0.1300439E+00
        -11   -1    0    0    0    0  0.00000000000E+00  0.00000000000E+00  0.45593999997E+02  0.45594000000E+02  0.51100000000E-03 0.  1.
         11   -1    0    0    0    0 -0.00000000000E+00 -0.00000000000E+00 -0.45593999997E+02  0.45594000000E+02  0.51100000000E-03 0. -1.
    9900012    2    1    2    0    0  0.27687454643E+02  0.11153651870E+02  0.27607406506E+02  0.50528831432E+02  0.29999913621E+02 0.  0.
         12    1    1    2    0    0 -0.27687454643E+02 -0.11153651870E+02 -0.27607406506E+02  0.40659168568E+02  0.00000000000E+00 0. -1.
         11    1    3    3    0    0 -0.33586217940E+00 -0.43993125484E+00  0.39579759814E+00  0.68044023422E+00  0.51100000000E-03 0. -1.
        -11    1    3    3    0    0  0.32307093857E+02  0.37732443042E+01  0.18687808673E+02  0.37512929495E+02  0.51100000000E-03 0.  1.
        -12    1    3    3    0    0 -0.42837770350E+01  0.78203388207E+01  0.85238002355E+01  0.12335461702E+02  0.00000000000E+00 0.  1.
</event>
<event>
 7    1  0.5897985E-013  0.5052886E+02  0.7816164E-02  0.1300439E+00
        -11   -1    0    0    0    0  0.00000000000E+00  0.00000000000E+00  0.45593999997E+02  0.45594000000E+02  0.51100000000E-03 0.  1.
         11   -1    0    0    0    0 -0.00000000000E+00 -0.00000000000E+00 -0.45593999997E+02  0.45594000000E+02  0.51100000000E-03 0. -1.
    9900012    2    1    2    0    0  0.38953313139E+02  0.30273694581E+01  0.11253446544E+02  0.50528860444E+02  0.30000001804E+02 0.  0.
         12    1    1    2    0    0 -0.38953313139E+02 -0.30273694581E+01 -0.11253446544E+02  0.40659139556E+02  0.00000000000E+00 0. -1.
         11    1    3    3    0    0  0.35120908386E+01  0.35578105874E+01  0.12786530967E+02  0.13729099485E+02  0.51100000000E-03 0. -1.
        -11    1    3    3    0    0  0.10136974561E+02 -0.52557013843E-01 -0.49154304580E+01  0.11265987411E+02  0.51100000000E-03 0.  1.
         12    1    3    3    0    0  0.25304247739E+02 -0.47788411548E+00  0.33823460344E+01  0.25533773548E+02  0.00000000000E+00 0. -1.
</event>
<event>
 7    1  0.5897985E-013  0.5052888E+02  0.7816164E-02  0.1300439E+00
        -11   -1    0    0    0    0  0.00000000000E+00  0.00000000000E+00  0.45593999997E+02  0.45594000000E+02  0.51100000000E-03 0. -1.
         11   -1    0    0    0    0 -0.00000000000E+00 -0.00000000000E+00 -0.45593999997E+02  0.45594000000E+02  0.51100000000E-03 0.  1.
    9900012    2    1    2    0    0  0.32376844555E+02 -0.21280787339E+02 -0.12330142468E+02  0.50528875730E+02  0.30000048270E+02 0.  0.
         12    1    1    2    0    0 -0.32376844555E+02  0.21280787339E+02  0.12330142468E+02  0.40659124270E+02  0.00000000000E+00 0. -1.
         11    1    3    3    0    0  0.18791134872E+01 -0.82790597622E+01 -0.11222571409E+02  0.14071958191E+02  0.51100000000E-03 0. -1.
        -11    1    3    3    0    0  0.30198331527E+02 -0.96172587412E+01 -0.40650181778E+01  0.31952390611E+02  0.51100000000E-03 0.  1.
        -12    1    3    3    0    0  0.29939954069E+00 -0.33844688353E+01  0.29574471191E+01  0.45045269279E+01  0.00000000000E+00 0.  1.
</event>
<event>
 7    1  0.5897985E-013  0.5052886E+02  0.7816164E-02  0.1300439E+00
        -11   -1    0    0    0    0  0.00000000000E+00  0.00000000000E+00  0.45593999997E+02  0.45594000000E+02  0.51100000000E-03 0.  1.
         11   -1    0    0    0    0 -0.00000000000E+00 -0.00000000000E+00 -0.45593999997E+02  0.45594000000E+02  0.51100000000E-03 0. -1.
    9900012    2    1    2    0    0  0.11173656069E+02  0.91981261122E+01  0.37996174169E+02  0.50528863691E+02  0.30000011674E+02 0.  0.
         12    1    1    2    0    0 -0.11173656069E+02 -0.91981261122E+01 -0.37996174169E+02  0.40659136309E+02  0.00000000000E+00 0. -1.
         11    1    3    3    0    0 -0.50899169376E+01 -0.11266122437E+01 -0.59153716746E+00  0.52465632619E+01  0.51100000000E-03 0. -1.
        -11    1    3    3    0    0  0.92957829022E+01  0.11318150505E+02  0.33607458252E+02  0.36660242239E+02  0.51100000000E-03 0.  1.
         12    1    3    3    0    0  0.69677901046E+01 -0.99341214915E+00  0.49802530850E+01  0.86220581899E+01  0.00000000000E+00 0. -1.
</event>
<event>
 7    1  0.5897985E-013  0.5052886E+02  0.7816164E-02  0.1300439E+00
        -11   -1    0    0    0    0  0.00000000000E+00  0.00000000000E+00  0.45593999997E+02  0.45594000000E+02  0.51100000000E-03 0. -1.
         11   -1    0    0    0    0 -0.00000000000E+00 -0.00000000000E+00 -0.45593999997E+02  0.45594000000E+02  0.51100000000E-03 0.  1.
    9900012    2    1    2    0    0  0.31714236747E+02 -0.22940806792E+02  0.11004185270E+02  0.50528861763E+02  0.30000005815E+02 0.  0.
         12    1    1    2    0    0 -0.31714236747E+02  0.22940806792E+02 -0.11004185270E+02  0.40659138237E+02  0.00000000000E+00 0. -1.
         11    1    3    3    0    0 -0.24408114437E+01 -0.60241775612E+01  0.96512628186E+01  0.11635942164E+02  0.51100000000E-03 0. -1.
        -11    1    3    3    0    0  0.32266665340E+02 -0.13908483780E+02  0.23160774164E+01  0.35212892924E+02  0.51100000000E-03 0.  1.
         12    1    3    3    0    0  0.18883828501E+01 -0.30081454505E+01 -0.96315496460E+00  0.36800266746E+01  0.00000000000E+00 0. -1.
</event>
<event>
 7    1  0.5897985E-013  0.5052880E+02  0.7816164E-02  0.1300439E+00
        -11   -1    0    0    0    0  0.00000000000E+00  0.00000000000E+00  0.45593999997E+02  0.45594000000E+02  0.51100000000E-03 0. -1.
         11   -1    0    0    0    0 -0.00000000000E+00 -0.00000000000E+00 -0.45593999997E+02  0.45594000000E+02  0.51100000000E-03 0.  1.
    9900012    2    1    2    0    0  0.33609449637E+02  0.22004887814E+02  0.62738049118E+01  0.50528796605E+02  0.29999807761E+02 0.  0.
         12    1    1    2    0    0 -0.33609449637E+02 -0.22004887814E+02 -0.62738049118E+01  0.40659203395E+02  0.00000000000E+00 0. -1.
         11    1    3    3    0    0 -0.11261511823E+01  0.98521461987E+01 -0.30688462636E+01  0.10380309189E+02  0.51100000000E-03 0. -1.
        -11    1    3    3    0    0  0.26031902538E+02  0.46451372246E+01  0.10797264618E+02  0.28562530929E+02  0.51100000000E-03 0.  1.
        -12    1    3    3    0    0  0.87036982820E+01  0.75076043904E+01 -0.14546134430E+01  0.11585956488E+02  0.00000000000E+00 0.  1.
</event>
<event>
 7    1  0.5897985E-013  0.5052886E+02  0.7816164E-02  0.1300439E+00
        -11   -1    0    0    0    0  0.00000000000E+00  0.00000000000E+00  0.45593999997E+02  0.45594000000E+02  0.51100000000E-03 0. -1.
         11   -1    0    0    0    0 -0.00000000000E+00 -0.00000000000E+00 -0.45593999997E+02  0.45594000000E+02  0.51100000000E-03 0.  1.
    9900012    2    1    2    0    0  0.13582846960E+02 -0.17755330214E+02 -0.33962040621E+02  0.50528859753E+02  0.29999999704E+02 0.  0.
         12    1    1    2    0    0 -0.13582846960E+02  0.17755330214E+02  0.33962040621E+02  0.40659140247E+02  0.00000000000E+00 0. -1.
         11    1    3    3    0    0 -0.67303122034E+01  0.15783308188E+01 -0.11417222775E+01  0.70065512593E+01  0.51100000000E-03 0. -1.
        -11    1    3    3    0    0  0.18873958825E+02 -0.15611141023E+02 -0.26879721649E+02  0.36365553508E+02  0.51100000000E-03 0.  1.
        -12    1    3    3    0    0  0.14392003380E+01 -0.37225200098E+01 -0.59405966945E+01  0.71567549856E+01  0.00000000000E+00 0.  1.
</event>
<event>
 7    1  0.5897985E-013  0.5052883E+02  0.7816164E-02  0.1300439E+00
        -11   -1    0    0    0    0  0.00000000000E+00  0.00000000000E+00  0.45593999997E+02  0.45594000000E+02  0.51100000000E-03 0.  1.
         11   -1    0    0    0    0 -0.00000000000E+00 -0.00000000000E+00 -0.45593999997E+02  0.45594000000E+02  0.51100000000E-03 0. -1.
    9900012    2    1    2    0    0 -0.12669858947E+02 -0.14772470159E+00  0.38634454493E+02  0.50528828559E+02  0.29999904888E+02 0.  0.
         12    1    1    2    0    0  0.12669858947E+02  0.14772470159E+00 -0.38634454493E+02  0.40659171441E+02  0.00000000000E+00 0. -1.
         11    1    3    3    0    0 -0.13420408169E+02  0.53165799120E+01  0.27325020166E+02  0.30903561360E+02  0.51100000000E-03 0.  1.
        -11    1    3    3    0    0  0.75614481865E+01 -0.14617450978E+01  0.78629267013E+01  0.11006262489E+02  0.51100000000E-03 0. -1.
         12    1    3    3    0    0 -0.68108989647E+01 -0.40025595157E+01  0.34465076254E+01  0.86190047103E+01  0.00000000000E+00 0. -1.
</event>
<event>
 7    1  0.5897985E-013  0.5052886E+02  0.7816164E-02  0.1300439E+00
        -11   -1    0    0    0    0  0.00000000000E+00  0.00000000000E+00  0.45593999997E+02  0.45594000000E+02  0.51100000000E-03 0. -1.
         11   -1    0    0    0    0 -0.00000000000E+00 -0.00000000000E+00 -0.45593999997E+02  0.45594000000E+02  0.51100000000E-03 0.  1.
    9900012    2    1    2    0    0 -0.16056172496E+01 -0.37056138818E+02 -0.16656246657E+02  0.50528856089E+02  0.29999988568E+02 0.  0.
         12    1    1    2    0    0  0.16056172496E+01  0.37056138818E+02  0.16656246657E+02  0.40659143911E+02  0.00000000000E+00 0. -1.
         11    1    3    3    0    0 -0.63786061709E+01 -0.37780142121E+01  0.10284818343E-02  0.74135018304E+01  0.51100000000E-03 0. -1.
        -11    1    3    3    0    0  0.10988128187E+02 -0.86611534652E+01 -0.88391226015E+01  0.16549460083E+02  0.51100000000E-03 0.  1.
        -12    1    3    3    0    0 -0.62151392660E+01 -0.24616971141E+02 -0.78181525374E+01  0.26565894176E+02  0.00000000000E+00 0.  1.
</event>
<event>
 7    1  0.5897985E-013  0.5052888E+02  0.7816164E-02  0.1300439E+00
        -11   -1    0    0    0    0  0.00000000000E+00  0.00000000000E+00  0.45593999997E+02  0.45594000000E+02  0.51100000000E-03 0.  1.
         11   -1    0    0    0    0 -0.00000000000E+00 -0.00000000000E+00 -0.45593999997E+02  0.45594000000E+02  0.51100000000E-03 0. -1.
    9900012    2    1    2    0    0 -0.17837971385E+02 -0.21303998569E+02 -0.29683506556E+02  0.50528878765E+02  0.30000057494E+02 0.  0.
         12    1    1    2    0    0  0.17837971385E+02  0.21303998569E+02  0.29683506556E+02  0.40659121235E+02  0.00000000000E+00 0. -1.
         11    1    3    3    0    0  0.53962923135E+01 -0.16017681830E+02 -0.11135059529E+02  0.20240445967E+02  0.51100000000E-03 0. -1.
        -11    1    3    3    0    0 -0.19181590492E+01 -0.10557177462E+01 -0.20979115412E+01  0.30323435150E+01  0.51100000000E-03 0.  1.
         12    1    3    3    0    0 -0.21316104649E+02 -0.42305989921E+01 -0.16450535486E+02  0.27256089283E+02  0.00000000000E+00 0. -1.
</event>
<event>
 7    1  0.5897985E-013  0.5052886E+02  0.7816164E-02  0.1300439E+00
        -11   -1    0    0    0    0  0.00000000000E+00  0.00000000000E+00  0.45593999997E+02  0.45594000000E+02  0.51100000000E-03 0. -1.
         11   -1    0    0    0    0 -0.00000000000E+00 -0.00000000000E+00 -0.45593999997E+02  0.45594000000E+02  0.51100000000E-03 0.  1.
    9900012    2    1    2    0    0 -0.36726625027E+02  0.77306888100E+01 -0.15638324771E+02  0.50528859121E+02  0.29999997786E+02 0.  0.
         12    1    1    2    0    0  0.36726625027E+02 -0.77306888100E+01  0.15638324771E+02  0.40659140879E+02  0.00000000000E+00 0. -1.
         11    1    3    3    0    0  0.19549702800E+01  0.79796644126E+01  0.84151965654E+00  0.82586384185E+01  0.51100000000E-03 0. -1.
        -11    1    3    3    0    0 -0.15888735903E+02  0.19999713660E+01 -0.71966150410E+01  0.17556852861E+02  0.51100000000E-03 0.  1.
         12    1    3    3    0    0 -0.22792859404E+02 -0.22489469686E+01 -0.92832293864E+01  0.24713367842E+02  0.00000000000E+00 0. -1.
</event>
<event>
 7    1  0.8979806E-013  0.5052884E+02  0.7816164E-02  0.1300439E+00
        -11   -1    0    0    0    0  0.00000000000E+00  0.00000000000E+00  0.45593999997E+02  0.45594000000E+02  0.51100000000E-03 0.  1.
         11   -1    0    0    0    0 -0.00000000000E+00 -0.00000000000E+00 -0.45593999997E+02  0.45594000000E+02  0.51100000000E-03 0. -1.
    9900012    2    1    2    0    0 -0.15266772084E+02 -0.35877853385E+02  0.11527029924E+02  0.50528842209E+02  0.29999946378E+02 0.  0.
         12    1    1    2    0    0  0.15266772084E+02  0.35877853385E+02 -0.11527029924E+02  0.40659157791E+02  0.00000000000E+00 0. -1.
         11    1    3    3    0    0 -0.49293556801E+01 -0.11529782497E+01 -0.19069863384E+01  0.54096675888E+01  0.51100000000E-03 0. -1.
        -11    1    3    3    0    0 -0.45986207727E+01 -0.31295423140E+02  0.17772785592E+01  0.31681375315E+02  0.51100000000E-03 0.  1.
        -12    1    3    3    0    0 -0.57387956314E+01 -0.34294519960E+01  0.11656737703E+02  0.13437799305E+02  0.00000000000E+00 0.  1.
</event>
<event>
 7    1  0.5897985E-013  0.5052887E+02  0.7816164E-02  0.1300439E+00
        -11   -1    0    0    0    0  0.00000000000E+00  0.00000000000E+00  0.45593999997E+02  0.45594000000E+02  0.51100000000E-03 0.  1.
         11   -1    0    0    0    0 -0.00000000000E+00 -0.00000000000E+00 -0.45593999997E+02  0.45594000000E+02  0.51100000000E-03 0. -1.
    9900012    2    1    2    0    0 -0.31759258251E+02  0.36366033173E+01  0.25125477896E+02  0.50528868088E+02  0.30000025039E+02 0.  0.
         12    1    1    2    0    0  0.31759258251E+02 -0.36366033173E+01 -0.25125477896E+02  0.40659131912E+02  0.00000000000E+00 0. -1.
         11    1    3    3    0    0 -0.72781970677E+01 -0.61277488749E+01  0.10907355563E+01  0.95765945484E+01  0.51100000000E-03 0. -1.
        -11    1    3    3    0    0 -0.87267872920E+01  0.11844008251E+02  0.37463122640E+01  0.15181311001E+02  0.51100000000E-03 0.  1.
        -12    1    3    3    0    0 -0.15754273892E+02 -0.20796560585E+01  0.20288430076E+02  0.25770962538E+02  0.00000000000E+00 0.  1.
</event>
<event>
 7    1  0.5897985E-013  0.5052886E+02  0.7816164E-02  0.1300439E+00
        -11   -1    0    0    0    0  0.00000000000E+00  0.00000000000E+00  0.45593999997E+02  0.45594000000E+02  0.51100000000E-03 0.  1.
         11   -1    0    0    0    0 -0.00000000000E+00 -0.00000000000E+00 -0.45593999997E+02  0.45594000000E+02  0.51100000000E-03 0. -1.
    9900012    2    1    2    0    0 -0.95855297540E+01 -0.10605090604E+02  0.38063306413E+02  0.50528860530E+02  0.30000002067E+02 0.  0.
         12    1    1    2    0    0  0.95855297540E+01  0.10605090604E+02 -0.38063306413E+02  0.40659139470E+02  0.00000000000E+00 0. -1.
         11    1    3    3    0    0 -0.17630911553E+01  0.11687557026E+01 -0.16821645755E+01  0.27026206234E+01  0.51100000000E-03 0.  1.
        -11    1    3    3    0    0  0.37808140525E+01 -0.14153114385E+02  0.19823434474E+02  0.24649011264E+02  0.51100000000E-03 0. -1.
        -12    1    3    3    0    0 -0.11603252651E+02  0.23792680789E+01  0.19922036514E+02  0.23177228643E+02  0.00000000000E+00 0.  1.
</event>
<event>
 7    1  0.5897985E-013  0.5052886E+02  0.7816164E-02  0.1300439E+00
        -11   -1    0    0    0    0  0.00000000000E+00  0.00000000000E+00  0.45593999997E+02  0.45594000000E+02  0.51100000000E-03 0.  1.
         11   -1    0    0    0    0 -0.00000000000E+00 -0.00000000000E+00 -0.45593999997E+02  0.45594000000E+02  0.51100000000E-03 0. -1.
    9900012    2    1    2    0    0  0.38883203107E+01  0.13379731779E+02  0.38197248559E+02  0.50528855214E+02  0.29999985908E+02 0.  0.
         12    1    1    2    0    0 -0.38883203107E+01 -0.13379731779E+02 -0.38197248559E+02  0.40659144786E+02  0.00000000000E+00 0. -1.
         11    1    3    3    0    0  0.83442667061E+01  0.48343060458E+01  0.28924187176E+01  0.10067938622E+02  0.51100000000E-03 0.  1.
        -11    1    3    3    0    0 -0.97605994668E+01  0.12114485824E+00  0.16065596668E+02  0.18798600335E+02  0.51100000000E-03 0. -1.
        -12    1    3    3    0    0  0.53046530714E+01  0.84242808748E+01  0.19239233173E+02  0.21662316256E+02  0.00000000000E+00 0.  1.
</event>
<event>
 7    1  0.5897985E-013  0.5052885E+02  0.7816164E-02  0.1300439E+00
        -11   -1    0    0    0    0  0.00000000000E+00  0.00000000000E+00  0.45593999997E+02  0.45594000000E+02  0.51100000000E-03 0. -1.
         11   -1    0    0    0    0 -0.00000000000E+00 -0.00000000000E+00 -0.45593999997E+02  0.45594000000E+02  0.51100000000E-03 0.  1.
    9900012    2    1    2    0    0  0.23470951518E+02  0.31725683394E+02 -0.97857969025E+01  0.50528851300E+02  0.29999974012E+02 0.  0.
         12    1    1    2    0    0 -0.23470951518E+02 -0.31725683394E+02  0.97857969025E+01  0.40659148700E+02  0.00000000000E+00 0. -1.
         11    1    3    3    0    0 -0.11021143181E+01  0.15125348144E+01  0.22044232552E+01  0.28916949500E+01  0.51100000000E-03 0. -1.
        -11    1    3    3    0    0  0.25703054680E+02  0.18472287379E+02 -0.15619281557E+02  0.35296379099E+02  0.51100000000E-03 0.  1.
        -12    1    3    3    0    0 -0.11299888438E+01  0.11740861200E+02  0.36290613994E+01  0.12340777251E+02  0.00000000000E+00 0.  1.
</event>
<event>
 7    1  0.5897985E-013  0.5052886E+02  0.7816164E-02  0.1300439E+00
        -11   -1    0    0    0    0  0.00000000000E+00  0.00000000000E+00  0.45593999997E+02  0.45594000000E+02  0.51100000000E-03 0. -1.
         11   -1    0    0    0    0 -0.00000000000E+00 -0.00000000000E+00 -0.45593999997E+02  0.45594000000E+02  0.51100000000E-03 0.  1.
    9900012    2    1    2    0    0 -0.14398955963E+02 -0.36758036694E+02 -0.97304880995E+01  0.50528860891E+02  0.30000003164E+02 0.  0.
         12    1    1    2    0    0  0.14398955963E+02  0.36758036694E+02  0.97304880995E+01  0.40659139109E+02  0.00000000000E+00 0. -1.
         11    1    3    3    0    0 -0.16284021736E+02 -0.63905375825E+01  0.93802922349E+00  0.17518225754E+02  0.51100000000E-03 0. -1.
        -11    1    3    3    0    0  0.20427259974E+01 -0.15274535387E+02 -0.89458083724E+01  0.17818856543E+02  0.51100000000E-03 0.  1.
         12    1    3    3    0    0 -0.15766022504E+00 -0.15092963724E+02 -0.17227089506E+01  0.15191778594E+02  0.00000000000E+00 0. -1.
</event>
<event>
 7    1  0.5897985E-013  0.5052885E+02  0.7816164E-02  0.1300439E+00
        -11   -1    0    0    0    0  0.00000000000E+00  0.00000000000E+00  0.45593999997E+02  0.45594000000E+02  0.51100000000E-03 0. -1.
         11   -1    0    0    0    0 -0.00000000000E+00 -0.00000000000E+00 -0.45593999997E+02  0.45594000000E+02  0.51100000000E-03 0.  1.
    9900012    2    1    2    0    0  0.21581512569E+02 -0.22658761895E+02 -0.25961232080E+02  0.50528846707E+02  0.29999960052E+02 0.  0.
         12    1    1    2    0    0 -0.21581512569E+02  0.22658761895E+02  0.25961232080E+02  0.40659153293E+02  0.00000000000E+00 0. -1.
         11    1    3    3    0    0 -0.13078175451E+01 -0.14629199682E+01  0.34006008852E+01  0.39261441907E+01  0.51100000000E-03 0. -1.
        -11    1    3    3    0    0  0.10191229037E+02 -0.20281256925E+02 -0.23208341982E+02  0.32462557964E+02  0.51100000000E-03 0.  1.
        -12    1    3    3    0    0  0.12698101077E+02 -0.91458500143E+00 -0.61534909835E+01  0.14140144553E+02  0.00000000000E+00 0.  1.
</event>
<event>
 7    1  0.5897985E-013  0.5052886E+02  0.7816164E-02  0.1300439E+00
        -11   -1    0    0    0    0  0.00000000000E+00  0.00000000000E+00  0.45593999997E+02  0.45594000000E+02  0.51100000000E-03 0.  1.
         11   -1    0    0    0    0 -0.00000000000E+00 -0.00000000000E+00 -0.45593999997E+02  0.45594000000E+02  0.51100000000E-03 0. -1.
    9900012    2    1    2    0    0 -0.27426497097E+02  0.14063409633E+02  0.26517412088E+02  0.50528863544E+02  0.30000011228E+02 0.  0.
         12    1    1    2    0    0  0.27426497097E+02 -0.14063409633E+02 -0.26517412088E+02  0.40659136456E+02  0.00000000000E+00 0. -1.
         11    1    3    3    0    0 -0.21208584063E+02  0.99524756513E+01  0.36582939960E+01  0.23711577863E+02  0.51100000000E-03 0. -1.
        -11    1    3    3    0    0 -0.32413005871E+00 -0.11847526768E+01  0.16794307266E+02  0.16839164350E+02  0.51100000000E-03 0.  1.
         12    1    3    3    0    0 -0.58937829759E+01  0.52956866582E+01  0.60648108258E+01  0.99781213312E+01  0.00000000000E+00 0. -1.
</event>
<event>
 7    1  0.5897985E-013  0.5052884E+02  0.7816164E-02  0.1300439E+00
        -11   -1    0    0    0    0  0.00000000000E+00  0.00000000000E+00  0.45593999997E+02  0.45594000000E+02  0.51100000000E-03 0. -1.
         11   -1    0    0    0    0 -0.00000000000E+00 -0.00000000000E+00 -0.45593999997E+02  0.45594000000E+02  0.51100000000E-03 0.  1.
    9900012    2    1    2    0    0 -0.20249155789E+02  0.22715944132E+02 -0.26965259624E+02  0.50528835540E+02  0.29999926108E+02 0.  0.
         12    1    1    2    0    0  0.20249155789E+02 -0.22715944132E+02  0.26965259624E+02  0.40659164460E+02  0.00000000000E+00 0. -1.
         11    1    3    3    0    0  0.14391692066E+01 -0.50053921355E+01 -0.49161901728E+01  0.71619888657E+01  0.51100000000E-03 0. -1.
        -11    1    3    3    0    0 -0.12814874486E+02  0.24551292009E+02 -0.18463764821E+02  0.33285095148E+02  0.51100000000E-03 0.  1.
         12    1    3    3    0    0 -0.88734505097E+01  0.31700442592E+01 -0.35853046307E+01  0.10081751527E+02  0.00000000000E+00 0. -1.
</event>
<event>
 7    1  0.5897985E-013  0.5052886E+02  0.7816164E-02  0.1300439E+00
        -11   -1    0    0    0    0  0.00000000000E+00  0.00000000000E+00  0.45593999997E+02  0.45594000000E+02  0.51100000000E-03 0. -1.
         11   -1    0    0    0    0 -0.00000000000E+00 -0.00000000000E+00 -0.45593999997E+02  0.45594000000E+02  0.51100000000E-03 0.  1.
    9900012    2    1    2    0    0 -0.37049220320E+02  0.10553589778E+02  0.13005490789E+02  0.50528858664E+02  0.29999996395E+02 0.  0.
         12    1    1    2    0    0  0.37049220320E+02 -0.10553589778E+02 -0.13005490789E+02  0.40659141336E+02  0.00000000000E+00 0. -1.
         11    1    3    3    0    0  0.39726293063E+01 -0.23803172378E+01  0.23504814837E+01  0.51935014416E+01  0.51100000000E-03 0. -1.
        -11    1    3    3    0    0 -0.17865852868E+02  0.49724160039E+01 -0.21136537188E+00  0.18546112671E+02  0.51100000000E-03 0.  1.
         12    1    3    3    0    0 -0.23155996758E+02  0.79614910117E+01  0.10866374678E+02  0.26789244551E+02  0.00000000000E+00 0. -1.
</event>
<event>
 7    1  0.5897985E-013  0.5052887E+02  0.7816164E-02  0.1300439E+00
        -11   -1    0    0    0    0  0.00000000000E+00  0.00000000000E+00  0.45593999997E+02  0.45594000000E+02  0.51100000000E-03 0.  1.
         11   -1    0    0    0    0 -0.00000000000E+00 -0.00000000000E+00 -0.45593999997E+02  0.45594000000E+02  0.51100000000E-03 0. -1.
    9900012    2    1    2    0    0  0.38153332168E+02 -0.41160722592E+01  0.13436747174E+02  0.50528868418E+02  0.30000026044E+02 0.  0.
         12    1    1    2    0    0 -0.38153332168E+02  0.41160722592E+01 -0.13436747174E+02  0.40659131582E+02  0.00000000000E+00 0. -1.
         11    1    3    3    0    0  0.95803859154E+01 -0.95117154587E+01 -0.60766628598E+01  0.14804808578E+02  0.51100000000E-03 0. -1.
        -11    1    3    3    0    0  0.93933933896E+01 -0.15584378974E+01  0.60961151135E+01  0.11306068627E+02  0.51100000000E-03 0.  1.
         12    1    3    3    0    0  0.19179552863E+02  0.69540810970E+01  0.13417294920E+02  0.24417991214E+02  0.00000000000E+00 0. -1.
</event>
<event>
 7    1  0.5897985E-013  0.5052886E+02  0.7816164E-02  0.1300439E+00
        -11   -1    0    0    0    0  0.00000000000E+00  0.00000000000E+00  0.45593999997E+02  0.45594000000E+02  0.51100000000E-03 0.  1.
         11   -1    0    0    0    0 -0.00000000000E+00 -0.00000000000E+00 -0.45593999997E+02  0.45594000000E+02  0.51100000000E-03 0. -1.
    9900012    2    1    2    0    0 -0.20396059118E+02  0.47499489334E+01  0.34851173861E+02  0.50528861275E+02  0.30000004330E+02 0.  0.
         12    1    1    2    0    0  0.20396059118E+02 -0.47499489334E+01 -0.34851173861E+02  0.40659138725E+02  0.00000000000E+00 0. -1.
         11    1    3    3    0    0 -0.38959665708E+01  0.27022171607E+01 -0.46159907066E+01  0.66172428979E+01  0.51100000000E-03 0. -1.
        -11    1    3    3    0    0 -0.13447696638E+02 -0.21961642382E+01  0.24174458985E+02  0.27750101796E+02  0.51100000000E-03 0.  1.
         12    1    3    3    0    0 -0.30523959084E+01  0.42438960109E+01  0.15292705583E+02  0.16161516580E+02  0.00000000000E+00 0. -1.
</event>
<event>
 7    1  0.5897985E-013  0.5052886E+02  0.7816164E-02  0.1300439E+00
        -11   -1    0    0    0    0  0.00000000000E+00  0.00000000000E+00  0.45593999997E+02  0.45594000000E+02  0.51100000000E-03 0.  1.
         11   -1    0    0    0    0 -0.00000000000E+00 -0.00000000000E+00 -0.45593999997E+02  0.45594000000E+02  0.51100000000E-03 0. -1.
    9900012    2    1    2    0    0 -0.22491866215E+02  0.13278021959E+02  0.31160485918E+02  0.50528858400E+02  0.29999995592E+02 0.  0.
         12    1    1    2    0    0  0.22491866215E+02 -0.13278021959E+02 -0.31160485918E+02  0.40659141600E+02  0.00000000000E+00 0. -1.
         11    1    3    3    0    0 -0.12127134394E+02 -0.76254211075E+01  0.10669303884E+02  0.17861928264E+02  0.51100000000E-03 0. -1.
        -11    1    3    3    0    0 -0.17394093999E+01  0.42958809080E+01  0.10444900828E+02  0.11426989604E+02  0.51100000000E-03 0.  1.
         12    1    3    3    0    0 -0.86253224214E+01  0.16607562159E+02  0.10046281206E+02  0.21239940532E+02  0.00000000000E+00 0. -1.
</event>
<event>
 7    1  0.5897985E-013  0.5052886E+02  0.7816164E-02  0.1300439E+00
        -11   -1    0    0    0    0  0.00000000000E+00  0.00000000000E+00  0.45593999997E+02  0.45594000000E+02  0.51100000000E-03 0. -1.
         11   -1    0    0    0    0 -0.00000000000E+00 -0.00000000000E+00 -0.45593999997E+02  0.45594000000E+02  0.51100000000E-03 0.  1.
    9900012    2    1    2    0    0 -0.27571052871E+02 -0.23371317601E+02 -0.18622143451E+02  0.50528859951E+02  0.30000000307E+02 0.  0.
         12    1    1    2    0    0  0.27571052871E+02  0.23371317601E+02  0.18622143451E+02  0.40659140049E+02  0.00000000000E+00 0. -1.
         11    1    3    3    0    0 -0.59303465258E+01 -0.20738536967E+02 -0.75509485360E+01  0.22853287499E+02  0.51100000000E-03 0. -1.
        -11    1    3    3    0    0 -0.13506607625E+02  0.41739343512E+01 -0.32724810582E+01  0.14510661944E+02  0.51100000000E-03 0.  1.
        -12    1    3    3    0    0 -0.81340987201E+01 -0.68067149848E+01 -0.77987138571E+01  0.13164910509E+02  0.00000000000E+00 0.  1.
</event>
<event>
 7    1  0.5897985E-013  0.5052886E+02  0.7816164E-02  0.1300439E+00
        -11   -1    0    0    0    0  0.00000000000E+00  0.00000000000E+00  0.45593999997E+02  0.45594000000E+02  0.51100000000E-03 0.  1.
         11   -1    0    0    0    0 -0.00000000000E+00 -0.00000000000E+00 -0.45593999997E+02  0.45594000000E+02  0.51100000000E-03 0. -1.
    9900012    2    1    2    0    0  0.18912922166E+02 -0.28487301764E+02  0.21998648642E+02  0.50528861682E+02  0.30000005570E+02 0.  0.
         12    1    1    2    0    0 -0.18912922166E+02  0.28487301764E+02 -0.21998648642E+02  0.40659138318E+02  0.00000000000E+00 0. -1.
         11    1    3    3    0    0 -0.25644495032E+01  0.42416888609E+01  0.70135542813E+01  0.85882634779E+01  0.51100000000E-03 0. -1.
        -11    1    3    3    0    0  0.11941119021E+02 -0.17672450633E+02  0.88503032758E+01  0.23091853611E+02  0.51100000000E-03 0.  1.
         12    1    3    3    0    0  0.95362526476E+01 -0.15056539992E+02  0.61347910852E+01  0.18848744593E+02  0.00000000000E+00 0. -1.
</event>
<event>
 7    1  0.5897985E-013  0.5052884E+02  0.7816164E-02  0.1300439E+00
        -11   -1    0    0    0    0  0.00000000000E+00  0.00000000000E+00  0.45593999997E+02  0.45594000000E+02  0.51100000000E-03 0.  1.
         11   -1    0    0    0    0 -0.00000000000E+00 -0.00000000000E+00 -0.45593999997E+02  0.45594000000E+02  0.51100000000E-03 0. -1.
    9900012    2    1    2    0    0  0.20039164065E+02  0.33249711958E+02 -0.12085353009E+02  0.50528841142E+02  0.29999943135E+02 0.  0.
         12    1    1    2    0    0 -0.20039164065E+02 -0.33249711958E+02  0.12085353009E+02  0.40659158858E+02  0.00000000000E+00 0. -1.
         11    1    3    3    0    0  0.33226987061E+01 -0.44957037085E+00 -0.56934223943E+01  0.66073821617E+01  0.51100000000E-03 0. -1.
        -11    1    3    3    0    0  0.52203188113E+01  0.17269088452E+02  0.74885447572E+01  0.19533341939E+02  0.51100000000E-03 0.  1.
        -12    1    3    3    0    0  0.11496146548E+02  0.16430193876E+02 -0.13880475372E+02  0.24388117041E+02  0.00000000000E+00 0.  1.
</event>
<event>
 7    1  0.5897985E-013  0.5052886E+02  0.7816164E-02  0.1300439E+00
        -11   -1    0    0    0    0  0.00000000000E+00  0.00000000000E+00  0.45593999997E+02  0.45594000000E+02  0.51100000000E-03 0. -1.
         11   -1    0    0    0    0 -0.00000000000E+00 -0.00000000000E+00 -0.45593999997E+02  0.45594000000E+02  0.51100000000E-03 0.  1.
    9900012    2    1    2    0    0 -0.16061214771E+02 -0.20086856511E+02 -0.31491601159E+02  0.50528863659E+02  0.30000011579E+02 0.  0.
         12    1    1    2    0    0  0.16061214771E+02  0.20086856511E+02  0.31491601159E+02  0.40659136341E+02  0.00000000000E+00 0. -1.
         11    1    3    3    0    0 -0.42642697008E+01 -0.47201844488E+01  0.32612682710E+01  0.71484269814E+01  0.51100000000E-03 0. -1.
        -11    1    3    3    0    0 -0.93193635728E+01 -0.15719603519E+01 -0.23752088620E+02  0.25563319637E+02  0.51100000000E-03 0.  1.
        -12    1    3    3    0    0 -0.24775814970E+01 -0.13794711710E+02 -0.11000780810E+02  0.17817117041E+02  0.00000000000E+00 0.  1.
</event>
<event>
 7    1  0.5897985E-013  0.5052882E+02  0.7816164E-02  0.1300439E+00
        -11   -1    0    0    0    0  0.00000000000E+00  0.00000000000E+00  0.45593999997E+02  0.45594000000E+02  0.51100000000E-03 0.  1.
         11   -1    0    0    0    0 -0.00000000000E+00 -0.00000000000E+00 -0.45593999997E+02  0.45594000000E+02  0.51100000000E-03 0. -1.
    9900012    2    1    2    0    0 -0.14994644235E+02  0.37563361120E+02 -0.41621005936E+01  0.50528824704E+02  0.29999893171E+02 0.  0.
         12    1    1    2    0    0  0.14994644235E+02 -0.37563361120E+02  0.41621005936E+01  0.40659175296E+02  0.00000000000E+00 0. -1.
         11    1    3    3    0    0 -0.14050402591E+02  0.32549719564E+01  0.31865756163E+01  0.14770339191E+02  0.51100000000E-03 0. -1.
        -11    1    3    3    0    0 -0.11661948603E+01  0.14096619480E+02  0.29677838275E+00  0.14147889203E+02  0.51100000000E-03 0.  1.
         12    1    3    3    0    0  0.22195321650E+00  0.20211769683E+02 -0.76454545926E+01  0.21610596310E+02  0.00000000000E+00 0. -1.
</event>
<event>
 7    1  0.5897985E-013  0.5052887E+02  0.7816164E-02  0.1300439E+00
        -11   -1    0    0    0    0  0.00000000000E+00  0.00000000000E+00  0.45593999997E+02  0.45594000000E+02  0.51100000000E-03 0.  1.
         11   -1    0    0    0    0 -0.00000000000E+00 -0.00000000000E+00 -0.45593999997E+02  0.45594000000E+02  0.51100000000E-03 0. -1.
    9900012    2    1    2    0    0 -0.17985766213E+02  0.31649102869E+02  0.18111084281E+02  0.50528869752E+02  0.30000030097E+02 0.  0.
         12    1    1    2    0    0  0.17985766213E+02 -0.31649102869E+02 -0.18111084281E+02  0.40659130248E+02  0.00000000000E+00 0. -1.
         11    1    3    3    0    0  0.21640699717E+01  0.10139679287E+02 -0.25081747183E+01  0.10667109991E+02  0.51100000000E-03 0. -1.
        -11    1    3    3    0    0 -0.11462011839E+02  0.13739769824E+01  0.10892260675E+02  0.15871574308E+02  0.51100000000E-03 0.  1.
        -12    1    3    3    0    0 -0.86878243462E+01  0.20135446600E+02  0.97269983251E+01  0.23990185453E+02  0.00000000000E+00 0.  1.
</event>
<event>
 7    1  0.5897985E-013  0.5052886E+02  0.7816164E-02  0.1300439E+00
        -11   -1    0    0    0    0  0.00000000000E+00  0.00000000000E+00  0.45593999997E+02  0.45594000000E+02  0.51100000000E-03 0. -1.
         11   -1    0    0    0    0 -0.00000000000E+00 -0.00000000000E+00 -0.45593999997E+02  0.45594000000E+02  0.51100000000E-03 0.  1.
    9900012    2    1    2    0    0 -0.37298777983E+02  0.16103515726E+02  0.16259938075E+01  0.50528856949E+02  0.29999991183E+02 0.  0.
         12    1    1    2    0    0  0.37298777983E+02 -0.16103515726E+02 -0.16259938075E+01  0.40659143051E+02  0.00000000000E+00 0. -1.
         11    1    3    3    0    0  0.31473509425E+01 -0.23415101958E+01 -0.12710432096E+01  0.41235954037E+01  0.51100000000E-03 0. -1.
        -11    1    3    3    0    0 -0.29822766050E+02  0.10722499207E+02  0.73578568747E+01  0.32534711035E+02  0.51100000000E-03 0.  1.
         12    1    3    3    0    0 -0.10623362876E+02  0.77225267151E+01 -0.44608198575E+01  0.13870550510E+02  0.00000000000E+00 0. -1.
</event>
<event>
 7    1  0.5897985E-013  0.5052886E+02  0.7816164E-02  0.1300439E+00
        -11   -1    0    0    0    0  0.00000000000E+00  0.00000000000E+00  0.45593999997E+02  0.45594000000E+02  0.51100000000E-03 0. -1.
         11   -1    0    0    0    0 -0.00000000000E+00 -0.00000000000E+00 -0.45593999997E+02  0.45594000000E+02  0.51100000000E-03 0.  1.
    9900012    2    1    2    0    0  0.22934834968E+02 -0.31639725148E+02  0.11228844771E+02  0.50528858133E+02  0.29999994782E+02 0.  0.
         12    1    1    2    0    0 -0.22934834968E+02  0.31639725148E+02 -0.11228844771E+02  0.40659141867E+02  0.00000000000E+00 0. -1.
         11    1    3    3    0    0 -0.18887966368E+01 -0.89306027124E+00  0.72113571137E+01  0.75079145617E+01  0.51100000000E-03 0. -1.
        -11    1    3    3    0    0  0.25716295511E+02 -0.31887016991E+02  0.26843941112E+01  0.41052596500E+02  0.51100000000E-03 0.  1.
        -12    1    3    3    0    0 -0.89266390628E+00  0.11403521139E+01  0.13330935457E+01  0.19683470717E+01  0.00000000000E+00 0.  1.
</event>
<event>
 7    1  0.5897985E-013  0.5052887E+02  0.7816164E-02  0.1300439E+00
        -11   -1    0    0    0    0  0.00000000000E+00  0.00000000000E+00  0.45593999997E+02  0.45594000000E+02  0.51100000000E-03 0.  1.
         11   -1    0    0    0    0 -0.00000000000E+00 -0.00000000000E+00 -0.45593999997E+02  0.45594000000E+02  0.51100000000E-03 0. -1.
    9900012    2    1    2    0    0  0.28729729733E+02 -0.27017064450E+02  0.98916898176E+01  0.50528872249E+02  0.30000037687E+02 0.  0.
         12    1    1    2    0    0 -0.28729729733E+02  0.27017064450E+02 -0.98916898176E+01  0.40659127751E+02  0.00000000000E+00 0. -1.
         11    1    3    3    0    0 -0.52440116145E+01 -0.48422121532E+01  0.18141804875E+01  0.73646403478E+01  0.51100000000E-03 0. -1.
        -11    1    3    3    0    0  0.11630923086E+02 -0.10847847806E+02  0.86561613133E+01  0.18107548227E+02  0.51100000000E-03 0.  1.
        -12    1    3    3    0    0  0.22342818261E+02 -0.11327004491E+02 -0.57865198323E+00  0.25056683673E+02  0.00000000000E+00 0.  1.
</event>
<event>
 7    1  0.5897985E-013  0.5052886E+02  0.7816164E-02  0.1300439E+00
        -11   -1    0    0    0    0  0.00000000000E+00  0.00000000000E+00  0.45593999997E+02  0.45594000000E+02  0.51100000000E-03 0. -1.
         11   -1    0    0    0    0 -0.00000000000E+00 -0.00000000000E+00 -0.45593999997E+02  0.45594000000E+02  0.51100000000E-03 0.  1.
    9900012    2    1    2    0    0 -0.18432184910E+02  0.19916199303E+02 -0.30278129408E+02  0.50528861351E+02  0.30000004562E+02 0.  0.
         12    1    1    2    0    0  0.18432184910E+02 -0.19916199303E+02  0.30278129408E+02  0.40659138649E+02  0.00000000000E+00 0. -1.
         11    1    3    3    0    0 -0.14640401858E+02 -0.26953925217E+01 -0.38362649089E+01  0.15372814841E+02  0.51100000000E-03 0. -1.
        -11    1    3    3    0    0  0.35225115277E+00  0.26359814937E+01 -0.42346725491E+01  0.50004930926E+01  0.51100000000E-03 0.  1.
         12    1    3    3    0    0 -0.41440342046E+01  0.19975610331E+02 -0.22207191950E+02  0.30155553417E+02  0.00000000000E+00 0. -1.
</event>
<event>
 7    1  0.5897985E-013  0.5052886E+02  0.7816164E-02  0.1300439E+00
        -11   -1    0    0    0    0  0.00000000000E+00  0.00000000000E+00  0.45593999997E+02  0.45594000000E+02  0.51100000000E-03 0.  1.
         11   -1    0    0    0    0 -0.00000000000E+00 -0.00000000000E+00 -0.45593999997E+02  0.45594000000E+02  0.51100000000E-03 0. -1.
    9900012    2    1    2    0    0 -0.32236558235E+02  0.12460936132E+01  0.24747062655E+02  0.50528861468E+02  0.30000004918E+02 0.  0.
         12    1    1    2    0    0  0.32236558235E+02 -0.12460936132E+01 -0.24747062655E+02  0.40659138532E+02  0.00000000000E+00 0. -1.
         11    1    3    3    0    0 -0.82092527560E+01  0.10951540387E+02  0.10892248781E+02  0.17491973915E+02  0.51100000000E-03 0. -1.
        -11    1    3    3    0    0 -0.20522699633E+02 -0.95727247871E+01  0.45567628729E+01  0.23099401469E+02  0.51100000000E-03 0.  1.
         12    1    3    3    0    0 -0.35046058459E+01 -0.13272198681E+00  0.92980510011E+01  0.99374860846E+01  0.00000000000E+00 0. -1.
</event>
<event>
 7    1  0.5897985E-013  0.5052887E+02  0.7816164E-02  0.1300439E+00
        -11   -1    0    0    0    0  0.00000000000E+00  0.00000000000E+00  0.45593999997E+02  0.45594000000E+02  0.51100000000E-03 0. -1.
         11   -1    0    0    0    0 -0.00000000000E+00 -0.00000000000E+00 -0.45593999997E+02  0.45594000000E+02  0.51100000000E-03 0.  1.
    9900012    2    1    2    0    0 -0.21434281240E+02  0.21607158159E+02 -0.26960472469E+02  0.50528870991E+02  0.30000033865E+02 0.  0.
         12    1    1    2    0    0  0.21434281240E+02 -0.21607158159E+02  0.26960472469E+02  0.40659129009E+02  0.00000000000E+00 0. -1.
         11    1    3    3    0    0 -0.92313742992E+01  0.26187955035E+01 -0.32480207244E+01  0.10130449162E+02  0.51100000000E-03 0. -1.
        -11    1    3    3    0    0 -0.10410362460E+02  0.24412215540E+02 -0.21890810525E+02  0.34402608910E+02  0.51100000000E-03 0.  1.
        -12    1    3    3    0    0 -0.17925444804E+01 -0.54238528841E+01 -0.18216412200E+01  0.59958129188E+01  0.00000000000E+00 0.  1.
</event>
<event>
 7    1  0.5897985E-013  0.5052885E+02  0.7816164E-02  0.1300439E+00
        -11   -1    0    0    0    0  0.00000000000E+00  0.00000000000E+00  0.45593999997E+02  0.45594000000E+02  0.51100000000E-03 0. -1.
         11   -1    0    0    0    0 -0.00000000000E+00 -0.00000000000E+00 -0.45593999997E+02  0.45594000000E+02  0.51100000000E-03 0.  1.
    9900012    2    1    2    0    0 -0.21112013484E+02  0.29958556417E+02 -0.17604959691E+02  0.50528845783E+02  0.29999957241E+02 0.  0.
         12    1    1    2    0    0  0.21112013484E+02 -0.29958556417E+02  0.17604959691E+02  0.40659154217E+02  0.00000000000E+00 0. -1.
         11    1    3    3    0    0  0.34874420955E+01  0.72517041063E+01 -0.12164654491E+01  0.81381357364E+01  0.51100000000E-03 0. -1.
        -11    1    3    3    0    0 -0.15662952347E+02  0.12161467312E+02 -0.19937209596E+02  0.28119774006E+02  0.51100000000E-03 0.  1.
        -12    1    3    3    0    0 -0.89365032325E+01  0.10545384999E+02  0.35487153540E+01  0.14270936040E+02  0.00000000000E+00 0.  1.
</event>
<event>
 7    1  0.5897985E-013  0.5052887E+02  0.7816164E-02  0.1300439E+00
        -11   -1    0    0    0    0  0.00000000000E+00  0.00000000000E+00  0.45593999997E+02  0.45594000000E+02  0.51100000000E-03 0. -1.
         11   -1    0    0    0    0 -0.00000000000E+00 -0.00000000000E+00 -0.45593999997E+02  0.45594000000E+02  0.51100000000E-03 0.  1.
    9900012    2    1    2    0    0 -0.14410614272E+02 -0.37375502624E+01 -0.37835566802E+02  0.50528865714E+02  0.30000017823E+02 0.  0.
         12    1    1    2    0    0  0.14410614272E+02  0.37375502624E+01  0.37835566802E+02  0.40659134286E+02  0.00000000000E+00 0. -1.
         11    1    3    3    0    0 -0.19238987199E+02 -0.43385705284E+01 -0.22334478900E+02  0.29795818006E+02  0.51100000000E-03 0. -1.
        -11    1    3    3    0    0  0.45099863955E+01  0.92026801994E+00 -0.17802478360E+02  0.18387906529E+02  0.51100000000E-03 0.  1.
         12    1    3    3    0    0  0.31838653102E+00 -0.31924775395E+00  0.23013904570E+01  0.23451411785E+01  0.00000000000E+00 0. -1.
</event>
<event>
 7    1  0.5897985E-013  0.5052886E+02  0.7816164E-02  0.1300439E+00
        -11   -1    0    0    0    0  0.00000000000E+00  0.00000000000E+00  0.45593999997E+02  0.45594000000E+02  0.51100000000E-03 0.  1.
         11   -1    0    0    0    0 -0.00000000000E+00 -0.00000000000E+00 -0.45593999997E+02  0.45594000000E+02  0.51100000000E-03 0. -1.
    9900012    2    1    2    0    0  0.36328832875E+02  0.17791557375E+02  0.41038702671E+01  0.50528863719E+02  0.30000011761E+02 0.  0.
         12    1    1    2    0    0 -0.36328832875E+02 -0.17791557375E+02 -0.41038702671E+01  0.40659136281E+02  0.00000000000E+00 0. -1.
         11    1    3    3    0    0  0.54099427035E+00  0.25637451781E+01  0.80712560826E+01  0.84859082691E+01  0.51100000000E-03 0. -1.
        -11    1    3    3    0    0  0.35801966756E+02  0.15396729849E+02 -0.64948736832E+01  0.39509789901E+02  0.51100000000E-03 0.  1.
        -12    1    3    3    0    0 -0.14128150922E-01 -0.16891765131E+00  0.25274878677E+01  0.25331655490E+01  0.00000000000E+00 0.  1.
</event>
<event>
 7    1  0.5897985E-013  0.5052886E+02  0.7816164E-02  0.1300439E+00
        -11   -1    0    0    0    0  0.00000000000E+00  0.00000000000E+00  0.45593999997E+02  0.45594000000E+02  0.51100000000E-03 0.  1.
         11   -1    0    0    0    0 -0.00000000000E+00 -0.00000000000E+00 -0.45593999997E+02  0.45594000000E+02  0.51100000000E-03 0. -1.
    9900012    2    1    2    0    0 -0.30787755145E+02 -0.25993646774E+02  0.54415321622E+01  0.50528858202E+02  0.29999994990E+02 0.  0.
         12    1    1    2    0    0  0.30787755145E+02  0.25993646774E+02 -0.54415321622E+01  0.40659141798E+02  0.00000000000E+00 0. -1.
         11    1    3    3    0    0 -0.40954156392E-01 -0.14590137754E+02  0.54683775313E+01  0.15581301294E+02  0.51100000000E-03 0. -1.
        -11    1    3    3    0    0 -0.18107193849E+02 -0.29784577854E+00 -0.48023216441E+00  0.18116009615E+02  0.51100000000E-03 0.  1.
         12    1    3    3    0    0 -0.12639607140E+02 -0.11105663242E+02  0.45338679531E+00  0.16831547293E+02  0.00000000000E+00 0. -1.
</event>
<event>
 7    1  0.5897985E-013  0.5052896E+02  0.7816164E-02  0.1300438E+00
        -11   -1    0    0    0    0  0.00000000000E+00  0.00000000000E+00  0.45593999997E+02  0.45594000000E+02  0.51100000000E-03 0. -1.
         11   -1    0    0    0    0 -0.00000000000E+00 -0.00000000000E+00 -0.45593999997E+02  0.45594000000E+02  0.51100000000E-03 0.  1.
    9900012    2    1    2    0    0 -0.20845945508E+02  0.34882962864E+02 -0.13354077543E+01  0.50528956035E+02  0.30000292364E+02 0.  0.
         12    1    1    2    0    0  0.20845945508E+02 -0.34882962864E+02  0.13354077543E+01  0.40659043965E+02  0.00000000000E+00 0. -1.
         11    1    3    3    0    0 -0.75366985846E+01 -0.35395279694E+01 -0.30470958934E+01  0.88665031126E+01  0.51100000000E-03 0. -1.
        -11    1    3    3    0    0 -0.98912537948E+01  0.18718101658E+02 -0.22000289996E+01  0.21284838716E+02  0.51100000000E-03 0.  1.
         12    1    3    3    0    0 -0.34179931281E+01  0.19704389175E+02  0.39117171388E+01  0.20377614207E+02  0.00000000000E+00 0. -1.
</event>
<event>
 7    1  0.5897985E-013  0.5052886E+02  0.7816164E-02  0.1300439E+00
        -11   -1    0    0    0    0  0.00000000000E+00  0.00000000000E+00  0.45593999997E+02  0.45594000000E+02  0.51100000000E-03 0.  1.
         11   -1    0    0    0    0 -0.00000000000E+00 -0.00000000000E+00 -0.45593999997E+02  0.45594000000E+02  0.51100000000E-03 0. -1.
    9900012    2    1    2    0    0  0.28540199843E+02 -0.13165179353E+02  0.25793419547E+02  0.50528862694E+02  0.30000008645E+02 0.  0.
         12    1    1    2    0    0 -0.28540199843E+02  0.13165179353E+02 -0.25793419547E+02  0.40659137306E+02  0.00000000000E+00 0. -1.
         11    1    3    3    0    0  0.14031328926E+02 -0.14371411835E+02  0.10749024779E+02  0.22780632202E+02  0.51100000000E-03 0. -1.
        -11    1    3    3    0    0  0.70638760525E+01  0.65953275620E+01  0.15805559826E+02  0.18525992880E+02  0.51100000000E-03 0.  1.
        -12    1    3    3    0    0  0.74449948647E+01 -0.53890950806E+01 -0.76116505741E+00  0.92222376118E+01  0.00000000000E+00 0.  1.
</event>
<event>
 7    1  0.5897985E-013  0.5052886E+02  0.7816164E-02  0.1300439E+00
        -11   -1    0    0    0    0  0.00000000000E+00  0.00000000000E+00  0.45593999997E+02  0.45594000000E+02  0.51100000000E-03 0.  1.
         11   -1    0    0    0    0 -0.00000000000E+00 -0.00000000000E+00 -0.45593999997E+02  0.45594000000E+02  0.51100000000E-03 0. -1.
    9900012    2    1    2    0    0  0.28311651714E+02  0.60286450763E+01  0.28552956421E+02  0.50528861979E+02  0.30000006472E+02 0.  0.
         12    1    1    2    0    0 -0.28311651714E+02 -0.60286450763E+01 -0.28552956421E+02  0.40659138021E+02  0.00000000000E+00 0. -1.
         11    1    3    3    0    0  0.81658854797E+01 -0.43348211598E+01 -0.11638295272E+01  0.93180931303E+01  0.51100000000E-03 0. -1.
        -11    1    3    3    0    0  0.16616992583E+02  0.10458974202E+02  0.11710140258E+02  0.22861364110E+02  0.51100000000E-03 0.  1.
         12    1    3    3    0    0  0.35287736512E+01 -0.95507966317E-01  0.18006645690E+02  0.18349404739E+02  0.00000000000E+00 0. -1.
</event>
<event>
 7    1  0.5897985E-013  0.5052887E+02  0.7816164E-02  0.1300439E+00
        -11   -1    0    0    0    0  0.00000000000E+00  0.00000000000E+00  0.45593999997E+02  0.45594000000E+02  0.51100000000E-03 0.  1.
         11   -1    0    0    0    0 -0.00000000000E+00 -0.00000000000E+00 -0.45593999997E+02  0.45594000000E+02  0.51100000000E-03 0. -1.
    9900012    2    1    2    0    0 -0.10218273720E+02  0.39026435470E+02  0.50684241011E+01  0.50528871798E+02  0.30000036317E+02 0.  0.
         12    1    1    2    0    0  0.10218273720E+02 -0.39026435470E+02 -0.50684241011E+01  0.40659128202E+02  0.00000000000E+00 0. -1.
         11    1    3    3    0    0 -0.12014040225E+01  0.12025518212E+02 -0.10496901801E+02  0.16007542210E+02  0.51100000000E-03 0. -1.
        -11    1    3    3    0    0 -0.69277999182E+01  0.27606231894E+02  0.13423757486E+02  0.31468964336E+02  0.51100000000E-03 0.  1.
         12    1    3    3    0    0 -0.20890697791E+01 -0.60531463607E+00  0.21415684171E+01  0.30523652526E+01  0.00000000000E+00 0. -1.
</event>
<event>
 7    1  0.5897985E-013  0.5052886E+02  0.7816164E-02  0.1300439E+00
        -11   -1    0    0    0    0  0.00000000000E+00  0.00000000000E+00  0.45593999997E+02  0.45594000000E+02  0.51100000000E-03 0.  1.
         11   -1    0    0    0    0 -0.00000000000E+00 -0.00000000000E+00 -0.45593999997E+02  0.45594000000E+02  0.51100000000E-03 0. -1.
    9900012    2    1    2    0    0 -0.38836865514E+02  0.11991626056E+02 -0.10315368240E+01  0.50528864660E+02  0.30000014619E+02 0.  0.
         12    1    1    2    0    0  0.38836865514E+02 -0.11991626056E+02  0.10315368240E+01  0.40659135340E+02  0.00000000000E+00 0. -1.
         11    1    3    3    0    0 -0.18503121050E+01 -0.14482275018E+01  0.93098370066E+01  0.96017749991E+01  0.51100000000E-03 0. -1.
        -11    1    3    3    0    0 -0.22397597166E+02  0.61527428127E+01 -0.49273055670E+01  0.23744198098E+02  0.51100000000E-03 0.  1.
         12    1    3    3    0    0 -0.14588956243E+02  0.72871107451E+01 -0.54140682636E+01  0.17182891562E+02  0.00000000000E+00 0. -1.
</event>
<event>
 7    1  0.5897985E-013  0.5052889E+02  0.7816164E-02  0.1300439E+00
        -11   -1    0    0    0    0  0.00000000000E+00  0.00000000000E+00  0.45593999997E+02  0.45594000000E+02  0.51100000000E-03 0.  1.
         11   -1    0    0    0    0 -0.00000000000E+00 -0.00000000000E+00 -0.45593999997E+02  0.45594000000E+02  0.51100000000E-03 0. -1.
    9900012    2    1    2    0    0 -0.28946136648E+02  0.22002897025E+02  0.18197727588E+02  0.50528885478E+02  0.30000077899E+02 0.  0.
         12    1    1    2    0    0  0.28946136648E+02 -0.22002897025E+02 -0.18197727588E+02  0.40659114522E+02  0.00000000000E+00 0. -1.
         11    1    3    3    0    0 -0.46554730774E+01  0.58531397832E+01 -0.69690686399E+01  0.10222553148E+02  0.51100000000E-03 0. -1.
        -11    1    3    3    0    0 -0.17161344049E+02  0.15627130166E+02  0.14181279367E+02  0.27199772270E+02  0.51100000000E-03 0.  1.
         12    1    3    3    0    0 -0.71293195212E+01  0.52262707530E+00  0.10985516861E+02  0.13106560060E+02  0.00000000000E+00 0. -1.
</event>
<event>
 7    1  0.5897985E-013  0.5052889E+02  0.7816164E-02  0.1300439E+00
        -11   -1    0    0    0    0  0.00000000000E+00  0.00000000000E+00  0.45593999997E+02  0.45594000000E+02  0.51100000000E-03 0.  1.
         11   -1    0    0    0    0 -0.00000000000E+00 -0.00000000000E+00 -0.45593999997E+02  0.45594000000E+02  0.51100000000E-03 0. -1.
    9900012    2    1    2    0    0 -0.67959283875E+01 -0.16626626610E+02  0.36476487746E+02  0.50528886466E+02  0.30000080901E+02 0.  0.
         12    1    1    2    0    0  0.67959283875E+01  0.16626626610E+02 -0.36476487746E+02  0.40659113534E+02  0.00000000000E+00 0. -1.
         11    1    3    3    0    0 -0.26042285964E+01  0.26246446699E+01  0.79717430575E+01  0.87874600347E+01  0.51100000000E-03 0. -1.
        -11    1    3    3    0    0 -0.63861319627E+01 -0.88497731538E+01 -0.42373238135E+00  0.10921571119E+02  0.51100000000E-03 0.  1.
        -12    1    3    3    0    0  0.21944321716E+01 -0.10401498126E+02  0.28928477070E+02  0.30819855312E+02  0.00000000000E+00 0.  1.
</event>
<event>
 7    1  0.5897985E-013  0.5052885E+02  0.7816164E-02  0.1300439E+00
        -11   -1    0    0    0    0  0.00000000000E+00  0.00000000000E+00  0.45593999997E+02  0.45594000000E+02  0.51100000000E-03 0.  1.
         11   -1    0    0    0    0 -0.00000000000E+00 -0.00000000000E+00 -0.45593999997E+02  0.45594000000E+02  0.51100000000E-03 0. -1.
    9900012    2    1    2    0    0  0.15933106013E+02  0.19054789828E+02  0.32190330509E+02  0.50528852679E+02  0.29999978202E+02 0.  0.
         12    1    1    2    0    0 -0.15933106013E+02 -0.19054789828E+02 -0.32190330509E+02  0.40659147321E+02  0.00000000000E+00 0. -1.
         11    1    3    3    0    0  0.15686831209E+02  0.15340181509E+02  0.29191750964E+02  0.36517888311E+02  0.51100000000E-03 0. -1.
        -11    1    3    3    0    0  0.24065790991E+01  0.55525075782E+01  0.69062115073E+01  0.91824681329E+01  0.51100000000E-03 0.  1.
         12    1    3    3    0    0 -0.21603042957E+01 -0.18378992586E+01 -0.39076319623E+01  0.48284962346E+01  0.00000000000E+00 0. -1.
</event>
<event>
 7    1  0.5897985E-013  0.5052899E+02  0.7816164E-02  0.1300438E+00
        -11   -1    0    0    0    0  0.00000000000E+00  0.00000000000E+00  0.45593999997E+02  0.45594000000E+02  0.51100000000E-03 0.  1.
         11   -1    0    0    0    0 -0.00000000000E+00 -0.00000000000E+00 -0.45593999997E+02  0.45594000000E+02  0.51100000000E-03 0. -1.
    9900012    2    1    2    0    0 -0.30196795858E+02 -0.12299972923E+02  0.24290313676E+02  0.50528989284E+02  0.30000393424E+02 0.  0.
         12    1    1    2    0    0  0.30196795858E+02  0.12299972923E+02 -0.24290313676E+02  0.40659010716E+02  0.00000000000E+00 0. -1.
         11    1    3    3    0    0 -0.24604450228E+02 -0.16514191294E+02  0.15590056815E+02  0.33483538596E+02  0.51100000000E-03 0. -1.
        -11    1    3    3    0    0 -0.75443425990E+01  0.66868675096E+01  0.29755557797E+01  0.10511195688E+02  0.51100000000E-03 0.  1.
        -12    1    3    3    0    0  0.19519969693E+01 -0.24726491380E+01  0.57247010813E+01  0.65342549995E+01  0.00000000000E+00 0.  1.
</event>
<event>
 7    1  0.5897985E-013  0.5052884E+02  0.7816164E-02  0.1300439E+00
        -11   -1    0    0    0    0  0.00000000000E+00  0.00000000000E+00  0.45593999997E+02  0.45594000000E+02  0.51100000000E-03 0.  1.
         11   -1    0    0    0    0 -0.00000000000E+00 -0.00000000000E+00 -0.45593999997E+02  0.45594000000E+02  0.51100000000E-03 0. -1.
    9900012    2    1    2    0    0 -0.10519932794E+02 -0.27124447885E+02  0.28403560905E+02  0.50528844437E+02  0.29999953150E+02 0.  0.
         12    1    1    2    0    0  0.10519932794E+02  0.27124447885E+02 -0.28403560905E+02  0.40659155563E+02  0.00000000000E+00 0. -1.
         11    1    3    3    0    0  0.48191522496E+01 -0.84630260127E+01  0.12730553659E+01  0.98217975912E+01  0.51100000000E-03 0. -1.
        -11    1    3    3    0    0 -0.52560673175E+01  0.15426489656E+01  0.12904564105E+02  0.14019050769E+02  0.51100000000E-03 0.  1.
        -12    1    3    3    0    0 -0.10083017727E+02 -0.20204070838E+02  0.14225941434E+02  0.26687996076E+02  0.00000000000E+00 0.  1.
</event>
<event>
 7    1  0.5897985E-013  0.5052886E+02  0.7816164E-02  0.1300439E+00
        -11   -1    0    0    0    0  0.00000000000E+00  0.00000000000E+00  0.45593999997E+02  0.45594000000E+02  0.51100000000E-03 0. -1.
         11   -1    0    0    0    0 -0.00000000000E+00 -0.00000000000E+00 -0.45593999997E+02  0.45594000000E+02  0.51100000000E-03 0.  1.
    9900012    2    1    2    0    0  0.32848004966E+01  0.18327169993E+02 -0.36145411718E+02  0.50528857578E+02  0.29999993094E+02 0.  0.
         12    1    1    2    0    0 -0.32848004966E+01 -0.18327169993E+02  0.36145411718E+02  0.40659142422E+02  0.00000000000E+00 0. -1.
         11    1    3    3    0    0  0.29411016781E+01 -0.13862118744E+01  0.30385482073E+01  0.44502177374E+01  0.51100000000E-03 0. -1.
        -11    1    3    3    0    0  0.33265511814E+00  0.11542225620E+02 -0.35086400212E+02  0.36937638146E+02  0.51100000000E-03 0.  1.
        -12    1    3    3    0    0  0.11043700433E-01  0.81711562470E+01 -0.40975597132E+01  0.91410016945E+01  0.00000000000E+00 0.  1.
</event>
<event>
 7    1  0.5897985E-013  0.5052886E+02  0.7816164E-02  0.1300439E+00
        -11   -1    0    0    0    0  0.00000000000E+00  0.00000000000E+00  0.45593999997E+02  0.45594000000E+02  0.51100000000E-03 0. -1.
         11   -1    0    0    0    0 -0.00000000000E+00 -0.00000000000E+00 -0.45593999997E+02  0.45594000000E+02  0.51100000000E-03 0.  1.
    9900012    2    1    2    0    0 -0.29623616595E+02 -0.27671957357E+02  0.31416036161E+01  0.50528861330E+02  0.30000004498E+02 0.  0.
         12    1    1    2    0    0  0.29623616595E+02  0.27671957357E+02 -0.31416036161E+01  0.40659138670E+02  0.00000000000E+00 0. -1.
         11    1    3    3    0    0 -0.19013615680E+02  0.15363178321E+01  0.92312168879E+00  0.19097905844E+02  0.51100000000E-03 0. -1.
        -11    1    3    3    0    0 -0.31641566930E+01 -0.14512831960E+02  0.42930104841E+00  0.14859962272E+02  0.51100000000E-03 0.  1.
         12    1    3    3    0    0 -0.74458442219E+01 -0.14695443229E+02  0.17891808789E+01  0.16570993214E+02  0.00000000000E+00 0. -1.
</event>
<event>
 7    1  0.5897985E-013  0.5052884E+02  0.7816164E-02  0.1300439E+00
        -11   -1    0    0    0    0  0.00000000000E+00  0.00000000000E+00  0.45593999997E+02  0.45594000000E+02  0.51100000000E-03 0. -1.
         11   -1    0    0    0    0 -0.00000000000E+00 -0.00000000000E+00 -0.45593999997E+02  0.45594000000E+02  0.51100000000E-03 0.  1.
    9900012    2    1    2    0    0 -0.30843864376E+02 -0.26409100000E+02  0.20934795756E+01  0.50528841263E+02  0.29999943504E+02 0.  0.
         12    1    1    2    0    0  0.30843864376E+02  0.26409100000E+02 -0.20934795756E+01  0.40659158737E+02  0.00000000000E+00 0. -1.
         11    1    3    3    0    0 -0.46453845634E+01  0.31435938067E+01 -0.37581043234E+01  0.67516759497E+01  0.51100000000E-03 0. -1.
        -11    1    3    3    0    0 -0.12646075100E+02 -0.26621423521E+02  0.30357476371E+01  0.29628350775E+02  0.51100000000E-03 0.  1.
        -12    1    3    3    0    0 -0.13552404712E+02 -0.29312702862E+01  0.28158362618E+01  0.14148814538E+02  0.00000000000E+00 0.  1.
</event>
<event>
 7    1  0.5897985E-013  0.5052886E+02  0.7816164E-02  0.1300439E+00
        -11   -1    0    0    0    0  0.00000000000E+00  0.00000000000E+00  0.45593999997E+02  0.45594000000E+02  0.51100000000E-03 0.  1.
         11   -1    0    0    0    0 -0.00000000000E+00 -0.00000000000E+00 -0.45593999997E+02  0.45594000000E+02  0.51100000000E-03 0. -1.
    9900012    2    1    2    0    0 -0.78598694503E+01 -0.13588284615E+02  0.37506621932E+02  0.50528859388E+02  0.29999998596E+02 0.  0.
         12    1    1    2    0    0  0.78598694503E+01  0.13588284615E+02 -0.37506621932E+02  0.40659140612E+02  0.00000000000E+00 0. -1.
         11    1    3    3    0    0 -0.12108371874E+02  0.71291847794E-01  0.32524705258E+01  0.12537795530E+02  0.51100000000E-03 0. -1.
        -11    1    3    3    0    0 -0.46101087408E+00 -0.68571002707E+01  0.84443729087E+01  0.10887597955E+02  0.51100000000E-03 0.  1.
         12    1    3    3    0    0  0.47095132983E+01 -0.68024761917E+01  0.25809778498E+02  0.27103465903E+02  0.00000000000E+00 0. -1.
</event>
<event>
 7    1  0.5897985E-013  0.5052888E+02  0.7816164E-02  0.1300439E+00
        -11   -1    0    0    0    0  0.00000000000E+00  0.00000000000E+00  0.45593999997E+02  0.45594000000E+02  0.51100000000E-03 0.  1.
         11   -1    0    0    0    0 -0.00000000000E+00 -0.00000000000E+00 -0.45593999997E+02  0.45594000000E+02  0.51100000000E-03 0. -1.
    9900012    2    1    2    0    0  0.84159641262E+00  0.28191797400E+02  0.29286149686E+02  0.50528876932E+02  0.30000051923E+02 0.  0.
         12    1    1    2    0    0 -0.84159641262E+00 -0.28191797400E+02 -0.29286149686E+02  0.40659123068E+02  0.00000000000E+00 0. -1.
         11    1    3    3    0    0 -0.59182386198E+01  0.68767304122E+01 -0.40924050841E+01  0.99530271353E+01  0.51100000000E-03 0. -1.
        -11    1    3    3    0    0  0.54398421489E+01  0.13712283163E+02  0.17258511194E+02  0.22704070142E+02  0.51100000000E-03 0.  1.
         12    1    3    3    0    0  0.13199928835E+01  0.76027838249E+01  0.16120043577E+02  0.17871779654E+02  0.00000000000E+00 0. -1.
</event>
<event>
 7    1  0.5897985E-013  0.5052886E+02  0.7816164E-02  0.1300439E+00
        -11   -1    0    0    0    0  0.00000000000E+00  0.00000000000E+00  0.45593999997E+02  0.45594000000E+02  0.51100000000E-03 0. -1.
         11   -1    0    0    0    0 -0.00000000000E+00 -0.00000000000E+00 -0.45593999997E+02  0.45594000000E+02  0.51100000000E-03 0.  1.
    9900012    2    1    2    0    0 -0.15593005888E+02 -0.13340343049E+02  0.35100699643E+02  0.50528859568E+02  0.29999999142E+02 0.  0.
         12    1    1    2    0    0  0.15593005888E+02  0.13340343049E+02 -0.35100699643E+02  0.40659140432E+02  0.00000000000E+00 0. -1.
         11    1    3    3    0    0  0.45652539887E+00 -0.35490775376E+00  0.17209451131E+02  0.17219163263E+02  0.51100000000E-03 0. -1.
        -11    1    3    3    0    0 -0.11360786976E+02 -0.76769357197E+01 -0.37690061525E+00  0.13716591307E+02  0.51100000000E-03 0.  1.
        -12    1    3    3    0    0 -0.46887443111E+01 -0.53084995755E+01  0.18268149126E+02  0.19593104998E+02  0.00000000000E+00 0.  1.
</event>
<event>
 7    1  0.5897985E-013  0.5052886E+02  0.7816164E-02  0.1300439E+00
        -11   -1    0    0    0    0  0.00000000000E+00  0.00000000000E+00  0.45593999997E+02  0.45594000000E+02  0.51100000000E-03 0. -1.
         11   -1    0    0    0    0 -0.00000000000E+00 -0.00000000000E+00 -0.45593999997E+02  0.45594000000E+02  0.51100000000E-03 0.  1.
    9900012    2    1    2    0    0 -0.30136757685E+02 -0.24428306724E+02  0.12173719572E+02  0.50528858576E+02  0.29999996126E+02 0.  0.
         12    1    1    2    0    0  0.30136757685E+02  0.24428306724E+02 -0.12173719572E+02  0.40659141424E+02  0.00000000000E+00 0. -1.
         11    1    3    3    0    0  0.45500764105E+01 -0.50170707920E+01 -0.16048358152E+01  0.69605813642E+01  0.51100000000E-03 0. -1.
        -11    1    3    3    0    0 -0.15186547746E+02 -0.11797865040E+02  0.14765243694E+01  0.19287326834E+02  0.51100000000E-03 0.  1.
         12    1    3    3    0    0 -0.19500286350E+02 -0.76133708922E+01  0.12302031018E+02  0.24280950377E+02  0.00000000000E+00 0. -1.
</event>
<event>
 7    1  0.5897985E-013  0.5052887E+02  0.7816164E-02  0.1300439E+00
        -11   -1    0    0    0    0  0.00000000000E+00  0.00000000000E+00  0.45593999997E+02  0.45594000000E+02  0.51100000000E-03 0.  1.
         11   -1    0    0    0    0 -0.00000000000E+00 -0.00000000000E+00 -0.45593999997E+02  0.45594000000E+02  0.51100000000E-03 0. -1.
    9900012    2    1    2    0    0  0.21480551708E+02 -0.30467784203E+02  0.16231604935E+02  0.50528868496E+02  0.30000026279E+02 0.  0.
         12    1    1    2    0    0 -0.21480551708E+02  0.30467784203E+02 -0.16231604935E+02  0.40659131504E+02  0.00000000000E+00 0. -1.
         11    1    3    3    0    0  0.23885421276E+02 -0.17996084440E+02  0.10161492634E+01  0.29923318070E+02  0.51100000000E-03 0. -1.
        -11    1    3    3    0    0 -0.15919836044E+00 -0.82442445253E+01  0.12844917482E+02  0.15263840188E+02  0.51100000000E-03 0.  1.
         12    1    3    3    0    0 -0.22456712074E+01 -0.42274552378E+01  0.23705381896E+01  0.53417102381E+01  0.00000000000E+00 0. -1.
</event>
<event>
 7    1  0.5897985E-013  0.5052886E+02  0.7816164E-02  0.1300439E+00
        -11   -1    0    0    0    0  0.00000000000E+00  0.00000000000E+00  0.45593999997E+02  0.45594000000E+02  0.51100000000E-03 0.  1.
         11   -1    0    0    0    0 -0.00000000000E+00 -0.00000000000E+00 -0.45593999997E+02  0.45594000000E+02  0.51100000000E-03 0. -1.
    9900012    2    1    2    0    0  0.11066795943E+02  0.28095769225E+02  0.27227180288E+02  0.50528861209E+02  0.30000004130E+02 0.  0.
         12    1    1    2    0    0 -0.11066795943E+02 -0.28095769225E+02 -0.27227180288E+02  0.40659138791E+02  0.00000000000E+00 0. -1.
         11    1    3    3    0    0  0.16347546030E+01  0.22403050571E+02  0.28764931511E+02  0.36496443424E+02  0.51100000000E-03 0.  1.
        -11    1    3    3    0    0  0.47769599909E+01  0.67818499448E+01  0.14122735493E+01  0.84147104685E+01  0.51100000000E-03 0. -1.
         12    1    3    3    0    0  0.46550813489E+01 -0.10891312904E+01 -0.29500247722E+01  0.56177073161E+01  0.00000000000E+00 0. -1.
</event>
<event>
 7    1  0.5897985E-013  0.5052887E+02  0.7816164E-02  0.1300439E+00
        -11   -1    0    0    0    0  0.00000000000E+00  0.00000000000E+00  0.45593999997E+02  0.45594000000E+02  0.51100000000E-03 0.  1.
         11   -1    0    0    0    0 -0.00000000000E+00 -0.00000000000E+00 -0.45593999997E+02  0.45594000000E+02  0.51100000000E-03 0. -1.
    9900012    2    1    2    0    0  0.20625678022E+02  0.90821023020E+01  0.33841713144E+02  0.50528871571E+02  0.30000035626E+02 0.  0.
         12    1    1    2    0    0 -0.20625678022E+02 -0.90821023020E+01 -0.33841713144E+02  0.40659128429E+02  0.00000000000E+00 0. -1.
         11    1    3    3    0    0 -0.49573662150E+01  0.17347748803E+01  0.16648936735E+02  0.17457720881E+02  0.51100000000E-03 0. -1.
        -11    1    3    3    0    0  0.25315979334E+02  0.77339737549E+01  0.14195122551E+02  0.30036888390E+02  0.51100000000E-03 0.  1.
        -12    1    3    3    0    0  0.26706490368E+00 -0.38664633324E+00  0.29976538582E+01  0.30342622997E+01  0.00000000000E+00 0.  1.
</event>
<event>
 7    1  0.5897985E-013  0.5052886E+02  0.7816164E-02  0.1300439E+00
        -11   -1    0    0    0    0  0.00000000000E+00  0.00000000000E+00  0.45593999997E+02  0.45594000000E+02  0.51100000000E-03 0.  1.
         11   -1    0    0    0    0 -0.00000000000E+00 -0.00000000000E+00 -0.45593999997E+02  0.45594000000E+02  0.51100000000E-03 0. -1.
    9900012    2    1    2    0    0  0.17787164507E+02  0.85092851122E+01  0.35558048969E+02  0.50528855877E+02  0.29999987925E+02 0.  0.
         12    1    1    2    0    0 -0.17787164507E+02 -0.85092851122E+01 -0.35558048969E+02  0.40659144123E+02  0.00000000000E+00 0. -1.
         11    1    3    3    0    0  0.10399972934E+02  0.11121835315E+02  0.44893487535E+01  0.15874788512E+02  0.51100000000E-03 0. -1.
        -11    1    3    3    0    0  0.10927039292E+02 -0.68632988003E+00  0.18981532317E+02  0.21912777226E+02  0.51100000000E-03 0.  1.
         12    1    3    3    0    0 -0.35398477197E+01 -0.19262203232E+01  0.12087167898E+02  0.12741290139E+02  0.00000000000E+00 0. -1.
</event>
<event>
 7    1  0.5897985E-013  0.5052882E+02  0.7816164E-02  0.1300439E+00
        -11   -1    0    0    0    0  0.00000000000E+00  0.00000000000E+00  0.45593999997E+02  0.45594000000E+02  0.51100000000E-03 0.  1.
         11   -1    0    0    0    0 -0.00000000000E+00 -0.00000000000E+00 -0.45593999997E+02  0.45594000000E+02  0.51100000000E-03 0. -1.
    9900012    2    1    2    0    0  0.33404790450E+02 -0.71498234298E+01  0.22049236777E+02  0.50528820932E+02  0.29999881704E+02 0.  0.
         12    1    1    2    0    0 -0.33404790450E+02  0.71498234298E+01 -0.22049236777E+02  0.40659179068E+02  0.00000000000E+00 0. -1.
         11    1    3    3    0    0  0.19526200873E+02  0.32739216705E+01  0.20162598034E+02  0.28258121724E+02  0.51100000000E-03 0. -1.
        -11    1    3    3    0    0  0.16658866911E+02 -0.97965161095E+01  0.19139137040E+01  0.19420418135E+02  0.51100000000E-03 0.  1.
         12    1    3    3    0    0 -0.27802773346E+01 -0.62722899082E+00 -0.27274960748E-01  0.28502810717E+01  0.00000000000E+00 0. -1.
</event>
<event>
 7    1  0.5897985E-013  0.5052886E+02  0.7816164E-02  0.1300439E+00
        -11   -1    0    0    0    0  0.00000000000E+00  0.00000000000E+00  0.45593999997E+02  0.45594000000E+02  0.51100000000E-03 0.  1.
         11   -1    0    0    0    0 -0.00000000000E+00 -0.00000000000E+00 -0.45593999997E+02  0.45594000000E+02  0.51100000000E-03 0. -1.
    9900012    2    1    2    0    0 -0.12126461692E+02 -0.12593265711E+02  0.36708637772E+02  0.50528862017E+02  0.30000006588E+02 0.  0.
         12    1    1    2    0    0  0.12126461692E+02  0.12593265711E+02 -0.36708637772E+02  0.40659137983E+02  0.00000000000E+00 0. -1.
         11    1    3    3    0    0  0.73922486269E+01 -0.85740116009E+01  0.53092851018E+01  0.12503900321E+02  0.51100000000E-03 0. -1.
        -11    1    3    3    0    0 -0.14418716870E+02 -0.41655156186E+01  0.28359295251E+02  0.32085830891E+02  0.51100000000E-03 0.  1.
        -12    1    3    3    0    0 -0.50999934493E+01  0.14626150896E+00  0.30400574188E+01  0.59391308052E+01  0.00000000000E+00 0.  1.
</event>
<event>
 7    1  0.5897985E-013  0.5052887E+02  0.7816164E-02  0.1300439E+00
        -11   -1    0    0    0    0  0.00000000000E+00  0.00000000000E+00  0.45593999997E+02  0.45594000000E+02  0.51100000000E-03 0. -1.
         11   -1    0    0    0    0 -0.00000000000E+00 -0.00000000000E+00 -0.45593999997E+02  0.45594000000E+02  0.51100000000E-03 0.  1.
    9900012    2    1    2    0    0  0.34663503569E+02  0.35121613189E+00 -0.21248136097E+02  0.50528866708E+02  0.30000020846E+02 0.  0.
         12    1    1    2    0    0 -0.34663503569E+02 -0.35121613189E+00  0.21248136097E+02  0.40659133292E+02  0.00000000000E+00 0. -1.
         11    1    3    3    0    0 -0.13842658314E+01 -0.16362854700E+00  0.23711335970E+01  0.27504983165E+01  0.51100000000E-03 0. -1.
        -11    1    3    3    0    0  0.36430917949E+02 -0.10946004125E+01 -0.26077196245E+02  0.44815511789E+02  0.51100000000E-03 0.  1.
        -12    1    3    3    0    0 -0.38314854821E+00  0.16094450914E+01  0.24579265516E+01  0.29628566022E+01  0.00000000000E+00 0.  1.
</event>
<event>
 7    1  0.5897985E-013  0.5052885E+02  0.7816164E-02  0.1300439E+00
        -11   -1    0    0    0    0  0.00000000000E+00  0.00000000000E+00  0.45593999997E+02  0.45594000000E+02  0.51100000000E-03 0.  1.
         11   -1    0    0    0    0 -0.00000000000E+00 -0.00000000000E+00 -0.45593999997E+02  0.45594000000E+02  0.51100000000E-03 0. -1.
    9900012    2    1    2    0    0  0.55439939028E+00  0.33195250818E+02  0.23471993916E+02  0.50528849321E+02  0.29999967996E+02 0.  0.
         12    1    1    2    0    0 -0.55439939028E+00 -0.33195250818E+02 -0.23471993916E+02  0.40659150679E+02  0.00000000000E+00 0. -1.
         11    1    3    3    0    0  0.23190251373E+00  0.11584693896E+02  0.17002506991E+02  0.20575328811E+02  0.51100000000E-03 0.  1.
        -11    1    3    3    0    0  0.17029023101E+01  0.21903893740E+02 -0.13464416142E+01  0.22011209475E+02  0.51100000000E-03 0. -1.
        -12    1    3    3    0    0 -0.13804054335E+01 -0.29333681802E+00  0.78159285389E+01  0.79423110348E+01  0.00000000000E+00 0.  1.
</event>
<event>
 7    1  0.5897985E-013  0.5052884E+02  0.7816164E-02  0.1300439E+00
        -11   -1    0    0    0    0  0.00000000000E+00  0.00000000000E+00  0.45593999997E+02  0.45594000000E+02  0.51100000000E-03 0.  1.
         11   -1    0    0    0    0 -0.00000000000E+00 -0.00000000000E+00 -0.45593999997E+02  0.45594000000E+02  0.51100000000E-03 0. -1.
    9900012    2    1    2    0    0 -0.27376812075E+02  0.29755143411E+02  0.42788562297E+01  0.50528843474E+02  0.29999950223E+02 0.  0.
         12    1    1    2    0    0  0.27376812075E+02 -0.29755143411E+02 -0.42788562297E+01  0.40659156526E+02  0.00000000000E+00 0. -1.
         11    1    3    3    0    0 -0.76474921474E+01  0.26625626630E+02 -0.98134375204E+00  0.27719508751E+02  0.51100000000E-03 0.  1.
        -11    1    3    3    0    0 -0.79449429744E+01 -0.21766199720E+01  0.54618102346E+01  0.98838840882E+01  0.51100000000E-03 0. -1.
        -12    1    3    3    0    0 -0.11784376953E+02  0.53061367533E+01 -0.20161025287E+00  0.12925450635E+02  0.00000000000E+00 0.  1.
</event>
<event>
 7    1  0.5897985E-013  0.5052886E+02  0.7816164E-02  0.1300439E+00
        -11   -1    0    0    0    0  0.00000000000E+00  0.00000000000E+00  0.45593999997E+02  0.45594000000E+02  0.51100000000E-03 0.  1.
         11   -1    0    0    0    0 -0.00000000000E+00 -0.00000000000E+00 -0.45593999997E+02  0.45594000000E+02  0.51100000000E-03 0. -1.
    9900012    2    1    2    0    0 -0.21817783591E+02  0.87035097953E+01  0.33187327629E+02  0.50528862297E+02  0.30000007438E+02 0.  0.
         12    1    1    2    0    0  0.21817783591E+02 -0.87035097953E+01 -0.33187327629E+02  0.40659137703E+02  0.00000000000E+00 0. -1.
         11    1    3    3    0    0 -0.23128913938E+01 -0.52279446334E+01  0.13116468768E+01  0.58652612457E+01  0.51100000000E-03 0. -1.
        -11    1    3    3    0    0 -0.66716780640E+01  0.16201811211E+02  0.22921697811E+02  0.28851589306E+02  0.51100000000E-03 0.  1.
        -12    1    3    3    0    0 -0.12833214133E+02 -0.22703567822E+01  0.89539829416E+01  0.15812011745E+02  0.00000000000E+00 0.  1.
</event>
<event>
 7    1  0.5897985E-013  0.5052887E+02  0.7816164E-02  0.1300439E+00
        -11   -1    0    0    0    0  0.00000000000E+00  0.00000000000E+00  0.45593999997E+02  0.45594000000E+02  0.51100000000E-03 0.  1.
         11   -1    0    0    0    0 -0.00000000000E+00 -0.00000000000E+00 -0.45593999997E+02  0.45594000000E+02  0.51100000000E-03 0. -1.
    9900012    2    1    2    0    0 -0.18212270214E+02 -0.35658860317E+02 -0.70656833409E+01  0.50528868350E+02  0.30000025836E+02 0.  0.
         12    1    1    2    0    0  0.18212270214E+02  0.35658860317E+02  0.70656833409E+01  0.40659131650E+02  0.00000000000E+00 0. -1.
         11    1    3    3    0    0  0.52274889127E+01 -0.40514640261E+01 -0.38158319156E+01  0.76355467752E+01  0.51100000000E-03 0. -1.
        -11    1    3    3    0    0 -0.25638476220E+02 -0.31301305692E+02 -0.24555493704E+01  0.40535576028E+02  0.51100000000E-03 0.  1.
        -12    1    3    3    0    0  0.21987170931E+01 -0.30609059880E+00 -0.79430205493E+00  0.23577455471E+01  0.00000000000E+00 0.  1.
</event>
<event>
 7    1  0.5897985E-013  0.5052884E+02  0.7816164E-02  0.1300439E+00
        -11   -1    0    0    0    0  0.00000000000E+00  0.00000000000E+00  0.45593999997E+02  0.45594000000E+02  0.51100000000E-03 0. -1.
         11   -1    0    0    0    0 -0.00000000000E+00 -0.00000000000E+00 -0.45593999997E+02  0.45594000000E+02  0.51100000000E-03 0.  1.
    9900012    2    1    2    0    0 -0.27182552053E+02 -0.19025647058E+02 -0.23501076783E+02  0.50528843688E+02  0.29999950874E+02 0.  0.
         12    1    1    2    0    0  0.27182552053E+02  0.19025647058E+02  0.23501076783E+02  0.40659156312E+02  0.00000000000E+00 0. -1.
         11    1    3    3    0    0 -0.45506706980E+01  0.53235030177E+01 -0.11007381715E+02  0.13046483842E+02  0.51100000000E-03 0. -1.
        -11    1    3    3    0    0 -0.18563094262E+02 -0.11578343801E+02 -0.87805361634E+01  0.23574230196E+02  0.51100000000E-03 0.  1.
         12    1    3    3    0    0 -0.40687870925E+01 -0.12770806274E+02 -0.37131589046E+01  0.13908129649E+02  0.00000000000E+00 0. -1.
</event>
<event>
 7    1  0.5897985E-013  0.5052884E+02  0.7816164E-02  0.1300439E+00
        -11   -1    0    0    0    0  0.00000000000E+00  0.00000000000E+00  0.45593999997E+02  0.45594000000E+02  0.51100000000E-03 0.  1.
         11   -1    0    0    0    0 -0.00000000000E+00 -0.00000000000E+00 -0.45593999997E+02  0.45594000000E+02  0.51100000000E-03 0. -1.
    9900012    2    1    2    0    0 -0.51598633836E+01  0.12940140305E+02  0.38198108459E+02  0.50528844683E+02  0.29999953897E+02 0.  0.
         12    1    1    2    0    0  0.51598633836E+01 -0.12940140305E+02 -0.38198108459E+02  0.40659155317E+02  0.00000000000E+00 0. -1.
         11    1    3    3    0    0 -0.69457161274E+01  0.11284646417E+02  0.15315734757E+01  0.13339112971E+02  0.51100000000E-03 0. -1.
        -11    1    3    3    0    0  0.20822581450E+01 -0.17468364402E+01  0.13293954987E+02  0.13568952648E+02  0.51100000000E-03 0.  1.
         12    1    3    3    0    0 -0.29640540124E+00  0.34023303280E+01  0.23372579997E+02  0.23620779063E+02  0.00000000000E+00 0. -1.
</event>
<event>
 7    1  0.5897985E-013  0.5052886E+02  0.7816164E-02  0.1300439E+00
        -11   -1    0    0    0    0  0.00000000000E+00  0.00000000000E+00  0.45593999997E+02  0.45594000000E+02  0.51100000000E-03 0. -1.
         11   -1    0    0    0    0 -0.00000000000E+00 -0.00000000000E+00 -0.45593999997E+02  0.45594000000E+02  0.51100000000E-03 0.  1.
    9900012    2    1    2    0    0  0.17579431820E+02 -0.36095280644E+02 -0.64233626925E+01  0.50528864543E+02  0.30000014264E+02 0.  0.
         12    1    1    2    0    0 -0.17579431820E+02  0.36095280644E+02  0.64233626925E+01  0.40659135457E+02  0.00000000000E+00 0. -1.
         11    1    3    3    0    0  0.11992205861E+02 -0.15670992591E+02  0.42478743843E+01  0.20185079818E+02  0.51100000000E-03 0. -1.
        -11    1    3    3    0    0 -0.34787161596E+01 -0.74497716000E+00 -0.76892508947E+01  0.84723690117E+01  0.51100000000E-03 0.  1.
        -12    1    3    3    0    0  0.90659421186E+01 -0.19679310892E+02 -0.29819861821E+01  0.21871415713E+02  0.00000000000E+00 0.  1.
</event>
<event>
 7    1  0.5897985E-013  0.5052885E+02  0.7816164E-02  0.1300439E+00
        -11   -1    0    0    0    0  0.00000000000E+00  0.00000000000E+00  0.45593999997E+02  0.45594000000E+02  0.51100000000E-03 0.  1.
         11   -1    0    0    0    0 -0.00000000000E+00 -0.00000000000E+00 -0.45593999997E+02  0.45594000000E+02  0.51100000000E-03 0. -1.
    9900012    2    1    2    0    0 -0.27418137122E+02 -0.25623456647E+02  0.15647693450E+02  0.50528854853E+02  0.29999984810E+02 0.  0.
         12    1    1    2    0    0  0.27418137122E+02  0.25623456647E+02 -0.15647693450E+02  0.40659145147E+02  0.00000000000E+00 0. -1.
         11    1    3    3    0    0 -0.11036081232E+02 -0.20249092376E+02  0.17062196255E+02  0.28686919882E+02  0.51100000000E-03 0.  1.
        -11    1    3    3    0    0 -0.16690882615E+02 -0.16062556835E+01  0.18198893115E+01  0.16866464276E+02  0.51100000000E-03 0. -1.
        -12    1    3    3    0    0  0.30882672479E+00 -0.37681085872E+01 -0.32343921165E+01  0.49754706947E+01  0.00000000000E+00 0.  1.
</event>
<event>
 7    1  0.5897985E-013  0.5052887E+02  0.7816164E-02  0.1300439E+00
        -11   -1    0    0    0    0  0.00000000000E+00  0.00000000000E+00  0.45593999997E+02  0.45594000000E+02  0.51100000000E-03 0. -1.
         11   -1    0    0    0    0 -0.00000000000E+00 -0.00000000000E+00 -0.45593999997E+02  0.45594000000E+02  0.51100000000E-03 0.  1.
    9900012    2    1    2    0    0  0.93531473711E+00  0.40539524680E+02 -0.29727429323E+01  0.50528867256E+02  0.30000022511E+02 0.  0.
         12    1    1    2    0    0 -0.93531473711E+00 -0.40539524680E+02  0.29727429323E+01  0.40659132744E+02  0.00000000000E+00 0. -1.
         11    1    3    3    0    0 -0.41000013312E+01  0.50247233385E+01  0.10233408144E+02  0.12115300163E+02  0.51100000000E-03 0. -1.
        -11    1    3    3    0    0  0.39428784638E+01  0.24946751952E+02 -0.74613672314E+01  0.26335503123E+02  0.51100000000E-03 0.  1.
         12    1    3    3    0    0  0.10924376045E+01  0.10568049390E+02 -0.57447838449E+01  0.12078063970E+02  0.00000000000E+00 0. -1.
</event>
<event>
 7    1  0.5897985E-013  0.5052887E+02  0.7816164E-02  0.1300439E+00
        -11   -1    0    0    0    0  0.00000000000E+00  0.00000000000E+00  0.45593999997E+02  0.45594000000E+02  0.51100000000E-03 0. -1.
         11   -1    0    0    0    0 -0.00000000000E+00 -0.00000000000E+00 -0.45593999997E+02  0.45594000000E+02  0.51100000000E-03 0.  1.
    9900012    2    1    2    0    0 -0.38274784563E+01  0.22428027133E+02 -0.33697158873E+02  0.50528874229E+02  0.30000043705E+02 0.  0.
         12    1    1    2    0    0  0.38274784563E+01 -0.22428027133E+02  0.33697158873E+02  0.40659125771E+02  0.00000000000E+00 0. -1.
         11    1    3    3    0    0  0.32677203741E+01  0.23796683435E+01  0.33341214559E+01  0.52399603063E+01  0.51100000000E-03 0. -1.
        -11    1    3    3    0    0  0.28039948074E+01  0.13762989573E+02 -0.16728681954E+02  0.21843330081E+02  0.51100000000E-03 0.  1.
         12    1    3    3    0    0 -0.98991936378E+01  0.62853692159E+01 -0.20302598375E+02  0.23445583841E+02  0.00000000000E+00 0. -1.
</event>
<event>
 7    1  0.5897985E-013  0.5052886E+02  0.7816164E-02  0.1300439E+00
        -11   -1    0    0    0    0  0.00000000000E+00  0.00000000000E+00  0.45593999997E+02  0.45594000000E+02  0.51100000000E-03 0. -1.
         11   -1    0    0    0    0 -0.00000000000E+00 -0.00000000000E+00 -0.45593999997E+02  0.45594000000E+02  0.51100000000E-03 0.  1.
    9900012    2    1    2    0    0  0.11197072486E+02  0.24870014531E+02 -0.30154160678E+02  0.50528862513E+02  0.30000008094E+02 0.  0.
         12    1    1    2    0    0 -0.11197072486E+02 -0.24870014531E+02  0.30154160678E+02  0.40659137487E+02  0.00000000000E+00 0. -1.
         11    1    3    3    0    0 -0.79410423478E+00  0.18272154061E+02 -0.27673996383E+01  0.18497586777E+02  0.51100000000E-03 0. -1.
        -11    1    3    3    0    0  0.12361798169E+02  0.72847474752E+01 -0.20062090554E+02  0.24665138910E+02  0.51100000000E-03 0.  1.
        -12    1    3    3    0    0 -0.37062144907E+00 -0.68688700581E+00 -0.73246704855E+01  0.73661368259E+01  0.00000000000E+00 0.  1.
</event>
<event>
 7    1  0.5897985E-013  0.5052886E+02  0.7816164E-02  0.1300439E+00
        -11   -1    0    0    0    0  0.00000000000E+00  0.00000000000E+00  0.45593999997E+02  0.45594000000E+02  0.51100000000E-03 0.  1.
         11   -1    0    0    0    0 -0.00000000000E+00 -0.00000000000E+00 -0.45593999997E+02  0.45594000000E+02  0.51100000000E-03 0. -1.
    9900012    2    1    2    0    0  0.95319990497E+01 -0.18059632779E+02  0.35159013932E+02  0.50528860773E+02  0.30000002807E+02 0.  0.
         12    1    1    2    0    0 -0.95319990497E+01  0.18059632779E+02 -0.35159013932E+02  0.40659139227E+02  0.00000000000E+00 0. -1.
         11    1    3    3    0    0  0.40006202333E+01 -0.83041711097E+01  0.58904850080E+01  0.10939014305E+02  0.51100000000E-03 0. -1.
        -11    1    3    3    0    0 -0.93055440807E+01 -0.98477946516E+00  0.89884578186E+01  0.12975180748E+02  0.51100000000E-03 0.  1.
        -12    1    3    3    0    0  0.14836922897E+02 -0.87706822040E+01  0.20280071105E+02  0.26614665720E+02  0.00000000000E+00 0.  1.
</event>
<event>
 7    1  0.5897985E-013  0.5052885E+02  0.7816164E-02  0.1300439E+00
        -11   -1    0    0    0    0  0.00000000000E+00  0.00000000000E+00  0.45593999997E+02  0.45594000000E+02  0.51100000000E-03 0.  1.
         11   -1    0    0    0    0 -0.00000000000E+00 -0.00000000000E+00 -0.45593999997E+02  0.45594000000E+02  0.51100000000E-03 0. -1.
    9900012    2    1    2    0    0 -0.20058051307E+01 -0.77827721823E+01  0.39856892387E+02  0.50528847675E+02  0.29999962992E+02 0.  0.
         12    1    1    2    0    0  0.20058051307E+01  0.77827721823E+01 -0.39856892387E+02  0.40659152325E+02  0.00000000000E+00 0. -1.
         11    1    3    3    0    0  0.28127934274E+01 -0.78186392396E+01  0.22522229344E+01  0.86090321658E+01  0.51100000000E-03 0. -1.
        -11    1    3    3    0    0 -0.11153672384E+02 -0.30821959679E+00  0.30048965877E+02  0.32053701151E+02  0.51100000000E-03 0.  1.
        -12    1    3    3    0    0  0.63350738255E+01  0.34408665411E+00  0.75557035759E+01  0.98661143581E+01  0.00000000000E+00 0.  1.
</event>
<event>
 7    1  0.5897985E-013  0.5052887E+02  0.7816164E-02  0.1300439E+00
        -11   -1    0    0    0    0  0.00000000000E+00  0.00000000000E+00  0.45593999997E+02  0.45594000000E+02  0.51100000000E-03 0.  1.
         11   -1    0    0    0    0 -0.00000000000E+00 -0.00000000000E+00 -0.45593999997E+02  0.45594000000E+02  0.51100000000E-03 0. -1.
    9900012    2    1    2    0    0 -0.20073150338E+02 -0.94893045823E+01  0.34061517310E+02  0.50528865387E+02  0.30000016832E+02 0.  0.
         12    1    1    2    0    0  0.20073150338E+02  0.94893045823E+01 -0.34061517310E+02  0.40659134613E+02  0.00000000000E+00 0. -1.
         11    1    3    3    0    0  0.19943109712E+01  0.33576328818E+01  0.14216441922E+02  0.14743072815E+02  0.51100000000E-03 0. -1.
        -11    1    3    3    0    0 -0.94747037340E+01 -0.14244928907E+02  0.11265802703E+02  0.20484294502E+02  0.51100000000E-03 0.  1.
         12    1    3    3    0    0 -0.12592757575E+02  0.13979914432E+01  0.85792726844E+01  0.15301498071E+02  0.00000000000E+00 0. -1.
</event>
<event>
 7    1  0.5897985E-013  0.5052886E+02  0.7816164E-02  0.1300439E+00
        -11   -1    0    0    0    0  0.00000000000E+00  0.00000000000E+00  0.45593999997E+02  0.45594000000E+02  0.51100000000E-03 0.  1.
         11   -1    0    0    0    0 -0.00000000000E+00 -0.00000000000E+00 -0.45593999997E+02  0.45594000000E+02  0.51100000000E-03 0. -1.
    9900012    2    1    2    0    0  0.12998274179E+02  0.79932063808E+01  0.37687126386E+02  0.50528856193E+02  0.29999988885E+02 0.  0.
         12    1    1    2    0    0 -0.12998274179E+02 -0.79932063808E+01 -0.37687126386E+02  0.40659143807E+02  0.00000000000E+00 0. -1.
         11    1    3    3    0    0  0.12413020372E+01  0.75251708647E+01 -0.14322658378E+01  0.77601812467E+01  0.51100000000E-03 0. -1.
        -11    1    3    3    0    0  0.61563801262E+01  0.55419368670E+01  0.28867406141E+02  0.30032336207E+02  0.51100000000E-03 0.  1.
        -12    1    3    3    0    0  0.56005920153E+01 -0.50739013509E+01  0.10251986083E+02  0.12736338739E+02  0.00000000000E+00 0.  1.
</event>
<event>
 7    1  0.5897985E-013  0.5052886E+02  0.7816164E-02  0.1300439E+00
        -11   -1    0    0    0    0  0.00000000000E+00  0.00000000000E+00  0.45593999997E+02  0.45594000000E+02  0.51100000000E-03 0.  1.
         11   -1    0    0    0    0 -0.00000000000E+00 -0.00000000000E+00 -0.45593999997E+02  0.45594000000E+02  0.51100000000E-03 0. -1.
    9900012    2    1    2    0    0 -0.13383754599E+01  0.37311890181E+02  0.16099598547E+02  0.50528862390E+02  0.30000007721E+02 0.  0.
         12    1    1    2    0    0  0.13383754599E+01 -0.37311890181E+02 -0.16099598547E+02  0.40659137610E+02  0.00000000000E+00 0. -1.
         11    1    3    3    0    0 -0.12867213191E+02  0.12998292807E+02  0.43098548491E+00  0.18294986743E+02  0.51100000000E-03 0. -1.
        -11    1    3    3    0    0  0.96998607883E+00  0.11359336590E+02  0.53587053889E+01  0.12597266548E+02  0.51100000000E-03 0.  1.
         12    1    3    3    0    0  0.10558851652E+02  0.12954260784E+02  0.10309907674E+02  0.19636609099E+02  0.00000000000E+00 0. -1.
</event>
<event>
 7    1  0.5897985E-013  0.5052885E+02  0.7816164E-02  0.1300439E+00
        -11   -1    0    0    0    0  0.00000000000E+00  0.00000000000E+00  0.45593999997E+02  0.45594000000E+02  0.51100000000E-03 0.  1.
         11   -1    0    0    0    0 -0.00000000000E+00 -0.00000000000E+00 -0.45593999997E+02  0.45594000000E+02  0.51100000000E-03 0. -1.
    9900012    2    1    2    0    0 -0.16100571185E+02  0.34293813772E+02  0.14760499921E+02  0.50528850803E+02  0.29999972502E+02 0.  0.
         12    1    1    2    0    0  0.16100571185E+02 -0.34293813772E+02 -0.14760499921E+02  0.40659149197E+02  0.00000000000E+00 0. -1.
         11    1    3    3    0    0  0.55126130539E+01  0.32813264289E+01 -0.72781783306E+00  0.64564483173E+01  0.51100000000E-03 0. -1.
        -11    1    3    3    0    0 -0.23630794524E+02  0.23056574234E+02  0.13151610577E+02  0.35538499212E+02  0.51100000000E-03 0.  1.
        -12    1    3    3    0    0  0.20176102848E+01  0.79559131090E+01  0.23367071768E+01  0.85339032739E+01  0.00000000000E+00 0.  1.
</event>
<event>
 7    1  0.5897985E-013  0.5052887E+02  0.7816164E-02  0.1300439E+00
        -11   -1    0    0    0    0  0.00000000000E+00  0.00000000000E+00  0.45593999997E+02  0.45594000000E+02  0.51100000000E-03 0.  1.
         11   -1    0    0    0    0 -0.00000000000E+00 -0.00000000000E+00 -0.45593999997E+02  0.45594000000E+02  0.51100000000E-03 0. -1.
    9900012    2    1    2    0    0  0.28928023850E+02 -0.48685052204E+01  0.28153719078E+02  0.50528870584E+02  0.30000032627E+02 0.  0.
         12    1    1    2    0    0 -0.28928023850E+02  0.48685052204E+01 -0.28153719078E+02  0.40659129416E+02  0.00000000000E+00 0. -1.
         11    1    3    3    0    0  0.19242236701E+02  0.65876052293E+01  0.60798025733E+01  0.21227911238E+02  0.51100000000E-03 0. -1.
        -11    1    3    3    0    0  0.10339516167E+02 -0.63257593899E+01  0.85817254111E+01  0.14851492778E+02  0.51100000000E-03 0.  1.
         12    1    3    3    0    0 -0.65372901829E+00 -0.51303510598E+01  0.13492191093E+02  0.14449466569E+02  0.00000000000E+00 0. -1.
</event>
<event>
 7    1  0.5897985E-013  0.5052886E+02  0.7816164E-02  0.1300439E+00
        -11   -1    0    0    0    0  0.00000000000E+00  0.00000000000E+00  0.45593999997E+02  0.45594000000E+02  0.51100000000E-03 0.  1.
         11   -1    0    0    0    0 -0.00000000000E+00 -0.00000000000E+00 -0.45593999997E+02  0.45594000000E+02  0.51100000000E-03 0. -1.
    9900012    2    1    2    0    0 -0.12223669235E+02 -0.43685792258E+01  0.38531327964E+02  0.50528858239E+02  0.29999995104E+02 0.  0.
         12    1    1    2    0    0  0.12223669235E+02  0.43685792258E+01 -0.38531327964E+02  0.40659141761E+02  0.00000000000E+00 0. -1.
         11    1    3    3    0    0  0.37430288832E+01 -0.58390601361E+01  0.29472350655E-01  0.69358314119E+01  0.51100000000E-03 0. -1.
        -11    1    3    3    0    0 -0.14715971333E+02 -0.28957349289E+01  0.34169823804E+02  0.37316510449E+02  0.51100000000E-03 0.  1.
        -12    1    3    3    0    0 -0.12507267850E+01  0.43662158392E+01  0.43320318101E+01  0.62765163785E+01  0.00000000000E+00 0.  1.
</event>
<event>
 7    1  0.5897985E-013  0.5052887E+02  0.7816164E-02  0.1300439E+00
        -11   -1    0    0    0    0  0.00000000000E+00  0.00000000000E+00  0.45593999997E+02  0.45594000000E+02  0.51100000000E-03 0.  1.
         11   -1    0    0    0    0 -0.00000000000E+00 -0.00000000000E+00 -0.45593999997E+02  0.45594000000E+02  0.51100000000E-03 0. -1.
    9900012    2    1    2    0    0 -0.39710175553E+02  0.69068019255E+01  0.53444642034E+01  0.50528865074E+02  0.30000015878E+02 0.  0.
         12    1    1    2    0    0  0.39710175553E+02 -0.69068019255E+01 -0.53444642034E+01  0.40659134926E+02  0.00000000000E+00 0. -1.
         11    1    3    3    0    0 -0.50424817026E+01  0.11530636613E+02 -0.55854200806E+01  0.13768773371E+02  0.51100000000E-03 0. -1.
        -11    1    3    3    0    0 -0.16625579844E+02 -0.16318195052E+01  0.38093394383E+01  0.17134287475E+02  0.51100000000E-03 0.  1.
         12    1    3    3    0    0 -0.18042114006E+02 -0.29920151820E+01  0.71205448457E+01  0.19625804227E+02  0.00000000000E+00 0. -1.
</event>
<event>
 7    1  0.5897985E-013  0.5052885E+02  0.7816164E-02  0.1300439E+00
        -11   -1    0    0    0    0  0.00000000000E+00  0.00000000000E+00  0.45593999997E+02  0.45594000000E+02  0.51100000000E-03 0. -1.
         11   -1    0    0    0    0 -0.00000000000E+00 -0.00000000000E+00 -0.45593999997E+02  0.45594000000E+02  0.51100000000E-03 0.  1.
    9900012    2    1    2    0    0 -0.21118540454E+02  0.50397567700E+01  0.34376947406E+02  0.50528850818E+02  0.29999972546E+02 0.  0.
         12    1    1    2    0    0  0.21118540454E+02 -0.50397567700E+01 -0.34376947406E+02  0.40659149182E+02  0.00000000000E+00 0. -1.
         11    1    3    3    0    0  0.21063960788E+01  0.58359173033E+01  0.14301391587E+02  0.15589247473E+02  0.51100000000E-03 0. -1.
        -11    1    3    3    0    0 -0.13814472736E+02 -0.79497430097E+01  0.72889883797E+01  0.17526192478E+02  0.51100000000E-03 0.  1.
         12    1    3    3    0    0 -0.94104637967E+01  0.71535824764E+01  0.12786567440E+02  0.17413410867E+02  0.00000000000E+00 0. -1.
</event>
<event>
 7    1  0.5897985E-013  0.5052886E+02  0.7816164E-02  0.1300439E+00
        -11   -1    0    0    0    0  0.00000000000E+00  0.00000000000E+00  0.45593999997E+02  0.45594000000E+02  0.51100000000E-03 0. -1.
         11   -1    0    0    0    0 -0.00000000000E+00 -0.00000000000E+00 -0.45593999997E+02  0.45594000000E+02  0.51100000000E-03 0.  1.
    9900012    2    1    2    0    0 -0.34678243008E+02 -0.20889980719E+02  0.37675135048E+01  0.50528856003E+02  0.29999988306E+02 0.  0.
         12    1    1    2    0    0  0.34678243008E+02  0.20889980719E+02 -0.37675135048E+01  0.40659143997E+02  0.00000000000E+00 0. -1.
         11    1    3    3    0    0 -0.15309646145E+02 -0.12566624361E+02  0.14468033312E+02  0.24528132850E+02  0.51100000000E-03 0. -1.
        -11    1    3    3    0    0 -0.19619042804E+02 -0.83967421055E+01 -0.72469567878E+01  0.22537313537E+02  0.51100000000E-03 0.  1.
         12    1    3    3    0    0  0.25044594057E+00  0.73385747407E-01 -0.34535630195E+01  0.34634096158E+01  0.00000000000E+00 0. -1.
</event>
<event>
 7    1  0.5897985E-013  0.5052889E+02  0.7816164E-02  0.1300439E+00
        -11   -1    0    0    0    0  0.00000000000E+00  0.00000000000E+00  0.45593999997E+02  0.45594000000E+02  0.51100000000E-03 0.  1.
         11   -1    0    0    0    0 -0.00000000000E+00 -0.00000000000E+00 -0.45593999997E+02  0.45594000000E+02  0.51100000000E-03 0. -1.
    9900012    2    1    2    0    0 -0.11178635014E+01 -0.30551885895E+02  0.26804779664E+02  0.50528885851E+02  0.30000079033E+02 0.  0.
         12    1    1    2    0    0  0.11178635014E+01  0.30551885895E+02 -0.26804779664E+02  0.40659114149E+02  0.00000000000E+00 0. -1.
         11    1    3    3    0    0 -0.14377450382E+02 -0.10939911515E+02  0.16528310737E+02  0.24486277780E+02  0.51100000000E-03 0. -1.
        -11    1    3    3    0    0  0.63832792023E+01 -0.75486396070E+01  0.57580412540E+01  0.11440421873E+02  0.51100000000E-03 0.  1.
         12    1    3    3    0    0  0.68763076781E+01 -0.12063334773E+02  0.45184276725E+01  0.14602186198E+02  0.00000000000E+00 0. -1.
</event>
<event>
 7    1  0.5897985E-013  0.5052885E+02  0.7816164E-02  0.1300439E+00
        -11   -1    0    0    0    0  0.00000000000E+00  0.00000000000E+00  0.45593999997E+02  0.45594000000E+02  0.51100000000E-03 0.  1.
         11   -1    0    0    0    0 -0.00000000000E+00 -0.00000000000E+00 -0.45593999997E+02  0.45594000000E+02  0.51100000000E-03 0. -1.
    9900012    2    1    2    0    0 -0.10358890719E+02 -0.32462001427E+01  0.39183186629E+02  0.50528849164E+02  0.29999967519E+02 0.  0.
         12    1    1    2    0    0  0.10358890719E+02  0.32462001427E+01 -0.39183186629E+02  0.40659150836E+02  0.00000000000E+00 0. -1.
         11    1    3    3    0    0 -0.37853593362E+01 -0.44850041911E+01  0.32433334213E+02  0.32960057287E+02  0.51100000000E-03 0.  1.
        -11    1    3    3    0    0 -0.50562209334E+01  0.78741868553E+01  0.31838168640E+01  0.98845778284E+01  0.51100000000E-03 0. -1.
         12    1    3    3    0    0 -0.15173104494E+01 -0.66353828069E+01  0.35660355519E+01  0.76842140491E+01  0.00000000000E+00 0. -1.
</event>
<event>
 7    1  0.5897985E-013  0.5052887E+02  0.7816164E-02  0.1300439E+00
        -11   -1    0    0    0    0  0.00000000000E+00  0.00000000000E+00  0.45593999997E+02  0.45594000000E+02  0.51100000000E-03 0.  1.
         11   -1    0    0    0    0 -0.00000000000E+00 -0.00000000000E+00 -0.45593999997E+02  0.45594000000E+02  0.51100000000E-03 0. -1.
    9900012    2    1    2    0    0  0.20510664089E+02  0.15574587886E+02  0.31462832954E+02  0.50528868348E+02  0.30000025831E+02 0.  0.
         12    1    1    2    0    0 -0.20510664089E+02 -0.15574587886E+02 -0.31462832954E+02  0.40659131652E+02  0.00000000000E+00 0. -1.
         11    1    3    3    0    0  0.10561439304E+02  0.19606018801E+01 -0.18843691154E+01  0.10905906983E+02  0.51100000000E-03 0. -1.
        -11    1    3    3    0    0  0.20256256062E+01  0.87892745929E+00  0.18103111825E+02  0.18237278596E+02  0.51100000000E-03 0.  1.
        -12    1    3    3    0    0  0.79235991793E+01  0.12735058547E+02  0.15244090244E+02  0.21385682770E+02  0.00000000000E+00 0.  1.
</event>
<event>
 7    1  0.5897985E-013  0.5052883E+02  0.7816164E-02  0.1300439E+00
        -11   -1    0    0    0    0  0.00000000000E+00  0.00000000000E+00  0.45593999997E+02  0.45594000000E+02  0.51100000000E-03 0.  1.
         11   -1    0    0    0    0 -0.00000000000E+00 -0.00000000000E+00 -0.45593999997E+02  0.45594000000E+02  0.51100000000E-03 0. -1.
    9900012    2    1    2    0    0  0.15355738364E+02 -0.20961375861E+02  0.31272830942E+02  0.50528832106E+02  0.29999915671E+02 0.  0.
         12    1    1    2    0    0 -0.15355738364E+02  0.20961375861E+02 -0.31272830942E+02  0.40659167894E+02  0.00000000000E+00 0. -1.
         11    1    3    3    0    0  0.35478084580E+00  0.13043681790E+01  0.13196181521E+02  0.13265234743E+02  0.51100000000E-03 0. -1.
        -11    1    3    3    0    0  0.55878280967E+01 -0.11975649157E+02 -0.14214215915E+01  0.13291366941E+02  0.51100000000E-03 0.  1.
        -12    1    3    3    0    0  0.94131294211E+01 -0.10290094883E+02  0.19498071013E+02  0.23972230422E+02  0.00000000000E+00 0.  1.
</event>
<event>
 7    1  0.5897985E-013  0.5052886E+02  0.7816164E-02  0.1300439E+00
        -11   -1    0    0    0    0  0.00000000000E+00  0.00000000000E+00  0.45593999997E+02  0.45594000000E+02  0.51100000000E-03 0.  1.
         11   -1    0    0    0    0 -0.00000000000E+00 -0.00000000000E+00 -0.45593999997E+02  0.45594000000E+02  0.51100000000E-03 0. -1.
    9900012    2    1    2    0    0  0.37390551289E+02  0.13596521286E+02 -0.83813612962E+01  0.50528856699E+02  0.29999990422E+02 0.  0.
         12    1    1    2    0    0 -0.37390551289E+02 -0.13596521286E+02  0.83813612962E+01  0.40659143301E+02  0.00000000000E+00 0. -1.
         11    1    3    3    0    0 -0.20377176732E+01 -0.34187326168E+01  0.24860799935E+01  0.46926133460E+01  0.51100000000E-03 0. -1.
        -11    1    3    3    0    0  0.10519422183E+02 -0.62957294622E+00 -0.40433040205E+01  0.11287289879E+02  0.51100000000E-03 0.  1.
         12    1    3    3    0    0  0.28908846780E+02  0.17644826849E+02 -0.68241372692E+01  0.34548953474E+02  0.00000000000E+00 0. -1.
</event>
<event>
 7    1  0.5897985E-013  0.5052886E+02  0.7816164E-02  0.1300439E+00
        -11   -1    0    0    0    0  0.00000000000E+00  0.00000000000E+00  0.45593999997E+02  0.45594000000E+02  0.51100000000E-03 0. -1.
         11   -1    0    0    0    0 -0.00000000000E+00 -0.00000000000E+00 -0.45593999997E+02  0.45594000000E+02  0.51100000000E-03 0.  1.
    9900012    2    1    2    0    0 -0.12303888580E+02  0.29279312474E+02 -0.25387036286E+02  0.50528862964E+02  0.30000009465E+02 0.  0.
         12    1    1    2    0    0  0.12303888580E+02 -0.29279312474E+02  0.25387036286E+02  0.40659137036E+02  0.00000000000E+00 0. -1.
         11    1    3    3    0    0 -0.30575214390E+01 -0.54573033637E+01 -0.54685930904E+01  0.83087970250E+01  0.51100000000E-03 0. -1.
        -11    1    3    3    0    0 -0.85169632996E+01  0.34654570622E+02 -0.20611489059E+02  0.41210574012E+02  0.51100000000E-03 0.  1.
        -12    1    3    3    0    0 -0.72940384160E+00  0.82045215563E-01  0.69304586382E+00  0.10094919271E+01  0.00000000000E+00 0.  1.
</event>
<event>
 7    1  0.5897985E-013  0.5052886E+02  0.7816164E-02  0.1300439E+00
        -11   -1    0    0    0    0  0.00000000000E+00  0.00000000000E+00  0.45593999997E+02  0.45594000000E+02  0.51100000000E-03 0.  1.
         11   -1    0    0    0    0 -0.00000000000E+00 -0.00000000000E+00 -0.45593999997E+02  0.45594000000E+02  0.51100000000E-03 0. -1.
    9900012    2    1    2    0    0  0.20693047896E+02 -0.90353823244E+01  0.33813092407E+02  0.50528861014E+02  0.30000003537E+02 0.  0.
         12    1    1    2    0    0 -0.20693047896E+02  0.90353823244E+01 -0.33813092407E+02  0.40659138986E+02  0.00000000000E+00 0. -1.
         11    1    3    3    0    0 -0.99993710325E+00 -0.43679308033E+01  0.23707323985E+02  0.24127078242E+02  0.51100000000E-03 0. -1.
        -11    1    3    3    0    0  0.69037341279E+01  0.23822580098E+01  0.61493156803E+01  0.95472918532E+01  0.51100000000E-03 0.  1.
         12    1    3    3    0    0  0.14789250871E+02 -0.70497095309E+01  0.39564527418E+01  0.16854490918E+02  0.00000000000E+00 0. -1.
</event>
<event>
 7    1  0.5897985E-013  0.5052886E+02  0.7816164E-02  0.1300439E+00
        -11   -1    0    0    0    0  0.00000000000E+00  0.00000000000E+00  0.45593999997E+02  0.45594000000E+02  0.51100000000E-03 0. -1.
         11   -1    0    0    0    0 -0.00000000000E+00 -0.00000000000E+00 -0.45593999997E+02  0.45594000000E+02  0.51100000000E-03 0.  1.
    9900012    2    1    2    0    0 -0.88159836926E+01 -0.31472456422E+02 -0.24185290409E+02  0.50528863833E+02  0.30000012107E+02 0.  0.
         12    1    1    2    0    0  0.88159836926E+01  0.31472456422E+02  0.24185290409E+02  0.40659136167E+02  0.00000000000E+00 0. -1.
         11    1    3    3    0    0 -0.14570902318E+00 -0.36139536790E+01  0.33865798831E-01  0.36170484468E+01  0.51100000000E-03 0. -1.
        -11    1    3    3    0    0  0.71706354281E+01 -0.20193751197E+02 -0.76857913515E+01  0.22765697635E+02  0.51100000000E-03 0.  1.
        -12    1    3    3    0    0 -0.15840910098E+02 -0.76647515453E+01 -0.16533364856E+02  0.24146117751E+02  0.00000000000E+00 0.  1.
</event>
<event>
 7    1  0.5897985E-013  0.5052886E+02  0.7816164E-02  0.1300439E+00
        -11   -1    0    0    0    0  0.00000000000E+00  0.00000000000E+00  0.45593999997E+02  0.45594000000E+02  0.51100000000E-03 0. -1.
         11   -1    0    0    0    0 -0.00000000000E+00 -0.00000000000E+00 -0.45593999997E+02  0.45594000000E+02  0.51100000000E-03 0.  1.
    9900012    2    1    2    0    0 -0.21323834311E+02 -0.24356636162E+02 -0.24601103130E+02  0.50528856993E+02  0.29999991315E+02 0.  0.
         12    1    1    2    0    0  0.21323834311E+02  0.24356636162E+02  0.24601103130E+02  0.40659143007E+02  0.00000000000E+00 0. -1.
         11    1    3    3    0    0 -0.12692173819E+02 -0.50744565962E+01 -0.18872620578E+02  0.23302729319E+02  0.51100000000E-03 0. -1.
        -11    1    3    3    0    0 -0.82683147029E+01 -0.19789958769E+02 -0.94609605221E+01  0.23441784709E+02  0.51100000000E-03 0.  1.
        -12    1    3    3    0    0 -0.36334578833E+00  0.50777920261E+00  0.37324779692E+01  0.37843429643E+01  0.00000000000E+00 0.  1.
</event>
<event>
 7    1  0.5897985E-013  0.5052885E+02  0.7816164E-02  0.1300439E+00
        -11   -1    0    0    0    0  0.00000000000E+00  0.00000000000E+00  0.45593999997E+02  0.45594000000E+02  0.51100000000E-03 0.  1.
         11   -1    0    0    0    0 -0.00000000000E+00 -0.00000000000E+00 -0.45593999997E+02  0.45594000000E+02  0.51100000000E-03 0. -1.
    9900012    2    1    2    0    0  0.29406848542E+01 -0.31295557879E+02  0.25789662191E+02  0.50528852858E+02  0.29999978747E+02 0.  0.
         12    1    1    2    0    0 -0.29406848542E+01  0.31295557879E+02 -0.25789662191E+02  0.40659147142E+02  0.00000000000E+00 0. -1.
         11    1    3    3    0    0  0.10034908068E+02 -0.99446902229E+01  0.10203849106E+02  0.17427414622E+02  0.51100000000E-03 0. -1.
        -11    1    3    3    0    0 -0.95125970267E+01 -0.20889833738E+01  0.61306361627E+01  0.11508173345E+02  0.51100000000E-03 0.  1.
        -12    1    3    3    0    0  0.24183738128E+01 -0.19261884282E+02  0.94551769228E+01  0.21593264891E+02  0.00000000000E+00 0.  1.
</event>
<event>
 7    1  0.5897985E-013  0.5052887E+02  0.7816164E-02  0.1300439E+00
        -11   -1    0    0    0    0  0.00000000000E+00  0.00000000000E+00  0.45593999997E+02  0.45594000000E+02  0.51100000000E-03 0. -1.
         11   -1    0    0    0    0 -0.00000000000E+00 -0.00000000000E+00 -0.45593999997E+02  0.45594000000E+02  0.51100000000E-03 0.  1.
    9900012    2    1    2    0    0 -0.21803168646E+01  0.27412827843E+02 -0.29949092897E+02  0.50528867233E+02  0.30000022441E+02 0.  0.
         12    1    1    2    0    0  0.21803168646E+01 -0.27412827843E+02  0.29949092897E+02  0.40659132767E+02  0.00000000000E+00 0. -1.
         11    1    3    3    0    0  0.65898203995E-01 -0.48230449972E+01 -0.10338388926E+02  0.11408259791E+02  0.51100000000E-03 0. -1.
        -11    1    3    3    0    0 -0.27156500772E+01  0.14916157415E+01 -0.19731217960E+01  0.36732659508E+01  0.51100000000E-03 0.  1.
         12    1    3    3    0    0  0.46943500866E+00  0.30744257099E+02 -0.17637582176E+02  0.35447341491E+02  0.00000000000E+00 0. -1.
</event>
<event>
 7    1  0.5897985E-013  0.5052885E+02  0.7816164E-02  0.1300439E+00
        -11   -1    0    0    0    0  0.00000000000E+00  0.00000000000E+00  0.45593999997E+02  0.45594000000E+02  0.51100000000E-03 0.  1.
         11   -1    0    0    0    0 -0.00000000000E+00 -0.00000000000E+00 -0.45593999997E+02  0.45594000000E+02  0.51100000000E-03 0. -1.
    9900012    2    1    2    0    0 -0.33729207313E+02 -0.10445493250E+02 -0.20159334616E+02  0.50528849402E+02  0.29999968242E+02 0.  0.
         12    1    1    2    0    0  0.33729207313E+02  0.10445493250E+02  0.20159334616E+02  0.40659150598E+02  0.00000000000E+00 0. -1.
         11    1    3    3    0    0 -0.16747222342E+02 -0.14126392995E+02 -0.99693800770E+00  0.21932129876E+02  0.51100000000E-03 0.  1.
        -11    1    3    3    0    0 -0.34797404977E+01  0.59731923134E+01 -0.33622453416E+01  0.76871525510E+01  0.51100000000E-03 0. -1.
         12    1    3    3    0    0 -0.13502244473E+02 -0.22922925678E+01 -0.15800151267E+02  0.20909566975E+02  0.00000000000E+00 0. -1.
</event>
<event>
 7    1  0.5897985E-013  0.5052886E+02  0.7816164E-02  0.1300439E+00
        -11   -1    0    0    0    0  0.00000000000E+00  0.00000000000E+00  0.45593999997E+02  0.45594000000E+02  0.51100000000E-03 0. -1.
         11   -1    0    0    0    0 -0.00000000000E+00 -0.00000000000E+00 -0.45593999997E+02  0.45594000000E+02  0.51100000000E-03 0.  1.
    9900012    2    1    2    0    0  0.13211331523E+02 -0.28458336354E+02 -0.25860195053E+02  0.50528857402E+02  0.29999992558E+02 0.  0.
         12    1    1    2    0    0 -0.13211331523E+02  0.28458336354E+02  0.25860195053E+02  0.40659142598E+02  0.00000000000E+00 0. -1.
         11    1    3    3    0    0  0.11166781027E+02 -0.24851743109E+02 -0.42069288805E+01  0.27568177034E+02  0.51100000000E-03 0. -1.
        -11    1    3    3    0    0 -0.11411529997E+01 -0.37872140984E+01 -0.78107997898E+01  0.87552164116E+01  0.51100000000E-03 0.  1.
         12    1    3    3    0    0  0.31857034952E+01  0.18062085372E+00 -0.13842466383E+02  0.14205463956E+02  0.00000000000E+00 0. -1.
</event>
<event>
 7    1  0.5897985E-013  0.5052886E+02  0.7816164E-02  0.1300439E+00
        -11   -1    0    0    0    0  0.00000000000E+00  0.00000000000E+00  0.45593999997E+02  0.45594000000E+02  0.51100000000E-03 0.  1.
         11   -1    0    0    0    0 -0.00000000000E+00 -0.00000000000E+00 -0.45593999997E+02  0.45594000000E+02  0.51100000000E-03 0. -1.
    9900012    2    1    2    0    0 -0.94349584244E+01 -0.37847652281E+02 -0.11476168642E+02  0.50528859941E+02  0.30000000276E+02 0.  0.
         12    1    1    2    0    0  0.94349584244E+01  0.37847652281E+02  0.11476168642E+02  0.40659140059E+02  0.00000000000E+00 0. -1.
         11    1    3    3    0    0  0.47719704681E+01 -0.88648661180E+01 -0.11793158895E+02  0.15506003689E+02  0.51100000000E-03 0. -1.
        -11    1    3    3    0    0 -0.10012250392E+02 -0.14852154541E+02  0.64777073844E+01  0.19047108590E+02  0.51100000000E-03 0.  1.
        -12    1    3    3    0    0 -0.41946785004E+01 -0.14130631622E+02 -0.61607171321E+01  0.15975747661E+02  0.00000000000E+00 0.  1.
</event>
<event>
 7    1  0.5897985E-013  0.5052886E+02  0.7816164E-02  0.1300439E+00
        -11   -1    0    0    0    0  0.00000000000E+00  0.00000000000E+00  0.45593999997E+02  0.45594000000E+02  0.51100000000E-03 0.  1.
         11   -1    0    0    0    0 -0.00000000000E+00 -0.00000000000E+00 -0.45593999997E+02  0.45594000000E+02  0.51100000000E-03 0. -1.
    9900012    2    1    2    0    0 -0.38164892262E+01 -0.96786576697E+01  0.39305512654E+02  0.50528864135E+02  0.30000013024E+02 0.  0.
         12    1    1    2    0    0  0.38164892262E+01  0.96786576697E+01 -0.39305512654E+02  0.40659135865E+02  0.00000000000E+00 0. -1.
         11    1    3    3    0    0  0.20964401849E+01 -0.12857654172E+02  0.24495442052E+02  0.27744206852E+02  0.51100000000E-03 0. -1.
        -11    1    3    3    0    0 -0.67577536435E+01  0.59147303404E+01  0.16968870863E+02  0.19198798086E+02  0.51100000000E-03 0.  1.
         12    1    3    3    0    0  0.84482423234E+00 -0.27357338378E+01 -0.21588002609E+01  0.35858591971E+01  0.00000000000E+00 0. -1.
</event>
<event>
 7    1  0.5897985E-013  0.5052886E+02  0.7816164E-02  0.1300439E+00
        -11   -1    0    0    0    0  0.00000000000E+00  0.00000000000E+00  0.45593999997E+02  0.45594000000E+02  0.51100000000E-03 0. -1.
         11   -1    0    0    0    0 -0.00000000000E+00 -0.00000000000E+00 -0.45593999997E+02  0.45594000000E+02  0.51100000000E-03 0.  1.
    9900012    2    1    2    0    0  0.26415680008E+02 -0.29651816394E+02 -0.87262232220E+01  0.50528864034E+02  0.30000012719E+02 0.  0.
         12    1    1    2    0    0 -0.26415680008E+02  0.29651816394E+02  0.87262232220E+01  0.40659135966E+02  0.00000000000E+00 0. -1.
         11    1    3    3    0    0  0.29214509212E+01  0.29799048407E+00 -0.10292848778E+02  0.10703569967E+02  0.51100000000E-03 0. -1.
        -11    1    3    3    0    0  0.19693970676E+02 -0.17985074616E+02 -0.20832045132E+01  0.26751731369E+02  0.51100000000E-03 0.  1.
         12    1    3    3    0    0  0.38002584109E+01 -0.11964732262E+02  0.36498300693E+01  0.13073562699E+02  0.00000000000E+00 0. -1.
</event>
<event>
 7    1  0.5897985E-013  0.5052886E+02  0.7816164E-02  0.1300439E+00
        -11   -1    0    0    0    0  0.00000000000E+00  0.00000000000E+00  0.45593999997E+02  0.45594000000E+02  0.51100000000E-03 0. -1.
         11   -1    0    0    0    0 -0.00000000000E+00 -0.00000000000E+00 -0.45593999997E+02  0.45594000000E+02  0.51100000000E-03 0.  1.
    9900012    2    1    2    0    0  0.17668709031E+02  0.11682727274E+02 -0.34705851816E+02  0.50528861474E+02  0.30000004938E+02 0.  0.
         12    1    1    2    0    0 -0.17668709031E+02 -0.11682727274E+02  0.34705851816E+02  0.40659138526E+02  0.00000000000E+00 0. -1.
         11    1    3    3    0    0  0.14844098775E+02 -0.41567365170E+01 -0.73240515328E+01  0.17066559643E+02  0.51100000000E-03 0. -1.
        -11    1    3    3    0    0  0.58324739089E+01  0.11169945678E+02 -0.23566093448E+02  0.26723513971E+02  0.51100000000E-03 0.  1.
         12    1    3    3    0    0 -0.30078636537E+01  0.46695181132E+01 -0.38157068357E+01  0.67387878602E+01  0.00000000000E+00 0. -1.
</event>
<event>
 7    1  0.5897985E-013  0.5052886E+02  0.7816164E-02  0.1300439E+00
        -11   -1    0    0    0    0  0.00000000000E+00  0.00000000000E+00  0.45593999997E+02  0.45594000000E+02  0.51100000000E-03 0.  1.
         11   -1    0    0    0    0 -0.00000000000E+00 -0.00000000000E+00 -0.45593999997E+02  0.45594000000E+02  0.51100000000E-03 0. -1.
    9900012    2    1    2    0    0  0.18295858034E+02 -0.17841407003E+02  0.31624535531E+02  0.50528862373E+02  0.30000007669E+02 0.  0.
         12    1    1    2    0    0 -0.18295858034E+02  0.17841407003E+02 -0.31624535531E+02  0.40659137627E+02  0.00000000000E+00 0. -1.
         11    1    3    3    0    0  0.74039194397E+01  0.69973334581E+00 -0.54690378548E+00  0.74569936192E+01  0.51100000000E-03 0. -1.
        -11    1    3    3    0    0  0.42567353185E+01 -0.20439010870E+02  0.28271999973E+02  0.35145112657E+02  0.51100000000E-03 0.  1.
        -12    1    3    3    0    0  0.66352032755E+01  0.18978705219E+01  0.38994393433E+01  0.79267560967E+01  0.00000000000E+00 0.  1.
</event>
<event>
 7    1  0.5897985E-013  0.5052886E+02  0.7816164E-02  0.1300439E+00
        -11   -1    0    0    0    0  0.00000000000E+00  0.00000000000E+00  0.45593999997E+02  0.45594000000E+02  0.51100000000E-03 0.  1.
         11   -1    0    0    0    0 -0.00000000000E+00 -0.00000000000E+00 -0.45593999997E+02  0.45594000000E+02  0.51100000000E-03 0. -1.
    9900012    2    1    2    0    0  0.52551171660E+01 -0.30046648763E+01  0.40205991696E+02  0.50528855448E+02  0.29999986620E+02 0.  0.
         12    1    1    2    0    0 -0.52551171660E+01  0.30046648763E+01 -0.40205991696E+02  0.40659144552E+02  0.00000000000E+00 0. -1.
         11    1    3    3    0    0  0.96565769093E+01 -0.68191257111E+01  0.74725074931E+01  0.13985289470E+02  0.51100000000E-03 0. -1.
        -11    1    3    3    0    0 -0.28881639311E+00  0.70206281654E+00  0.31134548019E+02  0.31143801754E+02  0.51100000000E-03 0.  1.
         12    1    3    3    0    0 -0.41126433502E+01  0.31123980183E+01  0.15989361836E+01  0.53997642234E+01  0.00000000000E+00 0. -1.
</event>
<event>
 7    1  0.5897985E-013  0.5052886E+02  0.7816164E-02  0.1300439E+00
        -11   -1    0    0    0    0  0.00000000000E+00  0.00000000000E+00  0.45593999997E+02  0.45594000000E+02  0.51100000000E-03 0. -1.
         11   -1    0    0    0    0 -0.00000000000E+00 -0.00000000000E+00 -0.45593999997E+02  0.45594000000E+02  0.51100000000E-03 0.  1.
    9900012    2    1    2    0    0  0.23307000538E+02  0.23656178525E+02 -0.23459207982E+02  0.50528862090E+02  0.30000006807E+02 0.  0.
         12    1    1    2    0    0 -0.23307000538E+02 -0.23656178525E+02  0.23459207982E+02  0.40659137910E+02  0.00000000000E+00 0. -1.
         11    1    3    3    0    0  0.16663159881E+01  0.99947151417E+01  0.51024430636E+01  0.11344860740E+02  0.51100000000E-03 0. -1.
        -11    1    3    3    0    0  0.97332775991E+01  0.16258967746E+01 -0.11373896525E+02  0.15058079412E+02  0.51100000000E-03 0.  1.
         12    1    3    3    0    0  0.11907406951E+02  0.12035566609E+02 -0.17187754520E+02  0.24125921937E+02  0.00000000000E+00 0. -1.
</event>
<event>
 7    1  0.5897985E-013  0.5052886E+02  0.7816164E-02  0.1300439E+00
        -11   -1    0    0    0    0  0.00000000000E+00  0.00000000000E+00  0.45593999997E+02  0.45594000000E+02  0.51100000000E-03 0.  1.
         11   -1    0    0    0    0 -0.00000000000E+00 -0.00000000000E+00 -0.45593999997E+02  0.45594000000E+02  0.51100000000E-03 0. -1.
    9900012    2    1    2    0    0 -0.22897859495E+02  0.34518292687E+01  0.33420635197E+02  0.50528856480E+02  0.29999989757E+02 0.  0.
         12    1    1    2    0    0  0.22897859495E+02 -0.34518292687E+01 -0.33420635197E+02  0.40659143520E+02  0.00000000000E+00 0. -1.
         11    1    3    3    0    0 -0.27680591486E+00  0.23975575338E+01 -0.12675910543E+01  0.27261127975E+01  0.51100000000E-03 0. -1.
        -11    1    3    3    0    0 -0.25887834183E+02  0.38662011045E+01  0.34733888027E+02  0.43492188349E+02  0.51100000000E-03 0.  1.
        -12    1    3    3    0    0  0.32667806025E+01 -0.28119293696E+01 -0.45661775364E-01  0.43105553334E+01  0.00000000000E+00 0.  1.
</event>
<event>
 7    1  0.5897985E-013  0.5052886E+02  0.7816164E-02  0.1300439E+00
        -11   -1    0    0    0    0  0.00000000000E+00  0.00000000000E+00  0.45593999997E+02  0.45594000000E+02  0.51100000000E-03 0.  1.
         11   -1    0    0    0    0 -0.00000000000E+00 -0.00000000000E+00 -0.45593999997E+02  0.45594000000E+02  0.51100000000E-03 0. -1.
    9900012    2    1    2    0    0 -0.46050730242E+01 -0.26728125593E+02  0.30291362956E+02  0.50528855088E+02  0.29999985524E+02 0.  0.
         12    1    1    2    0    0  0.46050730242E+01  0.26728125593E+02 -0.30291362956E+02  0.40659144912E+02  0.00000000000E+00 0. -1.
         11    1    3    3    0    0  0.80178156985E+01  0.60075322738E+00  0.25800093307E+01  0.84440938781E+01  0.51100000000E-03 0. -1.
        -11    1    3    3    0    0 -0.85350689703E+01 -0.22960312641E+02  0.17002338265E+02  0.29817827983E+02  0.51100000000E-03 0.  1.
         12    1    3    3    0    0 -0.40878197524E+01 -0.43685661796E+01  0.10709015361E+02  0.12266933227E+02  0.00000000000E+00 0. -1.
</event>
<event>
 7    1  0.5897985E-013  0.5052886E+02  0.7816164E-02  0.1300439E+00
        -11   -1    0    0    0    0  0.00000000000E+00  0.00000000000E+00  0.45593999997E+02  0.45594000000E+02  0.51100000000E-03 0. -1.
         11   -1    0    0    0    0 -0.00000000000E+00 -0.00000000000E+00 -0.45593999997E+02  0.45594000000E+02  0.51100000000E-03 0.  1.
    9900012    2    1    2    0    0  0.25039110437E+02  0.23954038942E+02 -0.21269993095E+02  0.50528860322E+02  0.30000001435E+02 0.  0.
         12    1    1    2    0    0 -0.25039110437E+02 -0.23954038942E+02  0.21269993095E+02  0.40659139678E+02  0.00000000000E+00 0. -1.
         11    1    3    3    0    0 -0.12067363475E-01 -0.16420947976E+01  0.36386175706E+01  0.39920119028E+01  0.51100000000E-03 0. -1.
        -11    1    3    3    0    0  0.20952095317E+02  0.14462419742E+02 -0.96912772501E+01  0.27241012059E+02  0.51100000000E-03 0.  1.
         12    1    3    3    0    0  0.40990824828E+01  0.11133713998E+02 -0.15217333415E+02  0.19295836360E+02  0.00000000000E+00 0. -1.
</event>
<event>
 7    1  0.5897985E-013  0.5052884E+02  0.7816164E-02  0.1300439E+00
        -11   -1    0    0    0    0  0.00000000000E+00  0.00000000000E+00  0.45593999997E+02  0.45594000000E+02  0.51100000000E-03 0. -1.
         11   -1    0    0    0    0 -0.00000000000E+00 -0.00000000000E+00 -0.45593999997E+02  0.45594000000E+02  0.51100000000E-03 0.  1.
    9900012    2    1    2    0    0 -0.23099040584E+02 -0.28036569959E+02 -0.18263406829E+02  0.50528844082E+02  0.29999952071E+02 0.  0.
         12    1    1    2    0    0  0.23099040584E+02  0.28036569959E+02  0.18263406829E+02  0.40659155918E+02  0.00000000000E+00 0. -1.
         11    1    3    3    0    0  0.45912788246E+01 -0.15154296713E+02 -0.70064373260E+01  0.17315389524E+02  0.51100000000E-03 0. -1.
        -11    1    3    3    0    0 -0.19594947057E+02 -0.57473372441E+01 -0.81228496794E+01  0.21976681341E+02  0.51100000000E-03 0.  1.
         12    1    3    3    0    0 -0.80953723512E+01 -0.71349360027E+01 -0.31341198234E+01  0.11236773217E+02  0.00000000000E+00 0. -1.
</event>
<event>
 7    1  0.5897985E-013  0.5052886E+02  0.7816164E-02  0.1300439E+00
        -11   -1    0    0    0    0  0.00000000000E+00  0.00000000000E+00  0.45593999997E+02  0.45594000000E+02  0.51100000000E-03 0.  1.
         11   -1    0    0    0    0 -0.00000000000E+00 -0.00000000000E+00 -0.45593999997E+02  0.45594000000E+02  0.51100000000E-03 0. -1.
    9900012    2    1    2    0    0 -0.64457271937E+01 -0.28926145068E+02  0.27836954419E+02  0.50528864509E+02  0.30000014161E+02 0.  0.
         12    1    1    2    0    0  0.64457271937E+01  0.28926145068E+02 -0.27836954419E+02  0.40659135491E+02  0.00000000000E+00 0. -1.
         11    1    3    3    0    0 -0.10493410508E+02 -0.16399142509E+00  0.37029175222E+01  0.11128798484E+02  0.51100000000E-03 0. -1.
        -11    1    3    3    0    0 -0.29121754776E+01 -0.13264151762E+02  0.14513717614E+02  0.19876279512E+02  0.51100000000E-03 0.  1.
         12    1    3    3    0    0  0.69598587915E+01 -0.15498001881E+02  0.96203192824E+01  0.19523786513E+02  0.00000000000E+00 0. -1.
</event>
<event>
 7    1  0.5897985E-013  0.5052886E+02  0.7816164E-02  0.1300439E+00
        -11   -1    0    0    0    0  0.00000000000E+00  0.00000000000E+00  0.45593999997E+02  0.45594000000E+02  0.51100000000E-03 0.  1.
         11   -1    0    0    0    0 -0.00000000000E+00 -0.00000000000E+00 -0.45593999997E+02  0.45594000000E+02  0.51100000000E-03 0. -1.
    9900012    2    1    2    0    0 -0.15596990452E+02  0.36003582573E+02  0.10660295006E+02  0.50528856392E+02  0.29999989491E+02 0.  0.
         12    1    1    2    0    0  0.15596990452E+02 -0.36003582573E+02 -0.10660295006E+02  0.40659143608E+02  0.00000000000E+00 0. -1.
         11    1    3    3    0    0 -0.71186056176E+01  0.28470149647E+01  0.93521166203E+00  0.77236430046E+01  0.51100000000E-03 0. -1.
        -11    1    3    3    0    0 -0.67850641599E+01  0.29606748819E+02  0.16799873801E+02  0.34710696209E+02  0.51100000000E-03 0.  1.
        -12    1    3    3    0    0 -0.16933206749E+01  0.35498187897E+01 -0.70747904576E+01  0.80945171793E+01  0.00000000000E+00 0.  1.
</event>
<event>
 7    1  0.5897985E-013  0.5052887E+02  0.7816164E-02  0.1300439E+00
        -11   -1    0    0    0    0  0.00000000000E+00  0.00000000000E+00  0.45593999997E+02  0.45594000000E+02  0.51100000000E-03 0. -1.
         11   -1    0    0    0    0 -0.00000000000E+00 -0.00000000000E+00 -0.45593999997E+02  0.45594000000E+02  0.51100000000E-03 0.  1.
    9900012    2    1    2    0    0  0.11044515062E+02 -0.33441100980E+02 -0.20319353267E+02  0.50528872306E+02  0.30000037860E+02 0.  0.
         12    1    1    2    0    0 -0.11044515062E+02  0.33441100980E+02  0.20319353267E+02  0.40659127694E+02  0.00000000000E+00 0. -1.
         11    1    3    3    0    0  0.15617442739E+02 -0.34217134513E+02 -0.13405789577E+02  0.39930339423E+02  0.51100000000E-03 0. -1.
        -11    1    3    3    0    0 -0.21350714227E+01 -0.10292279475E+01 -0.71725236588E+01  0.75540013268E+01  0.51100000000E-03 0.  1.
         12    1    3    3    0    0 -0.24378562542E+01  0.18052614808E+01  0.25895996915E+00  0.30445315561E+01  0.00000000000E+00 0. -1.
</event>
<event>
 7    1  0.5897985E-013  0.5052886E+02  0.7816164E-02  0.1300439E+00
        -11   -1    0    0    0    0  0.00000000000E+00  0.00000000000E+00  0.45593999997E+02  0.45594000000E+02  0.51100000000E-03 0.  1.
         11   -1    0    0    0    0 -0.00000000000E+00 -0.00000000000E+00 -0.45593999997E+02  0.45594000000E+02  0.51100000000E-03 0. -1.
    9900012    2    1    2    0    0  0.25719232139E+02 -0.26988178307E+02  0.16227299143E+02  0.50528857023E+02  0.29999991408E+02 0.  0.
         12    1    1    2    0    0 -0.25719232139E+02  0.26988178307E+02 -0.16227299143E+02  0.40659142977E+02  0.00000000000E+00 0. -1.
         11    1    3    3    0    0  0.24846122357E+02 -0.11142740558E+02  0.76069550418E+01  0.28272888579E+02  0.51100000000E-03 0. -1.
        -11    1    3    3    0    0  0.22445976520E+01 -0.16991772557E+02  0.44334839129E+01  0.17703511887E+02  0.51100000000E-03 0.  1.
         12    1    3    3    0    0 -0.13714878702E+01  0.11463348085E+01  0.41868601882E+01  0.45524565574E+01  0.00000000000E+00 0. -1.
</event>
<event>
 7    1  0.5897985E-013  0.5052886E+02  0.7816164E-02  0.1300439E+00
        -11   -1    0    0    0    0  0.00000000000E+00  0.00000000000E+00  0.45593999997E+02  0.45594000000E+02  0.51100000000E-03 0.  1.
         11   -1    0    0    0    0 -0.00000000000E+00 -0.00000000000E+00 -0.45593999997E+02  0.45594000000E+02  0.51100000000E-03 0. -1.
    9900012    2    1    2    0    0  0.85025843765E+01  0.39233404298E+02 -0.64507125973E+01  0.50528860229E+02  0.30000001152E+02 0.  0.
         12    1    1    2    0    0 -0.85025843765E+01 -0.39233404298E+02  0.64507125973E+01  0.40659139771E+02  0.00000000000E+00 0. -1.
         11    1    3    3    0    0 -0.29678776460E+01 -0.93652708131E+00 -0.19530295697E+01  0.36741945317E+01  0.51100000000E-03 0. -1.
        -11    1    3    3    0    0  0.65275585471E+01  0.31195112051E+02  0.57253254484E+01  0.32380910861E+02  0.51100000000E-03 0.  1.
        -12    1    3    3    0    0  0.49429034753E+01  0.89748193289E+01 -0.10223008476E+02  0.14473754836E+02  0.00000000000E+00 0.  1.
</event>
<event>
 7    1  0.5897985E-013  0.5052886E+02  0.7816164E-02  0.1300439E+00
        -11   -1    0    0    0    0  0.00000000000E+00  0.00000000000E+00  0.45593999997E+02  0.45594000000E+02  0.51100000000E-03 0. -1.
         11   -1    0    0    0    0 -0.00000000000E+00 -0.00000000000E+00 -0.45593999997E+02  0.45594000000E+02  0.51100000000E-03 0.  1.
    9900012    2    1    2    0    0 -0.16194541055E+01  0.19708668989E+02 -0.35526209717E+02  0.50528857833E+02  0.29999993869E+02 0.  0.
         12    1    1    2    0    0  0.16194541055E+01 -0.19708668989E+02  0.35526209717E+02  0.40659142167E+02  0.00000000000E+00 0. -1.
         11    1    3    3    0    0 -0.40299240231E+00  0.23994994330E+02 -0.16061742098E+02  0.28877356445E+02  0.51100000000E-03 0. -1.
        -11    1    3    3    0    0 -0.29844587490E+01 -0.33863872373E+00 -0.18813911301E+01  0.35441928638E+01  0.51100000000E-03 0.  1.
         12    1    3    3    0    0  0.17679970458E+01 -0.39476866177E+01 -0.17583076488E+02  0.18107308524E+02  0.00000000000E+00 0. -1.
</event>
<event>
 7    1  0.5897985E-013  0.5052886E+02  0.7816164E-02  0.1300439E+00
        -11   -1    0    0    0    0  0.00000000000E+00  0.00000000000E+00  0.45593999997E+02  0.45594000000E+02  0.51100000000E-03 0.  1.
         11   -1    0    0    0    0 -0.00000000000E+00 -0.00000000000E+00 -0.45593999997E+02  0.45594000000E+02  0.51100000000E-03 0. -1.
    9900012    2    1    2    0    0 -0.38551491965E+02 -0.87061697180E+01 -0.95472974020E+01  0.50528858204E+02  0.29999994997E+02 0.  0.
         12    1    1    2    0    0  0.38551491965E+02  0.87061697180E+01  0.95472974020E+01  0.40659141796E+02  0.00000000000E+00 0. -1.
         11    1    3    3    0    0  0.12701252607E+01 -0.55955001853E+00  0.74964953102E-01  0.13899404327E+01  0.51100000000E-03 0. -1.
        -11    1    3    3    0    0 -0.24053349384E+02  0.81014331667E+01 -0.30550705685E+01  0.25564238545E+02  0.51100000000E-03 0.  1.
        -12    1    3    3    0    0 -0.15768267841E+02 -0.16248052866E+02 -0.65671917867E+01  0.23574679226E+02  0.00000000000E+00 0.  1.
</event>
<event>
 7    1  0.5897985E-013  0.5052882E+02  0.7816164E-02  0.1300439E+00
        -11   -1    0    0    0    0  0.00000000000E+00  0.00000000000E+00  0.45593999997E+02  0.45594000000E+02  0.51100000000E-03 0.  1.
         11   -1    0    0    0    0 -0.00000000000E+00 -0.00000000000E+00 -0.45593999997E+02  0.45594000000E+02  0.51100000000E-03 0. -1.
    9900012    2    1    2    0    0 -0.36869628317E+02  0.90263900682E+01  0.14571340666E+02  0.50528816798E+02  0.29999869138E+02 0.  0.
         12    1    1    2    0    0  0.36869628317E+02 -0.90263900682E+01 -0.14571340666E+02  0.40659183202E+02  0.00000000000E+00 0. -1.
         11    1    3    3    0    0 -0.21026422356E+02 -0.59170031722E+01  0.27445111160E+01  0.22014851922E+02  0.51100000000E-03 0. -1.
        -11    1    3    3    0    0  0.30641606769E+00  0.84968033739E+01  0.47598961252E+01  0.97440325207E+01  0.51100000000E-03 0.  1.
        -12    1    3    3    0    0 -0.16149622029E+02  0.64465898665E+01  0.70669334243E+01  0.18769932355E+02  0.00000000000E+00 0.  1.
</event>
<event>
 7    1  0.5897985E-013  0.5052885E+02  0.7816164E-02  0.1300439E+00
        -11   -1    0    0    0    0  0.00000000000E+00  0.00000000000E+00  0.45593999997E+02  0.45594000000E+02  0.51100000000E-03 0.  1.
         11   -1    0    0    0    0 -0.00000000000E+00 -0.00000000000E+00 -0.45593999997E+02  0.45594000000E+02  0.51100000000E-03 0. -1.
    9900012    2    1    2    0    0 -0.39065036105E+02 -0.26704973859E+01  0.10952532882E+02  0.50528848770E+02  0.29999966323E+02 0.  0.
         12    1    1    2    0    0  0.39065036105E+02  0.26704973859E+01 -0.10952532882E+02  0.40659151230E+02  0.00000000000E+00 0. -1.
         11    1    3    3    0    0  0.34243516851E+01 -0.27805112867E+01  0.42427357111E+01  0.61203132317E+01  0.51100000000E-03 0. -1.
        -11    1    3    3    0    0 -0.10879953089E+02 -0.47999250037E+01  0.23928487380E+01  0.12130061195E+02  0.51100000000E-03 0.  1.
         12    1    3    3    0    0 -0.31609434701E+02  0.49099389045E+01  0.43169484331E+01  0.32278474343E+02  0.00000000000E+00 0. -1.
</event>
<event>
 7    1  0.5897985E-013  0.5052885E+02  0.7816164E-02  0.1300439E+00
        -11   -1    0    0    0    0  0.00000000000E+00  0.00000000000E+00  0.45593999997E+02  0.45594000000E+02  0.51100000000E-03 0.  1.
         11   -1    0    0    0    0 -0.00000000000E+00 -0.00000000000E+00 -0.45593999997E+02  0.45594000000E+02  0.51100000000E-03 0. -1.
    9900012    2    1    2    0    0  0.19758777425E+02  0.18133562049E+01  0.35488992035E+02  0.50528854636E+02  0.29999984151E+02 0.  0.
         12    1    1    2    0    0 -0.19758777425E+02 -0.18133562049E+01 -0.35488992035E+02  0.40659145364E+02  0.00000000000E+00 0. -1.
         11    1    3    3    0    0 -0.62425986953E+00  0.46153402243E+01 -0.28279041438E+01  0.54486794619E+01  0.51100000000E-03 0. -1.
        -11    1    3    3    0    0  0.54385119939E+01  0.12572060683E+01  0.21527593337E+02  0.22239497633E+02  0.51100000000E-03 0.  1.
         12    1    3    3    0    0  0.14944525300E+02 -0.40591900878E+01  0.16789302842E+02  0.22840677541E+02  0.00000000000E+00 0. -1.
</event>
<event>
 7    1  0.5897985E-013  0.5052886E+02  0.7816164E-02  0.1300439E+00
        -11   -1    0    0    0    0  0.00000000000E+00  0.00000000000E+00  0.45593999997E+02  0.45594000000E+02  0.51100000000E-03 0.  1.
         11   -1    0    0    0    0 -0.00000000000E+00 -0.00000000000E+00 -0.45593999997E+02  0.45594000000E+02  0.51100000000E-03 0. -1.
    9900012    2    1    2    0    0  0.99231130014E+01 -0.34922480042E+02  0.18306220180E+02  0.50528862267E+02  0.30000007346E+02 0.  0.
         12    1    1    2    0    0 -0.99231130014E+01  0.34922480042E+02 -0.18306220180E+02  0.40659137733E+02  0.00000000000E+00 0. -1.
         11    1    3    3    0    0 -0.11712865290E+01  0.45834269513E+01  0.52055422485E+00  0.47592742843E+01  0.51100000000E-03 0. -1.
        -11    1    3    3    0    0 -0.15936285873E+01 -0.18795362172E+01  0.10800139589E+01  0.26904904531E+01  0.51100000000E-03 0.  1.
         12    1    3    3    0    0  0.12688028118E+02 -0.37626370776E+02  0.16705651996E+02  0.43079097529E+02  0.00000000000E+00 0. -1.
</event>
<event>
 7    1  0.5897985E-013  0.5052890E+02  0.7816164E-02  0.1300439E+00
        -11   -1    0    0    0    0  0.00000000000E+00  0.00000000000E+00  0.45593999997E+02  0.45594000000E+02  0.51100000000E-03 0.  1.
         11   -1    0    0    0    0 -0.00000000000E+00 -0.00000000000E+00 -0.45593999997E+02  0.45594000000E+02  0.51100000000E-03 0. -1.
    9900012    2    1    2    0    0  0.31479398048E+02 -0.23593466643E+02  0.10274169105E+02  0.50528896216E+02  0.30000110537E+02 0.  0.
         12    1    1    2    0    0 -0.31479398048E+02  0.23593466643E+02 -0.10274169105E+02  0.40659103784E+02  0.00000000000E+00 0. -1.
         11    1    3    3    0    0  0.10045631588E+02 -0.19960551917E+02  0.54073463200E+01  0.22990818631E+02  0.51100000000E-03 0. -1.
        -11    1    3    3    0    0  0.23421892996E+02 -0.24188233822E+01  0.68024078613E+01  0.24509355990E+02  0.51100000000E-03 0.  1.
        -12    1    3    3    0    0 -0.19881265352E+01 -0.12140913437E+01 -0.19355850761E+01  0.30287215946E+01  0.00000000000E+00 0.  1.
</event>
<event>
 7    1  0.5897985E-013  0.5052886E+02  0.7816164E-02  0.1300439E+00
        -11   -1    0    0    0    0  0.00000000000E+00  0.00000000000E+00  0.45593999997E+02  0.45594000000E+02  0.51100000000E-03 0.  1.
         11   -1    0    0    0    0 -0.00000000000E+00 -0.00000000000E+00 -0.45593999997E+02  0.45594000000E+02  0.51100000000E-03 0. -1.
    9900012    2    1    2    0    0  0.16128071333E+02  0.37272477434E+02  0.19528026120E+01  0.50528859612E+02  0.29999999277E+02 0.  0.
         12    1    1    2    0    0 -0.16128071333E+02 -0.37272477434E+02 -0.19528026120E+01  0.40659140388E+02  0.00000000000E+00 0. -1.
         11    1    3    3    0    0  0.24362558170E+01 -0.46333290872E+01  0.17289830601E+01  0.55129360163E+01  0.51100000000E-03 0. -1.
        -11    1    3    3    0    0  0.11239605568E+02  0.20301436012E+02  0.13439676474E+01  0.23243994639E+02  0.51100000000E-03 0.  1.
         12    1    3    3    0    0  0.24522099481E+01  0.21604370510E+02 -0.11201480955E+01  0.21771928957E+02  0.00000000000E+00 0. -1.
</event>
<event>
 7    1  0.5897985E-013  0.5052886E+02  0.7816164E-02  0.1300439E+00
        -11   -1    0    0    0    0  0.00000000000E+00  0.00000000000E+00  0.45593999997E+02  0.45594000000E+02  0.51100000000E-03 0.  1.
         11   -1    0    0    0    0 -0.00000000000E+00 -0.00000000000E+00 -0.45593999997E+02  0.45594000000E+02  0.51100000000E-03 0. -1.
    9900012    2    1    2    0    0  0.38505976641E+02 -0.29505160367E+01  0.12718103252E+02  0.50528856720E+02  0.29999990487E+02 0.  0.
         12    1    1    2    0    0 -0.38505976641E+02  0.29505160367E+01 -0.12718103252E+02  0.40659143280E+02  0.00000000000E+00 0. -1.
         11    1    3    3    0    0  0.17318013590E+02 -0.84437235512E+01 -0.49078177646E+01  0.19882070757E+02  0.51100000000E-03 0. -1.
        -11    1    3    3    0    0  0.69643163890E+01  0.41914615230E+01  0.13537092968E+02  0.15789963228E+02  0.51100000000E-03 0.  1.
        -12    1    3    3    0    0  0.14223646661E+02  0.13017459915E+01  0.40888280482E+01  0.14856822735E+02  0.00000000000E+00 0.  1.
</event>
<event>
 7    1  0.5897985E-013  0.5052892E+02  0.7816164E-02  0.1300439E+00
        -11   -1    0    0    0    0  0.00000000000E+00  0.00000000000E+00  0.45593999997E+02  0.45594000000E+02  0.51100000000E-03 0.  1.
         11   -1    0    0    0    0 -0.00000000000E+00 -0.00000000000E+00 -0.45593999997E+02  0.45594000000E+02  0.51100000000E-03 0. -1.
    9900012    2    1    2    0    0 -0.13508704088E+01 -0.32153788310E+02  0.24848944212E+02  0.50528917595E+02  0.30000175523E+02 0.  0.
         12    1    1    2    0    0  0.13508704088E+01  0.32153788310E+02 -0.24848944212E+02  0.40659082405E+02  0.00000000000E+00 0. -1.
         11    1    3    3    0    0 -0.10125973520E+02 -0.47571587710E+01  0.17229344878E+02  0.20543033478E+02  0.51100000000E-03 0. -1.
        -11    1    3    3    0    0  0.27736463992E+01 -0.10934227315E+02  0.12837102446E+01  0.11353341075E+02  0.51100000000E-03 0.  1.
         12    1    3    3    0    0  0.60014567123E+01 -0.16462402224E+02  0.63358890893E+01  0.18632543042E+02  0.00000000000E+00 0. -1.
</event>
<event>
 7    1  0.5897985E-013  0.5052887E+02  0.7816164E-02  0.1300439E+00
        -11   -1    0    0    0    0  0.00000000000E+00  0.00000000000E+00  0.45593999997E+02  0.45594000000E+02  0.51100000000E-03 0.  1.
         11   -1    0    0    0    0 -0.00000000000E+00 -0.00000000000E+00 -0.45593999997E+02  0.45594000000E+02  0.51100000000E-03 0. -1.
    9900012    2    1    2    0    0  0.35031074043E+01 -0.27375216151E+02  0.29857844230E+02  0.50528867165E+02  0.30000022235E+02 0.  0.
         12    1    1    2    0    0 -0.35031074043E+01  0.27375216151E+02 -0.29857844230E+02  0.40659132835E+02  0.00000000000E+00 0. -1.
         11    1    3    3    0    0 -0.10331536625E+02 -0.19326018961E+02  0.18817681273E+02  0.28884957792E+02  0.51100000000E-03 0. -1.
        -11    1    3    3    0    0  0.10343391119E+02 -0.43985757397E+01  0.21863315683E+01  0.11450469614E+02  0.51100000000E-03 0.  1.
        -12    1    3    3    0    0  0.34912529095E+01 -0.36506214503E+01  0.88538313894E+01  0.10193439759E+02  0.00000000000E+00 0.  1.
</event>
<event>
 7    1  0.5897985E-013  0.5052886E+02  0.7816164E-02  0.1300439E+00
        -11   -1    0    0    0    0  0.00000000000E+00  0.00000000000E+00  0.45593999997E+02  0.45594000000E+02  0.51100000000E-03 0. -1.
         11   -1    0    0    0    0 -0.00000000000E+00 -0.00000000000E+00 -0.45593999997E+02  0.45594000000E+02  0.51100000000E-03 0.  1.
    9900012    2    1    2    0    0  0.34619133251E+02 -0.14737001503E+02 -0.15411102568E+02  0.50528859789E+02  0.29999999815E+02 0.  0.
         12    1    1    2    0    0 -0.34619133251E+02  0.14737001503E+02  0.15411102568E+02  0.40659140211E+02  0.00000000000E+00 0. -1.
         11    1    3    3    0    0 -0.61387278947E+00  0.17233740669E+01 -0.88226414814E+00  0.20310707187E+01  0.51100000000E-03 0. -1.
        -11    1    3    3    0    0  0.37125278703E+02 -0.19826726649E+02 -0.14830442307E+02  0.44624291901E+02  0.51100000000E-03 0.  1.
        -12    1    3    3    0    0 -0.18922726631E+01  0.33663510786E+01  0.30160388678E+00  0.38734971692E+01  0.00000000000E+00 0.  1.
</event>
<event>
 7    1  0.5897985E-013  0.5052887E+02  0.7816164E-02  0.1300439E+00
        -11   -1    0    0    0    0  0.00000000000E+00  0.00000000000E+00  0.45593999997E+02  0.45594000000E+02  0.51100000000E-03 0.  1.
         11   -1    0    0    0    0 -0.00000000000E+00 -0.00000000000E+00 -0.45593999997E+02  0.45594000000E+02  0.51100000000E-03 0. -1.
    9900012    2    1    2    0    0  0.35214714986E+02 -0.19493876227E+02  0.57513314262E+01  0.50528866031E+02  0.30000018789E+02 0.  0.
         12    1    1    2    0    0 -0.35214714986E+02  0.19493876227E+02 -0.57513314262E+01  0.40659133969E+02  0.00000000000E+00 0. -1.
         11    1    3    3    0    0  0.10265436760E+02  0.48083230342E+01 -0.54488238672E+01  0.12577314661E+02  0.51100000000E-03 0. -1.
        -11    1    3    3    0    0  0.21641211037E+02 -0.19980207955E+02  0.13032569131E+02  0.32208672488E+02  0.51100000000E-03 0.  1.
        -12    1    3    3    0    0  0.33080671890E+01 -0.43219913067E+01 -0.18324138374E+01  0.57428788821E+01  0.00000000000E+00 0.  1.
</event>
<event>
 7    1  0.5897985E-013  0.5052886E+02  0.7816164E-02  0.1300439E+00
        -11   -1    0    0    0    0  0.00000000000E+00  0.00000000000E+00  0.45593999997E+02  0.45594000000E+02  0.51100000000E-03 0. -1.
         11   -1    0    0    0    0 -0.00000000000E+00 -0.00000000000E+00 -0.45593999997E+02  0.45594000000E+02  0.51100000000E-03 0.  1.
    9900012    2    1    2    0    0  0.21107944516E+02 -0.13249668381E+02 -0.32125799741E+02  0.50528855359E+02  0.29999986350E+02 0.  0.
         12    1    1    2    0    0 -0.21107944516E+02  0.13249668381E+02  0.32125799741E+02  0.40659144641E+02  0.00000000000E+00 0. -1.
         11    1    3    3    0    0  0.10511612959E+02 -0.11338377854E+02  0.16910811813E+00  0.15462257829E+02  0.51100000000E-03 0. -1.
        -11    1    3    3    0    0  0.51765599447E+01  0.32438854885E+01 -0.16362420392E+02  0.17465633892E+02  0.51100000000E-03 0.  1.
        -12    1    3    3    0    0  0.54197716119E+01 -0.51551760157E+01 -0.15932487468E+02  0.17600963638E+02  0.00000000000E+00 0.  1.
</event>
<event>
 7    1  0.5897985E-013  0.5052885E+02  0.7816164E-02  0.1300439E+00
        -11   -1    0    0    0    0  0.00000000000E+00  0.00000000000E+00  0.45593999997E+02  0.45594000000E+02  0.51100000000E-03 0.  1.
         11   -1    0    0    0    0 -0.00000000000E+00 -0.00000000000E+00 -0.45593999997E+02  0.45594000000E+02  0.51100000000E-03 0. -1.
    9900012    2    1    2    0    0  0.36646651209E+02 -0.11201333399E+02  0.13591143916E+02  0.50528854563E+02  0.29999983930E+02 0.  0.
         12    1    1    2    0    0 -0.36646651209E+02  0.11201333399E+02 -0.13591143916E+02  0.40659145437E+02  0.00000000000E+00 0. -1.
         11    1    3    3    0    0  0.66806045719E+01  0.85215052774E+01  0.93948885197E+01  0.14335636023E+02  0.51100000000E-03 0. -1.
        -11    1    3    3    0    0  0.79953271800E+01 -0.64743714743E+01  0.92660930329E+00  0.10329634445E+02  0.51100000000E-03 0.  1.
         12    1    3    3    0    0  0.21970719457E+02 -0.13248467202E+02  0.32696460931E+01  0.25863584095E+02  0.00000000000E+00 0. -1.
</event>
<event>
 7    1  0.5897985E-013  0.5052887E+02  0.7816164E-02  0.1300439E+00
        -11   -1    0    0    0    0  0.00000000000E+00  0.00000000000E+00  0.45593999997E+02  0.45594000000E+02  0.51100000000E-03 0.  1.
         11   -1    0    0    0    0 -0.00000000000E+00 -0.00000000000E+00 -0.45593999997E+02  0.45594000000E+02  0.51100000000E-03 0. -1.
    9900012    2    1    2    0    0  0.31309966480E+02 -0.64425942191E+01  0.25126557815E+02  0.50528869059E+02  0.30000027990E+02 0.  0.
         12    1    1    2    0    0 -0.31309966480E+02  0.64425942191E+01 -0.25126557815E+02  0.40659130941E+02  0.00000000000E+00 0. -1.
         11    1    3    3    0    0  0.40539907016E+00  0.15639638352E+00  0.62732905532E+01  0.62883211481E+01  0.51100000000E-03 0. -1.
        -11    1    3    3    0    0  0.26364295057E+02 -0.13141851527E+02  0.20776381354E+02  0.36047778542E+02  0.51100000000E-03 0.  1.
        -12    1    3    3    0    0  0.45402723530E+01  0.65428609243E+01 -0.19231140913E+01  0.81927693683E+01  0.00000000000E+00 0.  1.
</event>
<event>
 7    1  0.5897985E-013  0.5052886E+02  0.7816164E-02  0.1300439E+00
        -11   -1    0    0    0    0  0.00000000000E+00  0.00000000000E+00  0.45593999997E+02  0.45594000000E+02  0.51100000000E-03 0.  1.
         11   -1    0    0    0    0 -0.00000000000E+00 -0.00000000000E+00 -0.45593999997E+02  0.45594000000E+02  0.51100000000E-03 0. -1.
    9900012    2    1    2    0    0 -0.17743536986E+02  0.34014730330E+02  0.13465893259E+02  0.50528864920E+02  0.30000015410E+02 0.  0.
         12    1    1    2    0    0  0.17743536986E+02 -0.34014730330E+02 -0.13465893259E+02  0.40659135080E+02  0.00000000000E+00 0. -1.
         11    1    3    3    0    0 -0.72039958308E+01  0.19728200690E+01  0.69581108916E+01  0.10208079271E+02  0.51100000000E-03 0. -1.
        -11    1    3    3    0    0  0.32136068780E+01  0.17306257331E+02  0.94048094063E+01  0.19957060209E+02  0.51100000000E-03 0.  1.
        -12    1    3    3    0    0 -0.13753148034E+02  0.14735652930E+02 -0.28970270392E+01  0.20363725440E+02  0.00000000000E+00 0.  1.
</event>
<event>
 7    1  0.5897985E-013  0.5052886E+02  0.7816164E-02  0.1300439E+00
        -11   -1    0    0    0    0  0.00000000000E+00  0.00000000000E+00  0.45593999997E+02  0.45594000000E+02  0.51100000000E-03 0.  1.
         11   -1    0    0    0    0 -0.00000000000E+00 -0.00000000000E+00 -0.45593999997E+02  0.45594000000E+02  0.51100000000E-03 0. -1.
    9900012    2    1    2    0    0 -0.31789321152E+01  0.20632503045E+02  0.34890683531E+02  0.50528860946E+02  0.30000003333E+02 0.  0.
         12    1    1    2    0    0  0.31789321152E+01 -0.20632503045E+02 -0.34890683531E+02  0.40659139054E+02  0.00000000000E+00 0. -1.
         11    1    3    3    0    0 -0.69863520942E+00  0.14628323398E+02  0.13185991791E+02  0.19706504417E+02  0.51100000000E-03 0. -1.
        -11    1    3    3    0    0 -0.35357019356E+01  0.11894607153E+00 -0.34651847498E+01  0.49520543168E+01  0.51100000000E-03 0.  1.
        -12    1    3    3    0    0  0.10554050299E+01  0.58852335760E+01  0.25169876490E+02  0.25870302212E+02  0.00000000000E+00 0.  1.
</event>
<event>
 7    1  0.5897985E-013  0.5052887E+02  0.7816164E-02  0.1300439E+00
        -11   -1    0    0    0    0  0.00000000000E+00  0.00000000000E+00  0.45593999997E+02  0.45594000000E+02  0.51100000000E-03 0.  1.
         11   -1    0    0    0    0 -0.00000000000E+00 -0.00000000000E+00 -0.45593999997E+02  0.45594000000E+02  0.51100000000E-03 0. -1.
    9900012    2    1    2    0    0  0.18725926039E+02  0.14721113406E+02  0.32951375315E+02  0.50528872844E+02  0.30000039497E+02 0.  0.
         12    1    1    2    0    0 -0.18725926039E+02 -0.14721113406E+02 -0.32951375315E+02  0.40659127156E+02  0.00000000000E+00 0. -1.
         11    1    3    3    0    0  0.78042591322E+00  0.47250987107E+01  0.11583258861E+02  0.12534253410E+02  0.51100000000E-03 0. -1.
        -11    1    3    3    0    0  0.95023862306E+01 -0.27612871057E+01 -0.19697387059E+01  0.10089594709E+02  0.51100000000E-03 0.  1.
        -12    1    3    3    0    0  0.84431138950E+01  0.12757301801E+02  0.23337855160E+02  0.27905024726E+02  0.00000000000E+00 0.  1.
</event>
<event>
 7    1  0.5897985E-013  0.5052886E+02  0.7816164E-02  0.1300439E+00
        -11   -1    0    0    0    0  0.00000000000E+00  0.00000000000E+00  0.45593999997E+02  0.45594000000E+02  0.51100000000E-03 0.  1.
         11   -1    0    0    0    0 -0.00000000000E+00 -0.00000000000E+00 -0.45593999997E+02  0.45594000000E+02  0.51100000000E-03 0. -1.
    9900012    2    1    2    0    0 -0.12462093060E+02 -0.89915991291E+00  0.38691773522E+02  0.50528860926E+02  0.30000003271E+02 0.  0.
         12    1    1    2    0    0  0.12462093060E+02  0.89915991291E+00 -0.38691773522E+02  0.40659139074E+02  0.00000000000E+00 0. -1.
         11    1    3    3    0    0 -0.12284273425E+02 -0.12413192457E+02  0.15369605727E+02  0.23264038794E+02  0.51100000000E-03 0. -1.
        -11    1    3    3    0    0 -0.33035343489E+01  0.10090321361E+02  0.16390466905E+02  0.19528833298E+02  0.51100000000E-03 0.  1.
        -12    1    3    3    0    0  0.31257147137E+01  0.14237111834E+01  0.69317008900E+01  0.77359888336E+01  0.00000000000E+00 0.  1.
</event>
<event>
 7    1  0.5897985E-013  0.5052886E+02  0.7816164E-02  0.1300439E+00
        -11   -1    0    0    0    0  0.00000000000E+00  0.00000000000E+00  0.45593999997E+02  0.45594000000E+02  0.51100000000E-03 0. -1.
         11   -1    0    0    0    0 -0.00000000000E+00 -0.00000000000E+00 -0.45593999997E+02  0.45594000000E+02  0.51100000000E-03 0.  1.
    9900012    2    1    2    0    0 -0.37525342763E+01  0.40256163303E+02 -0.43041000970E+01  0.50528862343E+02  0.30000007577E+02 0.  0.
         12    1    1    2    0    0  0.37525342763E+01 -0.40256163303E+02  0.43041000970E+01  0.40659137657E+02  0.00000000000E+00 0. -1.
         11    1    3    3    0    0  0.50014041017E+01  0.12118330123E+02  0.83883963229E+01  0.15563841463E+02  0.51100000000E-03 0. -1.
        -11    1    3    3    0    0 -0.70840007850E+00  0.21252016750E+02 -0.11847266454E+02  0.24341482479E+02  0.51100000000E-03 0.  1.
         12    1    3    3    0    0 -0.80455382995E+01  0.68858164306E+01 -0.84522996564E+00  0.10623538400E+02  0.00000000000E+00 0. -1.
</event>
<event>
 7    1  0.5897985E-013  0.5052886E+02  0.7816164E-02  0.1300439E+00
        -11   -1    0    0    0    0  0.00000000000E+00  0.00000000000E+00  0.45593999997E+02  0.45594000000E+02  0.51100000000E-03 0.  1.
         11   -1    0    0    0    0 -0.00000000000E+00 -0.00000000000E+00 -0.45593999997E+02  0.45594000000E+02  0.51100000000E-03 0. -1.
    9900012    2    1    2    0    0  0.12825554680E+02  0.37328358917E+02  0.97603462784E+01  0.50528860907E+02  0.30000003213E+02 0.  0.
         12    1    1    2    0    0 -0.12825554680E+02 -0.37328358917E+02 -0.97603462784E+01  0.40659139093E+02  0.00000000000E+00 0. -1.
         11    1    3    3    0    0  0.34835035831E+01  0.28062774638E+01  0.16273776944E+01  0.47600786589E+01  0.51100000000E-03 0.  1.
        -11    1    3    3    0    0 -0.27403026041E+01 -0.22976674362E+01  0.59673305257E+01  0.69568360533E+01  0.51100000000E-03 0. -1.
        -12    1    3    3    0    0  0.12082353701E+02  0.36819748890E+02  0.21656380583E+01  0.38811946195E+02  0.00000000000E+00 0.  1.
</event>
<event>
 7    1  0.5897985E-013  0.5052885E+02  0.7816164E-02  0.1300439E+00
        -11   -1    0    0    0    0  0.00000000000E+00  0.00000000000E+00  0.45593999997E+02  0.45594000000E+02  0.51100000000E-03 0.  1.
         11   -1    0    0    0    0 -0.00000000000E+00 -0.00000000000E+00 -0.45593999997E+02  0.45594000000E+02  0.51100000000E-03 0. -1.
    9900012    2    1    2    0    0 -0.18262269785E+02  0.32412507036E+02  0.16403814014E+02  0.50528853129E+02  0.29999979572E+02 0.  0.
         12    1    1    2    0    0  0.18262269785E+02 -0.32412507036E+02 -0.16403814014E+02  0.40659146871E+02  0.00000000000E+00 0. -1.
         11    1    3    3    0    0  0.42900743849E+01  0.20680709209E+01  0.57684536714E-01  0.47628755315E+01  0.51100000000E-03 0. -1.
        -11    1    3    3    0    0 -0.19667525053E+02  0.30974866447E+02  0.19411427101E+02  0.41509726517E+02  0.51100000000E-03 0.  1.
        -12    1    3    3    0    0 -0.28848191165E+01 -0.63043033210E+00 -0.30652976240E+01  0.42562510807E+01  0.00000000000E+00 0.  1.
</event>
<event>
 7    1  0.5897985E-013  0.5052886E+02  0.7816164E-02  0.1300439E+00
        -11   -1    0    0    0    0  0.00000000000E+00  0.00000000000E+00  0.45593999997E+02  0.45594000000E+02  0.51100000000E-03 0.  1.
         11   -1    0    0    0    0 -0.00000000000E+00 -0.00000000000E+00 -0.45593999997E+02  0.45594000000E+02  0.51100000000E-03 0. -1.
    9900012    2    1    2    0    0  0.31835508696E+02 -0.67203066880E+01  0.24382439849E+02  0.50528861926E+02  0.30000006312E+02 0.  0.
         12    1    1    2    0    0 -0.31835508696E+02  0.67203066880E+01 -0.24382439849E+02  0.40659138074E+02  0.00000000000E+00 0. -1.
         11    1    3    3    0    0  0.22508849553E+02  0.74834954780E+01  0.23080716521E+02  0.33096381799E+02  0.51100000000E-03 0. -1.
        -11    1    3    3    0    0  0.54393803986E+01 -0.50793253512E+01  0.10076120032E+01  0.75101056820E+01  0.51100000000E-03 0.  1.
         12    1    3    3    0    0  0.38872787437E+01 -0.91244768147E+01  0.29411132508E+00  0.99223744459E+01  0.00000000000E+00 0. -1.
</event>
<event>
 7    1  0.5897985E-013  0.5052886E+02  0.7816164E-02  0.1300439E+00
        -11   -1    0    0    0    0  0.00000000000E+00  0.00000000000E+00  0.45593999997E+02  0.45594000000E+02  0.51100000000E-03 0. -1.
         11   -1    0    0    0    0 -0.00000000000E+00 -0.00000000000E+00 -0.45593999997E+02  0.45594000000E+02  0.51100000000E-03 0.  1.
    9900012    2    1    2    0    0  0.13982758960E+02 -0.30147499774E+02 -0.23425976154E+02  0.50528860197E+02  0.30000001055E+02 0.  0.
         12    1    1    2    0    0 -0.13982758960E+02  0.30147499774E+02  0.23425976154E+02  0.40659139803E+02  0.00000000000E+00 0. -1.
         11    1    3    3    0    0 -0.74229807752E+00  0.10533519396E+01  0.14383836686E+01  0.19311925289E+01  0.51100000000E-03 0. -1.
        -11    1    3    3    0    0 -0.16187759878E+01 -0.23379299493E+02 -0.16369059959E+02  0.28585979162E+02  0.51100000000E-03 0.  1.
        -12    1    3    3    0    0  0.16343833025E+02 -0.78215522208E+01 -0.84952998637E+01  0.20011688506E+02  0.00000000000E+00 0.  1.
</event>
<event>
 7    1  0.5897985E-013  0.5052887E+02  0.7816164E-02  0.1300439E+00
        -11   -1    0    0    0    0  0.00000000000E+00  0.00000000000E+00  0.45593999997E+02  0.45594000000E+02  0.51100000000E-03 0. -1.
         11   -1    0    0    0    0 -0.00000000000E+00 -0.00000000000E+00 -0.45593999997E+02  0.45594000000E+02  0.51100000000E-03 0.  1.
    9900012    2    1    2    0    0 -0.69000716898E+01  0.26037328909E+02 -0.30456719278E+02  0.50528865292E+02  0.30000016542E+02 0.  0.
         12    1    1    2    0    0  0.69000716898E+01 -0.26037328909E+02  0.30456719278E+02  0.40659134708E+02  0.00000000000E+00 0. -1.
         11    1    3    3    0    0 -0.67769107653E+01  0.15626040755E+01 -0.15700665339E+02  0.17172045405E+02  0.51100000000E-03 0.  1.
        -11    1    3    3    0    0  0.82208933669E+01  0.81384979817E+01 -0.54520508607E+01  0.12788396928E+02  0.51100000000E-03 0. -1.
        -12    1    3    3    0    0 -0.83440542915E+01  0.16336226851E+02 -0.93040030775E+01  0.20568422959E+02  0.00000000000E+00 0.  1.
</event>
<event>
 7    1  0.5897985E-013  0.5052882E+02  0.7816164E-02  0.1300439E+00
        -11   -1    0    0    0    0  0.00000000000E+00  0.00000000000E+00  0.45593999997E+02  0.45594000000E+02  0.51100000000E-03 0.  1.
         11   -1    0    0    0    0 -0.00000000000E+00 -0.00000000000E+00 -0.45593999997E+02  0.45594000000E+02  0.51100000000E-03 0. -1.
    9900012    2    1    2    0    0 -0.55813720287E+01  0.19372434202E+02  0.35309010002E+02  0.50528817667E+02  0.29999871781E+02 0.  0.
         12    1    1    2    0    0  0.55813720287E+01 -0.19372434202E+02 -0.35309010002E+02  0.40659182333E+02  0.00000000000E+00 0. -1.
         11    1    3    3    0    0  0.51397590980E+01  0.15699798973E+02  0.90349387074E+01  0.18828991717E+02  0.51100000000E-03 0. -1.
        -11    1    3    3    0    0 -0.72898388252E+01 -0.29392179927E+01  0.53996830926E+01  0.95361066619E+01  0.51100000000E-03 0.  1.
         12    1    3    3    0    0 -0.34312923015E+01  0.66118532226E+01  0.20874388202E+02  0.22163719289E+02  0.00000000000E+00 0. -1.
</event>
<event>
 7    1  0.5897985E-013  0.5052887E+02  0.7816164E-02  0.1300439E+00
        -11   -1    0    0    0    0  0.00000000000E+00  0.00000000000E+00  0.45593999997E+02  0.45594000000E+02  0.51100000000E-03 0.  1.
         11   -1    0    0    0    0 -0.00000000000E+00 -0.00000000000E+00 -0.45593999997E+02  0.45594000000E+02  0.51100000000E-03 0. -1.
    9900012    2    1    2    0    0  0.21635578079E+02  0.19670125585E+02  0.28251601535E+02  0.50528867340E+02  0.30000022768E+02 0.  0.
         12    1    1    2    0    0 -0.21635578079E+02 -0.19670125585E+02 -0.28251601535E+02  0.40659132660E+02  0.00000000000E+00 0. -1.
         11    1    3    3    0    0 -0.35457043157E+01 -0.28833240417E+01  0.13065843455E+01  0.47531820433E+01  0.51100000000E-03 0. -1.
        -11    1    3    3    0    0  0.18289198142E+02  0.18557161768E+02  0.27381381707E+02  0.37796866087E+02  0.51100000000E-03 0.  1.
         12    1    3    3    0    0  0.68920842524E+01  0.39962878584E+01 -0.43636451754E+00  0.79788192097E+01  0.00000000000E+00 0. -1.
</event>
<event>
 7    1  0.6308161E-013  0.5052886E+02  0.7816164E-02  0.1300439E+00
        -11   -1    0    0    0    0  0.00000000000E+00  0.00000000000E+00  0.45593999997E+02  0.45594000000E+02  0.51100000000E-03 0.  1.
         11   -1    0    0    0    0 -0.00000000000E+00 -0.00000000000E+00 -0.45593999997E+02  0.45594000000E+02  0.51100000000E-03 0. -1.
    9900012    2    1    2    0    0 -0.15593855401E+02 -0.14949074037E+02  0.34445932648E+02  0.50528863059E+02  0.30000009753E+02 0.  0.
         12    1    1    2    0    0  0.15593855401E+02  0.14949074037E+02 -0.34445932648E+02  0.40659136941E+02  0.00000000000E+00 0. -1.
         11    1    3    3    0    0 -0.60140475433E+00 -0.18083672506E+01 -0.39176000494E+01  0.43565433775E+01  0.51100000000E-03 0. -1.
        -11    1    3    3    0    0 -0.18209198794E+02 -0.92277173629E+01  0.28163411369E+02  0.34783666119E+02  0.51100000000E-03 0.  1.
        -12    1    3    3    0    0  0.32167481466E+01 -0.39129894236E+01  0.10200121328E+02  0.11388653562E+02  0.00000000000E+00 0.  1.
</event>
<event>
 7    1  0.5897985E-013  0.5052885E+02  0.7816164E-02  0.1300439E+00
        -11   -1    0    0    0    0  0.00000000000E+00  0.00000000000E+00  0.45593999997E+02  0.45594000000E+02  0.51100000000E-03 0. -1.
         11   -1    0    0    0    0 -0.00000000000E+00 -0.00000000000E+00 -0.45593999997E+02  0.45594000000E+02  0.51100000000E-03 0.  1.
    9900012    2    1    2    0    0  0.18764293581E+02 -0.29057066436E+02 -0.21371813520E+02  0.50528852977E+02  0.29999979110E+02 0.  0.
         12    1    1    2    0    0 -0.18764293581E+02  0.29057066436E+02  0.21371813520E+02  0.40659147023E+02  0.00000000000E+00 0. -1.
         11    1    3    3    0    0  0.85945411298E+01  0.19034039752E+01 -0.64184926190E+01  0.10894316485E+02  0.51100000000E-03 0. -1.
        -11    1    3    3    0    0  0.10455165246E+01 -0.24543126855E+02 -0.14380120621E+02  0.28464821270E+02  0.51100000000E-03 0.  1.
         12    1    3    3    0    0  0.91242359268E+01 -0.64173435565E+01 -0.57320027997E+00  0.11169715222E+02  0.00000000000E+00 0. -1.
</event>
<event>
 7    1  0.5897985E-013  0.5052886E+02  0.7816164E-02  0.1300439E+00
        -11   -1    0    0    0    0  0.00000000000E+00  0.00000000000E+00  0.45593999997E+02  0.45594000000E+02  0.51100000000E-03 0.  1.
         11   -1    0    0    0    0 -0.00000000000E+00 -0.00000000000E+00 -0.45593999997E+02  0.45594000000E+02  0.51100000000E-03 0. -1.
    9900012    2    1    2    0    0 -0.35830071055E+02 -0.53015953677E+01  0.18473343810E+02  0.50528864043E+02  0.30000012744E+02 0.  0.
         12    1    1    2    0    0  0.35830071055E+02  0.53015953677E+01 -0.18473343810E+02  0.40659135957E+02  0.00000000000E+00 0. -1.
         11    1    3    3    0    0 -0.55261232957E+01  0.31425026172E+01  0.13519264979E+01  0.64993128018E+01  0.51100000000E-03 0. -1.
        -11    1    3    3    0    0 -0.12058968565E+02 -0.10912022872E+02  0.19581935481E+02  0.25454727723E+02  0.51100000000E-03 0.  1.
        -12    1    3    3    0    0 -0.18244979195E+02  0.24679248869E+01 -0.24605181685E+01  0.18574823518E+02  0.00000000000E+00 0.  1.
</event>
<event>
 7    1  0.5897985E-013  0.5052888E+02  0.7816164E-02  0.1300439E+00
        -11   -1    0    0    0    0  0.00000000000E+00  0.00000000000E+00  0.45593999997E+02  0.45594000000E+02  0.51100000000E-03 0.  1.
         11   -1    0    0    0    0 -0.00000000000E+00 -0.00000000000E+00 -0.45593999997E+02  0.45594000000E+02  0.51100000000E-03 0. -1.
    9900012    2    1    2    0    0  0.91698278432E+01 -0.15950992415E+02  0.36258025952E+02  0.50528876207E+02  0.30000049718E+02 0.  0.
         12    1    1    2    0    0 -0.91698278432E+01  0.15950992415E+02 -0.36258025952E+02  0.40659123793E+02  0.00000000000E+00 0. -1.
         11    1    3    3    0    0 -0.88876769621E+01  0.45193971980E+00  0.32365093555E+01  0.94694268233E+01  0.51100000000E-03 0. -1.
        -11    1    3    3    0    0  0.83192125265E+01 -0.79014686076E+01  0.15309813556E+02  0.19131986165E+02  0.51100000000E-03 0.  1.
         12    1    3    3    0    0  0.97382922788E+01 -0.85014635268E+01  0.17711703041E+02  0.21927463219E+02  0.00000000000E+00 0. -1.
</event>
<event>
 7    1  0.5897985E-013  0.5052884E+02  0.7816164E-02  0.1300439E+00
        -11   -1    0    0    0    0  0.00000000000E+00  0.00000000000E+00  0.45593999997E+02  0.45594000000E+02  0.51100000000E-03 0. -1.
         11   -1    0    0    0    0 -0.00000000000E+00 -0.00000000000E+00 -0.45593999997E+02  0.45594000000E+02  0.51100000000E-03 0.  1.
    9900012    2    1    2    0    0  0.34940326929E+02 -0.94552750460E+01  0.18518599891E+02  0.50528840957E+02  0.29999942574E+02 0.  0.
         12    1    1    2    0    0 -0.34940326929E+02  0.94552750460E+01 -0.18518599891E+02  0.40659159043E+02  0.00000000000E+00 0. -1.
         11    1    3    3    0    0  0.88403920706E+01  0.74440794871E+01  0.37165954966E+01  0.12140013745E+02  0.51100000000E-03 0. -1.
        -11    1    3    3    0    0  0.18976544966E+02 -0.10138118255E+02  0.11163679682E+01  0.21543838523E+02  0.51100000000E-03 0.  1.
        -12    1    3    3    0    0  0.71233898925E+01 -0.67612362776E+01  0.13685636426E+02  0.16844988690E+02  0.00000000000E+00 0.  1.
</event>
<event>
 7    1  0.5897985E-013  0.5052886E+02  0.7816164E-02  0.1300439E+00
        -11   -1    0    0    0    0  0.00000000000E+00  0.00000000000E+00  0.45593999997E+02  0.45594000000E+02  0.51100000000E-03 0.  1.
         11   -1    0    0    0    0 -0.00000000000E+00 -0.00000000000E+00 -0.45593999997E+02  0.45594000000E+02  0.51100000000E-03 0. -1.
    9900012    2    1    2    0    0  0.31785312173E+02  0.10056637422E+02  0.23274957360E+02  0.50528859991E+02  0.30000000429E+02 0.  0.
         12    1    1    2    0    0 -0.31785312173E+02 -0.10056637422E+02 -0.23274957360E+02  0.40659140009E+02  0.00000000000E+00 0. -1.
         11    1    3    3    0    0  0.57258578131E+01  0.88636399525E+01  0.30296438369E+01  0.10978538288E+02  0.51100000000E-03 0. -1.
        -11    1    3    3    0    0  0.92462321084E+01  0.70534646201E+00  0.20744336773E+02  0.22722628154E+02  0.51100000000E-03 0.  1.
        -12    1    3    3    0    0  0.16813222251E+02  0.48765100735E+00 -0.49902324948E+00  0.16827693549E+02  0.00000000000E+00 0.  1.
</event>
<event>
 7    1  0.5897985E-013  0.5052886E+02  0.7816164E-02  0.1300439E+00
        -11   -1    0    0    0    0  0.00000000000E+00  0.00000000000E+00  0.45593999997E+02  0.45594000000E+02  0.51100000000E-03 0. -1.
         11   -1    0    0    0    0 -0.00000000000E+00 -0.00000000000E+00 -0.45593999997E+02  0.45594000000E+02  0.51100000000E-03 0.  1.
    9900012    2    1    2    0    0 -0.20709686412E+00  0.30528450390E+02 -0.26853984658E+02  0.50528860015E+02  0.30000000501E+02 0.  0.
         12    1    1    2    0    0  0.20709686412E+00 -0.30528450390E+02  0.26853984658E+02  0.40659139985E+02  0.00000000000E+00 0. -1.
         11    1    3    3    0    0 -0.62314049640E+01  0.84333810072E+01 -0.13766434294E+01  0.10575796444E+02  0.51100000000E-03 0. -1.
        -11    1    3    3    0    0  0.12023174654E+02  0.21575329457E+02 -0.19504716536E+02  0.31471980194E+02  0.51100000000E-03 0.  1.
        -12    1    3    3    0    0 -0.59988665538E+01  0.51973992602E+00 -0.59726246927E+01  0.84810833766E+01  0.00000000000E+00 0.  1.
</event>
<event>
 7    1  0.5897985E-013  0.5052885E+02  0.7816164E-02  0.1300439E+00
        -11   -1    0    0    0    0  0.00000000000E+00  0.00000000000E+00  0.45593999997E+02  0.45594000000E+02  0.51100000000E-03 0.  1.
         11   -1    0    0    0    0 -0.00000000000E+00 -0.00000000000E+00 -0.45593999997E+02  0.45594000000E+02  0.51100000000E-03 0. -1.
    9900012    2    1    2    0    0  0.10285439809E+02  0.19143359697E+01  0.39290094326E+02  0.50528850151E+02  0.29999970520E+02 0.  0.
         12    1    1    2    0    0 -0.10285439809E+02 -0.19143359697E+01 -0.39290094326E+02  0.40659149849E+02  0.00000000000E+00 0. -1.
         11    1    3    3    0    0 -0.45831417313E+01  0.89313920796E+01  0.16093124323E+02  0.18967435339E+02  0.51100000000E-03 0. -1.
        -11    1    3    3    0    0  0.10673732972E+02 -0.90285951067E+01  0.22987097690E+02  0.26904474826E+02  0.51100000000E-03 0.  1.
         12    1    3    3    0    0  0.41948485683E+01  0.20115389969E+01  0.20987231213E+00  0.46569399862E+01  0.00000000000E+00 0. -1.
</event>
<event>
 7    1  0.5897985E-013  0.5052886E+02  0.7816164E-02  0.1300439E+00
        -11   -1    0    0    0    0  0.00000000000E+00  0.00000000000E+00  0.45593999997E+02  0.45594000000E+02  0.51100000000E-03 0.  1.
         11   -1    0    0    0    0 -0.00000000000E+00 -0.00000000000E+00 -0.45593999997E+02  0.45594000000E+02  0.51100000000E-03 0. -1.
    9900012    2    1    2    0    0 -0.30068805367E+02 -0.22444323530E+02  0.15661569846E+02  0.50528862221E+02  0.30000007206E+02 0.  0.
         12    1    1    2    0    0  0.30068805367E+02  0.22444323530E+02 -0.15661569846E+02  0.40659137779E+02  0.00000000000E+00 0. -1.
         11    1    3    3    0    0 -0.35692779813E+01  0.53908664800E+01  0.82053898133E+01  0.10446511808E+02  0.51100000000E-03 0.  1.
        -11    1    3    3    0    0 -0.12517090368E+02 -0.15137612620E+02 -0.34936509159E+00  0.19645531893E+02  0.51100000000E-03 0. -1.
         12    1    3    3    0    0 -0.13982437018E+02 -0.12697577390E+02  0.78055451241E+01  0.20436818520E+02  0.00000000000E+00 0. -1.
</event>
<event>
 7    1  0.5897985E-013  0.5052886E+02  0.7816164E-02  0.1300439E+00
        -11   -1    0    0    0    0  0.00000000000E+00  0.00000000000E+00  0.45593999997E+02  0.45594000000E+02  0.51100000000E-03 0.  1.
         11   -1    0    0    0    0 -0.00000000000E+00 -0.00000000000E+00 -0.45593999997E+02  0.45594000000E+02  0.51100000000E-03 0. -1.
    9900012    2    1    2    0    0 -0.31562172876E+02 -0.24695177064E+02  0.68660616500E+01  0.50528864133E+02  0.30000013019E+02 0.  0.
         12    1    1    2    0    0  0.31562172876E+02  0.24695177064E+02 -0.68660616500E+01  0.40659135867E+02  0.00000000000E+00 0. -1.
         11    1    3    3    0    0  0.16927784994E+01 -0.12550991368E+02  0.26369654943E+00  0.12667376188E+02  0.51100000000E-03 0. -1.
        -11    1    3    3    0    0 -0.15885989372E+02  0.32885415715E-01  0.97745186109E+00  0.15916065851E+02  0.51100000000E-03 0.  1.
        -12    1    3    3    0    0 -0.17368962003E+02 -0.12177071111E+02  0.56249132394E+01  0.21945422094E+02  0.00000000000E+00 0.  1.
</event>
<event>
 7    1  0.5897985E-013  0.5052887E+02  0.7816164E-02  0.1300439E+00
        -11   -1    0    0    0    0  0.00000000000E+00  0.00000000000E+00  0.45593999997E+02  0.45594000000E+02  0.51100000000E-03 0.  1.
         11   -1    0    0    0    0 -0.00000000000E+00 -0.00000000000E+00 -0.45593999997E+02  0.45594000000E+02  0.51100000000E-03 0. -1.
    9900012    2    1    2    0    0  0.31620014198E+02 -0.18791815423E+02  0.17326479777E+02  0.50528874011E+02  0.30000043044E+02 0.  0.
         12    1    1    2    0    0 -0.31620014198E+02  0.18791815423E+02 -0.17326479777E+02  0.40659125989E+02  0.00000000000E+00 0. -1.
         11    1    3    3    0    0  0.22242728452E+02 -0.21913393972E+02  0.48992506524E+01  0.31605987748E+02  0.51100000000E-03 0. -1.
        -11    1    3    3    0    0  0.82547878052E+01 -0.38256822441E+00  0.29802728156E+01  0.87846403724E+01  0.51100000000E-03 0.  1.
         12    1    3    3    0    0  0.11224979403E+01  0.35041467729E+01  0.94469563086E+01  0.10138245890E+02  0.00000000000E+00 0. -1.
</event>
<event>
 7    1  0.5897985E-013  0.5052885E+02  0.7816164E-02  0.1300439E+00
        -11   -1    0    0    0    0  0.00000000000E+00  0.00000000000E+00  0.45593999997E+02  0.45594000000E+02  0.51100000000E-03 0.  1.
         11   -1    0    0    0    0 -0.00000000000E+00 -0.00000000000E+00 -0.45593999997E+02  0.45594000000E+02  0.51100000000E-03 0. -1.
    9900012    2    1    2    0    0 -0.64845497773E+01 -0.19579662184E+02  0.35039318331E+02  0.50528851139E+02  0.29999973521E+02 0.  0.
         12    1    1    2    0    0  0.64845497773E+01  0.19579662184E+02 -0.35039318331E+02  0.40659148861E+02  0.00000000000E+00 0. -1.
         11    1    3    3    0    0 -0.59727685492E+00  0.18446615599E+01 -0.36069991489E+01  0.40951140440E+01  0.51100000000E-03 0. -1.
        -11    1    3    3    0    0  0.32030342452E+01 -0.12633525986E+02  0.18012817801E+02  0.22233466051E+02  0.51100000000E-03 0.  1.
        -12    1    3    3    0    0 -0.90903071675E+01 -0.87907977572E+01  0.20633499679E+02  0.24200271044E+02  0.00000000000E+00 0.  1.
</event>
<event>
 7    1  0.5897985E-013  0.5052887E+02  0.7816164E-02  0.1300439E+00
        -11   -1    0    0    0    0  0.00000000000E+00  0.00000000000E+00  0.45593999997E+02  0.45594000000E+02  0.51100000000E-03 0.  1.
         11   -1    0    0    0    0 -0.00000000000E+00 -0.00000000000E+00 -0.45593999997E+02  0.45594000000E+02  0.51100000000E-03 0. -1.
    9900012    2    1    2    0    0 -0.26515103120E+02 -0.29672988521E+02  0.83443417514E+01  0.50528868424E+02  0.30000026062E+02 0.  0.
         12    1    1    2    0    0  0.26515103120E+02  0.29672988521E+02 -0.83443417514E+01  0.40659131576E+02  0.00000000000E+00 0. -1.
         11    1    3    3    0    0  0.80172378739E+00 -0.80365128498E+01 -0.38572106045E+01  0.89502164066E+01  0.51100000000E-03 0. -1.
        -11    1    3    3    0    0 -0.21490665439E+02 -0.21281531548E+02  0.16384393807E+02  0.34397683741E+02  0.51100000000E-03 0.  1.
        -12    1    3    3    0    0 -0.58261614685E+01 -0.35494412342E+00 -0.41828414512E+01  0.71809682769E+01  0.00000000000E+00 0.  1.
</event>
<event>
 7    1  0.5897985E-013  0.5052886E+02  0.7816164E-02  0.1300439E+00
        -11   -1    0    0    0    0  0.00000000000E+00  0.00000000000E+00  0.45593999997E+02  0.45594000000E+02  0.51100000000E-03 0.  1.
         11   -1    0    0    0    0 -0.00000000000E+00 -0.00000000000E+00 -0.45593999997E+02  0.45594000000E+02  0.51100000000E-03 0. -1.
    9900012    2    1    2    0    0  0.37295189248E+02  0.15133518021E+02 -0.57629156980E+01  0.50528859501E+02  0.29999998940E+02 0.  0.
         12    1    1    2    0    0 -0.37295189248E+02 -0.15133518021E+02  0.57629156980E+01  0.40659140499E+02  0.00000000000E+00 0. -1.
         11    1    3    3    0    0  0.14774257127E+02 -0.60754593893E+01  0.52536336966E+01  0.16816377366E+02  0.51100000000E-03 0. -1.
        -11    1    3    3    0    0  0.13794457176E+02  0.95450059808E+01 -0.28586315985E+01  0.17016637824E+02  0.51100000000E-03 0.  1.
         12    1    3    3    0    0  0.87264749451E+01  0.11663971430E+02 -0.81579177961E+01  0.16695844311E+02  0.00000000000E+00 0. -1.
</event>
<event>
 7    1  0.5897985E-013  0.5052886E+02  0.7816164E-02  0.1300439E+00
        -11   -1    0    0    0    0  0.00000000000E+00  0.00000000000E+00  0.45593999997E+02  0.45594000000E+02  0.51100000000E-03 0.  1.
         11   -1    0    0    0    0 -0.00000000000E+00 -0.00000000000E+00 -0.45593999997E+02  0.45594000000E+02  0.51100000000E-03 0. -1.
    9900012    2    1    2    0    0  0.32758432079E+02  0.10271177674E+02  0.21784255812E+02  0.50528858785E+02  0.29999996762E+02 0.  0.
         12    1    1    2    0    0 -0.32758432079E+02 -0.10271177674E+02 -0.21784255812E+02  0.40659141215E+02  0.00000000000E+00 0. -1.
         11    1    3    3    0    0  0.17388446030E+02 -0.25030101886E-01  0.14243695432E+02  0.22477578643E+02  0.51100000000E-03 0. -1.
        -11    1    3    3    0    0  0.80631892034E+01 -0.10105844314E+01 -0.50922422986E+01  0.95899547920E+01  0.51100000000E-03 0.  1.
        -12    1    3    3    0    0  0.73067968461E+01  0.11306792207E+02  0.12632802678E+02  0.18461325350E+02  0.00000000000E+00 0.  1.
</event>
<event>
 7    1  0.5897985E-013  0.5052886E+02  0.7816164E-02  0.1300439E+00
        -11   -1    0    0    0    0  0.00000000000E+00  0.00000000000E+00  0.45593999997E+02  0.45594000000E+02  0.51100000000E-03 0. -1.
         11   -1    0    0    0    0 -0.00000000000E+00 -0.00000000000E+00 -0.45593999997E+02  0.45594000000E+02  0.51100000000E-03 0.  1.
    9900012    2    1    2    0    0  0.92930411140E+01  0.32164659553E+02 -0.23070319108E+02  0.50528861285E+02  0.30000004362E+02 0.  0.
         12    1    1    2    0    0 -0.92930411140E+01 -0.32164659553E+02  0.23070319108E+02  0.40659138715E+02  0.00000000000E+00 0. -1.
         11    1    3    3    0    0  0.35428437025E+01  0.38887336284E+01 -0.96573839750E+01  0.10997229480E+02  0.51100000000E-03 0. -1.
        -11    1    3    3    0    0  0.44459498994E+01  0.31637050752E+02 -0.78427375506E+01  0.32896473722E+02  0.51100000000E-03 0.  1.
        -12    1    3    3    0    0  0.13042475121E+01 -0.33611248278E+01 -0.55701975821E+01  0.66351580829E+01  0.00000000000E+00 0.  1.
</event>
<event>
 7    1  0.5897985E-013  0.5052886E+02  0.7816164E-02  0.1300439E+00
        -11   -1    0    0    0    0  0.00000000000E+00  0.00000000000E+00  0.45593999997E+02  0.45594000000E+02  0.51100000000E-03 0. -1.
         11   -1    0    0    0    0 -0.00000000000E+00 -0.00000000000E+00 -0.45593999997E+02  0.45594000000E+02  0.51100000000E-03 0.  1.
    9900012    2    1    2    0    0  0.24638937272E+02  0.12127202856E+02 -0.29983652934E+02  0.50528859302E+02  0.29999998334E+02 0.  0.
         12    1    1    2    0    0 -0.24638937272E+02 -0.12127202856E+02  0.29983652934E+02  0.40659140698E+02  0.00000000000E+00 0. -1.
         11    1    3    3    0    0 -0.16543052800E+01 -0.29550003527E+01 -0.14899388255E+01  0.36998204022E+01  0.51100000000E-03 0. -1.
        -11    1    3    3    0    0  0.13248639604E+02  0.17656123321E+02 -0.24430580616E+02  0.32925953465E+02  0.51100000000E-03 0.  1.
        -12    1    3    3    0    0  0.13044602949E+02 -0.25739201124E+01 -0.40631334928E+01  0.13903085435E+02  0.00000000000E+00 0.  1.
</event>
<event>
 7    1  0.5897985E-013  0.5052886E+02  0.7816164E-02  0.1300439E+00
        -11   -1    0    0    0    0  0.00000000000E+00  0.00000000000E+00  0.45593999997E+02  0.45594000000E+02  0.51100000000E-03 0.  1.
         11   -1    0    0    0    0 -0.00000000000E+00 -0.00000000000E+00 -0.45593999997E+02  0.45594000000E+02  0.51100000000E-03 0. -1.
    9900012    2    1    2    0    0 -0.16154099047E+01  0.19104556997E+02  0.35854871187E+02  0.50528862834E+02  0.30000009071E+02 0.  0.
         12    1    1    2    0    0  0.16154099047E+01 -0.19104556997E+02 -0.35854871187E+02  0.40659137166E+02  0.00000000000E+00 0. -1.
         11    1    3    3    0    0 -0.47884018479E+01 -0.26780118223E+01  0.97571207466E+01  0.11193835138E+02  0.51100000000E-03 0. -1.
        -11    1    3    3    0    0  0.91808208773E+01  0.19440711768E+02  0.14089110271E+02  0.25704703354E+02  0.51100000000E-03 0.  1.
        -12    1    3    3    0    0 -0.60078289341E+01  0.23418570512E+01  0.12008640169E+02  0.13630324342E+02  0.00000000000E+00 0.  1.
</event>
<event>
 7    1  0.5897985E-013  0.5052886E+02  0.7816164E-02  0.1300439E+00
        -11   -1    0    0    0    0  0.00000000000E+00  0.00000000000E+00  0.45593999997E+02  0.45594000000E+02  0.51100000000E-03 0. -1.
         11   -1    0    0    0    0 -0.00000000000E+00 -0.00000000000E+00 -0.45593999997E+02  0.45594000000E+02  0.51100000000E-03 0.  1.
    9900012    2    1    2    0    0  0.38444324789E+02 -0.15882161936E+01 -0.13140667898E+02  0.50528859675E+02  0.29999999468E+02 0.  0.
         12    1    1    2    0    0 -0.38444324789E+02  0.15882161936E+01  0.13140667898E+02  0.40659140325E+02  0.00000000000E+00 0. -1.
         11    1    3    3    0    0  0.10132051299E+02 -0.56897348636E+00  0.87121876364E+01  0.13374767588E+02  0.51100000000E-03 0. -1.
        -11    1    3    3    0    0  0.23898395311E+02  0.29360082705E+01 -0.16724419467E+02  0.29316542255E+02  0.51100000000E-03 0.  1.
         12    1    3    3    0    0  0.44138781787E+01 -0.39552509777E+01 -0.51284360676E+01  0.78375498322E+01  0.00000000000E+00 0. -1.
</event>
<event>
 7    1  0.5897985E-013  0.5052886E+02  0.7816164E-02  0.1300439E+00
        -11   -1    0    0    0    0  0.00000000000E+00  0.00000000000E+00  0.45593999997E+02  0.45594000000E+02  0.51100000000E-03 0. -1.
         11   -1    0    0    0    0 -0.00000000000E+00 -0.00000000000E+00 -0.45593999997E+02  0.45594000000E+02  0.51100000000E-03 0.  1.
    9900012    2    1    2    0    0 -0.26781418275E+02 -0.12133988119E+02 -0.28083583530E+02  0.50528859621E+02  0.29999999303E+02 0.  0.
         12    1    1    2    0    0  0.26781418275E+02  0.12133988119E+02  0.28083583530E+02  0.40659140379E+02  0.00000000000E+00 0. -1.
         11    1    3    3    0    0 -0.13996056761E+02 -0.15379010670E+02 -0.17519551956E+01  0.20867987956E+02  0.51100000000E-03 0. -1.
        -11    1    3    3    0    0 -0.34564158607E+01  0.68497057890E+00 -0.10825948535E+02  0.11384953107E+02  0.51100000000E-03 0.  1.
         12    1    3    3    0    0 -0.93289456534E+01  0.25600519725E+01 -0.15505679800E+02  0.18275918558E+02  0.00000000000E+00 0. -1.
</event>
<event>
 7    1  0.5897985E-013  0.5052896E+02  0.7816164E-02  0.1300438E+00
        -11   -1    0    0    0    0  0.00000000000E+00  0.00000000000E+00  0.45593999997E+02  0.45594000000E+02  0.51100000000E-03 0.  1.
         11   -1    0    0    0    0 -0.00000000000E+00 -0.00000000000E+00 -0.45593999997E+02  0.45594000000E+02  0.51100000000E-03 0. -1.
    9900012    2    1    2    0    0 -0.37498060790E+02 -0.30028923441E+01  0.15428391234E+02  0.50528964331E+02  0.30000317579E+02 0.  0.
         12    1    1    2    0    0  0.37498060790E+02  0.30028923441E+01 -0.15428391234E+02  0.40659035669E+02  0.00000000000E+00 0. -1.
         11    1    3    3    0    0 -0.13210536796E+02 -0.49647218392E+01 -0.12136013140E+01  0.14164729923E+02  0.51100000000E-03 0. -1.
        -11    1    3    3    0    0 -0.66020233737E+01 -0.53931770111E+01  0.14854785113E+02  0.17127104599E+02  0.51100000000E-03 0.  1.
        -12    1    3    3    0    0 -0.17685500621E+02  0.73550065062E+01  0.17872074345E+01  0.19237129810E+02  0.00000000000E+00 0.  1.
</event>
<event>
 7    1  0.5897985E-013  0.5052885E+02  0.7816164E-02  0.1300439E+00
        -11   -1    0    0    0    0  0.00000000000E+00  0.00000000000E+00  0.45593999997E+02  0.45594000000E+02  0.51100000000E-03 0.  1.
         11   -1    0    0    0    0 -0.00000000000E+00 -0.00000000000E+00 -0.45593999997E+02  0.45594000000E+02  0.51100000000E-03 0. -1.
    9900012    2    1    2    0    0 -0.62906553709E+01 -0.29541364779E+02  0.27219514662E+02  0.50528849044E+02  0.29999967154E+02 0.  0.
         12    1    1    2    0    0  0.62906553709E+01  0.29541364779E+02 -0.27219514662E+02  0.40659150956E+02  0.00000000000E+00 0. -1.
         11    1    3    3    0    0 -0.63318006270E+01 -0.20439073962E+02  0.42134194978E+01  0.21808263290E+02  0.51100000000E-03 0. -1.
        -11    1    3    3    0    0 -0.50815974898E+01  0.77398031435E+00  0.12074381233E+02  0.13122970738E+02  0.51100000000E-03 0.  1.
        -12    1    3    3    0    0  0.51227427459E+01 -0.98762711318E+01  0.10931713931E+02  0.15597615016E+02  0.00000000000E+00 0.  1.
</event>
<event>
 7    1  0.5897985E-013  0.5052886E+02  0.7816164E-02  0.1300439E+00
        -11   -1    0    0    0    0  0.00000000000E+00  0.00000000000E+00  0.45593999997E+02  0.45594000000E+02  0.51100000000E-03 0.  1.
         11   -1    0    0    0    0 -0.00000000000E+00 -0.00000000000E+00 -0.45593999997E+02  0.45594000000E+02  0.51100000000E-03 0. -1.
    9900012    2    1    2    0    0 -0.15115988071E+02 -0.25038550774E+02  0.28244354298E+02  0.50528859946E+02  0.30000000292E+02 0.  0.
         12    1    1    2    0    0  0.15115988071E+02  0.25038550774E+02 -0.28244354298E+02  0.40659140054E+02  0.00000000000E+00 0. -1.
         11    1    3    3    0    0  0.80589962895E+01 -0.18340672418E+01  0.97741542566E+01  0.12800207636E+02  0.51100000000E-03 0. -1.
        -11    1    3    3    0    0 -0.11110469178E+02 -0.94479502243E+01  0.75993757228E+01  0.16445570845E+02  0.51100000000E-03 0.  1.
         12    1    3    3    0    0 -0.12064515182E+02 -0.13756533308E+02  0.10870824319E+02  0.21283081464E+02  0.00000000000E+00 0. -1.
</event>
<event>
 7    1  0.5897985E-013  0.5052886E+02  0.7816164E-02  0.1300439E+00
        -11   -1    0    0    0    0  0.00000000000E+00  0.00000000000E+00  0.45593999997E+02  0.45594000000E+02  0.51100000000E-03 0.  1.
         11   -1    0    0    0    0 -0.00000000000E+00 -0.00000000000E+00 -0.45593999997E+02  0.45594000000E+02  0.51100000000E-03 0. -1.
    9900012    2    1    2    0    0 -0.19959328400E+02 -0.32078959922E+02  0.15024353642E+02  0.50528860041E+02  0.30000000580E+02 0.  0.
         12    1    1    2    0    0  0.19959328400E+02  0.32078959922E+02 -0.15024353642E+02  0.40659139959E+02  0.00000000000E+00 0. -1.
         11    1    3    3    0    0 -0.43036047416E+01 -0.72197811453E+01 -0.29309690019E+01  0.89015073504E+01  0.51100000000E-03 0. -1.
        -11    1    3    3    0    0 -0.44706643314E+01 -0.15327936068E+02  0.21237553068E+02  0.26570023038E+02  0.51100000000E-03 0.  1.
        -12    1    3    3    0    0 -0.11185059326E+02 -0.95312427091E+01 -0.32822304234E+01  0.15057329653E+02  0.00000000000E+00 0.  1.
</event>
<event>
 7    1  0.5897985E-013  0.5052886E+02  0.7816164E-02  0.1300439E+00
        -11   -1    0    0    0    0  0.00000000000E+00  0.00000000000E+00  0.45593999997E+02  0.45594000000E+02  0.51100000000E-03 0. -1.
         11   -1    0    0    0    0 -0.00000000000E+00 -0.00000000000E+00 -0.45593999997E+02  0.45594000000E+02  0.51100000000E-03 0.  1.
    9900012    2    1    2    0    0  0.19428227867E+02  0.11087713048E+02 -0.33952497937E+02  0.50528861607E+02  0.30000005341E+02 0.  0.
         12    1    1    2    0    0 -0.19428227867E+02 -0.11087713048E+02  0.33952497937E+02  0.40659138393E+02  0.00000000000E+00 0. -1.
         11    1    3    3    0    0  0.14634991014E+01  0.15677331547E+01  0.14500341850E+01  0.25888638943E+01  0.51100000000E-03 0. -1.
        -11    1    3    3    0    0  0.12510529615E+02  0.12317028921E+02 -0.37544859293E+02  0.41446821498E+02  0.51100000000E-03 0.  1.
        -12    1    3    3    0    0  0.54541991513E+01 -0.27970490279E+01  0.21423271716E+01  0.64931762148E+01  0.00000000000E+00 0.  1.
</event>
<event>
 7    1  0.5897985E-013  0.5052884E+02  0.7816164E-02  0.1300439E+00
        -11   -1    0    0    0    0  0.00000000000E+00  0.00000000000E+00  0.45593999997E+02  0.45594000000E+02  0.51100000000E-03 0.  1.
         11   -1    0    0    0    0 -0.00000000000E+00 -0.00000000000E+00 -0.45593999997E+02  0.45594000000E+02  0.51100000000E-03 0. -1.
    9900012    2    1    2    0    0 -0.39298955806E+02  0.10234061497E+02 -0.20057385888E+01  0.50528844457E+02  0.29999953211E+02 0.  0.
         12    1    1    2    0    0  0.39298955806E+02 -0.10234061497E+02  0.20057385888E+01  0.40659155543E+02  0.00000000000E+00 0. -1.
         11    1    3    3    0    0 -0.15892332427E+01 -0.40561286379E+01 -0.12883114771E+01  0.45428612734E+01  0.51100000000E-03 0. -1.
        -11    1    3    3    0    0 -0.21031593235E+02  0.12336484153E+02 -0.10505182602E+02  0.26549493724E+02  0.51100000000E-03 0.  1.
        -12    1    3    3    0    0 -0.16678129329E+02  0.19537059819E+01  0.97877554898E+01  0.19436489459E+02  0.00000000000E+00 0.  1.
</event>
<event>
 7    1  0.5897985E-013  0.5052886E+02  0.7816164E-02  0.1300439E+00
        -11   -1    0    0    0    0  0.00000000000E+00  0.00000000000E+00  0.45593999997E+02  0.45594000000E+02  0.51100000000E-03 0. -1.
         11   -1    0    0    0    0 -0.00000000000E+00 -0.00000000000E+00 -0.45593999997E+02  0.45594000000E+02  0.51100000000E-03 0.  1.
    9900012    2    1    2    0    0 -0.34510174207E+01  0.22513348926E+02 -0.33680933642E+02  0.50528859673E+02  0.29999999463E+02 0.  0.
         12    1    1    2    0    0  0.34510174207E+01 -0.22513348926E+02  0.33680933642E+02  0.40659140327E+02  0.00000000000E+00 0. -1.
         11    1    3    3    0    0  0.21325620327E+01  0.11455175701E+02 -0.38008789779E+01  0.12256245446E+02  0.51100000000E-03 0. -1.
        -11    1    3    3    0    0  0.45441492752E+00 -0.53001313306E+01 -0.12811760966E+02  0.13872242225E+02  0.51100000000E-03 0.  1.
        -12    1    3    3    0    0 -0.60379943809E+01  0.16358304555E+02 -0.17068293699E+02  0.24400372002E+02  0.00000000000E+00 0.  1.
</event>
<event>
 7    1  0.5897985E-013  0.5052885E+02  0.7816164E-02  0.1300439E+00
        -11   -1    0    0    0    0  0.00000000000E+00  0.00000000000E+00  0.45593999997E+02  0.45594000000E+02  0.51100000000E-03 0.  1.
         11   -1    0    0    0    0 -0.00000000000E+00 -0.00000000000E+00 -0.45593999997E+02  0.45594000000E+02  0.51100000000E-03 0. -1.
    9900012    2    1    2    0    0 -0.33020559292E+02  0.23689659907E+02 -0.12683721462E+01  0.50528854776E+02  0.29999984577E+02 0.  0.
         12    1    1    2    0    0  0.33020559292E+02 -0.23689659907E+02  0.12683721462E+01  0.40659145224E+02  0.00000000000E+00 0. -1.
         11    1    3    3    0    0  0.54182222455E+01  0.35309411714E+01 -0.13267289885E+01  0.66018851798E+01  0.51100000000E-03 0. -1.
        -11    1    3    3    0    0 -0.30168274712E+02  0.17984800758E+02 -0.18282833216E+01  0.35169880261E+02  0.51100000000E-03 0.  1.
         12    1    3    3    0    0 -0.82705068248E+01  0.21739179772E+01  0.18866401638E+01  0.87570893349E+01  0.00000000000E+00 0. -1.
</event>
<event>
 7    1  0.5897985E-013  0.5052885E+02  0.7816164E-02  0.1300439E+00
        -11   -1    0    0    0    0  0.00000000000E+00  0.00000000000E+00  0.45593999997E+02  0.45594000000E+02  0.51100000000E-03 0.  1.
         11   -1    0    0    0    0 -0.00000000000E+00 -0.00000000000E+00 -0.45593999997E+02  0.45594000000E+02  0.51100000000E-03 0. -1.
    9900012    2    1    2    0    0 -0.29525763116E+02 -0.27615153709E+02 -0.43358040925E+01  0.50528848520E+02  0.29999965562E+02 0.  0.
         12    1    1    2    0    0  0.29525763116E+02  0.27615153709E+02  0.43358040925E+01  0.40659151480E+02  0.00000000000E+00 0. -1.
         11    1    3    3    0    0 -0.71388470500E+01 -0.26662897529E+01 -0.81434314499E+01  0.11152924024E+02  0.51100000000E-03 0. -1.
        -11    1    3    3    0    0 -0.12554964555E+02 -0.36130691054E+01  0.82722681349E+01  0.15463241048E+02  0.51100000000E-03 0.  1.
        -12    1    3    3    0    0 -0.98319515105E+01 -0.21335794851E+02 -0.44646407776E+01  0.23912683448E+02  0.00000000000E+00 0.  1.
</event>
<event>
 7    1  0.5897985E-013  0.5052887E+02  0.7816164E-02  0.1300439E+00
        -11   -1    0    0    0    0  0.00000000000E+00  0.00000000000E+00  0.45593999997E+02  0.45594000000E+02  0.51100000000E-03 0.  1.
         11   -1    0    0    0    0 -0.00000000000E+00 -0.00000000000E+00 -0.45593999997E+02  0.45594000000E+02  0.51100000000E-03 0. -1.
    9900012    2    1    2    0    0 -0.55926590291E+00 -0.33183905619E+02  0.23487878210E+02  0.50528870726E+02  0.30000033058E+02 0.  0.
         12    1    1    2    0    0  0.55926590291E+00  0.33183905619E+02 -0.23487878210E+02  0.40659129274E+02  0.00000000000E+00 0. -1.
         11    1    3    3    0    0  0.11290024644E+02 -0.58465598349E+01  0.34538230133E+01  0.13174817343E+02  0.51100000000E-03 0. -1.
        -11    1    3    3    0    0 -0.73409398137E+01 -0.22145214584E+02  0.10463138307E+02  0.25569067050E+02  0.51100000000E-03 0.  1.
         12    1    3    3    0    0 -0.45083507332E+01 -0.51921312005E+01  0.95709168903E+01  0.11784986333E+02  0.00000000000E+00 0. -1.
</event>
<event>
 7    1  0.5897985E-013  0.5052885E+02  0.7816164E-02  0.1300439E+00
        -11   -1    0    0    0    0  0.00000000000E+00  0.00000000000E+00  0.45593999997E+02  0.45594000000E+02  0.51100000000E-03 0. -1.
         11   -1    0    0    0    0 -0.00000000000E+00 -0.00000000000E+00 -0.45593999997E+02  0.45594000000E+02  0.51100000000E-03 0.  1.
    9900012    2    1    2    0    0 -0.31981677834E+02  0.23540536694E+02 -0.87282168956E+01  0.50528851520E+02  0.29999974680E+02 0.  0.
         12    1    1    2    0    0  0.31981677834E+02 -0.23540536694E+02  0.87282168956E+01  0.40659148480E+02  0.00000000000E+00 0. -1.
         11    1    3    3    0    0  0.14247132213E+00 -0.52536008307E+01 -0.23539095688E+01  0.57586031540E+01  0.51100000000E-03 0. -1.
        -11    1    3    3    0    0 -0.90432281611E+01  0.12912638295E+02 -0.56423118387E+01  0.16743711848E+02  0.51100000000E-03 0.  1.
         12    1    3    3    0    0 -0.23080920995E+02  0.15881499230E+02 -0.73199548808E+00  0.28026536518E+02  0.00000000000E+00 0. -1.
</event>
<event>
 7    1  0.5897985E-013  0.5052887E+02  0.7816164E-02  0.1300439E+00
        -11   -1    0    0    0    0  0.00000000000E+00  0.00000000000E+00  0.45593999997E+02  0.45594000000E+02  0.51100000000E-03 0.  1.
         11   -1    0    0    0    0 -0.00000000000E+00 -0.00000000000E+00 -0.45593999997E+02  0.45594000000E+02  0.51100000000E-03 0. -1.
    9900012    2    1    2    0    0  0.40022848157E+02  0.28904692911E+01 -0.65560442094E+01  0.50528869378E+02  0.30000028960E+02 0.  0.
         12    1    1    2    0    0 -0.40022848157E+02 -0.28904692911E+01  0.65560442094E+01  0.40659130622E+02  0.00000000000E+00 0. -1.
         11    1    3    3    0    0  0.16837496665E+01  0.46070634914E+01  0.10000153416E+01  0.50060041848E+01  0.51100000000E-03 0. -1.
        -11    1    3    3    0    0  0.29937053860E+02 -0.11411415095E+02 -0.60684604916E+01  0.32607879435E+02  0.51100000000E-03 0.  1.
        -12    1    3    3    0    0  0.84020446304E+01  0.96948208949E+01 -0.14875990595E+01  0.12914985758E+02  0.00000000000E+00 0.  1.
</event>
<event>
 7    1  0.5897985E-013  0.5052886E+02  0.7816164E-02  0.1300439E+00
        -11   -1    0    0    0    0  0.00000000000E+00  0.00000000000E+00  0.45593999997E+02  0.45594000000E+02  0.51100000000E-03 0. -1.
         11   -1    0    0    0    0 -0.00000000000E+00 -0.00000000000E+00 -0.45593999997E+02  0.45594000000E+02  0.51100000000E-03 0.  1.
    9900012    2    1    2    0    0  0.20605051865E+02  0.54414567274E+01 -0.34626407674E+02  0.50528859305E+02  0.29999998343E+02 0.  0.
         12    1    1    2    0    0 -0.20605051865E+02 -0.54414567274E+01  0.34626407674E+02  0.40659140695E+02  0.00000000000E+00 0. -1.
         11    1    3    3    0    0  0.81358287120E+01  0.32532489252E+01  0.35039769471E+01  0.94367998870E+01  0.51100000000E-03 0. -1.
        -11    1    3    3    0    0  0.10258685835E+02  0.40634582222E+01 -0.21042406726E+02  0.23759949682E+02  0.51100000000E-03 0.  1.
         12    1    3    3    0    0  0.22105373173E+01 -0.18752504199E+01 -0.17087977895E+02  0.17332109736E+02  0.00000000000E+00 0. -1.
</event>
<event>
 7    1  0.5897985E-013  0.5052884E+02  0.7816164E-02  0.1300439E+00
        -11   -1    0    0    0    0  0.00000000000E+00  0.00000000000E+00  0.45593999997E+02  0.45594000000E+02  0.51100000000E-03 0. -1.
         11   -1    0    0    0    0 -0.00000000000E+00 -0.00000000000E+00 -0.45593999997E+02  0.45594000000E+02  0.51100000000E-03 0.  1.
    9900012    2    1    2    0    0  0.11304269483E+02  0.28473622240E+02 -0.26732626543E+02  0.50528843664E+02  0.29999950801E+02 0.  0.
         12    1    1    2    0    0 -0.11304269483E+02 -0.28473622240E+02  0.26732626543E+02  0.40659156336E+02  0.00000000000E+00 0. -1.
         11    1    3    3    0    0 -0.48621413250E+01  0.17725339594E+02 -0.18118109780E+02  0.25808796645E+02  0.51100000000E-03 0.  1.
        -11    1    3    3    0    0  0.51179985407E+01  0.97106364876E+01 -0.52853931645E+00  0.10989527930E+02  0.51100000000E-03 0. -1.
         12    1    3    3    0    0  0.11048412268E+02  0.10376461589E+01 -0.80859774469E+01  0.13730519089E+02  0.00000000000E+00 0. -1.
</event>
<event>
 7    1  0.5897985E-013  0.5052886E+02  0.7816164E-02  0.1300439E+00
        -11   -1    0    0    0    0  0.00000000000E+00  0.00000000000E+00  0.45593999997E+02  0.45594000000E+02  0.51100000000E-03 0. -1.
         11   -1    0    0    0    0 -0.00000000000E+00 -0.00000000000E+00 -0.45593999997E+02  0.45594000000E+02  0.51100000000E-03 0.  1.
    9900012    2    1    2    0    0 -0.31474310306E+02  0.15390829346E+02 -0.20631436386E+02  0.50528855831E+02  0.29999987783E+02 0.  0.
         12    1    1    2    0    0  0.31474310306E+02 -0.15390829346E+02  0.20631436386E+02  0.40659144169E+02  0.00000000000E+00 0. -1.
         11    1    3    3    0    0 -0.21356265330E+02 -0.45237656826E+01 -0.11536675386E+02  0.24691079442E+02  0.51100000000E-03 0. -1.
        -11    1    3    3    0    0 -0.11599865987E+02  0.17439747933E+02 -0.64279897464E+01  0.21909375877E+02  0.51100000000E-03 0.  1.
         12    1    3    3    0    0  0.14818210110E+01  0.24748470961E+01 -0.26667712541E+01  0.39284005116E+01  0.00000000000E+00 0. -1.
</event>
<event>
 7    1  0.5897985E-013  0.5052886E+02  0.7816164E-02  0.1300439E+00
        -11   -1    0    0    0    0  0.00000000000E+00  0.00000000000E+00  0.45593999997E+02  0.45594000000E+02  0.51100000000E-03 0. -1.
         11   -1    0    0    0    0 -0.00000000000E+00 -0.00000000000E+00 -0.45593999997E+02  0.45594000000E+02  0.51100000000E-03 0.  1.
    9900012    2    1    2    0    0  0.12942783981E+02  0.25634556074E+01 -0.38458793916E+02  0.50528858453E+02  0.29999995755E+02 0.  0.
         12    1    1    2    0    0 -0.12942783981E+02 -0.25634556074E+01  0.38458793916E+02  0.40659141547E+02  0.00000000000E+00 0. -1.
         11    1    3    3    0    0  0.11652603287E+02 -0.46451139141E+01 -0.71568860239E+01  0.14442342762E+02  0.51100000000E-03 0. -1.
        -11    1    3    3    0    0  0.11606097516E+01  0.58392659594E+01 -0.33207188933E+02  0.33736648308E+02  0.51100000000E-03 0.  1.
        -12    1    3    3    0    0  0.12957094228E+00  0.13693035621E+01  0.19052810409E+01  0.23498673833E+01  0.00000000000E+00 0.  1.
</event>
<event>
 7    1  0.5897985E-013  0.5052887E+02  0.7816164E-02  0.1300439E+00
        -11   -1    0    0    0    0  0.00000000000E+00  0.00000000000E+00  0.45593999997E+02  0.45594000000E+02  0.51100000000E-03 0.  1.
         11   -1    0    0    0    0 -0.00000000000E+00 -0.00000000000E+00 -0.45593999997E+02  0.45594000000E+02  0.51100000000E-03 0. -1.
    9900012    2    1    2    0    0 -0.12200100591E+02  0.69039347756E+00  0.38779453461E+02  0.50528866853E+02  0.30000021286E+02 0.  0.
         12    1    1    2    0    0  0.12200100591E+02 -0.69039347756E+00 -0.38779453461E+02  0.40659133147E+02  0.00000000000E+00 0. -1.
         11    1    3    3    0    0  0.60524381313E+01 -0.33184115620E+00  0.18171512736E+02  0.19155834653E+02  0.51100000000E-03 0. -1.
        -11    1    3    3    0    0 -0.11059647728E+02 -0.12318312581E+01  0.20133515642E+01  0.11308704652E+02  0.51100000000E-03 0.  1.
         12    1    3    3    0    0 -0.71928909939E+01  0.22540658918E+01  0.18594589161E+02  0.20064327548E+02  0.00000000000E+00 0. -1.
</event>
<event>
 7    1  0.5897985E-013  0.5052886E+02  0.7816164E-02  0.1300439E+00
        -11   -1    0    0    0    0  0.00000000000E+00  0.00000000000E+00  0.45593999997E+02  0.45594000000E+02  0.51100000000E-03 0.  1.
         11   -1    0    0    0    0 -0.00000000000E+00 -0.00000000000E+00 -0.45593999997E+02  0.45594000000E+02  0.51100000000E-03 0. -1.
    9900012    2    1    2    0    0 -0.34729466079E+02  0.16075907115E+02  0.13732991053E+02  0.50528860228E+02  0.30000001149E+02 0.  0.
         12    1    1    2    0    0  0.34729466079E+02 -0.16075907115E+02 -0.13732991053E+02  0.40659139772E+02  0.00000000000E+00 0. -1.
         11    1    3    3    0    0 -0.28203236755E+02  0.91220781205E+00 -0.59606484159E+00  0.28224279975E+02  0.51100000000E-03 0. -1.
        -11    1    3    3    0    0 -0.66544029688E+01  0.15376397588E+02  0.14343783795E+02  0.22055811376E+02  0.51100000000E-03 0.  1.
         12    1    3    3    0    0  0.12817364392E+00 -0.21269828456E+00 -0.14727900036E-01  0.24876887725E+00  0.00000000000E+00 0. -1.
</event>
<event>
 7    1  0.5897985E-013  0.5052884E+02  0.7816164E-02  0.1300439E+00
        -11   -1    0    0    0    0  0.00000000000E+00  0.00000000000E+00  0.45593999997E+02  0.45594000000E+02  0.51100000000E-03 0.  1.
         11   -1    0    0    0    0 -0.00000000000E+00 -0.00000000000E+00 -0.45593999997E+02  0.45594000000E+02  0.51100000000E-03 0. -1.
    9900012    2    1    2    0    0  0.58704469307E+01  0.14408230736E+01  0.40207326027E+02  0.50528841321E+02  0.29999943679E+02 0.  0.
         12    1    1    2    0    0 -0.58704469307E+01 -0.14408230736E+01 -0.40207326027E+02  0.40659158679E+02  0.00000000000E+00 0. -1.
         11    1    3    3    0    0 -0.25157342555E+00  0.11545663730E+02  0.10881662138E+02  0.15867457619E+02  0.51100000000E-03 0. -1.
        -11    1    3    3    0    0  0.97581957817E+01 -0.72377951402E+01  0.26709565810E+02  0.29342954340E+02  0.51100000000E-03 0.  1.
         12    1    3    3    0    0 -0.36361754254E+01 -0.28670455160E+01  0.26160980790E+01  0.53184293616E+01  0.00000000000E+00 0. -1.
</event>
<event>
 7    1  0.5897985E-013  0.5052886E+02  0.7816164E-02  0.1300439E+00
        -11   -1    0    0    0    0  0.00000000000E+00  0.00000000000E+00  0.45593999997E+02  0.45594000000E+02  0.51100000000E-03 0.  1.
         11   -1    0    0    0    0 -0.00000000000E+00 -0.00000000000E+00 -0.45593999997E+02  0.45594000000E+02  0.51100000000E-03 0. -1.
    9900012    2    1    2    0    0 -0.71501724668E+01 -0.26349843313E+02  0.30128493140E+02  0.50528864399E+02  0.30000013828E+02 0.  0.
         12    1    1    2    0    0  0.71501724668E+01  0.26349843313E+02 -0.30128493140E+02  0.40659135601E+02  0.00000000000E+00 0. -1.
         11    1    3    3    0    0  0.72478747871E+00 -0.28291053416E+01 -0.21117110235E+01  0.36039530561E+01  0.51100000000E-03 0. -1.
        -11    1    3    3    0    0 -0.12163559911E+02 -0.76760866972E+01  0.25301247589E+02  0.29103739047E+02  0.51100000000E-03 0.  1.
        -12    1    3    3    0    0  0.42885999657E+01 -0.15844651274E+02  0.69389565748E+01  0.17821172296E+02  0.00000000000E+00 0.  1.
</event>
<event>
 7    1  0.5897985E-013  0.5052878E+02  0.7816164E-02  0.1300439E+00
        -11   -1    0    0    0    0  0.00000000000E+00  0.00000000000E+00  0.45593999997E+02  0.45594000000E+02  0.51100000000E-03 0. -1.
         11   -1    0    0    0    0 -0.00000000000E+00 -0.00000000000E+00 -0.45593999997E+02  0.45594000000E+02  0.51100000000E-03 0.  1.
    9900012    2    1    2    0    0  0.26335988394E+02 -0.23054379586E+02 -0.20690181154E+02  0.50528778427E+02  0.29999752505E+02 0.  0.
         12    1    1    2    0    0 -0.26335988394E+02  0.23054379586E+02  0.20690181154E+02  0.40659221573E+02  0.00000000000E+00 0. -1.
         11    1    3    3    0    0  0.13735533515E+01 -0.19336401491E+02 -0.11811280504E+02  0.22699987199E+02  0.51100000000E-03 0. -1.
        -11    1    3    3    0    0  0.86884206615E+01 -0.42248999855E+01 -0.57689911959E+01  0.11252541631E+02  0.51100000000E-03 0.  1.
         12    1    3    3    0    0  0.16274014381E+02  0.50692189066E+00 -0.31099094535E+01  0.16576249597E+02  0.00000000000E+00 0. -1.
</event>
<event>
 7    1  0.5897985E-013  0.5052886E+02  0.7816164E-02  0.1300439E+00
        -11   -1    0    0    0    0  0.00000000000E+00  0.00000000000E+00  0.45593999997E+02  0.45594000000E+02  0.51100000000E-03 0. -1.
         11   -1    0    0    0    0 -0.00000000000E+00 -0.00000000000E+00 -0.45593999997E+02  0.45594000000E+02  0.51100000000E-03 0.  1.
    9900012    2    1    2    0    0 -0.29912948688E+02 -0.26491955503E+02  0.75204479269E+01  0.50528863971E+02  0.30000012526E+02 0.  0.
         12    1    1    2    0    0  0.29912948688E+02  0.26491955503E+02 -0.75204479269E+01  0.40659136029E+02  0.00000000000E+00 0. -1.
         11    1    3    3    0    0 -0.84664487582E+00 -0.41969493725E+01 -0.25880215449E+01  0.50029038926E+01  0.51100000000E-03 0. -1.
        -11    1    3    3    0    0 -0.21569385958E+02 -0.18772336101E+01  0.26725607765E+00  0.21652571272E+02  0.51100000000E-03 0.  1.
        -12    1    3    3    0    0 -0.74969178546E+01 -0.20417772521E+02  0.98412133941E+01  0.23873388806E+02  0.00000000000E+00 0.  1.
</event>
<event>
 7    1  0.6081324E-013  0.5052889E+02  0.7816164E-02  0.1300439E+00
        -11   -1    0    0    0    0  0.00000000000E+00  0.00000000000E+00  0.45593999997E+02  0.45594000000E+02  0.51100000000E-03 0. -1.
         11   -1    0    0    0    0 -0.00000000000E+00 -0.00000000000E+00 -0.45593999997E+02  0.45594000000E+02  0.51100000000E-03 0.  1.
    9900012    2    1    2    0    0 -0.25985374025E+02  0.31227441880E+02 -0.16645520631E+01  0.50528886346E+02  0.30000080537E+02 0.  0.
         12    1    1    2    0    0  0.25985374025E+02 -0.31227441880E+02  0.16645520631E+01  0.40659113654E+02  0.00000000000E+00 0. -1.
         11    1    3    3    0    0  0.55493358607E+00  0.95906387982E+00 -0.48090217795E+01  0.49350223452E+01  0.51100000000E-03 0. -1.
        -11    1    3    3    0    0 -0.17893481419E+02  0.16025229845E+02  0.11860937651E+02  0.26789298444E+02  0.51100000000E-03 0.  1.
        -12    1    3    3    0    0 -0.86468261915E+01  0.14243148154E+02 -0.87164679344E+01  0.18804565557E+02  0.00000000000E+00 0.  1.
</event>
<event>
 7    1  0.5897985E-013  0.5052887E+02  0.7816164E-02  0.1300439E+00
        -11   -1    0    0    0    0  0.00000000000E+00  0.00000000000E+00  0.45593999997E+02  0.45594000000E+02  0.51100000000E-03 0. -1.
         11   -1    0    0    0    0 -0.00000000000E+00 -0.00000000000E+00 -0.45593999997E+02  0.45594000000E+02  0.51100000000E-03 0.  1.
    9900012    2    1    2    0    0  0.51171994809E+01 -0.29787892451E+02 -0.27196709011E+02  0.50528865132E+02  0.30000016055E+02 0.  0.
         12    1    1    2    0    0 -0.51171994809E+01  0.29787892451E+02  0.27196709011E+02  0.40659134868E+02  0.00000000000E+00 0. -1.
         11    1    3    3    0    0 -0.47676942155E+01  0.23057982396E+01 -0.95266926425E+01  0.10899792962E+02  0.51100000000E-03 0. -1.
        -11    1    3    3    0    0  0.10965325069E+02 -0.21381675553E+02 -0.85054427429E+01  0.25490330713E+02  0.51100000000E-03 0.  1.
        -12    1    3    3    0    0 -0.10804313728E+01 -0.10712015137E+02 -0.91645736253E+01  0.14138741457E+02  0.00000000000E+00 0.  1.
</event>
<event>
 7    1  0.5897985E-013  0.5052886E+02  0.7816164E-02  0.1300439E+00
        -11   -1    0    0    0    0  0.00000000000E+00  0.00000000000E+00  0.45593999997E+02  0.45594000000E+02  0.51100000000E-03 0.  1.
         11   -1    0    0    0    0 -0.00000000000E+00 -0.00000000000E+00 -0.45593999997E+02  0.45594000000E+02  0.51100000000E-03 0. -1.
    9900012    2    1    2    0    0  0.27702613723E+02  0.35178716035E+01  0.29552588988E+02  0.50528859040E+02  0.29999997537E+02 0.  0.
         12    1    1    2    0    0 -0.27702613723E+02 -0.35178716035E+01 -0.29552588988E+02  0.40659140960E+02  0.00000000000E+00 0. -1.
         11    1    3    3    0    0  0.30682889903E+01  0.50113739261E+01 -0.40639711444E+01  0.71445173161E+01  0.51100000000E-03 0. -1.
        -11    1    3    3    0    0  0.17806563323E+02 -0.17806374150E+01  0.14339325081E+02  0.22931650857E+02  0.51100000000E-03 0.  1.
        -12    1    3    3    0    0  0.68277614097E+01  0.28713509241E+00  0.19277235052E+02  0.20452690867E+02  0.00000000000E+00 0.  1.
</event>
<event>
 7    1  0.5897985E-013  0.5052885E+02  0.7816164E-02  0.1300439E+00
        -11   -1    0    0    0    0  0.00000000000E+00  0.00000000000E+00  0.45593999997E+02  0.45594000000E+02  0.51100000000E-03 0. -1.
         11   -1    0    0    0    0 -0.00000000000E+00 -0.00000000000E+00 -0.45593999997E+02  0.45594000000E+02  0.51100000000E-03 0.  1.
    9900012    2    1    2    0    0 -0.20799712838E+02  0.22999324377E+02 -0.26297703594E+02  0.50528853547E+02  0.29999980841E+02 0.  0.
         12    1    1    2    0    0  0.20799712838E+02 -0.22999324377E+02  0.26297703594E+02  0.40659146453E+02  0.00000000000E+00 0. -1.
         11    1    3    3    0    0 -0.61268522578E+00  0.22839207347E+01  0.59821936827E+01  0.64325981241E+01  0.51100000000E-03 0. -1.
        -11    1    3    3    0    0 -0.14997478831E+02  0.15583965663E+02 -0.28783471461E+02  0.36003785727E+02  0.51100000000E-03 0.  1.
        -12    1    3    3    0    0 -0.51895487816E+01  0.51314379794E+01 -0.34964258163E+01  0.80924696961E+01  0.00000000000E+00 0.  1.
</event>
<event>
 7    1  0.5897985E-013  0.5052885E+02  0.7816164E-02  0.1300439E+00
        -11   -1    0    0    0    0  0.00000000000E+00  0.00000000000E+00  0.45593999997E+02  0.45594000000E+02  0.51100000000E-03 0. -1.
         11   -1    0    0    0    0 -0.00000000000E+00 -0.00000000000E+00 -0.45593999997E+02  0.45594000000E+02  0.51100000000E-03 0.  1.
    9900012    2    1    2    0    0  0.28877592628E+02  0.24287914436E+02 -0.15144261905E+02  0.50528845899E+02  0.29999957593E+02 0.  0.
         12    1    1    2    0    0 -0.28877592628E+02 -0.24287914436E+02  0.15144261905E+02  0.40659154101E+02  0.00000000000E+00 0. -1.
         11    1    3    3    0    0  0.77922240445E+01  0.29140793481E+01 -0.11592850225E+02  0.14269015054E+02  0.51100000000E-03 0. -1.
        -11    1    3    3    0    0  0.18204561233E+02  0.17993124148E+02  0.54973339122E+01  0.26179748790E+02  0.51100000000E-03 0.  1.
        -12    1    3    3    0    0  0.28808073498E+01  0.33807109399E+01 -0.90487455920E+01  0.10080082055E+02  0.00000000000E+00 0.  1.
</event>
<event>
 7    1  0.5897985E-013  0.5052886E+02  0.7816164E-02  0.1300439E+00
        -11   -1    0    0    0    0  0.00000000000E+00  0.00000000000E+00  0.45593999997E+02  0.45594000000E+02  0.51100000000E-03 0. -1.
         11   -1    0    0    0    0 -0.00000000000E+00 -0.00000000000E+00 -0.45593999997E+02  0.45594000000E+02  0.51100000000E-03 0.  1.
    9900012    2    1    2    0    0  0.17249236424E+02  0.15718879505E+02 -0.33294838149E+02  0.50528861083E+02  0.30000003748E+02 0.  0.
         12    1    1    2    0    0 -0.17249236424E+02 -0.15718879505E+02  0.33294838149E+02  0.40659138917E+02  0.00000000000E+00 0. -1.
         11    1    3    3    0    0  0.23021204437E+02  0.16838977404E+02 -0.17065910063E+02  0.33238115174E+02  0.51100000000E-03 0. -1.
        -11    1    3    3    0    0 -0.40314581678E+01 -0.31949160084E+00 -0.10645030352E+02  0.11387335127E+02  0.51100000000E-03 0.  1.
         12    1    3    3    0    0 -0.17405098450E+01 -0.80060629813E+00 -0.55838977339E+01  0.59034107826E+01  0.00000000000E+00 0. -1.
</event>
<event>
 7    1  0.5897985E-013  0.5052886E+02  0.7816164E-02  0.1300439E+00
        -11   -1    0    0    0    0  0.00000000000E+00  0.00000000000E+00  0.45593999997E+02  0.45594000000E+02  0.51100000000E-03 0.  1.
         11   -1    0    0    0    0 -0.00000000000E+00 -0.00000000000E+00 -0.45593999997E+02  0.45594000000E+02  0.51100000000E-03 0. -1.
    9900012    2    1    2    0    0 -0.77071828189E+01  0.26844970645E+01  0.39831624310E+02  0.50528862199E+02  0.30000007141E+02 0.  0.
         12    1    1    2    0    0  0.77071828189E+01 -0.26844970645E+01 -0.39831624310E+02  0.40659137801E+02  0.00000000000E+00 0. -1.
         11    1    3    3    0    0 -0.50190317114E+01 -0.34973416553E+01  0.17754062783E+01  0.63697838023E+01  0.51100000000E-03 0. -1.
        -11    1    3    3    0    0 -0.16514539467E+01  0.39197348798E+01  0.40469672362E+02  0.40692579213E+02  0.51100000000E-03 0.  1.
        -12    1    3    3    0    0 -0.10366971608E+01  0.22621038400E+01 -0.24134543302E+01  0.34664991837E+01  0.00000000000E+00 0.  1.
</event>
<event>
 7    1  0.5897985E-013  0.5052886E+02  0.7816164E-02  0.1300439E+00
        -11   -1    0    0    0    0  0.00000000000E+00  0.00000000000E+00  0.45593999997E+02  0.45594000000E+02  0.51100000000E-03 0.  1.
         11   -1    0    0    0    0 -0.00000000000E+00 -0.00000000000E+00 -0.45593999997E+02  0.45594000000E+02  0.51100000000E-03 0. -1.
    9900012    2    1    2    0    0 -0.15902522220E+02  0.34711983639E+02  0.13976903335E+02  0.50528857757E+02  0.29999993639E+02 0.  0.
         12    1    1    2    0    0  0.15902522220E+02 -0.34711983639E+02 -0.13976903335E+02  0.40659142243E+02  0.00000000000E+00 0. -1.
         11    1    3    3    0    0  0.55586675408E+01  0.45681225008E+01 -0.33690046230E+01  0.79446032262E+01  0.51100000000E-03 0. -1.
        -11    1    3    3    0    0 -0.11393221246E+02  0.16991463390E+02  0.15990140421E+02  0.25965359798E+02  0.51100000000E-03 0.  1.
         12    1    3    3    0    0 -0.10067968514E+02  0.13152397748E+02  0.13557675365E+01  0.16618894733E+02  0.00000000000E+00 0. -1.
</event>
<event>
 7    1  0.5897985E-013  0.5052886E+02  0.7816164E-02  0.1300439E+00
        -11   -1    0    0    0    0  0.00000000000E+00  0.00000000000E+00  0.45593999997E+02  0.45594000000E+02  0.51100000000E-03 0.  1.
         11   -1    0    0    0    0 -0.00000000000E+00 -0.00000000000E+00 -0.45593999997E+02  0.45594000000E+02  0.51100000000E-03 0. -1.
    9900012    2    1    2    0    0 -0.20264269911E+02 -0.34329592507E+02  0.80002753197E+01  0.50528856355E+02  0.29999989377E+02 0.  0.
         12    1    1    2    0    0  0.20264269911E+02  0.34329592507E+02 -0.80002753197E+01  0.40659143645E+02  0.00000000000E+00 0. -1.
         11    1    3    3    0    0  0.53358623808E+01 -0.32187771503E+01 -0.16787218769E+01  0.64536858532E+01  0.51100000000E-03 0. -1.
        -11    1    3    3    0    0 -0.12235224803E+02 -0.54210133318E+01 -0.46786632917E+00  0.13390556773E+02  0.51100000000E-03 0.  1.
         12    1    3    3    0    0 -0.13364907489E+02 -0.25689802025E+02  0.10146863526E+02  0.30684613729E+02  0.00000000000E+00 0. -1.
</event>
<event>
 7    1  0.5897985E-013  0.5052885E+02  0.7816164E-02  0.1300439E+00
        -11   -1    0    0    0    0  0.00000000000E+00  0.00000000000E+00  0.45593999997E+02  0.45594000000E+02  0.51100000000E-03 0. -1.
         11   -1    0    0    0    0 -0.00000000000E+00 -0.00000000000E+00 -0.45593999997E+02  0.45594000000E+02  0.51100000000E-03 0.  1.
    9900012    2    1    2    0    0 -0.43208289466E+00 -0.39642560592E+02 -0.90248186159E+01  0.50528847808E+02  0.29999963397E+02 0.  0.
         12    1    1    2    0    0  0.43208289466E+00  0.39642560592E+02  0.90248186159E+01  0.40659152192E+02  0.00000000000E+00 0. -1.
         11    1    3    3    0    0 -0.98295793100E+01 -0.80206830390E+01  0.51815542021E+01  0.13704031890E+02  0.51100000000E-03 0. -1.
        -11    1    3    3    0    0  0.58490671023E+01 -0.95873560919E+01 -0.20695194433E+01  0.11419802704E+02  0.51100000000E-03 0.  1.
         12    1    3    3    0    0  0.35484293131E+01 -0.22034521461E+02 -0.12136853375E+02  0.25405013215E+02  0.00000000000E+00 0. -1.
</event>
<event>
 7    1  0.5897985E-013  0.5052887E+02  0.7816164E-02  0.1300439E+00
        -11   -1    0    0    0    0  0.00000000000E+00  0.00000000000E+00  0.45593999997E+02  0.45594000000E+02  0.51100000000E-03 0.  1.
         11   -1    0    0    0    0 -0.00000000000E+00 -0.00000000000E+00 -0.45593999997E+02  0.45594000000E+02  0.51100000000E-03 0. -1.
    9900012    2    1    2    0    0  0.15808277505E+02 -0.18119714604E+02  0.32786268255E+02  0.50528867187E+02  0.30000022303E+02 0.  0.
         12    1    1    2    0    0 -0.15808277505E+02  0.18119714604E+02 -0.32786268255E+02  0.40659132813E+02  0.00000000000E+00 0. -1.
         11    1    3    3    0    0  0.61726897529E+00  0.42242787871E+01  0.41555765460E+01  0.59577150779E+01  0.51100000000E-03 0. -1.
        -11    1    3    3    0    0  0.10384833266E+02 -0.23814559614E+02  0.14900667461E+02  0.29950090194E+02  0.51100000000E-03 0.  1.
        -12    1    3    3    0    0  0.48061752635E+01  0.14705662236E+01  0.13730024248E+02  0.14621061916E+02  0.00000000000E+00 0.  1.
</event>
<event>
 7    1  0.5897985E-013  0.5052886E+02  0.7816164E-02  0.1300439E+00
        -11   -1    0    0    0    0  0.00000000000E+00  0.00000000000E+00  0.45593999997E+02  0.45594000000E+02  0.51100000000E-03 0.  1.
         11   -1    0    0    0    0 -0.00000000000E+00 -0.00000000000E+00 -0.45593999997E+02  0.45594000000E+02  0.51100000000E-03 0. -1.
    9900012    2    1    2    0    0  0.84899265749E+01 -0.20348250868E+02  0.34161901200E+02  0.50528860065E+02  0.30000000654E+02 0.  0.
         12    1    1    2    0    0 -0.84899265749E+01  0.20348250868E+02 -0.34161901200E+02  0.40659139935E+02  0.00000000000E+00 0. -1.
         11    1    3    3    0    0 -0.75116606781E+01 -0.97548294122E+01  0.35431958317E+01  0.12811556501E+02  0.51100000000E-03 0. -1.
        -11    1    3    3    0    0  0.13659419394E+02 -0.12138797861E+02  0.29489902213E+02  0.34692715151E+02  0.51100000000E-03 0.  1.
         12    1    3    3    0    0  0.23421678586E+01  0.15453764055E+01  0.11288031550E+01  0.30245884142E+01  0.00000000000E+00 0. -1.
</event>
<event>
 7    1  0.5897985E-013  0.5052884E+02  0.7816164E-02  0.1300439E+00
        -11   -1    0    0    0    0  0.00000000000E+00  0.00000000000E+00  0.45593999997E+02  0.45594000000E+02  0.51100000000E-03 0.  1.
         11   -1    0    0    0    0 -0.00000000000E+00 -0.00000000000E+00 -0.45593999997E+02  0.45594000000E+02  0.51100000000E-03 0. -1.
    9900012    2    1    2    0    0  0.28476431324E+01  0.34849205854E+02 -0.20750690031E+02  0.50528839201E+02  0.29999937237E+02 0.  0.
         12    1    1    2    0    0 -0.28476431324E+01 -0.34849205854E+02  0.20750690031E+02  0.40659160799E+02  0.00000000000E+00 0. -1.
         11    1    3    3    0    0 -0.10182252571E+02  0.12233282099E+02 -0.12635985286E+02  0.20322391167E+02  0.51100000000E-03 0. -1.
        -11    1    3    3    0    0  0.72940961021E+01  0.14370360983E+02  0.16476739825E+01  0.16199566122E+02  0.51100000000E-03 0.  1.
         12    1    3    3    0    0  0.57357996009E+01  0.82455627716E+01 -0.97623787279E+01  0.14006881912E+02  0.00000000000E+00 0. -1.
</event>
<event>
 7    1  0.5897985E-013  0.5052884E+02  0.7816164E-02  0.1300439E+00
        -11   -1    0    0    0    0  0.00000000000E+00  0.00000000000E+00  0.45593999997E+02  0.45594000000E+02  0.51100000000E-03 0.  1.
         11   -1    0    0    0    0 -0.00000000000E+00 -0.00000000000E+00 -0.45593999997E+02  0.45594000000E+02  0.51100000000E-03 0. -1.
    9900012    2    1    2    0    0  0.18249682587E+02 -0.54596893610E+01  0.35920855526E+02  0.50528843784E+02  0.29999951167E+02 0.  0.
         12    1    1    2    0    0 -0.18249682587E+02  0.54596893610E+01 -0.35920855526E+02  0.40659156216E+02  0.00000000000E+00 0. -1.
         11    1    3    3    0    0 -0.13267491967E+01 -0.25971554491E+01  0.38819293632E+01  0.48553944948E+01  0.51100000000E-03 0. -1.
        -11    1    3    3    0    0  0.17797467360E+02  0.42221718835E+01  0.69905943678E+01  0.19581751446E+02  0.51100000000E-03 0.  1.
        -12    1    3    3    0    0  0.17789644245E+01 -0.70847057954E+01  0.25048331795E+02  0.26091697843E+02  0.00000000000E+00 0.  1.
</event>
<event>
 7    1  0.5897985E-013  0.5052887E+02  0.7816164E-02  0.1300439E+00
        -11   -1    0    0    0    0  0.00000000000E+00  0.00000000000E+00  0.45593999997E+02  0.45594000000E+02  0.51100000000E-03 0. -1.
         11   -1    0    0    0    0 -0.00000000000E+00 -0.00000000000E+00 -0.45593999997E+02  0.45594000000E+02  0.51100000000E-03 0.  1.
    9900012    2    1    2    0    0 -0.69127328350E+01 -0.29426573628E+02  0.27192942923E+02  0.50528865042E+02  0.30000015782E+02 0.  0.
         12    1    1    2    0    0  0.69127328350E+01  0.29426573628E+02 -0.27192942923E+02  0.40659134958E+02  0.00000000000E+00 0. -1.
         11    1    3    3    0    0 -0.76255651718E+01 -0.24416084356E+02  0.20270262238E+02  0.32637064067E+02  0.51100000000E-03 0. -1.
        -11    1    3    3    0    0  0.80849008150E+01 -0.17833589352E+01  0.47960668017E+01  0.95680848297E+01  0.51100000000E-03 0.  1.
        -12    1    3    3    0    0 -0.73720684782E+01 -0.32271303367E+01  0.21266138829E+01  0.83237161451E+01  0.00000000000E+00 0.  1.
</event>
<event>
 7    1  0.5897985E-013  0.5052881E+02  0.7816164E-02  0.1300439E+00
        -11   -1    0    0    0    0  0.00000000000E+00  0.00000000000E+00  0.45593999997E+02  0.45594000000E+02  0.51100000000E-03 0.  1.
         11   -1    0    0    0    0 -0.00000000000E+00 -0.00000000000E+00 -0.45593999997E+02  0.45594000000E+02  0.51100000000E-03 0. -1.
    9900012    2    1    2    0    0 -0.68961951547E+00 -0.33432798111E+02  0.23128808329E+02  0.50528814823E+02  0.29999863135E+02 0.  0.
         12    1    1    2    0    0  0.68961951547E+00  0.33432798111E+02 -0.23128808329E+02  0.40659185177E+02  0.00000000000E+00 0. -1.
         11    1    3    3    0    0 -0.59380192950E+01 -0.12216624860E+02  0.14325108173E+01  0.13658626711E+02  0.51100000000E-03 0. -1.
        -11    1    3    3    0    0  0.68567457728E+01 -0.22329750847E+02  0.24238720805E+02  0.33662268521E+02  0.51100000000E-03 0.  1.
        -12    1    3    3    0    0 -0.16083459932E+01  0.11135775970E+01 -0.25424232930E+01  0.32079195906E+01  0.00000000000E+00 0.  1.
</event>
<event>
 7    1  0.5897985E-013  0.5052889E+02  0.7816164E-02  0.1300439E+00
        -11   -1    0    0    0    0  0.00000000000E+00  0.00000000000E+00  0.45593999997E+02  0.45594000000E+02  0.51100000000E-03 0.  1.
         11   -1    0    0    0    0 -0.00000000000E+00 -0.00000000000E+00 -0.45593999997E+02  0.45594000000E+02  0.51100000000E-03 0. -1.
    9900012    2    1    2    0    0 -0.31723340503E+02 -0.13771742217E+02  0.21380645019E+02  0.50528890347E+02  0.30000092698E+02 0.  0.
         12    1    1    2    0    0  0.31723340503E+02  0.13771742217E+02 -0.21380645019E+02  0.40659109653E+02  0.00000000000E+00 0. -1.
         11    1    3    3    0    0 -0.15714610500E+02 -0.13469008878E+02  0.14483219330E+02  0.25261172296E+02  0.51100000000E-03 0. -1.
        -11    1    3    3    0    0 -0.18573083008E+02  0.42761651751E+01  0.55038364458E+01  0.19837772479E+02  0.51100000000E-03 0.  1.
        -12    1    3    3    0    0  0.25643530054E+01 -0.45788985140E+01  0.13935892432E+01  0.54299455721E+01  0.00000000000E+00 0.  1.
</event>
<event>
 7    1  0.5897985E-013  0.5052886E+02  0.7816164E-02  0.1300439E+00
        -11   -1    0    0    0    0  0.00000000000E+00  0.00000000000E+00  0.45593999997E+02  0.45594000000E+02  0.51100000000E-03 0.  1.
         11   -1    0    0    0    0 -0.00000000000E+00 -0.00000000000E+00 -0.45593999997E+02  0.45594000000E+02  0.51100000000E-03 0. -1.
    9900012    2    1    2    0    0 -0.10576009214E+02 -0.11010523799E+02  0.37683975956E+02  0.50528860203E+02  0.30000001072E+02 0.  0.
         12    1    1    2    0    0  0.10576009214E+02  0.11010523799E+02 -0.37683975956E+02  0.40659139797E+02  0.00000000000E+00 0. -1.
         11    1    3    3    0    0 -0.62791303623E+00  0.13513541527E+01 -0.16393679333E+01  0.22153916830E+01  0.51100000000E-03 0. -1.
        -11    1    3    3    0    0 -0.98022225089E+01 -0.18241178670E+01  0.35859862810E+02  0.37220165679E+02  0.51100000000E-03 0.  1.
        -12    1    3    3    0    0 -0.14587366866E+00 -0.10537760085E+02  0.34634810788E+01  0.11093302841E+02  0.00000000000E+00 0.  1.
</event>
<event>
 7    1  0.5897985E-013  0.5052887E+02  0.7816164E-02  0.1300439E+00
        -11   -1    0    0    0    0  0.00000000000E+00  0.00000000000E+00  0.45593999997E+02  0.45594000000E+02  0.51100000000E-03 0. -1.
         11   -1    0    0    0    0 -0.00000000000E+00 -0.00000000000E+00 -0.45593999997E+02  0.45594000000E+02  0.51100000000E-03 0.  1.
    9900012    2    1    2    0    0  0.14062995049E+02 -0.34496554208E+01 -0.37993382261E+02  0.50528867595E+02  0.30000023541E+02 0.  0.
         12    1    1    2    0    0 -0.14062995049E+02  0.34496554208E+01  0.37993382261E+02  0.40659132405E+02  0.00000000000E+00 0. -1.
         11    1    3    3    0    0  0.42094483958E+01 -0.76689311716E+01  0.51192260431E+00  0.87632200775E+01  0.51100000000E-03 0. -1.
        -11    1    3    3    0    0  0.10510151364E+02 -0.12436740131E+01 -0.23157121056E+02  0.25460994926E+02  0.51100000000E-03 0.  1.
         12    1    3    3    0    0 -0.65660471126E+00  0.54629497639E+01 -0.15348183809E+02  0.16304652591E+02  0.00000000000E+00 0. -1.
</event>
<event>
 7    1  0.5897985E-013  0.5052886E+02  0.7816164E-02  0.1300439E+00
        -11   -1    0    0    0    0  0.00000000000E+00  0.00000000000E+00  0.45593999997E+02  0.45594000000E+02  0.51100000000E-03 0. -1.
         11   -1    0    0    0    0 -0.00000000000E+00 -0.00000000000E+00 -0.45593999997E+02  0.45594000000E+02  0.51100000000E-03 0.  1.
    9900012    2    1    2    0    0  0.47391403204E+01 -0.32437759028E+02 -0.24051981140E+02  0.50528862546E+02  0.30000008195E+02 0.  0.
         12    1    1    2    0    0 -0.47391403204E+01  0.32437759028E+02  0.24051981140E+02  0.40659137454E+02  0.00000000000E+00 0. -1.
         11    1    3    3    0    0 -0.11887129053E+02 -0.94875386822E+01 -0.79876092626E+01  0.17179031677E+02  0.51100000000E-03 0. -1.
        -11    1    3    3    0    0  0.76715873977E+01 -0.15511313139E+02 -0.73163633940E+01  0.18787848787E+02  0.51100000000E-03 0.  1.
         12    1    3    3    0    0  0.89546819753E+01 -0.74389072074E+01 -0.87480084835E+01  0.14561982082E+02  0.00000000000E+00 0. -1.
</event>
<event>
 7    1  0.5897985E-013  0.5052886E+02  0.7816164E-02  0.1300439E+00
        -11   -1    0    0    0    0  0.00000000000E+00  0.00000000000E+00  0.45593999997E+02  0.45594000000E+02  0.51100000000E-03 0.  1.
         11   -1    0    0    0    0 -0.00000000000E+00 -0.00000000000E+00 -0.45593999997E+02  0.45594000000E+02  0.51100000000E-03 0. -1.
    9900012    2    1    2    0    0 -0.13145595970E+02 -0.15111202745E+02  0.35383760053E+02  0.50528860593E+02  0.30000002259E+02 0.  0.
         12    1    1    2    0    0  0.13145595970E+02  0.15111202745E+02 -0.35383760053E+02  0.40659139407E+02  0.00000000000E+00 0. -1.
         11    1    3    3    0    0  0.13788102319E+00  0.57011216341E+01  0.10603555357E+02  0.12039816674E+02  0.51100000000E-03 0. -1.
        -11    1    3    3    0    0 -0.14652481680E+02 -0.15839430336E+02  0.11960342257E+02  0.24670479524E+02  0.51100000000E-03 0.  1.
        -12    1    3    3    0    0  0.13690046875E+01 -0.49728940436E+01  0.12819862439E+02  0.13818564396E+02  0.00000000000E+00 0.  1.
</event>
<event>
 7    1  0.5897985E-013  0.5052884E+02  0.7816164E-02  0.1300439E+00
        -11   -1    0    0    0    0  0.00000000000E+00  0.00000000000E+00  0.45593999997E+02  0.45594000000E+02  0.51100000000E-03 0.  1.
         11   -1    0    0    0    0 -0.00000000000E+00 -0.00000000000E+00 -0.45593999997E+02  0.45594000000E+02  0.51100000000E-03 0. -1.
    9900012    2    1    2    0    0 -0.47662263462E+01 -0.70560880089E+01  0.39757536659E+02  0.50528843433E+02  0.29999950099E+02 0.  0.
         12    1    1    2    0    0  0.47662263462E+01  0.70560880089E+01 -0.39757536659E+02  0.40659156567E+02  0.00000000000E+00 0. -1.
         11    1    3    3    0    0 -0.87710913716E+01  0.34710340705E+01  0.36119506237E+02  0.37330936935E+02  0.51100000000E-03 0. -1.
        -11    1    3    3    0    0  0.57995396963E+00 -0.46219488940E+01 -0.12247559701E+01  0.48165117702E+01  0.51100000000E-03 0.  1.
         12    1    3    3    0    0  0.34249110558E+01 -0.59051731855E+01  0.48627863913E+01  0.83813947275E+01  0.00000000000E+00 0. -1.
</event>
<event>
 7    1  0.5897985E-013  0.5052885E+02  0.7816164E-02  0.1300439E+00
        -11   -1    0    0    0    0  0.00000000000E+00  0.00000000000E+00  0.45593999997E+02  0.45594000000E+02  0.51100000000E-03 0.  1.
         11   -1    0    0    0    0 -0.00000000000E+00 -0.00000000000E+00 -0.45593999997E+02  0.45594000000E+02  0.51100000000E-03 0. -1.
    9900012    2    1    2    0    0  0.23498139115E+01  0.34197265457E+02  0.21867601698E+02  0.50528848581E+02  0.29999965746E+02 0.  0.
         12    1    1    2    0    0 -0.23498139115E+01 -0.34197265457E+02 -0.21867601698E+02  0.40659151419E+02  0.00000000000E+00 0. -1.
         11    1    3    3    0    0 -0.95254978234E+01  0.37206182229E+01 -0.37628542657E+00  0.10233264373E+02  0.51100000000E-03 0. -1.
        -11    1    3    3    0    0  0.65673830835E+01  0.25470156434E+02  0.17433989286E+02  0.31556352324E+02  0.51100000000E-03 0.  1.
         12    1    3    3    0    0  0.53079286513E+01  0.50064908000E+01  0.48098978380E+01  0.87392318833E+01  0.00000000000E+00 0. -1.
</event>
<event>
 7    1  0.5897985E-013  0.5052886E+02  0.7816164E-02  0.1300439E+00
        -11   -1    0    0    0    0  0.00000000000E+00  0.00000000000E+00  0.45593999997E+02  0.45594000000E+02  0.51100000000E-03 0.  1.
         11   -1    0    0    0    0 -0.00000000000E+00 -0.00000000000E+00 -0.45593999997E+02  0.45594000000E+02  0.51100000000E-03 0. -1.
    9900012    2    1    2    0    0 -0.24481205165E+02 -0.27657360920E+02  0.16997251073E+02  0.50528861256E+02  0.30000004272E+02 0.  0.
         12    1    1    2    0    0  0.24481205165E+02  0.27657360920E+02 -0.16997251073E+02  0.40659138744E+02  0.00000000000E+00 0. -1.
         11    1    3    3    0    0  0.12163073384E+01 -0.34461809087E+01 -0.70860334711E+00  0.37225912160E+01  0.51100000000E-03 0. -1.
        -11    1    3    3    0    0 -0.12258564169E+02  0.33083990181E+01  0.48564247004E+01  0.13594217914E+02  0.51100000000E-03 0.  1.
        -12    1    3    3    0    0 -0.13438948334E+02 -0.27519579030E+02  0.12849429720E+02  0.33212052126E+02  0.00000000000E+00 0.  1.
</event>
<event>
 7    1  0.5897985E-013  0.5052885E+02  0.7816164E-02  0.1300439E+00
        -11   -1    0    0    0    0  0.00000000000E+00  0.00000000000E+00  0.45593999997E+02  0.45594000000E+02  0.51100000000E-03 0.  1.
         11   -1    0    0    0    0 -0.00000000000E+00 -0.00000000000E+00 -0.45593999997E+02  0.45594000000E+02  0.51100000000E-03 0. -1.
    9900012    2    1    2    0    0  0.34526145481E+02 -0.94444525480E+01  0.19285074046E+02  0.50528849902E+02  0.29999969762E+02 0.  0.
         12    1    1    2    0    0 -0.34526145481E+02  0.94444525480E+01 -0.19285074046E+02  0.40659150098E+02  0.00000000000E+00 0. -1.
         11    1    3    3    0    0  0.24583561456E+02 -0.56595379242E+01  0.23890837788E+02  0.34744121716E+02  0.51100000000E-03 0. -1.
        -11    1    3    3    0    0  0.11516012623E+02 -0.44909268800E+01 -0.58331922985E+01  0.13667959015E+02  0.51100000000E-03 0.  1.
         12    1    3    3    0    0 -0.15734285981E+01  0.70601225614E+00  0.12274285571E+01  0.21167691707E+01  0.00000000000E+00 0. -1.
</event>
<event>
 7    1  0.5897985E-013  0.5052885E+02  0.7816164E-02  0.1300439E+00
        -11   -1    0    0    0    0  0.00000000000E+00  0.00000000000E+00  0.45593999997E+02  0.45594000000E+02  0.51100000000E-03 0.  1.
         11   -1    0    0    0    0 -0.00000000000E+00 -0.00000000000E+00 -0.45593999997E+02  0.45594000000E+02  0.51100000000E-03 0. -1.
    9900012    2    1    2    0    0 -0.23631187134E+02 -0.93322922905E+01  0.31743373448E+02  0.50528850444E+02  0.29999971409E+02 0.  0.
         12    1    1    2    0    0  0.23631187134E+02  0.93322922905E+01 -0.31743373448E+02  0.40659149556E+02  0.00000000000E+00 0. -1.
         11    1    3    3    0    0  0.32545935254E+00 -0.61427699164E+01  0.14511360130E+01  0.63202327509E+01  0.51100000000E-03 0. -1.
        -11    1    3    3    0    0 -0.16316434463E+02  0.51855800688E+01  0.73765363939E+01  0.18642144825E+02  0.51100000000E-03 0.  1.
        -12    1    3    3    0    0 -0.76402120229E+01 -0.83751024429E+01  0.22915701041E+02  0.25566472868E+02  0.00000000000E+00 0.  1.
</event>
<event>
 7    1  0.5897985E-013  0.5052886E+02  0.7816164E-02  0.1300439E+00
        -11   -1    0    0    0    0  0.00000000000E+00  0.00000000000E+00  0.45593999997E+02  0.45594000000E+02  0.51100000000E-03 0. -1.
         11   -1    0    0    0    0 -0.00000000000E+00 -0.00000000000E+00 -0.45593999997E+02  0.45594000000E+02  0.51100000000E-03 0.  1.
    9900012    2    1    2    0    0  0.13047429520E+02  0.38062393469E+02 -0.58467551365E+01  0.50528858847E+02  0.29999996952E+02 0.  0.
         12    1    1    2    0    0 -0.13047429520E+02 -0.38062393469E+02  0.58467551365E+01  0.40659141153E+02  0.00000000000E+00 0. -1.
         11    1    3    3    0    0  0.48004486889E+00  0.34637624684E+02 -0.90199218614E+01  0.35796012033E+02  0.51100000000E-03 0. -1.
        -11    1    3    3    0    0  0.28279662151E+01  0.21753306240E+01  0.33754495488E+01  0.49115289020E+01  0.51100000000E-03 0.  1.
         12    1    3    3    0    0  0.97394184358E+01  0.12494381607E+01 -0.20228282380E+00  0.98213179119E+01  0.00000000000E+00 0. -1.
</event>
<event>
 7    1  0.5897985E-013  0.5052886E+02  0.7816164E-02  0.1300439E+00
        -11   -1    0    0    0    0  0.00000000000E+00  0.00000000000E+00  0.45593999997E+02  0.45594000000E+02  0.51100000000E-03 0.  1.
         11   -1    0    0    0    0 -0.00000000000E+00 -0.00000000000E+00 -0.45593999997E+02  0.45594000000E+02  0.51100000000E-03 0. -1.
    9900012    2    1    2    0    0  0.37930002789E+02  0.58439961934E+01  0.13428621299E+02  0.50528864827E+02  0.30000015127E+02 0.  0.
         12    1    1    2    0    0 -0.37930002789E+02 -0.58439961934E+01 -0.13428621299E+02  0.40659135173E+02  0.00000000000E+00 0. -1.
         11    1    3    3    0    0 -0.20692367316E+01 -0.52132680510E+01  0.45653614444E+01  0.72320418833E+01  0.51100000000E-03 0. -1.
        -11    1    3    3    0    0  0.12447806345E+02  0.76674906529E+01  0.31953553891E+01  0.14964912029E+02  0.51100000000E-03 0.  1.
         12    1    3    3    0    0  0.27551433175E+02  0.33897735915E+01  0.56679044652E+01  0.28331910914E+02  0.00000000000E+00 0. -1.
</event>
<event>
 7    1  0.5897985E-013  0.5052886E+02  0.7816164E-02  0.1300439E+00
        -11   -1    0    0    0    0  0.00000000000E+00  0.00000000000E+00  0.45593999997E+02  0.45594000000E+02  0.51100000000E-03 0.  1.
         11   -1    0    0    0    0 -0.00000000000E+00 -0.00000000000E+00 -0.45593999997E+02  0.45594000000E+02  0.51100000000E-03 0. -1.
    9900012    2    1    2    0    0 -0.30985908836E+02 -0.23428888965E+02  0.12005257372E+02  0.50528860940E+02  0.30000003313E+02 0.  0.
         12    1    1    2    0    0  0.30985908836E+02  0.23428888965E+02 -0.12005257372E+02  0.40659139060E+02  0.00000000000E+00 0. -1.
         11    1    3    3    0    0 -0.11981311345E+02  0.41085389833E+01  0.98725921504E+01  0.16059264932E+02  0.51100000000E-03 0. -1.
        -11    1    3    3    0    0 -0.18349150434E+02 -0.24733382054E+02  0.39734385676E+01  0.31051887604E+02  0.51100000000E-03 0.  1.
        -12    1    3    3    0    0 -0.65544705741E+00 -0.28040458951E+01 -0.18407733461E+01  0.34177084046E+01  0.00000000000E+00 0.  1.
</event>
<event>
 7    1  0.5897985E-013  0.5052888E+02  0.7816164E-02  0.1300439E+00
        -11   -1    0    0    0    0  0.00000000000E+00  0.00000000000E+00  0.45593999997E+02  0.45594000000E+02  0.51100000000E-03 0.  1.
         11   -1    0    0    0    0 -0.00000000000E+00 -0.00000000000E+00 -0.45593999997E+02  0.45594000000E+02  0.51100000000E-03 0. -1.
    9900012    2    1    2    0    0 -0.22019438847E+02  0.24631157593E+02  0.23698413976E+02  0.50528875114E+02  0.30000046398E+02 0.  0.
         12    1    1    2    0    0  0.22019438847E+02 -0.24631157593E+02 -0.23698413976E+02  0.40659124886E+02  0.00000000000E+00 0. -1.
         11    1    3    3    0    0 -0.21584437425E+01  0.47584810736E+01 -0.55985473503E+01  0.76580515937E+01  0.51100000000E-03 0. -1.
        -11    1    3    3    0    0 -0.17867539832E+02  0.21984034237E+02  0.27331633985E+02  0.39364513938E+02  0.51100000000E-03 0.  1.
        -12    1    3    3    0    0 -0.19934552719E+01 -0.21113577179E+01  0.19653273407E+01  0.35063095828E+01  0.00000000000E+00 0.  1.
</event>
<event>
 7    1  0.5897985E-013  0.5052887E+02  0.7816164E-02  0.1300439E+00
        -11   -1    0    0    0    0  0.00000000000E+00  0.00000000000E+00  0.45593999997E+02  0.45594000000E+02  0.51100000000E-03 0.  1.
         11   -1    0    0    0    0 -0.00000000000E+00 -0.00000000000E+00 -0.45593999997E+02  0.45594000000E+02  0.51100000000E-03 0. -1.
    9900012    2    1    2    0    0  0.22759821386E+02 -0.26363467510E+02 -0.20979105023E+02  0.50528871428E+02  0.30000035191E+02 0.  0.
         12    1    1    2    0    0 -0.22759821386E+02  0.26363467510E+02  0.20979105023E+02  0.40659128572E+02  0.00000000000E+00 0. -1.
         11    1    3    3    0    0  0.27640797372E+01  0.33487776726E+00 -0.30649407850E+01  0.41407900441E+01  0.51100000000E-03 0.  1.
        -11    1    3    3    0    0 -0.52669048793E+01 -0.12617989533E+02 -0.37143510019E+01  0.14168639684E+02  0.51100000000E-03 0. -1.
        -12    1    3    3    0    0  0.25262646528E+02 -0.14080355745E+02 -0.14199813237E+02  0.32219441700E+02  0.00000000000E+00 0.  1.
</event>
<event>
 7    1  0.5897985E-013  0.5052884E+02  0.7816164E-02  0.1300439E+00
        -11   -1    0    0    0    0  0.00000000000E+00  0.00000000000E+00  0.45593999997E+02  0.45594000000E+02  0.51100000000E-03 0.  1.
         11   -1    0    0    0    0 -0.00000000000E+00 -0.00000000000E+00 -0.45593999997E+02  0.45594000000E+02  0.51100000000E-03 0. -1.
    9900012    2    1    2    0    0  0.25193558148E+02  0.31094161188E+02 -0.71836703672E+01  0.50528839260E+02  0.29999937414E+02 0.  0.
         12    1    1    2    0    0 -0.25193558148E+02 -0.31094161188E+02  0.71836703672E+01  0.40659160740E+02  0.00000000000E+00 0. -1.
         11    1    3    3    0    0  0.97880622953E+01  0.11367244720E+02  0.59398237130E+01  0.16133874985E+02  0.51100000000E-03 0. -1.
        -11    1    3    3    0    0 -0.39382363631E+01  0.52535729452E+01 -0.67343685807E+01  0.94053949828E+01  0.51100000000E-03 0.  1.
        -12    1    3    3    0    0  0.19343732216E+02  0.14473343523E+02 -0.63891254995E+01  0.24989569292E+02  0.00000000000E+00 0.  1.
</event>
<event>
 7    1  0.5897985E-013  0.5052886E+02  0.7816164E-02  0.1300439E+00
        -11   -1    0    0    0    0  0.00000000000E+00  0.00000000000E+00  0.45593999997E+02  0.45594000000E+02  0.51100000000E-03 0. -1.
         11   -1    0    0    0    0 -0.00000000000E+00 -0.00000000000E+00 -0.45593999997E+02  0.45594000000E+02  0.51100000000E-03 0.  1.
    9900012    2    1    2    0    0  0.30411640590E+02 -0.18451173867E+02  0.19693955960E+02  0.50528860784E+02  0.30000002840E+02 0.  0.
         12    1    1    2    0    0 -0.30411640590E+02  0.18451173867E+02 -0.19693955960E+02  0.40659139216E+02  0.00000000000E+00 0. -1.
         11    1    3    3    0    0  0.12946046361E+02 -0.12273843509E+01  0.20048391735E+02  0.23896539501E+02  0.51100000000E-03 0. -1.
        -11    1    3    3    0    0  0.79046972197E+01 -0.17924843289E+01  0.19412658505E+01  0.83346116627E+01  0.51100000000E-03 0.  1.
         12    1    3    3    0    0  0.95608970096E+01 -0.15431305187E+02 -0.22957016257E+01  0.18297709620E+02  0.00000000000E+00 0. -1.
</event>
<event>
 7    1  0.5897985E-013  0.5052887E+02  0.7816164E-02  0.1300439E+00
        -11   -1    0    0    0    0  0.00000000000E+00  0.00000000000E+00  0.45593999997E+02  0.45594000000E+02  0.51100000000E-03 0. -1.
         11   -1    0    0    0    0 -0.00000000000E+00 -0.00000000000E+00 -0.45593999997E+02  0.45594000000E+02  0.51100000000E-03 0.  1.
    9900012    2    1    2    0    0  0.15106023065E+02  0.48761843912E+01 -0.37432552598E+02  0.50528866942E+02  0.30000021556E+02 0.  0.
         12    1    1    2    0    0 -0.15106023065E+02 -0.48761843912E+01  0.37432552598E+02  0.40659133058E+02  0.00000000000E+00 0. -1.
         11    1    3    3    0    0 -0.64535978093E+01  0.13516022444E+01 -0.13835625920E+02  0.15326457457E+02  0.51100000000E-03 0. -1.
        -11    1    3    3    0    0  0.75490568100E+01  0.79552584014E+01 -0.68852877958E+01  0.12949192378E+02  0.51100000000E-03 0.  1.
         12    1    3    3    0    0  0.14010564064E+02 -0.44306762546E+01 -0.16711638882E+02  0.22253217106E+02  0.00000000000E+00 0. -1.
</event>
<event>
 7    1  0.5897985E-013  0.5052883E+02  0.7816164E-02  0.1300439E+00
        -11   -1    0    0    0    0  0.00000000000E+00  0.00000000000E+00  0.45593999997E+02  0.45594000000E+02  0.51100000000E-03 0.  1.
         11   -1    0    0    0    0 -0.00000000000E+00 -0.00000000000E+00 -0.45593999997E+02  0.45594000000E+02  0.51100000000E-03 0. -1.
    9900012    2    1    2    0    0  0.21705751848E+02  0.17332263726E+01  0.34336918736E+02  0.50528834671E+02  0.29999923467E+02 0.  0.
         12    1    1    2    0    0 -0.21705751848E+02 -0.17332263726E+01 -0.34336918736E+02  0.40659165329E+02  0.00000000000E+00 0. -1.
         11    1    3    3    0    0 -0.72500883727E+01 -0.56132381306E+00  0.84104766677E+01  0.11118227551E+02  0.51100000000E-03 0. -1.
        -11    1    3    3    0    0  0.10226229888E+02 -0.21078357202E+01  0.92457790546E+01  0.13946439680E+02  0.51100000000E-03 0.  1.
         12    1    3    3    0    0  0.18729610333E+02  0.44023859058E+01  0.16680663013E+02  0.25464167441E+02  0.00000000000E+00 0. -1.
</event>
<event>
 7    1  0.5897985E-013  0.5052886E+02  0.7816164E-02  0.1300439E+00
        -11   -1    0    0    0    0  0.00000000000E+00  0.00000000000E+00  0.45593999997E+02  0.45594000000E+02  0.51100000000E-03 0. -1.
         11   -1    0    0    0    0 -0.00000000000E+00 -0.00000000000E+00 -0.45593999997E+02  0.45594000000E+02  0.51100000000E-03 0.  1.
    9900012    2    1    2    0    0  0.27050285393E+02 -0.27308475572E+02 -0.13254991381E+02  0.50528861121E+02  0.30000003863E+02 0.  0.
         12    1    1    2    0    0 -0.27050285393E+02  0.27308475572E+02  0.13254991381E+02  0.40659138879E+02  0.00000000000E+00 0. -1.
         11    1    3    3    0    0  0.46415520954E+01 -0.77419482107E+00  0.27101163994E+01  0.54302959989E+01  0.51100000000E-03 0. -1.
        -11    1    3    3    0    0  0.17445754503E+02 -0.23332678775E+02 -0.22111581972E+02  0.36574448821E+02  0.51100000000E-03 0.  1.
        -12    1    3    3    0    0  0.49629787949E+01 -0.32016019752E+01  0.61464741914E+01  0.85241163009E+01  0.00000000000E+00 0.  1.
</event>
<event>
 7    1  0.5897985E-013  0.5052886E+02  0.7816164E-02  0.1300439E+00
        -11   -1    0    0    0    0  0.00000000000E+00  0.00000000000E+00  0.45593999997E+02  0.45594000000E+02  0.51100000000E-03 0.  1.
         11   -1    0    0    0    0 -0.00000000000E+00 -0.00000000000E+00 -0.45593999997E+02  0.45594000000E+02  0.51100000000E-03 0. -1.
    9900012    2    1    2    0    0 -0.34920211154E+02  0.19465005545E+02 -0.74066061308E+01  0.50528863238E+02  0.30000010297E+02 0.  0.
         12    1    1    2    0    0  0.34920211154E+02 -0.19465005545E+02  0.74066061308E+01  0.40659136762E+02  0.00000000000E+00 0. -1.
         11    1    3    3    0    0 -0.11268788506E+02 -0.37049948228E+01 -0.80989547932E+01  0.14363343971E+02  0.51100000000E-03 0. -1.
        -11    1    3    3    0    0 -0.80403392395E+01  0.65810664022E+01  0.70008850192E+01  0.12528762165E+02  0.51100000000E-03 0.  1.
        -12    1    3    3    0    0 -0.15611083408E+02  0.16588933966E+02 -0.63085363567E+01  0.23636757102E+02  0.00000000000E+00 0.  1.
</event>
<event>
 7    1  0.5897985E-013  0.5052886E+02  0.7816164E-02  0.1300439E+00
        -11   -1    0    0    0    0  0.00000000000E+00  0.00000000000E+00  0.45593999997E+02  0.45594000000E+02  0.51100000000E-03 0.  1.
         11   -1    0    0    0    0 -0.00000000000E+00 -0.00000000000E+00 -0.45593999997E+02  0.45594000000E+02  0.51100000000E-03 0. -1.
    9900012    2    1    2    0    0  0.65695889329E+01 -0.67886599322E+01  0.39546430886E+02  0.50528860828E+02  0.30000002973E+02 0.  0.
         12    1    1    2    0    0 -0.65695889329E+01  0.67886599322E+01 -0.39546430886E+02  0.40659139172E+02  0.00000000000E+00 0. -1.
         11    1    3    3    0    0  0.10076687630E+02  0.50281172822E+01  0.90820635486E+01  0.14467393530E+02  0.51100000000E-03 0. -1.
        -11    1    3    3    0    0 -0.79452374751E+01 -0.15496354143E+01  0.13522901780E+02  0.15760616780E+02  0.51100000000E-03 0.  1.
        -12    1    3    3    0    0  0.44381387781E+01 -0.10267141800E+02  0.16941465556E+02  0.20300850518E+02  0.00000000000E+00 0.  1.
</event>
<event>
 7    1  0.5897985E-013  0.5052886E+02  0.7816164E-02  0.1300439E+00
        -11   -1    0    0    0    0  0.00000000000E+00  0.00000000000E+00  0.45593999997E+02  0.45594000000E+02  0.51100000000E-03 0.  1.
         11   -1    0    0    0    0 -0.00000000000E+00 -0.00000000000E+00 -0.45593999997E+02  0.45594000000E+02  0.51100000000E-03 0. -1.
    9900012    2    1    2    0    0  0.36510737035E+02 -0.16707821158E+02 -0.64016101680E+01  0.50528858107E+02  0.29999994703E+02 0.  0.
         12    1    1    2    0    0 -0.36510737035E+02  0.16707821158E+02  0.64016101680E+01  0.40659141893E+02  0.00000000000E+00 0. -1.
         11    1    3    3    0    0 -0.58225578322E+00 -0.85192235689E+01 -0.55800464340E+01  0.10200642650E+02  0.51100000000E-03 0. -1.
        -11    1    3    3    0    0  0.33738312614E+02 -0.26593047892E+01 -0.36803706173E+00  0.33844956663E+02  0.51100000000E-03 0.  1.
        -12    1    3    3    0    0  0.33546802045E+01 -0.55292927999E+01 -0.45352667229E+00  0.64832587935E+01  0.00000000000E+00 0.  1.
</event>
<event>
 7    1  0.5897985E-013  0.5052886E+02  0.7816164E-02  0.1300439E+00
        -11   -1    0    0    0    0  0.00000000000E+00  0.00000000000E+00  0.45593999997E+02  0.45594000000E+02  0.51100000000E-03 0. -1.
         11   -1    0    0    0    0 -0.00000000000E+00 -0.00000000000E+00 -0.45593999997E+02  0.45594000000E+02  0.51100000000E-03 0.  1.
    9900012    2    1    2    0    0  0.78415440376E+01 -0.39192672019E+02  0.74572113388E+01  0.50528863833E+02  0.30000012106E+02 0.  0.
         12    1    1    2    0    0 -0.78415440376E+01  0.39192672019E+02 -0.74572113388E+01  0.40659136167E+02  0.00000000000E+00 0. -1.
         11    1    3    3    0    0  0.90059795845E+00 -0.93521438023E+01  0.15647787804E+02  0.18251765224E+02  0.51100000000E-03 0. -1.
        -11    1    3    3    0    0  0.30037010373E+01 -0.20910227025E+02 -0.77693891624E+01  0.22508292302E+02  0.51100000000E-03 0.  1.
         12    1    3    3    0    0  0.39372450418E+01 -0.89303011921E+01 -0.42118730278E+00  0.97688063060E+01  0.00000000000E+00 0. -1.
</event>
<event>
 7    1  0.5897985E-013  0.5052885E+02  0.7816164E-02  0.1300439E+00
        -11   -1    0    0    0    0  0.00000000000E+00  0.00000000000E+00  0.45593999997E+02  0.45594000000E+02  0.51100000000E-03 0. -1.
         11   -1    0    0    0    0 -0.00000000000E+00 -0.00000000000E+00 -0.45593999997E+02  0.45594000000E+02  0.51100000000E-03 0.  1.
    9900012    2    1    2    0    0  0.28515686194E+02 -0.28599239761E+02 -0.47016218297E+01  0.50528854389E+02  0.29999983400E+02 0.  0.
         12    1    1    2    0    0 -0.28515686194E+02  0.28599239761E+02  0.47016218297E+01  0.40659145611E+02  0.00000000000E+00 0. -1.
         11    1    3    3    0    0  0.21195493714E+01 -0.13604958908E+01  0.34229808474E+01  0.42497337269E+01  0.51100000000E-03 0. -1.
        -11    1    3    3    0    0  0.31078729524E+02 -0.26240611128E+02 -0.63228033427E+01  0.41163514713E+02  0.51100000000E-03 0.  1.
        -12    1    3    3    0    0 -0.46825927014E+01 -0.99813274233E+00 -0.18017993345E+01  0.51156059485E+01  0.00000000000E+00 0.  1.
</event>
<event>
 7    1  0.5897985E-013  0.5052886E+02  0.7816164E-02  0.1300439E+00
        -11   -1    0    0    0    0  0.00000000000E+00  0.00000000000E+00  0.45593999997E+02  0.45594000000E+02  0.51100000000E-03 0.  1.
         11   -1    0    0    0    0 -0.00000000000E+00 -0.00000000000E+00 -0.45593999997E+02  0.45594000000E+02  0.51100000000E-03 0. -1.
    9900012    2    1    2    0    0 -0.20943141446E+01 -0.77740502951E+00  0.40597727062E+02  0.50528856466E+02  0.29999989714E+02 0.  0.
         12    1    1    2    0    0  0.20943141446E+01  0.77740502951E+00 -0.40597727062E+02  0.40659143534E+02  0.00000000000E+00 0. -1.
         11    1    3    3    0    0  0.26252229395E+01 -0.14872999757E+01 -0.16838879635E+00  0.30219549546E+01  0.51100000000E-03 0. -1.
        -11    1    3    3    0    0 -0.13659700209E+02 -0.26762534661E+01  0.30226554128E+02  0.33277534721E+02  0.51100000000E-03 0.  1.
        -12    1    3    3    0    0  0.89401631251E+01  0.33861484123E+01  0.10539561731E+02  0.14229366790E+02  0.00000000000E+00 0.  1.
</event>
<event>
 7    1  0.5897985E-013  0.5052886E+02  0.7816164E-02  0.1300439E+00
        -11   -1    0    0    0    0  0.00000000000E+00  0.00000000000E+00  0.45593999997E+02  0.45594000000E+02  0.51100000000E-03 0. -1.
         11   -1    0    0    0    0 -0.00000000000E+00 -0.00000000000E+00 -0.45593999997E+02  0.45594000000E+02  0.51100000000E-03 0.  1.
    9900012    2    1    2    0    0 -0.34837545528E+02  0.18334650557E+02  0.10166185472E+02  0.50528864293E+02  0.30000013504E+02 0.  0.
         12    1    1    2    0    0  0.34837545528E+02 -0.18334650557E+02 -0.10166185472E+02  0.40659135707E+02  0.00000000000E+00 0. -1.
         11    1    3    3    0    0 -0.16084378655E+02  0.64334842529E+01  0.13562695480E+02  0.22000992371E+02  0.51100000000E-03 0. -1.
        -11    1    3    3    0    0 -0.14919096094E+02  0.16543678877E+02 -0.31793289590E+01  0.22502908077E+02  0.51100000000E-03 0.  1.
         12    1    3    3    0    0 -0.38340707785E+01 -0.46425125727E+01 -0.21718104922E+00  0.60249638448E+01  0.00000000000E+00 0. -1.
</event>
<event>
 7    1  0.5897985E-013  0.5052886E+02  0.7816164E-02  0.1300439E+00
        -11   -1    0    0    0    0  0.00000000000E+00  0.00000000000E+00  0.45593999997E+02  0.45594000000E+02  0.51100000000E-03 0.  1.
         11   -1    0    0    0    0 -0.00000000000E+00 -0.00000000000E+00 -0.45593999997E+02  0.45594000000E+02  0.51100000000E-03 0. -1.
    9900012    2    1    2    0    0  0.89674638420E+01 -0.28355863121E+02  0.27725347677E+02  0.50528864681E+02  0.30000014684E+02 0.  0.
         12    1    1    2    0    0 -0.89674638420E+01  0.28355863121E+02 -0.27725347677E+02  0.40659135319E+02  0.00000000000E+00 0. -1.
         11    1    3    3    0    0 -0.83599168084E+01 -0.19115699375E+02  0.96887146782E+01  0.23003681532E+02  0.51100000000E-03 0. -1.
        -11    1    3    3    0    0  0.91854629378E+01 -0.59872208657E+01  0.56085486018E+01  0.12315655109E+02  0.51100000000E-03 0.  1.
         12    1    3    3    0    0  0.81419177126E+01 -0.32529428799E+01  0.12428084397E+02  0.15209528040E+02  0.00000000000E+00 0. -1.
</event>
<event>
 7    1  0.5897985E-013  0.5052886E+02  0.7816164E-02  0.1300439E+00
        -11   -1    0    0    0    0  0.00000000000E+00  0.00000000000E+00  0.45593999997E+02  0.45594000000E+02  0.51100000000E-03 0. -1.
         11   -1    0    0    0    0 -0.00000000000E+00 -0.00000000000E+00 -0.45593999997E+02  0.45594000000E+02  0.51100000000E-03 0.  1.
    9900012    2    1    2    0    0  0.15955497309E+02  0.37048368100E+02 -0.50996432055E+01  0.50528857928E+02  0.29999994157E+02 0.  0.
         12    1    1    2    0    0 -0.15955497309E+02 -0.37048368100E+02  0.50996432055E+01  0.40659142072E+02  0.00000000000E+00 0. -1.
         11    1    3    3    0    0  0.59710644475E+01  0.32690054784E+02  0.61416173574E+01  0.33793679238E+02  0.51100000000E-03 0. -1.
        -11    1    3    3    0    0  0.38874860344E+01 -0.10299913262E+01 -0.22478612697E+01  0.46072020087E+01  0.51100000000E-03 0.  1.
         12    1    3    3    0    0  0.60969468274E+01  0.53883046421E+01 -0.89933992932E+01  0.12127976681E+02  0.00000000000E+00 0. -1.
</event>
<event>
 7    1  0.5897985E-013  0.5052886E+02  0.7816164E-02  0.1300439E+00
        -11   -1    0    0    0    0  0.00000000000E+00  0.00000000000E+00  0.45593999997E+02  0.45594000000E+02  0.51100000000E-03 0. -1.
         11   -1    0    0    0    0 -0.00000000000E+00 -0.00000000000E+00 -0.45593999997E+02  0.45594000000E+02  0.51100000000E-03 0.  1.
    9900012    2    1    2    0    0  0.40372772691E+02  0.19686388966E+01 -0.43965331421E+01  0.50528858131E+02  0.29999994774E+02 0.  0.
         12    1    1    2    0    0 -0.40372772691E+02 -0.19686388966E+01  0.43965331421E+01  0.40659141869E+02  0.00000000000E+00 0. -1.
         11    1    3    3    0    0  0.36162524082E+01  0.83665365579E+01 -0.26675378187E+01  0.94969454947E+01  0.51100000000E-03 0.  1.
        -11    1    3    3    0    0  0.25112964480E+02 -0.60790837132E+01  0.66536378406E+01  0.26681213251E+02  0.51100000000E-03 0. -1.
        -12    1    3    3    0    0  0.11643555803E+02 -0.31881394801E+00 -0.83826331640E+01  0.14350699385E+02  0.00000000000E+00 0.  1.
</event>
<event>
 7    1  0.5897985E-013  0.5052886E+02  0.7816164E-02  0.1300439E+00
        -11   -1    0    0    0    0  0.00000000000E+00  0.00000000000E+00  0.45593999997E+02  0.45594000000E+02  0.51100000000E-03 0.  1.
         11   -1    0    0    0    0 -0.00000000000E+00 -0.00000000000E+00 -0.45593999997E+02  0.45594000000E+02  0.51100000000E-03 0. -1.
    9900012    2    1    2    0    0 -0.17025518569E+01  0.95821632250E+01  0.39477202750E+02  0.50528855003E+02  0.29999985267E+02 0.  0.
         12    1    1    2    0    0  0.17025518569E+01 -0.95821632250E+01 -0.39477202750E+02  0.40659144997E+02  0.00000000000E+00 0. -1.
         11    1    3    3    0    0 -0.12773406640E+02 -0.59726408874E+00  0.16294485632E+02  0.20712964632E+02  0.51100000000E-03 0. -1.
        -11    1    3    3    0    0  0.87434096234E+01  0.32650204947E+01  0.58619521665E+01  0.11021345387E+02  0.51100000000E-03 0.  1.
         12    1    3    3    0    0  0.23274451598E+01  0.69144068190E+01  0.17320764952E+02  0.18794544984E+02  0.00000000000E+00 0. -1.
</event>
<event>
 7    1  0.5897985E-013  0.5052886E+02  0.7816164E-02  0.1300439E+00
        -11   -1    0    0    0    0  0.00000000000E+00  0.00000000000E+00  0.45593999997E+02  0.45594000000E+02  0.51100000000E-03 0.  1.
         11   -1    0    0    0    0 -0.00000000000E+00 -0.00000000000E+00 -0.45593999997E+02  0.45594000000E+02  0.51100000000E-03 0. -1.
    9900012    2    1    2    0    0 -0.23786936383E+02 -0.27480136667E+02 -0.18226057359E+02  0.50528863012E+02  0.30000009611E+02 0.  0.
         12    1    1    2    0    0  0.23786936383E+02  0.27480136667E+02  0.18226057359E+02  0.40659136988E+02  0.00000000000E+00 0. -1.
         11    1    3    3    0    0 -0.58800787269E+01 -0.41820780840E+01 -0.11285674912E+02  0.13395206659E+02  0.51100000000E-03 0. -1.
        -11    1    3    3    0    0 -0.69520829561E+01 -0.22909345505E+02  0.39468565296E+00  0.23944213203E+02  0.51100000000E-03 0.  1.
        -12    1    3    3    0    0 -0.10954774700E+02 -0.38871307826E+00 -0.73350680999E+01  0.13189443150E+02  0.00000000000E+00 0.  1.
</event>
<event>
 7    1  0.5897985E-013  0.5052887E+02  0.7816164E-02  0.1300439E+00
        -11   -1    0    0    0    0  0.00000000000E+00  0.00000000000E+00  0.45593999997E+02  0.45594000000E+02  0.51100000000E-03 0.  1.
         11   -1    0    0    0    0 -0.00000000000E+00 -0.00000000000E+00 -0.45593999997E+02  0.45594000000E+02  0.51100000000E-03 0. -1.
    9900012    2    1    2    0    0  0.14871868762E+02  0.30864065972E+02  0.21895249902E+02  0.50528867975E+02  0.30000024696E+02 0.  0.
         12    1    1    2    0    0 -0.14871868762E+02 -0.30864065972E+02 -0.21895249902E+02  0.40659132025E+02  0.00000000000E+00 0. -1.
         11    1    3    3    0    0  0.38405984455E+01 -0.19335710465E+01  0.31627126973E+01  0.53377565773E+01  0.51100000000E-03 0. -1.
        -11    1    3    3    0    0  0.72217232540E+01  0.26057660278E+02  0.24364471645E+01  0.27149423952E+02  0.51100000000E-03 0.  1.
        -12    1    3    3    0    0  0.38095470620E+01  0.67399767409E+01  0.16296090040E+02  0.18041687445E+02  0.00000000000E+00 0.  1.
</event>
<event>
 7    1  0.5897985E-013  0.5052886E+02  0.7816164E-02  0.1300439E+00
        -11   -1    0    0    0    0  0.00000000000E+00  0.00000000000E+00  0.45593999997E+02  0.45594000000E+02  0.51100000000E-03 0. -1.
         11   -1    0    0    0    0 -0.00000000000E+00 -0.00000000000E+00 -0.45593999997E+02  0.45594000000E+02  0.51100000000E-03 0.  1.
    9900012    2    1    2    0    0 -0.31705367050E+02 -0.10473661801E+02 -0.23199948259E+02  0.50528862153E+02  0.30000006999E+02 0.  0.
         12    1    1    2    0    0  0.31705367050E+02  0.10473661801E+02  0.23199948259E+02  0.40659137847E+02  0.00000000000E+00 0. -1.
         11    1    3    3    0    0 -0.17487932260E+02 -0.17237384114E+02 -0.72400401491E+01  0.25600261081E+02  0.51100000000E-03 0. -1.
        -11    1    3    3    0    0 -0.14895192012E+02  0.53070929753E+01 -0.98920698246E+01  0.18651676241E+02  0.51100000000E-03 0.  1.
         12    1    3    3    0    0  0.67775722173E+00  0.14566293368E+01 -0.60678382850E+01  0.62769248306E+01  0.00000000000E+00 0. -1.
</event>
<event>
 7    1  0.5897985E-013  0.5052887E+02  0.7816164E-02  0.1300439E+00
        -11   -1    0    0    0    0  0.00000000000E+00  0.00000000000E+00  0.45593999997E+02  0.45594000000E+02  0.51100000000E-03 0.  1.
         11   -1    0    0    0    0 -0.00000000000E+00 -0.00000000000E+00 -0.45593999997E+02  0.45594000000E+02  0.51100000000E-03 0. -1.
    9900012    2    1    2    0    0  0.12858415465E+02 -0.23733511632E+02  0.30406359701E+02  0.50528866550E+02  0.30000020366E+02 0.  0.
         12    1    1    2    0    0 -0.12858415465E+02  0.23733511632E+02 -0.30406359701E+02  0.40659133450E+02  0.00000000000E+00 0. -1.
         11    1    3    3    0    0 -0.14271468572E+01  0.13575350842E+01 -0.35202048187E+01  0.40337937334E+01  0.51100000000E-03 0. -1.
        -11    1    3    3    0    0  0.11427777594E+02 -0.86210555695E+01  0.20756870341E+02  0.25214368254E+02  0.51100000000E-03 0.  1.
        -12    1    3    3    0    0  0.28577847281E+01 -0.16469991146E+02  0.13169694179E+02  0.21280704562E+02  0.00000000000E+00 0.  1.
</event>
<event>
 7    1  0.5897985E-013  0.5052886E+02  0.7816164E-02  0.1300439E+00
        -11   -1    0    0    0    0  0.00000000000E+00  0.00000000000E+00  0.45593999997E+02  0.45594000000E+02  0.51100000000E-03 0. -1.
         11   -1    0    0    0    0 -0.00000000000E+00 -0.00000000000E+00 -0.45593999997E+02  0.45594000000E+02  0.51100000000E-03 0.  1.
    9900012    2    1    2    0    0 -0.47631215478E+01  0.40221951063E+02 -0.35599686759E+01  0.50528855258E+02  0.29999986043E+02 0.  0.
         12    1    1    2    0    0  0.47631215478E+01 -0.40221951063E+02  0.35599686759E+01  0.40659144742E+02  0.00000000000E+00 0. -1.
         11    1    3    3    0    0 -0.94548300872E+00  0.28417440082E+01 -0.88652164919E+01  0.93574307819E+01  0.51100000000E-03 0. -1.
        -11    1    3    3    0    0 -0.36470059653E+01  0.27144268524E+02 -0.35733503938E+01  0.27620296876E+02  0.51100000000E-03 0.  1.
         12    1    3    3    0    0 -0.17063257370E+00  0.10235938531E+02  0.88785982098E+01  0.13551127601E+02  0.00000000000E+00 0. -1.
</event>
<event>
 7    1  0.5897985E-013  0.5052884E+02  0.7816164E-02  0.1300439E+00
        -11   -1    0    0    0    0  0.00000000000E+00  0.00000000000E+00  0.45593999997E+02  0.45594000000E+02  0.51100000000E-03 0.  1.
         11   -1    0    0    0    0 -0.00000000000E+00 -0.00000000000E+00 -0.45593999997E+02  0.45594000000E+02  0.51100000000E-03 0. -1.
    9900012    2    1    2    0    0  0.24429269057E+01  0.40585370161E+02 -0.16480860183E+00  0.50528839595E+02  0.29999938433E+02 0.  0.
         12    1    1    2    0    0 -0.24429269057E+01 -0.40585370161E+02  0.16480860183E+00  0.40659160405E+02  0.00000000000E+00 0. -1.
         11    1    3    3    0    0 -0.79195842274E+01  0.18832248418E+02 -0.64657408885E+00  0.20439947484E+02  0.51100000000E-03 0. -1.
        -11    1    3    3    0    0  0.79778490026E+01  0.46163592015E+00  0.29592262548E+01  0.85215141096E+01  0.51100000000E-03 0.  1.
        -12    1    3    3    0    0  0.23846621305E+01  0.21291485823E+02 -0.24774607678E+01  0.21567378002E+02  0.00000000000E+00 0.  1.
</event>
<event>
 7    1  0.5897985E-013  0.5052886E+02  0.7816164E-02  0.1300439E+00
        -11   -1    0    0    0    0  0.00000000000E+00  0.00000000000E+00  0.45593999997E+02  0.45594000000E+02  0.51100000000E-03 0.  1.
         11   -1    0    0    0    0 -0.00000000000E+00 -0.00000000000E+00 -0.45593999997E+02  0.45594000000E+02  0.51100000000E-03 0. -1.
    9900012    2    1    2    0    0  0.32884615036E+02 -0.87308325097E+01  0.22260731495E+02  0.50528861924E+02  0.30000006303E+02 0.  0.
         12    1    1    2    0    0 -0.32884615036E+02  0.87308325097E+01 -0.22260731495E+02  0.40659138076E+02  0.00000000000E+00 0. -1.
         11    1    3    3    0    0  0.20201170960E+02 -0.64271987720E+01  0.19038937791E+02  0.28493461437E+02  0.51100000000E-03 0.  1.
        -11    1    3    3    0    0  0.11009510131E+02  0.61223002125E+01 -0.64684857141E+00  0.12613892601E+02  0.51100000000E-03 0. -1.
        -12    1    3    3    0    0  0.16739339463E+01 -0.84259339502E+01  0.38686422753E+01  0.94215078859E+01  0.00000000000E+00 0.  1.
</event>
<event>
 7    1  0.5897985E-013  0.5052883E+02  0.7816164E-02  0.1300439E+00
        -11   -1    0    0    0    0  0.00000000000E+00  0.00000000000E+00  0.45593999997E+02  0.45594000000E+02  0.51100000000E-03 0. -1.
         11   -1    0    0    0    0 -0.00000000000E+00 -0.00000000000E+00 -0.45593999997E+02  0.45594000000E+02  0.51100000000E-03 0.  1.
    9900012    2    1    2    0    0 -0.57586025926E+01 -0.25421588173E+02 -0.31204963690E+02  0.50528826276E+02  0.29999897949E+02 0.  0.
         12    1    1    2    0    0  0.57586025926E+01  0.25421588173E+02  0.31204963690E+02  0.40659173724E+02  0.00000000000E+00 0. -1.
         11    1    3    3    0    0 -0.90376278730E+01 -0.35455743930E+01 -0.56380986278E+01  0.11226663429E+02  0.51100000000E-03 0. -1.
        -11    1    3    3    0    0  0.10390918188E+02 -0.12222176492E+02 -0.77245458292E+01  0.17805094426E+02  0.51100000000E-03 0.  1.
        -12    1    3    3    0    0 -0.71118929079E+01 -0.96538372875E+01 -0.17842319233E+02  0.21497068421E+02  0.00000000000E+00 0.  1.
</event>
<event>
 7    1  0.5897985E-013  0.5052889E+02  0.7816164E-02  0.1300439E+00
        -11   -1    0    0    0    0  0.00000000000E+00  0.00000000000E+00  0.45593999997E+02  0.45594000000E+02  0.51100000000E-03 0. -1.
         11   -1    0    0    0    0 -0.00000000000E+00 -0.00000000000E+00 -0.45593999997E+02  0.45594000000E+02  0.51100000000E-03 0.  1.
    9900012    2    1    2    0    0  0.81312408841E+01 -0.20306594033E+02 -0.34273733193E+02  0.50528885074E+02  0.30000076672E+02 0.  0.
         12    1    1    2    0    0 -0.81312408841E+01  0.20306594033E+02  0.34273733193E+02  0.40659114926E+02  0.00000000000E+00 0. -1.
         11    1    3    3    0    0 -0.34428429162E+01 -0.14929703231E+02 -0.93178357369E+01  0.17932408343E+02  0.51100000000E-03 0. -1.
        -11    1    3    3    0    0  0.47443869647E+01 -0.45576908186E+00 -0.23592114170E+02  0.24068751202E+02  0.51100000000E-03 0.  1.
         12    1    3    3    0    0  0.68296968357E+01 -0.49211217202E+01 -0.13637832858E+01  0.85277255293E+01  0.00000000000E+00 0. -1.
</event>
<event>
 7    1  0.5897985E-013  0.5052886E+02  0.7816164E-02  0.1300439E+00
        -11   -1    0    0    0    0  0.00000000000E+00  0.00000000000E+00  0.45593999997E+02  0.45594000000E+02  0.51100000000E-03 0.  1.
         11   -1    0    0    0    0 -0.00000000000E+00 -0.00000000000E+00 -0.45593999997E+02  0.45594000000E+02  0.51100000000E-03 0. -1.
    9900012    2    1    2    0    0 -0.17802028821E+00 -0.18841152556E+02  0.36029779232E+02  0.50528859424E+02  0.29999998705E+02 0.  0.
         12    1    1    2    0    0  0.17802028821E+00  0.18841152556E+02 -0.36029779232E+02  0.40659140576E+02  0.00000000000E+00 0. -1.
         11    1    3    3    0    0  0.29855635100E+01 -0.14744569042E+02  0.80428814875E+01  0.17058834913E+02  0.51100000000E-03 0.  1.
        -11    1    3    3    0    0 -0.96907469953E+01 -0.13922044361E+00  0.20971806332E+02  0.23102956970E+02  0.51100000000E-03 0. -1.
        -12    1    3    3    0    0  0.65271631971E+01 -0.39573630697E+01  0.70150914126E+01  0.10367067541E+02  0.00000000000E+00 0.  1.
</event>
<event>
 7    1  0.5897985E-013  0.5052886E+02  0.7816164E-02  0.1300439E+00
        -11   -1    0    0    0    0  0.00000000000E+00  0.00000000000E+00  0.45593999997E+02  0.45594000000E+02  0.51100000000E-03 0. -1.
         11   -1    0    0    0    0 -0.00000000000E+00 -0.00000000000E+00 -0.45593999997E+02  0.45594000000E+02  0.51100000000E-03 0.  1.
    9900012    2    1    2    0    0 -0.46684113093E+01 -0.37898993259E+02 -0.13965607381E+02  0.50528856579E+02  0.29999990056E+02 0.  0.
         12    1    1    2    0    0  0.46684113093E+01  0.37898993259E+02  0.13965607381E+02  0.40659143421E+02  0.00000000000E+00 0. -1.
         11    1    3    3    0    0 -0.68767410553E+00 -0.39935392368E+02 -0.94915080498E+01  0.41053589180E+02  0.51100000000E-03 0. -1.
        -11    1    3    3    0    0 -0.32693854812E+01 -0.19401836198E+01 -0.38082117107E+01  0.53810473514E+01  0.51100000000E-03 0.  1.
         12    1    3    3    0    0 -0.71135172263E+00  0.39765827284E+01 -0.66588762083E+00  0.40942200469E+01  0.00000000000E+00 0. -1.
</event>
<event>
 7    1  0.5897985E-013  0.5052888E+02  0.7816164E-02  0.1300439E+00
        -11   -1    0    0    0    0  0.00000000000E+00  0.00000000000E+00  0.45593999997E+02  0.45594000000E+02  0.51100000000E-03 0.  1.
         11   -1    0    0    0    0 -0.00000000000E+00 -0.00000000000E+00 -0.45593999997E+02  0.45594000000E+02  0.51100000000E-03 0. -1.
    9900012    2    1    2    0    0  0.29273708946E+02  0.24881709417E+02  0.13308440912E+02  0.50528879271E+02  0.30000059032E+02 0.  0.
         12    1    1    2    0    0 -0.29273708946E+02 -0.24881709417E+02 -0.13308440912E+02  0.40659120729E+02  0.00000000000E+00 0. -1.
         11    1    3    3    0    0 -0.23719075796E+01  0.17691105021E+01 -0.26660164113E+01  0.39828810302E+01  0.51100000000E-03 0. -1.
        -11    1    3    3    0    0  0.16876486754E+02  0.47296764902E+01  0.14793710802E+02  0.22935551540E+02  0.51100000000E-03 0.  1.
        -12    1    3    3    0    0  0.14769129772E+02  0.18382922425E+02  0.11807465204E+01  0.23610446701E+02  0.00000000000E+00 0.  1.
</event>
<event>
 7    1  0.5897985E-013  0.5052886E+02  0.7816164E-02  0.1300439E+00
        -11   -1    0    0    0    0  0.00000000000E+00  0.00000000000E+00  0.45593999997E+02  0.45594000000E+02  0.51100000000E-03 0.  1.
         11   -1    0    0    0    0 -0.00000000000E+00 -0.00000000000E+00 -0.45593999997E+02  0.45594000000E+02  0.51100000000E-03 0. -1.
    9900012    2    1    2    0    0 -0.19543334611E+02  0.27647065429E+02  0.22513625608E+02  0.50528862127E+02  0.30000006922E+02 0.  0.
         12    1    1    2    0    0  0.19543334611E+02 -0.27647065429E+02 -0.22513625608E+02  0.40659137873E+02  0.00000000000E+00 0. -1.
         11    1    3    3    0    0 -0.12090913735E+02 -0.17738446643E+01  0.12391386169E+02  0.17403539045E+02  0.51100000000E-03 0.  1.
        -11    1    3    3    0    0 -0.20568616071E+01  0.22676911785E+02  0.86833757469E+01  0.24369530615E+02  0.51100000000E-03 0. -1.
        -12    1    3    3    0    0 -0.53955592681E+01  0.67439983076E+01  0.14388636925E+01  0.87557924664E+01  0.00000000000E+00 0.  1.
</event>
<event>
 7    1  0.5897985E-013  0.5052888E+02  0.7816164E-02  0.1300439E+00
        -11   -1    0    0    0    0  0.00000000000E+00  0.00000000000E+00  0.45593999997E+02  0.45594000000E+02  0.51100000000E-03 0.  1.
         11   -1    0    0    0    0 -0.00000000000E+00 -0.00000000000E+00 -0.45593999997E+02  0.45594000000E+02  0.51100000000E-03 0. -1.
    9900012    2    1    2    0    0 -0.29399743441E+02 -0.50835596307E+01  0.27622035203E+02  0.50528876526E+02  0.30000050688E+02 0.  0.
         12    1    1    2    0    0  0.29399743441E+02  0.50835596307E+01 -0.27622035203E+02  0.40659123474E+02  0.00000000000E+00 0. -1.
         11    1    3    3    0    0 -0.28289644596E+02 -0.92710655931E+00  0.16054069629E+02  0.32540692522E+02  0.51100000000E-03 0. -1.
        -11    1    3    3    0    0 -0.52591410338E+01 -0.59642271062E+01  0.10778179421E+02  0.13394018115E+02  0.51100000000E-03 0.  1.
         12    1    3    3    0    0  0.41490421884E+01  0.18077740348E+01  0.78978615363E+00  0.45941658884E+01  0.00000000000E+00 0. -1.
</event>
<event>
 7    1  0.5897985E-013  0.5052886E+02  0.7816164E-02  0.1300439E+00
        -11   -1    0    0    0    0  0.00000000000E+00  0.00000000000E+00  0.45593999997E+02  0.45594000000E+02  0.51100000000E-03 0.  1.
         11   -1    0    0    0    0 -0.00000000000E+00 -0.00000000000E+00 -0.45593999997E+02  0.45594000000E+02  0.51100000000E-03 0. -1.
    9900012    2    1    2    0    0  0.13069536560E+02  0.25946420672E+02  0.28445316916E+02  0.50528860977E+02  0.30000003427E+02 0.  0.
         12    1    1    2    0    0 -0.13069536560E+02 -0.25946420672E+02 -0.28445316916E+02  0.40659139023E+02  0.00000000000E+00 0. -1.
         11    1    3    3    0    0  0.44657317028E+01  0.24606450016E+02  0.19075484522E+02  0.31453048375E+02  0.51100000000E-03 0. -1.
        -11    1    3    3    0    0  0.57836251174E+01 -0.62483124677E+01  0.45375573706E+01  0.96478575521E+01  0.51100000000E-03 0.  1.
        -12    1    3    3    0    0  0.28201797397E+01  0.75882831240E+01  0.48322750232E+01  0.94279550505E+01  0.00000000000E+00 0.  1.
</event>
<event>
 7    1  0.5897985E-013  0.5052886E+02  0.7816164E-02  0.1300439E+00
        -11   -1    0    0    0    0  0.00000000000E+00  0.00000000000E+00  0.45593999997E+02  0.45594000000E+02  0.51100000000E-03 0. -1.
         11   -1    0    0    0    0 -0.00000000000E+00 -0.00000000000E+00 -0.45593999997E+02  0.45594000000E+02  0.51100000000E-03 0.  1.
    9900012    2    1    2    0    0 -0.35322429838E+02  0.28526299121E+01 -0.19933745549E+02  0.50528858855E+02  0.29999996975E+02 0.  0.
         12    1    1    2    0    0  0.35322429838E+02 -0.28526299121E+01  0.19933745549E+02  0.40659141145E+02  0.00000000000E+00 0. -1.
         11    1    3    3    0    0  0.25915873390E+01 -0.31613798284E+01  0.20618050800E+00  0.40930621811E+01  0.51100000000E-03 0. -1.
        -11    1    3    3    0    0 -0.31501426886E+02 -0.39121078862E+00 -0.20104371077E+02  0.37372164487E+02  0.51100000000E-03 0.  1.
         12    1    3    3    0    0 -0.64125902906E+01  0.64052205291E+01 -0.35554979331E-01  0.90636321868E+01  0.00000000000E+00 0. -1.
</event>
<event>
 7    1  0.5897985E-013  0.5052886E+02  0.7816164E-02  0.1300439E+00
        -11   -1    0    0    0    0  0.00000000000E+00  0.00000000000E+00  0.45593999997E+02  0.45594000000E+02  0.51100000000E-03 0.  1.
         11   -1    0    0    0    0 -0.00000000000E+00 -0.00000000000E+00 -0.45593999997E+02  0.45594000000E+02  0.51100000000E-03 0. -1.
    9900012    2    1    2    0    0  0.20467817961E+02  0.33951321372E+02  0.90300719322E+01  0.50528855960E+02  0.29999988175E+02 0.  0.
         12    1    1    2    0    0 -0.20467817961E+02 -0.33951321372E+02 -0.90300719322E+01  0.40659144040E+02  0.00000000000E+00 0. -1.
         11    1    3    3    0    0  0.11731323584E+02  0.11053381922E+02 -0.91285303139E+01  0.18523802820E+02  0.51100000000E-03 0. -1.
        -11    1    3    3    0    0  0.54960706983E+01  0.18809465851E+02  0.92228097983E+01  0.21657862765E+02  0.51100000000E-03 0.  1.
         12    1    3    3    0    0  0.32404236782E+01  0.40884735994E+01  0.89357924478E+01  0.10347190375E+02  0.00000000000E+00 0. -1.
</event>
<event>
 7    1  0.5897985E-013  0.5052888E+02  0.7816164E-02  0.1300439E+00
        -11   -1    0    0    0    0  0.00000000000E+00  0.00000000000E+00  0.45593999997E+02  0.45594000000E+02  0.51100000000E-03 0. -1.
         11   -1    0    0    0    0 -0.00000000000E+00 -0.00000000000E+00 -0.45593999997E+02  0.45594000000E+02  0.51100000000E-03 0.  1.
    9900012    2    1    2    0    0 -0.14607637437E+02 -0.58593245325E+01 -0.37489323897E+02  0.50528878493E+02  0.30000056667E+02 0.  0.
         12    1    1    2    0    0  0.14607637437E+02  0.58593245325E+01  0.37489323897E+02  0.40659121507E+02  0.00000000000E+00 0. -1.
         11    1    3    3    0    0  0.11689433121E+01 -0.84404781745E+01 -0.74389892362E+01  0.11311350998E+02  0.51100000000E-03 0. -1.
        -11    1    3    3    0    0 -0.12461621686E+01  0.81907456886E+01 -0.48730843736E+01  0.96118773744E+01  0.51100000000E-03 0.  1.
        -12    1    3    3    0    0 -0.14530418580E+02 -0.56095920466E+01 -0.25177250287E+02  0.29605650121E+02  0.00000000000E+00 0.  1.
</event>
<event>
 7    1  0.5897985E-013  0.5052886E+02  0.7816164E-02  0.1300439E+00
        -11   -1    0    0    0    0  0.00000000000E+00  0.00000000000E+00  0.45593999997E+02  0.45594000000E+02  0.51100000000E-03 0.  1.
         11   -1    0    0    0    0 -0.00000000000E+00 -0.00000000000E+00 -0.45593999997E+02  0.45594000000E+02  0.51100000000E-03 0. -1.
    9900012    2    1    2    0    0  0.35555369473E+02 -0.13051378460E+02 -0.14786575978E+02  0.50528860717E+02  0.30000002636E+02 0.  0.
         12    1    1    2    0    0 -0.35555369473E+02  0.13051378460E+02  0.14786575978E+02  0.40659139283E+02  0.00000000000E+00 0. -1.
         11    1    3    3    0    0  0.42612163771E+01  0.32425161068E+01  0.30711419309E+01  0.61728266407E+01  0.51100000000E-03 0. -1.
        -11    1    3    3    0    0  0.27384277803E+02 -0.61284846207E+01 -0.18221369005E+02  0.33458560686E+02  0.51100000000E-03 0.  1.
        -12    1    3    3    0    0  0.39098752935E+01 -0.10165409946E+02  0.36365109612E+00  0.10897473391E+02  0.00000000000E+00 0.  1.
</event>
<event>
 7    1  0.5897985E-013  0.5052886E+02  0.7816164E-02  0.1300439E+00
        -11   -1    0    0    0    0  0.00000000000E+00  0.00000000000E+00  0.45593999997E+02  0.45594000000E+02  0.51100000000E-03 0.  1.
         11   -1    0    0    0    0 -0.00000000000E+00 -0.00000000000E+00 -0.45593999997E+02  0.45594000000E+02  0.51100000000E-03 0. -1.
    9900012    2    1    2    0    0  0.91380973203E+01 -0.77069362796E+01  0.38862116300E+02  0.50528858681E+02  0.29999996447E+02 0.  0.
         12    1    1    2    0    0 -0.91380973203E+01  0.77069362796E+01 -0.38862116300E+02  0.40659141319E+02  0.00000000000E+00 0. -1.
         11    1    3    3    0    0  0.13508206646E+01 -0.15544500060E+02  0.85015922258E+01  0.17768884861E+02  0.51100000000E-03 0. -1.
        -11    1    3    3    0    0  0.41565836385E+01  0.35610455382E+01  0.79092286912E+01  0.96184266707E+01  0.51100000000E-03 0.  1.
         12    1    3    3    0    0  0.36306930172E+01  0.42765182418E+01  0.22451295383E+02  0.23141547149E+02  0.00000000000E+00 0. -1.
</event>
<event>
 7    1  0.5897985E-013  0.5052886E+02  0.7816164E-02  0.1300439E+00
        -11   -1    0    0    0    0  0.00000000000E+00  0.00000000000E+00  0.45593999997E+02  0.45594000000E+02  0.51100000000E-03 0. -1.
         11   -1    0    0    0    0 -0.00000000000E+00 -0.00000000000E+00 -0.45593999997E+02  0.45594000000E+02  0.51100000000E-03 0.  1.
    9900012    2    1    2    0    0 -0.92145944199E+01 -0.37486569158E+02 -0.12767703989E+02  0.50528857330E+02  0.29999992340E+02 0.  0.
         12    1    1    2    0    0  0.92145944199E+01  0.37486569158E+02  0.12767703989E+02  0.40659142670E+02  0.00000000000E+00 0. -1.
         11    1    3    3    0    0  0.33779327023E+01 -0.19387762929E+02 -0.48416059777E+01  0.20266645737E+02  0.51100000000E-03 0. -1.
        -11    1    3    3    0    0 -0.14075333156E+02 -0.12219592316E+02 -0.12691694001E+02  0.22550222543E+02  0.51100000000E-03 0.  1.
        -12    1    3    3    0    0  0.14828060342E+01 -0.58792139124E+01  0.47655959905E+01  0.77119890500E+01  0.00000000000E+00 0.  1.
</event>
<event>
 7    1  0.5897985E-013  0.5052898E+02  0.7816164E-02  0.1300438E+00
        -11   -1    0    0    0    0  0.00000000000E+00  0.00000000000E+00  0.45593999997E+02  0.45594000000E+02  0.51100000000E-03 0.  1.
         11   -1    0    0    0    0 -0.00000000000E+00 -0.00000000000E+00 -0.45593999997E+02  0.45594000000E+02  0.51100000000E-03 0. -1.
    9900012    2    1    2    0    0  0.28115002076E+02 -0.28146359928E+02  0.83955133184E+01  0.50528984237E+02  0.30000378084E+02 0.  0.
         12    1    1    2    0    0 -0.28115002076E+02  0.28146359928E+02 -0.83955133184E+01  0.40659015763E+02  0.00000000000E+00 0. -1.
         11    1    3    3    0    0  0.35096394520E+01  0.22810291700E+01 -0.29584363951E+01  0.51257203710E+01  0.51100000000E-03 0. -1.
        -11    1    3    3    0    0  0.25343696577E+02 -0.17039529348E+02  0.84011446762E+01  0.31673770675E+02  0.51100000000E-03 0.  1.
        -12    1    3    3    0    0 -0.73833395268E+00 -0.13387859749E+02  0.29528050373E+01  0.13729493191E+02  0.00000000000E+00 0.  1.
</event>
<event>
 7    1  0.5897985E-013  0.5052885E+02  0.7816164E-02  0.1300439E+00
        -11   -1    0    0    0    0  0.00000000000E+00  0.00000000000E+00  0.45593999997E+02  0.45594000000E+02  0.51100000000E-03 0.  1.
         11   -1    0    0    0    0 -0.00000000000E+00 -0.00000000000E+00 -0.45593999997E+02  0.45594000000E+02  0.51100000000E-03 0. -1.
    9900012    2    1    2    0    0 -0.10323207886E+02  0.39240693212E+02  0.26011319868E+01  0.50528849585E+02  0.29999968800E+02 0.  0.
         12    1    1    2    0    0  0.10323207886E+02 -0.39240693212E+02 -0.26011319868E+01  0.40659150415E+02  0.00000000000E+00 0. -1.
         11    1    3    3    0    0 -0.44498490630E+01  0.13686421118E+02 -0.80965864908E+01  0.16512843267E+02  0.51100000000E-03 0. -1.
        -11    1    3    3    0    0  0.16503695576E+01 -0.25061678463E+01  0.22824068330E+01  0.37701429897E+01  0.51100000000E-03 0.  1.
        -12    1    3    3    0    0 -0.75237283801E+01  0.28060439941E+02  0.84153116447E+01  0.30245863329E+02  0.00000000000E+00 0.  1.
</event>
<event>
 7    1  0.5897985E-013  0.5052886E+02  0.7816164E-02  0.1300439E+00
        -11   -1    0    0    0    0  0.00000000000E+00  0.00000000000E+00  0.45593999997E+02  0.45594000000E+02  0.51100000000E-03 0. -1.
         11   -1    0    0    0    0 -0.00000000000E+00 -0.00000000000E+00 -0.45593999997E+02  0.45594000000E+02  0.51100000000E-03 0.  1.
    9900012    2    1    2    0    0  0.33184055532E+02  0.98752105824E+01 -0.21318175416E+02  0.50528856764E+02  0.29999990620E+02 0.  0.
         12    1    1    2    0    0 -0.33184055532E+02 -0.98752105824E+01  0.21318175416E+02  0.40659143236E+02  0.00000000000E+00 0. -1.
         11    1    3    3    0    0  0.56212207042E+01 -0.27855047132E+01 -0.76688048732E+01  0.99079628157E+01  0.51100000000E-03 0. -1.
        -11    1    3    3    0    0  0.21231726774E+02  0.12440230436E+02  0.10336802940E+01  0.24629536137E+02  0.51100000000E-03 0.  1.
        -12    1    3    3    0    0  0.63311080535E+01  0.22048485925E+00 -0.14683050837E+02  0.15991357811E+02  0.00000000000E+00 0.  1.
</event>
<event>
 7    1  0.5897985E-013  0.5052887E+02  0.7816164E-02  0.1300439E+00
        -11   -1    0    0    0    0  0.00000000000E+00  0.00000000000E+00  0.45593999997E+02  0.45594000000E+02  0.51100000000E-03 0.  1.
         11   -1    0    0    0    0 -0.00000000000E+00 -0.00000000000E+00 -0.45593999997E+02  0.45594000000E+02  0.51100000000E-03 0. -1.
    9900012    2    1    2    0    0 -0.21325298231E+02 -0.26398626357E+02  0.22394403371E+02  0.50528866702E+02  0.30000020828E+02 0.  0.
         12    1    1    2    0    0  0.21325298231E+02  0.26398626357E+02 -0.22394403371E+02  0.40659133298E+02  0.00000000000E+00 0. -1.
         11    1    3    3    0    0 -0.99978557346E+01 -0.12317622241E+01  0.10294193080E+02  0.14402943063E+02  0.51100000000E-03 0. -1.
        -11    1    3    3    0    0 -0.15586747861E+02 -0.24568448760E+02  0.12766937299E+02  0.31773417689E+02  0.51100000000E-03 0.  1.
        -12    1    3    3    0    0  0.42593053641E+01 -0.59841537284E+00 -0.66672700804E+00  0.43525059502E+01  0.00000000000E+00 0.  1.
</event>
<event>
 7    1  0.5897985E-013  0.5052886E+02  0.7816164E-02  0.1300439E+00
        -11   -1    0    0    0    0  0.00000000000E+00  0.00000000000E+00  0.45593999997E+02  0.45594000000E+02  0.51100000000E-03 0. -1.
         11   -1    0    0    0    0 -0.00000000000E+00 -0.00000000000E+00 -0.45593999997E+02  0.45594000000E+02  0.51100000000E-03 0.  1.
    9900012    2    1    2    0    0  0.27468295511E+01 -0.26578513350E+02 -0.30646427690E+02  0.50528856199E+02  0.29999988904E+02 0.  0.
         12    1    1    2    0    0 -0.27468295511E+01  0.26578513350E+02  0.30646427690E+02  0.40659143801E+02  0.00000000000E+00 0. -1.
         11    1    3    3    0    0 -0.84686424443E+01 -0.87128962738E+01 -0.45309504641E+01  0.12967728355E+02  0.51100000000E-03 0. -1.
        -11    1    3    3    0    0  0.15153112583E+02 -0.11212839070E+02 -0.21343765083E+02  0.28476321552E+02  0.51100000000E-03 0.  1.
        -12    1    3    3    0    0 -0.39376405875E+01 -0.66527780060E+01 -0.47717121423E+01  0.90848062920E+01  0.00000000000E+00 0.  1.
</event>
<event>
 7    1  0.5897985E-013  0.5052886E+02  0.7816164E-02  0.1300439E+00
        -11   -1    0    0    0    0  0.00000000000E+00  0.00000000000E+00  0.45593999997E+02  0.45594000000E+02  0.51100000000E-03 0. -1.
         11   -1    0    0    0    0 -0.00000000000E+00 -0.00000000000E+00 -0.45593999997E+02  0.45594000000E+02  0.51100000000E-03 0.  1.
    9900012    2    1    2    0    0 -0.20482513778E+02  0.19876946233E+02 -0.28957545693E+02  0.50528858164E+02  0.29999994876E+02 0.  0.
         12    1    1    2    0    0  0.20482513778E+02 -0.19876946233E+02  0.28957545693E+02  0.40659141836E+02  0.00000000000E+00 0. -1.
         11    1    3    3    0    0 -0.11754243752E+02  0.19638169484E+02 -0.11006671997E+02  0.25396196085E+02  0.51100000000E-03 0.  1.
        -11    1    3    3    0    0  0.57668853521E+00 -0.18629912088E+01  0.21380324427E+01  0.28938709194E+01  0.51100000000E-03 0. -1.
         12    1    3    3    0    0 -0.93049585616E+01  0.21017679575E+01 -0.20088906139E+02  0.22238791160E+02  0.00000000000E+00 0. -1.
</event>
<event>
 7    1  0.5897985E-013  0.5052886E+02  0.7816164E-02  0.1300439E+00
        -11   -1    0    0    0    0  0.00000000000E+00  0.00000000000E+00  0.45593999997E+02  0.45594000000E+02  0.51100000000E-03 0.  1.
         11   -1    0    0    0    0 -0.00000000000E+00 -0.00000000000E+00 -0.45593999997E+02  0.45594000000E+02  0.51100000000E-03 0. -1.
    9900012    2    1    2    0    0 -0.30644034762E+02  0.23032594197E+02  0.13550203990E+02  0.50528864617E+02  0.30000014490E+02 0.  0.
         12    1    1    2    0    0  0.30644034762E+02 -0.23032594197E+02 -0.13550203990E+02  0.40659135383E+02  0.00000000000E+00 0. -1.
         11    1    3    3    0    0 -0.17586394765E+02  0.12274949430E+01  0.56067520084E+00  0.17638094614E+02  0.51100000000E-03 0. -1.
        -11    1    3    3    0    0  0.63929554887E+00  0.14364846726E+02  0.41245729563E+01  0.14958931198E+02  0.51100000000E-03 0.  1.
        -12    1    3    3    0    0 -0.13696935545E+02  0.74402525280E+01  0.88649558330E+01  0.17931838805E+02  0.00000000000E+00 0.  1.
</event>
<event>
 7    1  0.5897985E-013  0.5052886E+02  0.7816164E-02  0.1300439E+00
        -11   -1    0    0    0    0  0.00000000000E+00  0.00000000000E+00  0.45593999997E+02  0.45594000000E+02  0.51100000000E-03 0.  1.
         11   -1    0    0    0    0 -0.00000000000E+00 -0.00000000000E+00 -0.45593999997E+02  0.45594000000E+02  0.51100000000E-03 0. -1.
    9900012    2    1    2    0    0  0.36001571651E+02  0.13950603112E+02  0.12744913951E+02  0.50528864247E+02  0.30000013366E+02 0.  0.
         12    1    1    2    0    0 -0.36001571651E+02 -0.13950603112E+02 -0.12744913951E+02  0.40659135753E+02  0.00000000000E+00 0. -1.
         11    1    3    3    0    0  0.18895306651E+02 -0.27538104885E+01 -0.10416351070E+01  0.19123312726E+02  0.51100000000E-03 0. -1.
        -11    1    3    3    0    0  0.19386529169E+02  0.13223472352E+02  0.91822981854E+01  0.25199451075E+02  0.51100000000E-03 0.  1.
        -12    1    3    3    0    0 -0.22802641685E+01  0.34809412478E+01  0.46042508728E+01  0.62061004462E+01  0.00000000000E+00 0.  1.
</event>
<event>
 7    1  0.5897985E-013  0.5052886E+02  0.7816164E-02  0.1300439E+00
        -11   -1    0    0    0    0  0.00000000000E+00  0.00000000000E+00  0.45593999997E+02  0.45594000000E+02  0.51100000000E-03 0.  1.
         11   -1    0    0    0    0 -0.00000000000E+00 -0.00000000000E+00 -0.45593999997E+02  0.45594000000E+02  0.51100000000E-03 0. -1.
    9900012    2    1    2    0    0  0.26954508537E+01 -0.53349449787E+01  0.40217387914E+02  0.50528863464E+02  0.30000010986E+02 0.  0.
         12    1    1    2    0    0 -0.26954508537E+01  0.53349449787E+01 -0.40217387914E+02  0.40659136536E+02  0.00000000000E+00 0. -1.
         11    1    3    3    0    0 -0.10694916010E+02  0.28895889110E+01  0.13442445170E+02  0.17419250412E+02  0.51100000000E-03 0. -1.
        -11    1    3    3    0    0  0.38021349255E+01 -0.90474964088E+01  0.14571287045E+02  0.17568034257E+02  0.51100000000E-03 0.  1.
         12    1    3    3    0    0  0.95882319378E+01  0.82296251909E+00  0.12203655699E+02  0.15541578795E+02  0.00000000000E+00 0. -1.
</event>
<event>
 7    1  0.5897985E-013  0.5052887E+02  0.7816164E-02  0.1300439E+00
        -11   -1    0    0    0    0  0.00000000000E+00  0.00000000000E+00  0.45593999997E+02  0.45594000000E+02  0.51100000000E-03 0. -1.
         11   -1    0    0    0    0 -0.00000000000E+00 -0.00000000000E+00 -0.45593999997E+02  0.45594000000E+02  0.51100000000E-03 0.  1.
    9900012    2    1    2    0    0  0.33752618602E+02 -0.45522960273E+01 -0.22208164594E+02  0.50528865279E+02  0.30000016502E+02 0.  0.
         12    1    1    2    0    0 -0.33752618602E+02  0.45522960273E+01  0.22208164594E+02  0.40659134721E+02  0.00000000000E+00 0. -1.
         11    1    3    3    0    0  0.29369951302E+02 -0.27670694596E+01 -0.10201505789E+02  0.31214122341E+02  0.51100000000E-03 0. -1.
        -11    1    3    3    0    0  0.46577330251E+01  0.56466198469E+01 -0.80883618781E+01  0.10908730025E+02  0.51100000000E-03 0.  1.
         12    1    3    3    0    0 -0.27506572518E+00 -0.74318464146E+01 -0.39182969271E+01  0.84060129129E+01  0.00000000000E+00 0. -1.
</event>
<event>
 7    1  0.5897985E-013  0.5052891E+02  0.7816164E-02  0.1300439E+00
        -11   -1    0    0    0    0  0.00000000000E+00  0.00000000000E+00  0.45593999997E+02  0.45594000000E+02  0.51100000000E-03 0. -1.
         11   -1    0    0    0    0 -0.00000000000E+00 -0.00000000000E+00 -0.45593999997E+02  0.45594000000E+02  0.51100000000E-03 0.  1.
    9900012    2    1    2    0    0  0.33828540760E+02 -0.10454391668E+02 -0.19987418398E+02  0.50528912832E+02  0.30000161045E+02 0.  0.
         12    1    1    2    0    0 -0.33828540760E+02  0.10454391668E+02  0.19987418398E+02  0.40659087168E+02  0.00000000000E+00 0. -1.
         11    1    3    3    0    0  0.46067085561E+01 -0.90045662013E+01  0.46848882457E+01  0.11146845039E+02  0.51100000000E-03 0. -1.
        -11    1    3    3    0    0  0.21274776187E+02 -0.49430649054E+01 -0.15707787899E+02  0.26903245035E+02  0.51100000000E-03 0.  1.
        -12    1    3    3    0    0  0.79470560164E+01  0.34932394390E+01 -0.89645187443E+01  0.12478822758E+02  0.00000000000E+00 0.  1.
</event>
<event>
 7    1  0.5897985E-013  0.5052883E+02  0.7816164E-02  0.1300439E+00
        -11   -1    0    0    0    0  0.00000000000E+00  0.00000000000E+00  0.45593999997E+02  0.45594000000E+02  0.51100000000E-03 0.  1.
         11   -1    0    0    0    0 -0.00000000000E+00 -0.00000000000E+00 -0.45593999997E+02  0.45594000000E+02  0.51100000000E-03 0. -1.
    9900012    2    1    2    0    0 -0.64395923594E+01 -0.23599050986E+02  0.32477441777E+02  0.50528833978E+02  0.29999921360E+02 0.  0.
         12    1    1    2    0    0  0.64395923594E+01  0.23599050986E+02 -0.32477441777E+02  0.40659166022E+02  0.00000000000E+00 0. -1.
         11    1    3    3    0    0  0.40237524892E+01  0.24934464965E+01  0.13306703815E+01  0.49171682349E+01  0.51100000000E-03 0. -1.
        -11    1    3    3    0    0 -0.71674286046E+01 -0.97244233058E+01  0.25096476423E+02  0.27852640280E+02  0.51100000000E-03 0.  1.
        -12    1    3    3    0    0 -0.32959162441E+01 -0.16368074177E+02  0.60502949723E+01  0.17759025463E+02  0.00000000000E+00 0.  1.
</event>
<event>
 7    1  0.5897985E-013  0.5052886E+02  0.7816164E-02  0.1300439E+00
        -11   -1    0    0    0    0  0.00000000000E+00  0.00000000000E+00  0.45593999997E+02  0.45594000000E+02  0.51100000000E-03 0.  1.
         11   -1    0    0    0    0 -0.00000000000E+00 -0.00000000000E+00 -0.45593999997E+02  0.45594000000E+02  0.51100000000E-03 0. -1.
    9900012    2    1    2    0    0 -0.19363431198E+02 -0.97185695468E+01  0.34405998141E+02  0.50528858717E+02  0.29999996558E+02 0.  0.
         12    1    1    2    0    0  0.19363431198E+02  0.97185695468E+01 -0.34405998141E+02  0.40659141283E+02  0.00000000000E+00 0. -1.
         11    1    3    3    0    0 -0.15816470214E+02  0.13318123323E+01  0.12907868943E+02  0.20458434325E+02  0.51100000000E-03 0. -1.
        -11    1    3    3    0    0  0.55247033948E+01 -0.82381393597E+01  0.16714609059E+02  0.19436240480E+02  0.51100000000E-03 0.  1.
        -12    1    3    3    0    0 -0.90716643781E+01 -0.28122425193E+01  0.47835201381E+01  0.10634183913E+02  0.00000000000E+00 0.  1.
</event>
<event>
 7    1  0.5897985E-013  0.5052886E+02  0.7816164E-02  0.1300439E+00
        -11   -1    0    0    0    0  0.00000000000E+00  0.00000000000E+00  0.45593999997E+02  0.45594000000E+02  0.51100000000E-03 0. -1.
         11   -1    0    0    0    0 -0.00000000000E+00 -0.00000000000E+00 -0.45593999997E+02  0.45594000000E+02  0.51100000000E-03 0.  1.
    9900012    2    1    2    0    0 -0.35871702964E+01  0.83676840047E+01 -0.39626753157E+02  0.50528862133E+02  0.30000006939E+02 0.  0.
         12    1    1    2    0    0  0.35871702964E+01 -0.83676840047E+01  0.39626753157E+02  0.40659137867E+02  0.00000000000E+00 0. -1.
         11    1    3    3    0    0  0.36545876711E+00  0.58070170042E+01 -0.22705557989E+01  0.62458330505E+01  0.51100000000E-03 0. -1.
        -11    1    3    3    0    0  0.88638841166E+01 -0.27956870628E+01 -0.19988067451E+02  0.22043301669E+02  0.51100000000E-03 0.  1.
        -12    1    3    3    0    0 -0.12816513180E+02  0.53563540632E+01 -0.17368129907E+02  0.22239727413E+02  0.00000000000E+00 0.  1.
</event>
<event>
 7    1  0.5897985E-013  0.5052887E+02  0.7816164E-02  0.1300439E+00
        -11   -1    0    0    0    0  0.00000000000E+00  0.00000000000E+00  0.45593999997E+02  0.45594000000E+02  0.51100000000E-03 0.  1.
         11   -1    0    0    0    0 -0.00000000000E+00 -0.00000000000E+00 -0.45593999997E+02  0.45594000000E+02  0.51100000000E-03 0. -1.
    9900012    2    1    2    0    0  0.10697138051E+02  0.19363013161E+02  0.34114657530E+02  0.50528869420E+02  0.30000029090E+02 0.  0.
         12    1    1    2    0    0 -0.10697138051E+02 -0.19363013161E+02 -0.34114657530E+02  0.40659130580E+02  0.00000000000E+00 0. -1.
         11    1    3    3    0    0  0.81595781764E+01  0.79454233912E+01 -0.17681149031E+01  0.11525393679E+02  0.51100000000E-03 0. -1.
        -11    1    3    3    0    0 -0.10606073547E+01  0.10286625520E+01  0.17654630698E+02  0.17716348945E+02  0.51100000000E-03 0.  1.
        -12    1    3    3    0    0  0.35981672292E+01  0.10388927217E+02  0.18228141735E+02  0.21287126796E+02  0.00000000000E+00 0.  1.
</event>
<event>
 7    1  0.5897985E-013  0.5052886E+02  0.7816164E-02  0.1300439E+00
        -11   -1    0    0    0    0  0.00000000000E+00  0.00000000000E+00  0.45593999997E+02  0.45594000000E+02  0.51100000000E-03 0.  1.
         11   -1    0    0    0    0 -0.00000000000E+00 -0.00000000000E+00 -0.45593999997E+02  0.45594000000E+02  0.51100000000E-03 0. -1.
    9900012    2    1    2    0    0  0.15566934200E+02  0.91286528100E-01  0.37560991276E+02  0.50528857864E+02  0.29999993964E+02 0.  0.
         12    1    1    2    0    0 -0.15566934200E+02 -0.91286528100E-01 -0.37560991276E+02  0.40659142136E+02  0.00000000000E+00 0. -1.
         11    1    3    3    0    0  0.71839646752E+01  0.10362123278E+01 -0.67167182380E+00  0.72893228590E+01  0.51100000000E-03 0. -1.
        -11    1    3    3    0    0  0.11180285813E+02  0.28100383269E+00  0.38577546226E+02  0.40165966029E+02  0.51100000000E-03 0.  1.
        -12    1    3    3    0    0 -0.27973162880E+01 -0.12259296324E+01 -0.34488312620E+00  0.30735689759E+01  0.00000000000E+00 0.  1.
</event>
<event>
 7    1  0.5897985E-013  0.5052886E+02  0.7816164E-02  0.1300439E+00
        -11   -1    0    0    0    0  0.00000000000E+00  0.00000000000E+00  0.45593999997E+02  0.45594000000E+02  0.51100000000E-03 0.  1.
         11   -1    0    0    0    0 -0.00000000000E+00 -0.00000000000E+00 -0.45593999997E+02  0.45594000000E+02  0.51100000000E-03 0. -1.
    9900012    2    1    2    0    0  0.27265984488E+02  0.27599113521E+02  0.12166378162E+02  0.50528859148E+02  0.29999997867E+02 0.  0.
         12    1    1    2    0    0 -0.27265984488E+02 -0.27599113521E+02 -0.12166378162E+02  0.40659140852E+02  0.00000000000E+00 0. -1.
         11    1    3    3    0    0 -0.16088344805E+01  0.14536816858E+02  0.82878975598E+01  0.16810610904E+02  0.51100000000E-03 0. -1.
        -11    1    3    3    0    0  0.13808208884E+02  0.61865272702E+01  0.73116717090E+01  0.16804770028E+02  0.51100000000E-03 0.  1.
         12    1    3    3    0    0  0.15066610084E+02  0.68757693925E+01 -0.34331911072E+01  0.16913478216E+02  0.00000000000E+00 0. -1.
</event>
<event>
 7    1  0.5897985E-013  0.5052885E+02  0.7816164E-02  0.1300439E+00
        -11   -1    0    0    0    0  0.00000000000E+00  0.00000000000E+00  0.45593999997E+02  0.45594000000E+02  0.51100000000E-03 0.  1.
         11   -1    0    0    0    0 -0.00000000000E+00 -0.00000000000E+00 -0.45593999997E+02  0.45594000000E+02  0.51100000000E-03 0. -1.
    9900012    2    1    2    0    0  0.47094852563E+01  0.36999379495E+02  0.16187429033E+02  0.50528853513E+02  0.29999980737E+02 0.  0.
         12    1    1    2    0    0 -0.47094852563E+01 -0.36999379495E+02 -0.16187429033E+02  0.40659146487E+02  0.00000000000E+00 0. -1.
         11    1    3    3    0    0  0.65877478780E+01  0.29414277917E+01  0.23012464587E+01  0.75727244161E+01  0.51100000000E-03 0. -1.
        -11    1    3    3    0    0 -0.50740138115E+00  0.30017406867E+02  0.19578963217E+02  0.35841846662E+02  0.51100000000E-03 0.  1.
        -12    1    3    3    0    0 -0.13708612406E+01  0.40405448358E+01 -0.56927806433E+01  0.71142824349E+01  0.00000000000E+00 0.  1.
</event>
<event>
 7    1  0.5897985E-013  0.5052886E+02  0.7816164E-02  0.1300439E+00
        -11   -1    0    0    0    0  0.00000000000E+00  0.00000000000E+00  0.45593999997E+02  0.45594000000E+02  0.51100000000E-03 0.  1.
         11   -1    0    0    0    0 -0.00000000000E+00 -0.00000000000E+00 -0.45593999997E+02  0.45594000000E+02  0.51100000000E-03 0. -1.
    9900012    2    1    2    0    0  0.20845248296E+02 -0.24902355246E+02  0.24464545999E+02  0.50528859770E+02  0.29999999756E+02 0.  0.
         12    1    1    2    0    0 -0.20845248296E+02  0.24902355246E+02 -0.24464545999E+02  0.40659140230E+02  0.00000000000E+00 0. -1.
         11    1    3    3    0    0  0.21936253201E+02 -0.15802688627E+02  0.10710349234E+02  0.29079816941E+02  0.51100000000E-03 0. -1.
        -11    1    3    3    0    0  0.91395481041E+00 -0.12297992028E+02  0.12260265756E+02  0.17389365658E+02  0.51100000000E-03 0.  1.
         12    1    3    3    0    0 -0.20049597153E+01  0.31983254081E+01  0.14939310086E+01  0.40596771712E+01  0.00000000000E+00 0. -1.
</event>
<event>
 7    1  0.5897985E-013  0.5052886E+02  0.7816164E-02  0.1300439E+00
        -11   -1    0    0    0    0  0.00000000000E+00  0.00000000000E+00  0.45593999997E+02  0.45594000000E+02  0.51100000000E-03 0.  1.
         11   -1    0    0    0    0 -0.00000000000E+00 -0.00000000000E+00 -0.45593999997E+02  0.45594000000E+02  0.51100000000E-03 0. -1.
    9900012    2    1    2    0    0  0.15416733734E+02  0.35342434906E+02  0.12899696548E+02  0.50528861358E+02  0.30000004583E+02 0.  0.
         12    1    1    2    0    0 -0.15416733734E+02 -0.35342434906E+02 -0.12899696548E+02  0.40659138642E+02  0.00000000000E+00 0. -1.
         11    1    3    3    0    0 -0.33271258762E+00  0.85795562861E+00 -0.36524271995E+01  0.37665647792E+01  0.51100000000E-03 0. -1.
        -11    1    3    3    0    0  0.46954094540E+01  0.18100586877E+02  0.19223594199E+02  0.26818364778E+02  0.51100000000E-03 0.  1.
        -12    1    3    3    0    0  0.11054036868E+02  0.16383892401E+02 -0.26714704511E+01  0.19943931800E+02  0.00000000000E+00 0.  1.
</event>
<event>
 7    1  0.5897985E-013  0.5052886E+02  0.7816164E-02  0.1300439E+00
        -11   -1    0    0    0    0  0.00000000000E+00  0.00000000000E+00  0.45593999997E+02  0.45594000000E+02  0.51100000000E-03 0.  1.
         11   -1    0    0    0    0 -0.00000000000E+00 -0.00000000000E+00 -0.45593999997E+02  0.45594000000E+02  0.51100000000E-03 0. -1.
    9900012    2    1    2    0    0  0.50626850015E+00 -0.54561794397E+00  0.40652329840E+02  0.50528856770E+02  0.29999990639E+02 0.  0.
         12    1    1    2    0    0 -0.50626850015E+00  0.54561794397E+00 -0.40652329840E+02  0.40659143230E+02  0.00000000000E+00 0. -1.
         11    1    3    3    0    0  0.27312447429E+01  0.90511598123E+01  0.10858757836E+01  0.95164236072E+01  0.51100000000E-03 0. -1.
        -11    1    3    3    0    0 -0.18679315228E+01 -0.87618534218E+00  0.79593453084E+01  0.82224112599E+01  0.51100000000E-03 0.  1.
         12    1    3    3    0    0 -0.35704471994E+00 -0.87205924140E+01  0.31607108748E+02  0.32790021903E+02  0.00000000000E+00 0. -1.
</event>
<event>
 7    1  0.5897985E-013  0.5052888E+02  0.7816164E-02  0.1300439E+00
        -11   -1    0    0    0    0  0.00000000000E+00  0.00000000000E+00  0.45593999997E+02  0.45594000000E+02  0.51100000000E-03 0. -1.
         11   -1    0    0    0    0 -0.00000000000E+00 -0.00000000000E+00 -0.45593999997E+02  0.45594000000E+02  0.51100000000E-03 0.  1.
    9900012    2    1    2    0    0  0.34706685728E+02 -0.10948183126E+02 -0.18131392328E+02  0.50528878812E+02  0.30000057637E+02 0.  0.
         12    1    1    2    0    0 -0.34706685728E+02  0.10948183126E+02  0.18131392328E+02  0.40659121188E+02  0.00000000000E+00 0. -1.
         11    1    3    3    0    0 -0.15238828421E+01  0.23235086093E+01  0.27210084906E+01  0.38890614087E+01  0.51100000000E-03 0. -1.
        -11    1    3    3    0    0  0.22876613816E+02 -0.99795674479E+01 -0.21397451819E+02  0.32875251645E+02  0.51100000000E-03 0.  1.
         12    1    3    3    0    0  0.13353954755E+02 -0.32921242879E+01  0.54505100076E+00  0.13764565758E+02  0.00000000000E+00 0. -1.
</event>
<event>
 7    1  0.5897985E-013  0.5052890E+02  0.7816164E-02  0.1300439E+00
        -11   -1    0    0    0    0  0.00000000000E+00  0.00000000000E+00  0.45593999997E+02  0.45594000000E+02  0.51100000000E-03 0.  1.
         11   -1    0    0    0    0 -0.00000000000E+00 -0.00000000000E+00 -0.45593999997E+02  0.45594000000E+02  0.51100000000E-03 0. -1.
    9900012    2    1    2    0    0  0.15230766517E+02  0.24584254092E+02  0.28579723288E+02  0.50528900389E+02  0.30000123222E+02 0.  0.
         12    1    1    2    0    0 -0.15230766517E+02 -0.24584254092E+02 -0.28579723288E+02  0.40659099611E+02  0.00000000000E+00 0. -1.
         11    1    3    3    0    0 -0.42422117115E+01  0.12281551747E+02  0.23940843136E+01  0.13212286459E+02  0.51100000000E-03 0. -1.
        -11    1    3    3    0    0  0.13174840297E+02  0.10838489669E+02  0.25680534758E+02  0.30830814794E+02  0.51100000000E-03 0.  1.
        -12    1    3    3    0    0  0.62981379311E+01  0.14642126763E+01  0.50510421683E+00  0.64857991359E+01  0.00000000000E+00 0.  1.
</event>
<event>
 7    1  0.5897985E-013  0.5052886E+02  0.7816164E-02  0.1300439E+00
        -11   -1    0    0    0    0  0.00000000000E+00  0.00000000000E+00  0.45593999997E+02  0.45594000000E+02  0.51100000000E-03 0. -1.
         11   -1    0    0    0    0 -0.00000000000E+00 -0.00000000000E+00 -0.45593999997E+02  0.45594000000E+02  0.51100000000E-03 0.  1.
    9900012    2    1    2    0    0 -0.33807993945E+02  0.49663230023E+01  0.22034546327E+02  0.50528855265E+02  0.29999986065E+02 0.  0.
         12    1    1    2    0    0  0.33807993945E+02 -0.49663230023E+01 -0.22034546327E+02  0.40659144735E+02  0.00000000000E+00 0. -1.
         11    1    3    3    0    0 -0.21036132622E+02 -0.10137291269E+02  0.12498346913E+02  0.26485698514E+02  0.51100000000E-03 0. -1.
        -11    1    3    3    0    0 -0.26571665040E+01  0.39906065013E+01 -0.19024795571E+01  0.51579940679E+01  0.51100000000E-03 0.  1.
         12    1    3    3    0    0 -0.10114694819E+02  0.11113007770E+02  0.11438678971E+02  0.18885162684E+02  0.00000000000E+00 0. -1.
</event>
<event>
 7    1  0.5897985E-013  0.5052887E+02  0.7816164E-02  0.1300439E+00
        -11   -1    0    0    0    0  0.00000000000E+00  0.00000000000E+00  0.45593999997E+02  0.45594000000E+02  0.51100000000E-03 0.  1.
         11   -1    0    0    0    0 -0.00000000000E+00 -0.00000000000E+00 -0.45593999997E+02  0.45594000000E+02  0.51100000000E-03 0. -1.
    9900012    2    1    2    0    0 -0.32217780161E+02 -0.24197560531E+02  0.54459053447E+01  0.50528865981E+02  0.30000018635E+02 0.  0.
         12    1    1    2    0    0  0.32217780161E+02  0.24197560531E+02 -0.54459053447E+01  0.40659134019E+02  0.00000000000E+00 0. -1.
         11    1    3    3    0    0 -0.35399058841E+01 -0.48204255139E+01  0.51619506591E+01  0.79002006729E+01  0.51100000000E-03 0. -1.
        -11    1    3    3    0    0 -0.30953428639E+02 -0.20893101435E+02 -0.39873997762E+01  0.37557100385E+02  0.51100000000E-03 0.  1.
        -12    1    3    3    0    0  0.22755543619E+01  0.15159664173E+01  0.42713544618E+01  0.50715649232E+01  0.00000000000E+00 0.  1.
</event>
<event>
 7    1  0.5897985E-013  0.5052886E+02  0.7816164E-02  0.1300439E+00
        -11   -1    0    0    0    0  0.00000000000E+00  0.00000000000E+00  0.45593999997E+02  0.45594000000E+02  0.51100000000E-03 0.  1.
         11   -1    0    0    0    0 -0.00000000000E+00 -0.00000000000E+00 -0.45593999997E+02  0.45594000000E+02  0.51100000000E-03 0. -1.
    9900012    2    1    2    0    0  0.25805705510E+02 -0.63760558446E+01  0.30766491776E+02  0.50528861529E+02  0.30000005103E+02 0.  0.
         12    1    1    2    0    0 -0.25805705510E+02  0.63760558446E+01 -0.30766491776E+02  0.40659138471E+02  0.00000000000E+00 0. -1.
         11    1    3    3    0    0 -0.47323739444E+01  0.16356528915E+01  0.91340879419E+01  0.10416443074E+02  0.51100000000E-03 0. -1.
        -11    1    3    3    0    0  0.27030712844E+02 -0.69665791492E+01  0.13113850830E+02  0.30840975110E+02  0.51100000000E-03 0.  1.
        -12    1    3    3    0    0  0.35073666106E+01 -0.10451295869E+01  0.85185530044E+01  0.92714433442E+01  0.00000000000E+00 0.  1.
</event>
<event>
 7    1  0.5897985E-013  0.5052886E+02  0.7816164E-02  0.1300439E+00
        -11   -1    0    0    0    0  0.00000000000E+00  0.00000000000E+00  0.45593999997E+02  0.45594000000E+02  0.51100000000E-03 0. -1.
         11   -1    0    0    0    0 -0.00000000000E+00 -0.00000000000E+00 -0.45593999997E+02  0.45594000000E+02  0.51100000000E-03 0.  1.
    9900012    2    1    2    0    0 -0.46968386609E+01  0.40332649472E+02  0.20935522286E+01  0.50528857513E+02  0.29999992898E+02 0.  0.
         12    1    1    2    0    0  0.46968386609E+01 -0.40332649472E+02 -0.20935522286E+01  0.40659142487E+02  0.00000000000E+00 0. -1.
         11    1    3    3    0    0 -0.12461847180E+02  0.59509922667E+01  0.26641400039E+01  0.14064479596E+02  0.51100000000E-03 0.  1.
        -11    1    3    3    0    0 -0.86732035169E+00 -0.75258345538E-01  0.33044203250E+00  0.93118237150E+00  0.51100000000E-03 0. -1.
         12    1    3    3    0    0  0.86323288704E+01  0.34456915551E+02 -0.90102980776E+00  0.35533195546E+02  0.00000000000E+00 0. -1.
</event>
<event>
 7    1  0.6251080E-013  0.5052887E+02  0.7816164E-02  0.1300439E+00
        -11   -1    0    0    0    0  0.00000000000E+00  0.00000000000E+00  0.45593999997E+02  0.45594000000E+02  0.51100000000E-03 0. -1.
         11   -1    0    0    0    0 -0.00000000000E+00 -0.00000000000E+00 -0.45593999997E+02  0.45594000000E+02  0.51100000000E-03 0.  1.
    9900012    2    1    2    0    0 -0.77935638719E+01 -0.39169950551E+02 -0.76249656765E+01  0.50528871068E+02  0.30000034097E+02 0.  0.
         12    1    1    2    0    0  0.77935638719E+01  0.39169950551E+02  0.76249656765E+01  0.40659128932E+02  0.00000000000E+00 0. -1.
         11    1    3    3    0    0  0.36044731465E+01 -0.57765917930E+01 -0.90687162493E+01  0.11340319840E+02  0.51100000000E-03 0. -1.
        -11    1    3    3    0    0 -0.14285934398E+02 -0.20965621767E+02 -0.32842100544E+01  0.25581853991E+02  0.51100000000E-03 0.  1.
        -12    1    3    3    0    0  0.28878973793E+01 -0.12427736991E+02  0.47279606272E+01  0.13606697236E+02  0.00000000000E+00 0.  1.
</event>
<event>
 7    1  0.5897985E-013  0.5052886E+02  0.7816164E-02  0.1300439E+00
        -11   -1    0    0    0    0  0.00000000000E+00  0.00000000000E+00  0.45593999997E+02  0.45594000000E+02  0.51100000000E-03 0. -1.
         11   -1    0    0    0    0 -0.00000000000E+00 -0.00000000000E+00 -0.45593999997E+02  0.45594000000E+02  0.51100000000E-03 0.  1.
    9900012    2    1    2    0    0 -0.40565342655E+02  0.34275206812E+00 -0.27388368191E+01  0.50528859198E+02  0.29999998017E+02 0.  0.
         12    1    1    2    0    0  0.40565342655E+02 -0.34275206812E+00  0.27388368191E+01  0.40659140802E+02  0.00000000000E+00 0. -1.
         11    1    3    3    0    0 -0.69813727277E+01  0.99553804092E+01  0.49969080125E+01  0.13146035684E+02  0.51100000000E-03 0. -1.
        -11    1    3    3    0    0 -0.17636442612E+02 -0.10625248558E+02 -0.40734387671E+01  0.20988876067E+02  0.51100000000E-03 0.  1.
         12    1    3    3    0    0 -0.15947527315E+02  0.10126202165E+01 -0.36623060645E+01  0.16393947447E+02  0.00000000000E+00 0. -1.
</event>
<event>
 7    1  0.5897985E-013  0.5052885E+02  0.7816164E-02  0.1300439E+00
        -11   -1    0    0    0    0  0.00000000000E+00  0.00000000000E+00  0.45593999997E+02  0.45594000000E+02  0.51100000000E-03 0. -1.
         11   -1    0    0    0    0 -0.00000000000E+00 -0.00000000000E+00 -0.45593999997E+02  0.45594000000E+02  0.51100000000E-03 0.  1.
    9900012    2    1    2    0    0 -0.29657654812E+02  0.11702798945E+02 -0.25231613054E+02  0.50528852328E+02  0.29999977137E+02 0.  0.
         12    1    1    2    0    0  0.29657654812E+02 -0.11702798945E+02  0.25231613054E+02  0.40659147672E+02  0.00000000000E+00 0. -1.
         11    1    3    3    0    0 -0.58992168631E+01 -0.36949315000E+01 -0.96805874689E+01  0.11923382590E+02  0.51100000000E-03 0. -1.
        -11    1    3    3    0    0 -0.17773668239E+02  0.18784953151E+02 -0.55195904441E+01  0.26443215131E+02  0.51100000000E-03 0.  1.
        -12    1    3    3    0    0 -0.59847697102E+01 -0.33872227062E+01 -0.10031435141E+02  0.12162254607E+02  0.00000000000E+00 0.  1.
</event>
<event>
 7    1  0.5897985E-013  0.5052883E+02  0.7816164E-02  0.1300439E+00
        -11   -1    0    0    0    0  0.00000000000E+00  0.00000000000E+00  0.45593999997E+02  0.45594000000E+02  0.51100000000E-03 0. -1.
         11   -1    0    0    0    0 -0.00000000000E+00 -0.00000000000E+00 -0.45593999997E+02  0.45594000000E+02  0.51100000000E-03 0.  1.
    9900012    2    1    2    0    0 -0.24370280200E+02 -0.24412666584E+02  0.21523932366E+02  0.50528825005E+02  0.29999894086E+02 0.  0.
         12    1    1    2    0    0  0.24370280200E+02  0.24412666584E+02 -0.21523932366E+02  0.40659174995E+02  0.00000000000E+00 0. -1.
         11    1    3    3    0    0  0.21048172104E+01 -0.21193968207E+01  0.53892645439E+01  0.61616776091E+01  0.51100000000E-03 0. -1.
        -11    1    3    3    0    0 -0.18414819232E+02 -0.26055773830E+02  0.95657820307E+01  0.33309354593E+02  0.51100000000E-03 0.  1.
        -12    1    3    3    0    0 -0.80602781777E+01  0.37625040667E+01  0.65688857910E+01  0.11057792804E+02  0.00000000000E+00 0.  1.
</event>
<event>
 7    1  0.5897985E-013  0.5052886E+02  0.7816164E-02  0.1300439E+00
        -11   -1    0    0    0    0  0.00000000000E+00  0.00000000000E+00  0.45593999997E+02  0.45594000000E+02  0.51100000000E-03 0.  1.
         11   -1    0    0    0    0 -0.00000000000E+00 -0.00000000000E+00 -0.45593999997E+02  0.45594000000E+02  0.51100000000E-03 0. -1.
    9900012    2    1    2    0    0  0.34546154244E+02  0.15191173799E+02  0.15131320893E+02  0.50528863187E+02  0.30000010142E+02 0.  0.
         12    1    1    2    0    0 -0.34546154244E+02 -0.15191173799E+02 -0.15131320893E+02  0.40659136813E+02  0.00000000000E+00 0. -1.
         11    1    3    3    0    0  0.23929053914E+02 -0.35990654701E+01  0.52347082613E+01  0.24757929322E+02  0.51100000000E-03 0. -1.
        -11    1    3    3    0    0  0.79062284315E+01  0.11434500727E+02  0.11164348481E+02  0.17829720473E+02  0.51100000000E-03 0.  1.
         12    1    3    3    0    0  0.27108718986E+01  0.73557385422E+01 -0.12677358485E+01  0.79412133917E+01  0.00000000000E+00 0. -1.
</event>
<event>
 7    1  0.5897985E-013  0.5052885E+02  0.7816164E-02  0.1300439E+00
        -11   -1    0    0    0    0  0.00000000000E+00  0.00000000000E+00  0.45593999997E+02  0.45594000000E+02  0.51100000000E-03 0.  1.
         11   -1    0    0    0    0 -0.00000000000E+00 -0.00000000000E+00 -0.45593999997E+02  0.45594000000E+02  0.51100000000E-03 0. -1.
    9900012    2    1    2    0    0  0.66698731625E+01  0.26398747057E+01  0.40021370232E+02  0.50528853160E+02  0.29999979665E+02 0.  0.
         12    1    1    2    0    0 -0.66698731625E+01 -0.26398747057E+01 -0.40021370232E+02  0.40659146840E+02  0.00000000000E+00 0. -1.
         11    1    3    3    0    0 -0.97158122504E+01  0.14594917439E+01  0.19484377248E+02  0.21821275876E+02  0.51100000000E-03 0. -1.
        -11    1    3    3    0    0  0.34767004447E+01  0.37527601187E+01  0.10994357026E+01  0.52325341485E+01  0.51100000000E-03 0.  1.
         12    1    3    3    0    0  0.12908984968E+02 -0.25723771570E+01  0.19437557282E+02  0.23475043136E+02  0.00000000000E+00 0. -1.
</event>
<event>
 7    1  0.5897985E-013  0.5052885E+02  0.7816164E-02  0.1300439E+00
        -11   -1    0    0    0    0  0.00000000000E+00  0.00000000000E+00  0.45593999997E+02  0.45594000000E+02  0.51100000000E-03 0.  1.
         11   -1    0    0    0    0 -0.00000000000E+00 -0.00000000000E+00 -0.45593999997E+02  0.45594000000E+02  0.51100000000E-03 0. -1.
    9900012    2    1    2    0    0  0.34315931039E+02  0.11267460572E+02  0.18671567433E+02  0.50528853166E+02  0.29999979684E+02 0.  0.
         12    1    1    2    0    0 -0.34315931039E+02 -0.11267460572E+02 -0.18671567433E+02  0.40659146834E+02  0.00000000000E+00 0. -1.
         11    1    3    3    0    0  0.25004677084E+02  0.12952515896E+02  0.41970755894E+01  0.28471336250E+02  0.51100000000E-03 0. -1.
        -11    1    3    3    0    0  0.12216146145E+02 -0.39463865830E+01  0.12315175869E+02  0.17789652910E+02  0.51100000000E-03 0.  1.
         12    1    3    3    0    0 -0.29048921900E+01  0.22613312584E+01  0.21593159755E+01  0.42678640065E+01  0.00000000000E+00 0. -1.
</event>
<event>
 7    1  0.5897985E-013  0.5052885E+02  0.7816164E-02  0.1300439E+00
        -11   -1    0    0    0    0  0.00000000000E+00  0.00000000000E+00  0.45593999997E+02  0.45594000000E+02  0.51100000000E-03 0. -1.
         11   -1    0    0    0    0 -0.00000000000E+00 -0.00000000000E+00 -0.45593999997E+02  0.45594000000E+02  0.51100000000E-03 0.  1.
    9900012    2    1    2    0    0 -0.12230250171E+02 -0.13275635483E+02 -0.36432746643E+02  0.50528849189E+02  0.29999967594E+02 0.  0.
         12    1    1    2    0    0  0.12230250171E+02  0.13275635483E+02  0.36432746643E+02  0.40659150811E+02  0.00000000000E+00 0. -1.
         11    1    3    3    0    0 -0.14841008291E+02 -0.86971618332E+01 -0.10157166992E+02  0.19976591116E+02  0.51100000000E-03 0. -1.
        -11    1    3    3    0    0  0.64482364236E+01  0.24481804618E+01 -0.16714622866E+02  0.18081812917E+02  0.51100000000E-03 0.  1.
        -12    1    3    3    0    0 -0.38374783032E+01 -0.70266541119E+01 -0.95609567851E+01  0.12470445156E+02  0.00000000000E+00 0.  1.
</event>
<event>
 7    1  0.5897985E-013  0.5052881E+02  0.7816164E-02  0.1300439E+00
        -11   -1    0    0    0    0  0.00000000000E+00  0.00000000000E+00  0.45593999997E+02  0.45594000000E+02  0.51100000000E-03 0.  1.
         11   -1    0    0    0    0 -0.00000000000E+00 -0.00000000000E+00 -0.45593999997E+02  0.45594000000E+02  0.51100000000E-03 0. -1.
    9900012    2    1    2    0    0  0.39913611755E+02  0.21791074062E+01  0.74380428178E+01  0.50528814158E+02  0.29999861114E+02 0.  0.
         12    1    1    2    0    0 -0.39913611755E+02 -0.21791074062E+01 -0.74380428178E+01  0.40659185842E+02  0.00000000000E+00 0. -1.
         11    1    3    3    0    0  0.14932763872E+02 -0.12226580018E+02 -0.31898369077E+01  0.19561486538E+02  0.51100000000E-03 0. -1.
        -11    1    3    3    0    0  0.21338775769E+02  0.13745557019E+02  0.94052302396E+01  0.27069208434E+02  0.51100000000E-03 0.  1.
         12    1    3    3    0    0  0.36420721131E+01  0.66013040487E+00  0.12226494858E+01  0.38981191867E+01  0.00000000000E+00 0. -1.
</event>
<event>
 7    1  0.5897985E-013  0.5052886E+02  0.7816164E-02  0.1300439E+00
        -11   -1    0    0    0    0  0.00000000000E+00  0.00000000000E+00  0.45593999997E+02  0.45594000000E+02  0.51100000000E-03 0.  1.
         11   -1    0    0    0    0 -0.00000000000E+00 -0.00000000000E+00 -0.45593999997E+02  0.45594000000E+02  0.51100000000E-03 0. -1.
    9900012    2    1    2    0    0  0.75807310537E+00 -0.40097119867E+02 -0.66941698844E+01  0.50528860721E+02  0.30000002649E+02 0.  0.
         12    1    1    2    0    0 -0.75807310537E+00  0.40097119867E+02  0.66941698844E+01  0.40659139279E+02  0.00000000000E+00 0. -1.
         11    1    3    3    0    0 -0.28246681689E+01 -0.46997977717E+00 -0.41060353330E+01  0.50059122717E+01  0.51100000000E-03 0. -1.
        -11    1    3    3    0    0  0.97209786219E+01 -0.32537841264E+02  0.38081796471E+01  0.34171783272E+02  0.51100000000E-03 0.  1.
        -12    1    3    3    0    0 -0.61382373476E+01 -0.70892988253E+01 -0.63963141985E+01  0.11351165178E+02  0.00000000000E+00 0.  1.
</event>
<event>
 7    1  0.5897985E-013  0.5052887E+02  0.7816164E-02  0.1300439E+00
        -11   -1    0    0    0    0  0.00000000000E+00  0.00000000000E+00  0.45593999997E+02  0.45594000000E+02  0.51100000000E-03 0.  1.
         11   -1    0    0    0    0 -0.00000000000E+00 -0.00000000000E+00 -0.45593999997E+02  0.45594000000E+02  0.51100000000E-03 0. -1.
    9900012    2    1    2    0    0  0.29813821736E+02  0.44755036605E+01  0.27281330110E+02  0.50528867298E+02  0.30000022638E+02 0.  0.
         12    1    1    2    0    0 -0.29813821736E+02 -0.44755036605E+01 -0.27281330110E+02  0.40659132702E+02  0.00000000000E+00 0. -1.
         11    1    3    3    0    0 -0.52807789634E+00 -0.36916034877E+01 -0.11452579635E+01  0.39010791634E+01  0.51100000000E-03 0. -1.
        -11    1    3    3    0    0  0.26702874665E+02  0.65816183174E+01  0.31345907850E+02  0.41700445492E+02  0.51100000000E-03 0.  1.
        -12    1    3    3    0    0  0.36390249677E+01  0.15854888308E+01 -0.29193197769E+01  0.49273426417E+01  0.00000000000E+00 0.  1.
</event>
<event>
 7    1  0.5897985E-013  0.5052882E+02  0.7816164E-02  0.1300439E+00
        -11   -1    0    0    0    0  0.00000000000E+00  0.00000000000E+00  0.45593999997E+02  0.45594000000E+02  0.51100000000E-03 0.  1.
         11   -1    0    0    0    0 -0.00000000000E+00 -0.00000000000E+00 -0.45593999997E+02  0.45594000000E+02  0.51100000000E-03 0. -1.
    9900012    2    1    2    0    0  0.32212205695E+02 -0.13601726295E+01  0.24772816082E+02  0.50528822907E+02  0.29999887707E+02 0.  0.
         12    1    1    2    0    0 -0.32212205695E+02  0.13601726295E+01 -0.24772816082E+02  0.40659177093E+02  0.00000000000E+00 0. -1.
         11    1    3    3    0    0  0.36953195434E+01 -0.77737529027E+01  0.25255189151E+00  0.86110628519E+01  0.51100000000E-03 0. -1.
        -11    1    3    3    0    0  0.15698226500E+02  0.11632975774E+02  0.18201409133E+02  0.26703028579E+02  0.51100000000E-03 0.  1.
        -12    1    3    3    0    0  0.12818659651E+02 -0.52193955008E+01  0.63188550568E+01  0.15214731475E+02  0.00000000000E+00 0.  1.
</event>
<event>
 7    1  0.5897985E-013  0.5052886E+02  0.7816164E-02  0.1300439E+00
        -11   -1    0    0    0    0  0.00000000000E+00  0.00000000000E+00  0.45593999997E+02  0.45594000000E+02  0.51100000000E-03 0. -1.
         11   -1    0    0    0    0 -0.00000000000E+00 -0.00000000000E+00 -0.45593999997E+02  0.45594000000E+02  0.51100000000E-03 0.  1.
    9900012    2    1    2    0    0  0.24369896993E+02 -0.62068130039E+01 -0.31949164149E+02  0.50528862073E+02  0.30000006758E+02 0.  0.
         12    1    1    2    0    0 -0.24369896993E+02  0.62068130039E+01  0.31949164149E+02  0.40659137927E+02  0.00000000000E+00 0. -1.
         11    1    3    3    0    0  0.73235032965E+01 -0.43235142293E+01 -0.28340619596E+02  0.29589139818E+02  0.51100000000E-03 0. -1.
        -11    1    3    3    0    0  0.13571368325E+02 -0.60762945823E+01 -0.42275368723E+01  0.15458831209E+02  0.51100000000E-03 0.  1.
         12    1    3    3    0    0  0.34750253711E+01  0.41929958077E+01  0.61899231929E+00  0.54808910466E+01  0.00000000000E+00 0. -1.
</event>
<event>
 7    1  0.5897985E-013  0.5052886E+02  0.7816164E-02  0.1300439E+00
        -11   -1    0    0    0    0  0.00000000000E+00  0.00000000000E+00  0.45593999997E+02  0.45594000000E+02  0.51100000000E-03 0.  1.
         11   -1    0    0    0    0 -0.00000000000E+00 -0.00000000000E+00 -0.45593999997E+02  0.45594000000E+02  0.51100000000E-03 0. -1.
    9900012    2    1    2    0    0  0.27722102446E+01 -0.34452068166E+02  0.21413440885E+02  0.50528860793E+02  0.30000002865E+02 0.  0.
         12    1    1    2    0    0 -0.27722102446E+01  0.34452068166E+02 -0.21413440885E+02  0.40659139207E+02  0.00000000000E+00 0. -1.
         11    1    3    3    0    0  0.70198453675E+01 -0.36432581136E+01 -0.40137706017E+01  0.88691551667E+01  0.51100000000E-03 0. -1.
        -11    1    3    3    0    0  0.23693411406E+01 -0.19610097515E+02  0.17745967957E+02  0.26553513534E+02  0.51100000000E-03 0.  1.
         12    1    3    3    0    0 -0.66169762636E+01 -0.11198712537E+02  0.76812435292E+01  0.15106192092E+02  0.00000000000E+00 0. -1.
</event>
<event>
 7    1  0.5897985E-013  0.5052886E+02  0.7816164E-02  0.1300439E+00
        -11   -1    0    0    0    0  0.00000000000E+00  0.00000000000E+00  0.45593999997E+02  0.45594000000E+02  0.51100000000E-03 0.  1.
         11   -1    0    0    0    0 -0.00000000000E+00 -0.00000000000E+00 -0.45593999997E+02  0.45594000000E+02  0.51100000000E-03 0. -1.
    9900012    2    1    2    0    0  0.44018017756E+01 -0.89571097563E+01  0.39415220865E+02  0.50528864373E+02  0.30000013749E+02 0.  0.
         12    1    1    2    0    0 -0.44018017756E+01  0.89571097563E+01 -0.39415220865E+02  0.40659135627E+02  0.00000000000E+00 0. -1.
         11    1    3    3    0    0  0.56671669014E+01  0.39914627013E+01  0.78180995388E+01  0.10448504000E+02  0.51100000000E-03 0. -1.
        -11    1    3    3    0    0 -0.76322450734E+01 -0.97507547850E+01  0.64868070969E+01  0.13978807185E+02  0.51100000000E-03 0.  1.
        -12    1    3    3    0    0  0.63668799476E+01 -0.31978176727E+01  0.25110314229E+02  0.26101553188E+02  0.00000000000E+00 0.  1.
</event>
<event>
 7    1  0.5897985E-013  0.5052887E+02  0.7816164E-02  0.1300439E+00
        -11   -1    0    0    0    0  0.00000000000E+00  0.00000000000E+00  0.45593999997E+02  0.45594000000E+02  0.51100000000E-03 0.  1.
         11   -1    0    0    0    0 -0.00000000000E+00 -0.00000000000E+00 -0.45593999997E+02  0.45594000000E+02  0.51100000000E-03 0. -1.
    9900012    2    1    2    0    0 -0.28060655170E+01 -0.92932313085E+01  0.39483250716E+02  0.50528865246E+02  0.30000016402E+02 0.  0.
         12    1    1    2    0    0  0.28060655170E+01  0.92932313085E+01 -0.39483250716E+02  0.40659134754E+02  0.00000000000E+00 0. -1.
         11    1    3    3    0    0  0.33810956805E+01 -0.97001319525E+01  0.24670405638E+02  0.26723646505E+02  0.51100000000E-03 0.  1.
        -11    1    3    3    0    0 -0.10059628325E+02  0.32780025790E+01  0.29249903480E+01  0.10977112176E+02  0.51100000000E-03 0. -1.
         12    1    3    3    0    0  0.38724671271E+01 -0.28711019351E+01  0.11887854730E+02  0.12828106565E+02  0.00000000000E+00 0. -1.
</event>
<event>
 7    1  0.5897985E-013  0.5052887E+02  0.7816164E-02  0.1300439E+00
        -11   -1    0    0    0    0  0.00000000000E+00  0.00000000000E+00  0.45593999997E+02  0.45594000000E+02  0.51100000000E-03 0. -1.
         11   -1    0    0    0    0 -0.00000000000E+00 -0.00000000000E+00 -0.45593999997E+02  0.45594000000E+02  0.51100000000E-03 0.  1.
    9900012    2    1    2    0    0  0.30000540860E+02 -0.22717602490E+02 -0.15396202911E+02  0.50528868445E+02  0.30000026124E+02 0.  0.
         12    1    1    2    0    0 -0.30000540860E+02  0.22717602490E+02  0.15396202911E+02  0.40659131555E+02  0.00000000000E+00 0. -1.
         11    1    3    3    0    0  0.10150374417E+02 -0.27803546108E+01 -0.11053497592E+02  0.15262381264E+02  0.51100000000E-03 0.  1.
        -11    1    3    3    0    0  0.85717002589E+01 -0.19123782192E+02  0.38436237396E+01  0.21306490428E+02  0.51100000000E-03 0. -1.
         12    1    3    3    0    0  0.11278466184E+02 -0.81346568758E+00 -0.81863290583E+01  0.13959996753E+02  0.00000000000E+00 0. -1.
</event>
<event>
 7    1  0.5897985E-013  0.5052886E+02  0.7816164E-02  0.1300439E+00
        -11   -1    0    0    0    0  0.00000000000E+00  0.00000000000E+00  0.45593999997E+02  0.45594000000E+02  0.51100000000E-03 0.  1.
         11   -1    0    0    0    0 -0.00000000000E+00 -0.00000000000E+00 -0.45593999997E+02  0.45594000000E+02  0.51100000000E-03 0. -1.
    9900012    2    1    2    0    0  0.21877698075E+02 -0.15432685549E+02  0.30600063570E+02  0.50528863920E+02  0.30000012372E+02 0.  0.
         12    1    1    2    0    0 -0.21877698075E+02  0.15432685549E+02 -0.30600063570E+02  0.40659136080E+02  0.00000000000E+00 0. -1.
         11    1    3    3    0    0 -0.39673284858E+01  0.46633458692E+01  0.19175953958E+01  0.64158913935E+01  0.51100000000E-03 0. -1.
        -11    1    3    3    0    0  0.13387616299E+02 -0.14730004363E+02  0.15910870634E+02  0.25482486207E+02  0.51100000000E-03 0.  1.
        -12    1    3    3    0    0  0.12457410262E+02 -0.53660270548E+01  0.12771597540E+02  0.18630486319E+02  0.00000000000E+00 0.  1.
</event>
<event>
 7    1  0.5897985E-013  0.5052886E+02  0.7816164E-02  0.1300439E+00
        -11   -1    0    0    0    0  0.00000000000E+00  0.00000000000E+00  0.45593999997E+02  0.45594000000E+02  0.51100000000E-03 0.  1.
         11   -1    0    0    0    0 -0.00000000000E+00 -0.00000000000E+00 -0.45593999997E+02  0.45594000000E+02  0.51100000000E-03 0. -1.
    9900012    2    1    2    0    0  0.10334494978E+02 -0.37680670488E+02  0.11248598812E+02  0.50528859697E+02  0.29999999536E+02 0.  0.
         12    1    1    2    0    0 -0.10334494978E+02  0.37680670488E+02 -0.11248598812E+02  0.40659140303E+02  0.00000000000E+00 0. -1.
         11    1    3    3    0    0  0.10902336666E+02 -0.30772226826E+02 -0.19991993780E+01  0.32707609008E+02  0.51100000000E-03 0. -1.
        -11    1    3    3    0    0  0.36518095421E+01 -0.54494765225E+01  0.11036532902E+02  0.12838908289E+02  0.51100000000E-03 0.  1.
         12    1    3    3    0    0 -0.42196512300E+01 -0.14589671400E+01  0.22112652882E+01  0.49823424002E+01  0.00000000000E+00 0. -1.
</event>
<event>
 7    1  0.5897985E-013  0.5052886E+02  0.7816164E-02  0.1300439E+00
        -11   -1    0    0    0    0  0.00000000000E+00  0.00000000000E+00  0.45593999997E+02  0.45594000000E+02  0.51100000000E-03 0. -1.
         11   -1    0    0    0    0 -0.00000000000E+00 -0.00000000000E+00 -0.45593999997E+02  0.45594000000E+02  0.51100000000E-03 0.  1.
    9900012    2    1    2    0    0  0.14695034457E+02  0.23889321417E+02 -0.29436749344E+02  0.50528856780E+02  0.29999990667E+02 0.  0.
         12    1    1    2    0    0 -0.14695034457E+02 -0.23889321417E+02  0.29436749344E+02  0.40659143220E+02  0.00000000000E+00 0. -1.
         11    1    3    3    0    0 -0.61060692828E+01  0.11057375507E+02 -0.18404135896E+02  0.22321779802E+02  0.51100000000E-03 0. -1.
        -11    1    3    3    0    0  0.13446933262E+02  0.33021038940E+01 -0.48235853793E+01  0.14662567321E+02  0.51100000000E-03 0.  1.
         12    1    3    3    0    0  0.73541704775E+01  0.95298420163E+01 -0.62090280687E+01  0.13544509656E+02  0.00000000000E+00 0. -1.
</event>
<event>
 7    1  0.5897985E-013  0.5052886E+02  0.7816164E-02  0.1300439E+00
        -11   -1    0    0    0    0  0.00000000000E+00  0.00000000000E+00  0.45593999997E+02  0.45594000000E+02  0.51100000000E-03 0.  1.
         11   -1    0    0    0    0 -0.00000000000E+00 -0.00000000000E+00 -0.45593999997E+02  0.45594000000E+02  0.51100000000E-03 0. -1.
    9900012    2    1    2    0    0 -0.39915280218E+02  0.74713965049E+01  0.20283090002E+01  0.50528863290E+02  0.30000010456E+02 0.  0.
         12    1    1    2    0    0  0.39915280218E+02 -0.74713965049E+01 -0.20283090002E+01  0.40659136710E+02  0.00000000000E+00 0. -1.
         11    1    3    3    0    0 -0.52909237102E+01  0.11505047624E+02  0.68040886345E+01  0.14375521449E+02  0.51100000000E-03 0. -1.
        -11    1    3    3    0    0 -0.31992023990E+02 -0.57718910029E+01 -0.53535722206E+01  0.32946396775E+02  0.51100000000E-03 0.  1.
         12    1    3    3    0    0 -0.26323325179E+01  0.17382398843E+01  0.57779258624E+00  0.32069450655E+01  0.00000000000E+00 0. -1.
</event>
<event>
 7    1  0.5897985E-013  0.5052885E+02  0.7816164E-02  0.1300439E+00
        -11   -1    0    0    0    0  0.00000000000E+00  0.00000000000E+00  0.45593999997E+02  0.45594000000E+02  0.51100000000E-03 0.  1.
         11   -1    0    0    0    0 -0.00000000000E+00 -0.00000000000E+00 -0.45593999997E+02  0.45594000000E+02  0.51100000000E-03 0. -1.
    9900012    2    1    2    0    0  0.10618911607E+02  0.12011111151E+01  0.39229610367E+02  0.50528852429E+02  0.29999977444E+02 0.  0.
         12    1    1    2    0    0 -0.10618911607E+02 -0.12011111151E+01 -0.39229610367E+02  0.40659147571E+02  0.00000000000E+00 0. -1.
         11    1    3    3    0    0  0.10846560022E+02  0.25655928827E+01  0.12111471511E+02  0.16459583031E+02  0.51100000000E-03 0. -1.
        -11    1    3    3    0    0 -0.17622274147E+01 -0.10681433207E+02  0.11312844343E+02  0.15658189813E+02  0.51100000000E-03 0.  1.
        -12    1    3    3    0    0  0.15345789995E+01  0.93169514397E+01  0.15805294514E+02  0.18411079585E+02  0.00000000000E+00 0.  1.
</event>
<event>
 7    1  0.5897985E-013  0.5052886E+02  0.7816164E-02  0.1300439E+00
        -11   -1    0    0    0    0  0.00000000000E+00  0.00000000000E+00  0.45593999997E+02  0.45594000000E+02  0.51100000000E-03 0. -1.
         11   -1    0    0    0    0 -0.00000000000E+00 -0.00000000000E+00 -0.45593999997E+02  0.45594000000E+02  0.51100000000E-03 0.  1.
    9900012    2    1    2    0    0 -0.23929039406E+02  0.32580466348E+02  0.43680238295E+01  0.50528863923E+02  0.30000012380E+02 0.  0.
         12    1    1    2    0    0  0.23929039406E+02 -0.32580466348E+02 -0.43680238295E+01  0.40659136077E+02  0.00000000000E+00 0. -1.
         11    1    3    3    0    0 -0.13711132756E+02  0.98677184000E+01  0.14820954922E+02  0.22472822095E+02  0.51100000000E-03 0. -1.
        -11    1    3    3    0    0 -0.10763097869E+02  0.16735454252E+02 -0.92133165315E+01  0.21927264000E+02  0.51100000000E-03 0.  1.
         12    1    3    3    0    0  0.54519121820E+00  0.59772936967E+01 -0.12396145613E+01  0.61287778277E+01  0.00000000000E+00 0. -1.
</event>
<event>
 7    1  0.5897985E-013  0.5052886E+02  0.7816164E-02  0.1300439E+00
        -11   -1    0    0    0    0  0.00000000000E+00  0.00000000000E+00  0.45593999997E+02  0.45594000000E+02  0.51100000000E-03 0.  1.
         11   -1    0    0    0    0 -0.00000000000E+00 -0.00000000000E+00 -0.45593999997E+02  0.45594000000E+02  0.51100000000E-03 0. -1.
    9900012    2    1    2    0    0 -0.37172490701E+02 -0.10508843243E+02  0.12686061392E+02  0.50528855827E+02  0.29999987772E+02 0.  0.
         12    1    1    2    0    0  0.37172490701E+02  0.10508843243E+02 -0.12686061392E+02  0.40659144173E+02  0.00000000000E+00 0. -1.
         11    1    3    3    0    0 -0.32586688986E+01 -0.39422285012E+01 -0.22090804804E+01  0.55713665627E+01  0.51100000000E-03 0. -1.
        -11    1    3    3    0    0 -0.84774462476E+01  0.29330025262E+00  0.16511339932E+02  0.18562797918E+02  0.51100000000E-03 0.  1.
        -12    1    3    3    0    0 -0.25436375555E+02 -0.68599149947E+01 -0.16161980601E+01  0.26394691346E+02  0.00000000000E+00 0.  1.
</event>
<event>
 7    1  0.5897985E-013  0.5052885E+02  0.7816164E-02  0.1300439E+00
        -11   -1    0    0    0    0  0.00000000000E+00  0.00000000000E+00  0.45593999997E+02  0.45594000000E+02  0.51100000000E-03 0.  1.
         11   -1    0    0    0    0 -0.00000000000E+00 -0.00000000000E+00 -0.45593999997E+02  0.45594000000E+02  0.51100000000E-03 0. -1.
    9900012    2    1    2    0    0 -0.14275863756E+01 -0.22371575866E+02  0.33921105019E+02  0.50528846353E+02  0.29999958975E+02 0.  0.
         12    1    1    2    0    0  0.14275863756E+01  0.22371575866E+02 -0.33921105019E+02  0.40659153647E+02  0.00000000000E+00 0. -1.
         11    1    3    3    0    0  0.63680167820E+01 -0.23649972327E+02  0.19171917989E+02  0.31103621468E+02  0.51100000000E-03 0. -1.
        -11    1    3    3    0    0 -0.59404077387E+01 -0.36336785608E+01  0.10819728145E+02  0.12866956959E+02  0.51100000000E-03 0.  1.
         12    1    3    3    0    0 -0.18551954190E+01  0.49120750218E+01  0.39294588854E+01  0.65582679264E+01  0.00000000000E+00 0. -1.
</event>
<event>
 7    1  0.5897985E-013  0.5052886E+02  0.7816164E-02  0.1300439E+00
        -11   -1    0    0    0    0  0.00000000000E+00  0.00000000000E+00  0.45593999997E+02  0.45594000000E+02  0.51100000000E-03 0.  1.
         11   -1    0    0    0    0 -0.00000000000E+00 -0.00000000000E+00 -0.45593999997E+02  0.45594000000E+02  0.51100000000E-03 0. -1.
    9900012    2    1    2    0    0 -0.35625232265E+02 -0.30955233264E+01  0.19350088207E+02  0.50528863853E+02  0.30000012169E+02 0.  0.
         12    1    1    2    0    0  0.35625232265E+02  0.30955233264E+01 -0.19350088207E+02  0.40659136147E+02  0.00000000000E+00 0. -1.
         11    1    3    3    0    0 -0.10130562787E+02 -0.63544423888E+01 -0.41172281556E+01  0.12647482295E+02  0.51100000000E-03 0. -1.
        -11    1    3    3    0    0 -0.23193555723E+02  0.60195850048E+01  0.13993484747E+02  0.27748766573E+02  0.51100000000E-03 0.  1.
        -12    1    3    3    0    0 -0.23011137546E+01 -0.27606659424E+01  0.94738316156E+01  0.10132614985E+02  0.00000000000E+00 0.  1.
</event>
<event>
 7    1  0.5897985E-013  0.5052886E+02  0.7816164E-02  0.1300439E+00
        -11   -1    0    0    0    0  0.00000000000E+00  0.00000000000E+00  0.45593999997E+02  0.45594000000E+02  0.51100000000E-03 0.  1.
         11   -1    0    0    0    0 -0.00000000000E+00 -0.00000000000E+00 -0.45593999997E+02  0.45594000000E+02  0.51100000000E-03 0. -1.
    9900012    2    1    2    0    0 -0.35033609963E+02  0.10455491962E+02  0.17790291120E+02  0.50528860839E+02  0.30000003005E+02 0.  0.
         12    1    1    2    0    0  0.35033609963E+02 -0.10455491962E+02 -0.17790291120E+02  0.40659139161E+02  0.00000000000E+00 0. -1.
         11    1    3    3    0    0  0.44046584126E+01 -0.44924025747E+00  0.25525294407E+01  0.51106006836E+01  0.51100000000E-03 0. -1.
        -11    1    3    3    0    0 -0.30457804509E+02  0.31059074174E+01  0.13246602363E+02  0.33358611944E+02  0.51100000000E-03 0.  1.
        -12    1    3    3    0    0 -0.89804638670E+01  0.77988248017E+01  0.19911593156E+01  0.12059648211E+02  0.00000000000E+00 0.  1.
</event>
<event>
 7    1  0.5897985E-013  0.5052884E+02  0.7816164E-02  0.1300439E+00
        -11   -1    0    0    0    0  0.00000000000E+00  0.00000000000E+00  0.45593999997E+02  0.45594000000E+02  0.51100000000E-03 0. -1.
         11   -1    0    0    0    0 -0.00000000000E+00 -0.00000000000E+00 -0.45593999997E+02  0.45594000000E+02  0.51100000000E-03 0.  1.
    9900012    2    1    2    0    0  0.10700365651E+02 -0.34817820214E+02 -0.18066235964E+02  0.50528839760E+02  0.29999938935E+02 0.  0.
         12    1    1    2    0    0 -0.10700365651E+02  0.34817820214E+02  0.18066235964E+02  0.40659160240E+02  0.00000000000E+00 0. -1.
         11    1    3    3    0    0  0.62138168184E+01 -0.20298784959E+02  0.19277187071E+01  0.21315916352E+02  0.51100000000E-03 0. -1.
        -11    1    3    3    0    0  0.68551365178E+01 -0.22459092303E+01 -0.13057637900E+02  0.14917738191E+02  0.51100000000E-03 0.  1.
        -12    1    3    3    0    0 -0.23685876856E+01 -0.12273126025E+02 -0.69363167714E+01  0.14295185217E+02  0.00000000000E+00 0.  1.
</event>
<event>
 7    1  0.5897985E-013  0.5052885E+02  0.7816164E-02  0.1300439E+00
        -11   -1    0    0    0    0  0.00000000000E+00  0.00000000000E+00  0.45593999997E+02  0.45594000000E+02  0.51100000000E-03 0.  1.
         11   -1    0    0    0    0 -0.00000000000E+00 -0.00000000000E+00 -0.45593999997E+02  0.45594000000E+02  0.51100000000E-03 0. -1.
    9900012    2    1    2    0    0  0.40612233398E+02 -0.12010149496E+01  0.15396564821E+01  0.50528849977E+02  0.29999969990E+02 0.  0.
         12    1    1    2    0    0 -0.40612233398E+02  0.12010149496E+01 -0.15396564821E+01  0.40659150023E+02  0.00000000000E+00 0. -1.
         11    1    3    3    0    0  0.55556135692E+01  0.47758830070E+01 -0.48339764614E+00  0.73421777540E+01  0.51100000000E-03 0. -1.
        -11    1    3    3    0    0  0.28848924061E+02 -0.67480597267E+01  0.11541874061E+02  0.31796408392E+02  0.51100000000E-03 0.  1.
        -12    1    3    3    0    0  0.62076957685E+01  0.77116177004E+00 -0.95188199328E+01  0.11390263831E+02  0.00000000000E+00 0.  1.
</event>
<event>
 7    1  0.5897985E-013  0.5052885E+02  0.7816164E-02  0.1300439E+00
        -11   -1    0    0    0    0  0.00000000000E+00  0.00000000000E+00  0.45593999997E+02  0.45594000000E+02  0.51100000000E-03 0.  1.
         11   -1    0    0    0    0 -0.00000000000E+00 -0.00000000000E+00 -0.45593999997E+02  0.45594000000E+02  0.51100000000E-03 0. -1.
    9900012    2    1    2    0    0  0.22610463694E+02  0.84428424748E+01  0.32720810246E+02  0.50528854895E+02  0.29999984938E+02 0.  0.
         12    1    1    2    0    0 -0.22610463694E+02 -0.84428424748E+01 -0.32720810246E+02  0.40659145105E+02  0.00000000000E+00 0. -1.
         11    1    3    3    0    0  0.71151037624E+01  0.33501712511E+01 -0.32239602724E+01  0.84995452267E+01  0.51100000000E-03 0. -1.
        -11    1    3    3    0    0  0.12216232713E+02 -0.32598662382E+01  0.18435573804E+02  0.22354718771E+02  0.51100000000E-03 0.  1.
        -12    1    3    3    0    0  0.32791272191E+01  0.83525374618E+01  0.17509196715E+02  0.19674590897E+02  0.00000000000E+00 0.  1.
</event>
<event>
 7    1  0.5897985E-013  0.5052888E+02  0.7816164E-02  0.1300439E+00
        -11   -1    0    0    0    0  0.00000000000E+00  0.00000000000E+00  0.45593999997E+02  0.45594000000E+02  0.51100000000E-03 0.  1.
         11   -1    0    0    0    0 -0.00000000000E+00 -0.00000000000E+00 -0.45593999997E+02  0.45594000000E+02  0.51100000000E-03 0. -1.
    9900012    2    1    2    0    0  0.10718281724E+02  0.25109534976E+02  0.30129620655E+02  0.50528876169E+02  0.30000049604E+02 0.  0.
         12    1    1    2    0    0 -0.10718281724E+02 -0.25109534976E+02 -0.30129620655E+02  0.40659123831E+02  0.00000000000E+00 0. -1.
         11    1    3    3    0    0  0.13132450573E+02  0.93798052039E+01  0.34926302433E+01  0.16511828185E+02  0.51100000000E-03 0. -1.
        -11    1    3    3    0    0 -0.67208408832E+01  0.25395659977E+01  0.10670839523E+02  0.12864132851E+02  0.51100000000E-03 0.  1.
        -12    1    3    3    0    0  0.43066720338E+01  0.13190163775E+02  0.15966150889E+02  0.21152915133E+02  0.00000000000E+00 0.  1.
</event>
<event>
 7    1  0.5897985E-013  0.5052881E+02  0.7816164E-02  0.1300439E+00
        -11   -1    0    0    0    0  0.00000000000E+00  0.00000000000E+00  0.45593999997E+02  0.45594000000E+02  0.51100000000E-03 0.  1.
         11   -1    0    0    0    0 -0.00000000000E+00 -0.00000000000E+00 -0.45593999997E+02  0.45594000000E+02  0.51100000000E-03 0. -1.
    9900012    2    1    2    0    0 -0.20922927199E+02  0.29111914160E+02  0.19180642249E+02  0.50528813268E+02  0.29999858408E+02 0.  0.
         12    1    1    2    0    0  0.20922927199E+02 -0.29111914160E+02 -0.19180642249E+02  0.40659186732E+02  0.00000000000E+00 0. -1.
         11    1    3    3    0    0 -0.69447759710E+01  0.26367761592E+02  0.15087133230E+02  0.31162643566E+02  0.51100000000E-03 0. -1.
        -11    1    3    3    0    0 -0.15331776959E+02  0.43156448112E+01  0.55108951022E+01  0.16854024444E+02  0.51100000000E-03 0.  1.
         12    1    3    3    0    0  0.13536257314E+01 -0.15714922429E+01 -0.14173860829E+01  0.25121452582E+01  0.00000000000E+00 0. -1.
</event>
<event>
 7    1  0.5897985E-013  0.5052889E+02  0.7816164E-02  0.1300439E+00
        -11   -1    0    0    0    0  0.00000000000E+00  0.00000000000E+00  0.45593999997E+02  0.45594000000E+02  0.51100000000E-03 0.  1.
         11   -1    0    0    0    0 -0.00000000000E+00 -0.00000000000E+00 -0.45593999997E+02  0.45594000000E+02  0.51100000000E-03 0. -1.
    9900012    2    1    2    0    0  0.37024885425E+02  0.84382174193E+01  0.14529898377E+02  0.50528885391E+02  0.30000077635E+02 0.  0.
         12    1    1    2    0    0 -0.37024885425E+02 -0.84382174193E+01 -0.14529898377E+02  0.40659114609E+02  0.00000000000E+00 0. -1.
         11    1    3    3    0    0  0.24114562422E+02  0.85432790923E+01 -0.38457415971E+01  0.25870629431E+02  0.51100000000E-03 0. -1.
        -11    1    3    3    0    0  0.34661201881E+01 -0.36981736044E+01  0.11113314849E+02  0.12214591452E+02  0.51100000000E-03 0.  1.
         12    1    3    3    0    0  0.94442028143E+01  0.35931119315E+01  0.72623251256E+01  0.12443664508E+02  0.00000000000E+00 0. -1.
</event>
<event>
 7    1  0.5897985E-013  0.5052887E+02  0.7816164E-02  0.1300439E+00
        -11   -1    0    0    0    0  0.00000000000E+00  0.00000000000E+00  0.45593999997E+02  0.45594000000E+02  0.51100000000E-03 0.  1.
         11   -1    0    0    0    0 -0.00000000000E+00 -0.00000000000E+00 -0.45593999997E+02  0.45594000000E+02  0.51100000000E-03 0. -1.
    9900012    2    1    2    0    0 -0.24266929819E+02 -0.31807737263E+02  0.72490771879E+01  0.50528866306E+02  0.30000019624E+02 0.  0.
         12    1    1    2    0    0  0.24266929819E+02  0.31807737263E+02 -0.72490771879E+01  0.40659133694E+02  0.00000000000E+00 0. -1.
         11    1    3    3    0    0 -0.17561257465E+02 -0.13006674722E+02 -0.99775990160E+01  0.24023401788E+02  0.51100000000E-03 0. -1.
        -11    1    3    3    0    0 -0.49937437601E+01 -0.10137135036E+02  0.10125630643E+02  0.15173245521E+02  0.51100000000E-03 0.  1.
         12    1    3    3    0    0 -0.17119285939E+01 -0.86639275057E+01  0.71010455613E+01  0.11332218997E+02  0.00000000000E+00 0. -1.
</event>
<event>
 7    1  0.5897985E-013  0.5052889E+02  0.7816164E-02  0.1300439E+00
        -11   -1    0    0    0    0  0.00000000000E+00  0.00000000000E+00  0.45593999997E+02  0.45594000000E+02  0.51100000000E-03 0. -1.
         11   -1    0    0    0    0 -0.00000000000E+00 -0.00000000000E+00 -0.45593999997E+02  0.45594000000E+02  0.51100000000E-03 0.  1.
    9900012    2    1    2    0    0 -0.94612573384E+01  0.62274973866E+01 -0.39049537595E+02  0.50528886624E+02  0.30000081383E+02 0.  0.
         12    1    1    2    0    0  0.94612573384E+01 -0.62274973866E+01  0.39049537595E+02  0.40659113376E+02  0.00000000000E+00 0. -1.
         11    1    3    3    0    0 -0.87415813349E+01  0.80947503953E+01 -0.17597625859E+01  0.12043130524E+02  0.51100000000E-03 0. -1.
        -11    1    3    3    0    0 -0.32041937237E+01 -0.32962896586E+01 -0.95554811740E+01  0.10603754225E+02  0.51100000000E-03 0.  1.
         12    1    3    3    0    0  0.24845177202E+01  0.14290366499E+01 -0.27734293835E+02  0.27882001875E+02  0.00000000000E+00 0. -1.
</event>
<event>
 7    1  0.5897985E-013  0.5052886E+02  0.7816164E-02  0.1300439E+00
        -11   -1    0    0    0    0  0.00000000000E+00  0.00000000000E+00  0.45593999997E+02  0.45594000000E+02  0.51100000000E-03 0. -1.
         11   -1    0    0    0    0 -0.00000000000E+00 -0.00000000000E+00 -0.45593999997E+02  0.45594000000E+02  0.51100000000E-03 0.  1.
    9900012    2    1    2    0    0 -0.92043049481E+01  0.34985346122E+02 -0.18559963530E+02  0.50528856882E+02  0.29999990980E+02 0.  0.
         12    1    1    2    0    0  0.92043049481E+01 -0.34985346122E+02  0.18559963530E+02  0.40659143118E+02  0.00000000000E+00 0. -1.
         11    1    3    3    0    0 -0.54016919933E+01  0.15958039456E+02  0.11697904961E+01  0.16888034513E+02  0.51100000000E-03 0. -1.
        -11    1    3    3    0    0 -0.68031145499E+01  0.40804165747E+01 -0.16131906218E+02  0.17976945388E+02  0.51100000000E-03 0.  1.
         12    1    3    3    0    0  0.30005015951E+01  0.14946890092E+02 -0.35978478082E+01  0.15663876981E+02  0.00000000000E+00 0. -1.
</event>
<event>
 7    1  0.5897985E-013  0.5052887E+02  0.7816164E-02  0.1300439E+00
        -11   -1    0    0    0    0  0.00000000000E+00  0.00000000000E+00  0.45593999997E+02  0.45594000000E+02  0.51100000000E-03 0.  1.
         11   -1    0    0    0    0 -0.00000000000E+00 -0.00000000000E+00 -0.45593999997E+02  0.45594000000E+02  0.51100000000E-03 0. -1.
    9900012    2    1    2    0    0  0.11165486888E+02 -0.51701298664E+01  0.38752633554E+02  0.50528868828E+02  0.30000027289E+02 0.  0.
         12    1    1    2    0    0 -0.11165486888E+02  0.51701298664E+01 -0.38752633554E+02  0.40659131172E+02  0.00000000000E+00 0. -1.
         11    1    3    3    0    0  0.12908598490E+02 -0.13681345201E+02  0.24546241374E+02  0.30924570932E+02  0.51100000000E-03 0. -1.
        -11    1    3    3    0    0  0.36291121379E+01  0.55644722284E+01  0.10554590254E+02  0.12471294310E+02  0.51100000000E-03 0.  1.
         12    1    3    3    0    0 -0.53722237396E+01  0.29467431058E+01  0.36518019263E+01  0.71330035853E+01  0.00000000000E+00 0. -1.
</event>
<event>
 7    1  0.5897985E-013  0.5052886E+02  0.7816164E-02  0.1300439E+00
        -11   -1    0    0    0    0  0.00000000000E+00  0.00000000000E+00  0.45593999997E+02  0.45594000000E+02  0.51100000000E-03 0.  1.
         11   -1    0    0    0    0 -0.00000000000E+00 -0.00000000000E+00 -0.45593999997E+02  0.45594000000E+02  0.51100000000E-03 0. -1.
    9900012    2    1    2    0    0 -0.74876044062E+01 -0.36351056604E+02  0.16604292665E+02  0.50528855015E+02  0.29999985305E+02 0.  0.
         12    1    1    2    0    0  0.74876044062E+01  0.36351056604E+02 -0.16604292665E+02  0.40659144985E+02  0.00000000000E+00 0. -1.
         11    1    3    3    0    0 -0.51253870241E+01  0.29153905485E+00 -0.14626116877E+01  0.53379603199E+01  0.51100000000E-03 0. -1.
        -11    1    3    3    0    0  0.43461760561E+01 -0.97071585730E+01  0.13294581499E+02  0.17025394896E+02  0.51100000000E-03 0.  1.
         12    1    3    3    0    0 -0.67083934383E+01 -0.26935437086E+02  0.47723228536E+01  0.28165499799E+02  0.00000000000E+00 0. -1.
</event>
<event>
 7    1  0.5897985E-013  0.5052886E+02  0.7816164E-02  0.1300439E+00
        -11   -1    0    0    0    0  0.00000000000E+00  0.00000000000E+00  0.45593999997E+02  0.45594000000E+02  0.51100000000E-03 0.  1.
         11   -1    0    0    0    0 -0.00000000000E+00 -0.00000000000E+00 -0.45593999997E+02  0.45594000000E+02  0.51100000000E-03 0. -1.
    9900012    2    1    2    0    0 -0.11811820685E+02  0.14587511984E+02  0.36067316709E+02  0.50528856522E+02  0.29999989884E+02 0.  0.
         12    1    1    2    0    0  0.11811820685E+02 -0.14587511984E+02 -0.36067316709E+02  0.40659143478E+02  0.00000000000E+00 0. -1.
         11    1    3    3    0    0  0.50431331094E+01 -0.45307336867E+01  0.77712454195E+01  0.10312758842E+02  0.51100000000E-03 0. -1.
        -11    1    3    3    0    0 -0.13935122946E+02  0.10226635469E+02  0.10821044455E+02  0.20392810691E+02  0.51100000000E-03 0.  1.
        -12    1    3    3    0    0 -0.29198308479E+01  0.88916102017E+01  0.17475026835E+02  0.19823286989E+02  0.00000000000E+00 0.  1.
</event>
<event>
 7    1  0.5897985E-013  0.5052886E+02  0.7816164E-02  0.1300439E+00
        -11   -1    0    0    0    0  0.00000000000E+00  0.00000000000E+00  0.45593999997E+02  0.45594000000E+02  0.51100000000E-03 0.  1.
         11   -1    0    0    0    0 -0.00000000000E+00 -0.00000000000E+00 -0.45593999997E+02  0.45594000000E+02  0.51100000000E-03 0. -1.
    9900012    2    1    2    0    0  0.66994050406E+01 -0.32138997646E+02  0.23986844086E+02  0.50528857279E+02  0.29999992185E+02 0.  0.
         12    1    1    2    0    0 -0.66994050406E+01  0.32138997646E+02 -0.23986844086E+02  0.40659142721E+02  0.00000000000E+00 0. -1.
         11    1    3    3    0    0  0.33121571591E+01 -0.97443812940E-01 -0.23744354694E+01  0.40764965844E+01  0.51100000000E-03 0. -1.
        -11    1    3    3    0    0 -0.26892958468E+01 -0.31810918451E+02  0.20104553360E+02  0.37727442411E+02  0.51100000000E-03 0.  1.
         12    1    3    3    0    0  0.60765437283E+01 -0.23063538239E+00  0.62567261961E+01  0.87249182835E+01  0.00000000000E+00 0. -1.
</event>
<event>
 7    1  0.5897985E-013  0.5052887E+02  0.7816164E-02  0.1300439E+00
        -11   -1    0    0    0    0  0.00000000000E+00  0.00000000000E+00  0.45593999997E+02  0.45594000000E+02  0.51100000000E-03 0. -1.
         11   -1    0    0    0    0 -0.00000000000E+00 -0.00000000000E+00 -0.45593999997E+02  0.45594000000E+02  0.51100000000E-03 0.  1.
    9900012    2    1    2    0    0  0.55827314044E+01  0.39235672953E+02 -0.90862672726E+01  0.50528866033E+02  0.30000018795E+02 0.  0.
         12    1    1    2    0    0 -0.55827314044E+01 -0.39235672953E+02  0.90862672726E+01  0.40659133967E+02  0.00000000000E+00 0. -1.
         11    1    3    3    0    0  0.91142030476E+01  0.22654802575E+01 -0.14713076423E+01  0.95060951199E+01  0.51100000000E-03 0. -1.
        -11    1    3    3    0    0 -0.90573046415E+01  0.19556291249E+02 -0.72861678949E+01  0.22750198629E+02  0.51100000000E-03 0.  1.
        -12    1    3    3    0    0  0.55258329983E+01  0.17413901446E+02 -0.32879173542E+00  0.18272572284E+02  0.00000000000E+00 0.  1.
</event>
<event>
 7    1  0.5897985E-013  0.5052885E+02  0.7816164E-02  0.1300439E+00
        -11   -1    0    0    0    0  0.00000000000E+00  0.00000000000E+00  0.45593999997E+02  0.45594000000E+02  0.51100000000E-03 0. -1.
         11   -1    0    0    0    0 -0.00000000000E+00 -0.00000000000E+00 -0.45593999997E+02  0.45594000000E+02  0.51100000000E-03 0.  1.
    9900012    2    1    2    0    0 -0.34843924441E+02  0.14686475829E+02 -0.14945722772E+02  0.50528852543E+02  0.29999977790E+02 0.  0.
         12    1    1    2    0    0  0.34843924441E+02 -0.14686475829E+02  0.14945722772E+02  0.40659147457E+02  0.00000000000E+00 0. -1.
         11    1    3    3    0    0 -0.84701701794E+01 -0.92925891385E+00  0.46092091121E+01  0.96877300694E+01  0.51100000000E-03 0. -1.
        -11    1    3    3    0    0 -0.16658460036E+02  0.19220859763E+02 -0.12831703823E+02  0.28488565497E+02  0.51100000000E-03 0.  1.
        -12    1    3    3    0    0 -0.97152942253E+01 -0.36051250207E+01 -0.67232280606E+01  0.12352556976E+02  0.00000000000E+00 0.  1.
</event>
<event>
 7    1  0.5897985E-013  0.5052886E+02  0.7816164E-02  0.1300439E+00
        -11   -1    0    0    0    0  0.00000000000E+00  0.00000000000E+00  0.45593999997E+02  0.45594000000E+02  0.51100000000E-03 0.  1.
         11   -1    0    0    0    0 -0.00000000000E+00 -0.00000000000E+00 -0.45593999997E+02  0.45594000000E+02  0.51100000000E-03 0. -1.
    9900012    2    1    2    0    0  0.23102451274E+02  0.16890487707E+02  0.28881720956E+02  0.50528860373E+02  0.30000001589E+02 0.  0.
         12    1    1    2    0    0 -0.23102451274E+02 -0.16890487707E+02 -0.28881720956E+02  0.40659139627E+02  0.00000000000E+00 0. -1.
         11    1    3    3    0    0 -0.84396527692E+00  0.48003968723E+01  0.20740083103E+02  0.21305096454E+02  0.51100000000E-03 0. -1.
        -11    1    3    3    0    0  0.16891798955E+02  0.86762947058E+01  0.16757031965E+01  0.19063550121E+02  0.51100000000E-03 0.  1.
        -12    1    3    3    0    0  0.70546175956E+01  0.34137961292E+01  0.64659346568E+01  0.10160213798E+02  0.00000000000E+00 0.  1.
</event>
<event>
 7    1  0.5897985E-013  0.5052885E+02  0.7816164E-02  0.1300439E+00
        -11   -1    0    0    0    0  0.00000000000E+00  0.00000000000E+00  0.45593999997E+02  0.45594000000E+02  0.51100000000E-03 0. -1.
         11   -1    0    0    0    0 -0.00000000000E+00 -0.00000000000E+00 -0.45593999997E+02  0.45594000000E+02  0.51100000000E-03 0.  1.
    9900012    2    1    2    0    0 -0.38626552954E+01  0.39759366796E+02 -0.75788527926E+01  0.50528851415E+02  0.29999974362E+02 0.  0.
         12    1    1    2    0    0  0.38626552954E+01 -0.39759366796E+02  0.75788527926E+01  0.40659148585E+02  0.00000000000E+00 0. -1.
         11    1    3    3    0    0  0.29263362461E+01 -0.39360308311E+00 -0.60636764440E+01  0.67443709485E+01  0.51100000000E-03 0. -1.
        -11    1    3    3    0    0 -0.10496359632E+02  0.19031109558E+02 -0.43142226400E+01  0.22157825114E+02  0.51100000000E-03 0.  1.
        -12    1    3    3    0    0  0.37073680910E+01  0.21121860322E+02  0.27990462913E+01  0.21626655353E+02  0.00000000000E+00 0.  1.
</event>
<event>
 7    1  0.5897985E-013  0.5052886E+02  0.7816164E-02  0.1300439E+00
        -11   -1    0    0    0    0  0.00000000000E+00  0.00000000000E+00  0.45593999997E+02  0.45594000000E+02  0.51100000000E-03 0. -1.
         11   -1    0    0    0    0 -0.00000000000E+00 -0.00000000000E+00 -0.45593999997E+02  0.45594000000E+02  0.51100000000E-03 0.  1.
    9900012    2    1    2    0    0 -0.19971820626E+02  0.32854950770E+02 -0.13222854506E+02  0.50528864612E+02  0.30000014475E+02 0.  0.
         12    1    1    2    0    0  0.19971820626E+02 -0.32854950770E+02  0.13222854506E+02  0.40659135388E+02  0.00000000000E+00 0. -1.
         11    1    3    3    0    0 -0.13255533024E+02  0.11104066550E+02 -0.38798573363E+01  0.17721815452E+02  0.51100000000E-03 0. -1.
        -11    1    3    3    0    0  0.67960435075E+01  0.13154016358E+02 -0.12376926407E+01  0.14857531324E+02  0.51100000000E-03 0.  1.
        -12    1    3    3    0    0 -0.13512331109E+02  0.85968678609E+01 -0.81053045295E+01  0.17949517836E+02  0.00000000000E+00 0.  1.
</event>
<event>
 7    1  0.5897985E-013  0.5052886E+02  0.7816164E-02  0.1300439E+00
        -11   -1    0    0    0    0  0.00000000000E+00  0.00000000000E+00  0.45593999997E+02  0.45594000000E+02  0.51100000000E-03 0. -1.
         11   -1    0    0    0    0 -0.00000000000E+00 -0.00000000000E+00 -0.45593999997E+02  0.45594000000E+02  0.51100000000E-03 0.  1.
    9900012    2    1    2    0    0 -0.39185805543E+02  0.10688179992E+02  0.18441473856E+01  0.50528862931E+02  0.30000009365E+02 0.  0.
         12    1    1    2    0    0  0.39185805543E+02 -0.10688179992E+02 -0.18441473856E+01  0.40659137069E+02  0.00000000000E+00 0. -1.
         11    1    3    3    0    0 -0.26566716543E+02 -0.29602626690E+01  0.59168063772E+01  0.27378133262E+02  0.51100000000E-03 0.  1.
        -11    1    3    3    0    0 -0.59101745531E+01  0.11800930363E+02  0.26651745264E+01  0.13464593429E+02  0.51100000000E-03 0. -1.
         12    1    3    3    0    0 -0.67089144471E+01  0.18475122978E+01 -0.67378335179E+01  0.96861362402E+01  0.00000000000E+00 0. -1.
</event>
<event>
 7    1  0.5897985E-013  0.5052886E+02  0.7816164E-02  0.1300439E+00
        -11   -1    0    0    0    0  0.00000000000E+00  0.00000000000E+00  0.45593999997E+02  0.45594000000E+02  0.51100000000E-03 0.  1.
         11   -1    0    0    0    0 -0.00000000000E+00 -0.00000000000E+00 -0.45593999997E+02  0.45594000000E+02  0.51100000000E-03 0. -1.
    9900012    2    1    2    0    0  0.13481786520E+02  0.28984243739E+02  0.25126100964E+02  0.50528857085E+02  0.29999991597E+02 0.  0.
         12    1    1    2    0    0 -0.13481786520E+02 -0.28984243739E+02 -0.25126100964E+02  0.40659142915E+02  0.00000000000E+00 0. -1.
         11    1    3    3    0    0  0.32531274807E+01  0.27388589867E+02  0.23115626333E+02  0.35986801391E+02  0.51100000000E-03 0. -1.
        -11    1    3    3    0    0  0.44387279151E+01 -0.42554700256E+01  0.46500131912E+00  0.61666487763E+01  0.51100000000E-03 0.  1.
         12    1    3    3    0    0  0.57899311240E+01  0.58511238974E+01  0.15454733119E+01  0.83754069180E+01  0.00000000000E+00 0. -1.
</event>
<event>
 7    1  0.5897985E-013  0.5052886E+02  0.7816164E-02  0.1300439E+00
        -11   -1    0    0    0    0  0.00000000000E+00  0.00000000000E+00  0.45593999997E+02  0.45594000000E+02  0.51100000000E-03 0.  1.
         11   -1    0    0    0    0 -0.00000000000E+00 -0.00000000000E+00 -0.45593999997E+02  0.45594000000E+02  0.51100000000E-03 0. -1.
    9900012    2    1    2    0    0 -0.99170586114E+01  0.22240022879E+02  0.32560696885E+02  0.50528860181E+02  0.30000001007E+02 0.  0.
         12    1    1    2    0    0  0.99170586114E+01 -0.22240022879E+02 -0.32560696885E+02  0.40659139819E+02  0.00000000000E+00 0. -1.
         11    1    3    3    0    0  0.87563722405E+01  0.41408000608E+01  0.10192457230E+02  0.14060813085E+02  0.51100000000E-03 0. -1.
        -11    1    3    3    0    0 -0.12425386498E+02  0.17834964493E+02  0.13400878935E+02  0.25535460532E+02  0.51100000000E-03 0.  1.
        -12    1    3    3    0    0 -0.62480443534E+01  0.26425832529E+00  0.89673607205E+01  0.10932586565E+02  0.00000000000E+00 0.  1.
</event>
<event>
 7    1  0.5897985E-013  0.5052887E+02  0.7816164E-02  0.1300439E+00
        -11   -1    0    0    0    0  0.00000000000E+00  0.00000000000E+00  0.45593999997E+02  0.45594000000E+02  0.51100000000E-03 0.  1.
         11   -1    0    0    0    0 -0.00000000000E+00 -0.00000000000E+00 -0.45593999997E+02  0.45594000000E+02  0.51100000000E-03 0. -1.
    9900012    2    1    2    0    0 -0.29406609463E+02  0.15042093328E+02  0.23709729440E+02  0.50528874063E+02  0.30000043203E+02 0.  0.
         12    1    1    2    0    0  0.29406609463E+02 -0.15042093328E+02 -0.23709729440E+02  0.40659125937E+02  0.00000000000E+00 0. -1.
         11    1    3    3    0    0 -0.14012386570E+01  0.10729337215E+01  0.57737178212E+01  0.60374228181E+01  0.51100000000E-03 0. -1.
        -11    1    3    3    0    0 -0.24067761496E+02  0.97184783059E+01  0.33154925739E+00  0.25957963888E+02  0.51100000000E-03 0.  1.
        -12    1    3    3    0    0 -0.39376093099E+01  0.42506813009E+01  0.17604462361E+02  0.18533487357E+02  0.00000000000E+00 0.  1.
</event>
<event>
 7    1  0.5897985E-013  0.5052887E+02  0.7816164E-02  0.1300439E+00
        -11   -1    0    0    0    0  0.00000000000E+00  0.00000000000E+00  0.45593999997E+02  0.45594000000E+02  0.51100000000E-03 0.  1.
         11   -1    0    0    0    0 -0.00000000000E+00 -0.00000000000E+00 -0.45593999997E+02  0.45594000000E+02  0.51100000000E-03 0. -1.
    9900012    2    1    2    0    0 -0.19356574587E+02 -0.13613430935E+02  0.33063007234E+02  0.50528869059E+02  0.30000027991E+02 0.  0.
         12    1    1    2    0    0  0.19356574587E+02  0.13613430935E+02 -0.33063007234E+02  0.40659130941E+02  0.00000000000E+00 0. -1.
         11    1    3    3    0    0 -0.10244933821E+02  0.48158651869E+01  0.12364262268E+02  0.16763836321E+02  0.51100000000E-03 0.  1.
        -11    1    3    3    0    0  0.32821039852E+01 -0.69009521354E+01  0.86509072446E+00  0.76904960287E+01  0.51100000000E-03 0. -1.
        -12    1    3    3    0    0 -0.12393744751E+02 -0.11528343987E+02  0.19833654242E+02  0.26074536709E+02  0.00000000000E+00 0.  1.
</event>
<event>
 7    1  0.5897985E-013  0.5052886E+02  0.7816164E-02  0.1300439E+00
        -11   -1    0    0    0    0  0.00000000000E+00  0.00000000000E+00  0.45593999997E+02  0.45594000000E+02  0.51100000000E-03 0. -1.
         11   -1    0    0    0    0 -0.00000000000E+00 -0.00000000000E+00 -0.45593999997E+02  0.45594000000E+02  0.51100000000E-03 0.  1.
    9900012    2    1    2    0    0 -0.13432413908E+02  0.17050433566E+02 -0.34380495074E+02  0.50528862408E+02  0.30000007776E+02 0.  0.
         12    1    1    2    0    0  0.13432413908E+02 -0.17050433566E+02  0.34380495074E+02  0.40659137592E+02  0.00000000000E+00 0. -1.
         11    1    3    3    0    0 -0.35625257737E+01  0.39983665531E+00  0.18846345398E+00  0.35898437255E+01  0.51100000000E-03 0. -1.
        -11    1    3    3    0    0 -0.16129615819E+02  0.16329597267E+02 -0.33456871592E+02  0.40573174763E+02  0.51100000000E-03 0.  1.
        -12    1    3    3    0    0  0.62597276845E+01  0.32099964381E+00 -0.11120869359E+01  0.63658439196E+01  0.00000000000E+00 0.  1.
</event>
<event>
 7    1  0.5897985E-013  0.5052879E+02  0.7816164E-02  0.1300439E+00
        -11   -1    0    0    0    0  0.00000000000E+00  0.00000000000E+00  0.45593999997E+02  0.45594000000E+02  0.51100000000E-03 0.  1.
         11   -1    0    0    0    0 -0.00000000000E+00 -0.00000000000E+00 -0.45593999997E+02  0.45594000000E+02  0.51100000000E-03 0. -1.
    9900012    2    1    2    0    0 -0.21109954544E+01 -0.60210701369E+01  0.40155474710E+02  0.50528785342E+02  0.29999773525E+02 0.  0.
         12    1    1    2    0    0  0.21109954544E+01  0.60210701369E+01 -0.40155474710E+02  0.40659214658E+02  0.00000000000E+00 0. -1.
         11    1    3    3    0    0 -0.28799778859E+01  0.61422464813E+01  0.90864485184E+01  0.11339533121E+02  0.51100000000E-03 0. -1.
        -11    1    3    3    0    0 -0.66495649630E+01 -0.14245040921E+02  0.17043320841E+02  0.23186476459E+02  0.51100000000E-03 0.  1.
        -12    1    3    3    0    0  0.74185473945E+01  0.20817243026E+01  0.14025705351E+02  0.16002775763E+02  0.00000000000E+00 0.  1.
</event>
<event>
 7    1  0.5897985E-013  0.5052887E+02  0.7816164E-02  0.1300439E+00
        -11   -1    0    0    0    0  0.00000000000E+00  0.00000000000E+00  0.45593999997E+02  0.45594000000E+02  0.51100000000E-03 0.  1.
         11   -1    0    0    0    0 -0.00000000000E+00 -0.00000000000E+00 -0.45593999997E+02  0.45594000000E+02  0.51100000000E-03 0. -1.
    9900012    2    1    2    0    0  0.92381288924E+01  0.23743450459E+02  0.31687076083E+02  0.50528865038E+02  0.30000015771E+02 0.  0.
         12    1    1    2    0    0 -0.92381288924E+01 -0.23743450459E+02 -0.31687076083E+02  0.40659134962E+02  0.00000000000E+00 0. -1.
         11    1    3    3    0    0  0.20547234726E+01  0.14290035665E+01 -0.54892988398E+01  0.60329380700E+01  0.51100000000E-03 0. -1.
        -11    1    3    3    0    0  0.58229114900E+01  0.10153923702E+02  0.13679522791E+02  0.18003827616E+02  0.51100000000E-03 0.  1.
         12    1    3    3    0    0  0.13604939297E+01  0.12160523190E+02  0.23496852132E+02  0.26492099352E+02  0.00000000000E+00 0. -1.
</event>
<event>
 7    1  0.5897985E-013  0.5052886E+02  0.7816164E-02  0.1300439E+00
        -11   -1    0    0    0    0  0.00000000000E+00  0.00000000000E+00  0.45593999997E+02  0.45594000000E+02  0.51100000000E-03 0.  1.
         11   -1    0    0    0    0 -0.00000000000E+00 -0.00000000000E+00 -0.45593999997E+02  0.45594000000E+02  0.51100000000E-03 0. -1.
    9900012    2    1    2    0    0  0.38089993172E+02 -0.16420690618E+01 -0.14128755859E+02  0.50528859419E+02  0.29999998691E+02 0.  0.
         12    1    1    2    0    0 -0.38089993172E+02  0.16420690618E+01  0.14128755859E+02  0.40659140581E+02  0.00000000000E+00 0. -1.
         11    1    3    3    0    0  0.62837194678E+01 -0.43011997057E+01  0.69083933107E+01  0.10281602388E+02  0.51100000000E-03 0. -1.
        -11    1    3    3    0    0  0.27335064868E+02 -0.25317914529E+01 -0.17187846848E+02  0.32388853311E+02  0.51100000000E-03 0.  1.
        -12    1    3    3    0    0  0.44712088366E+01  0.51909220968E+01 -0.38493023215E+01  0.78584037208E+01  0.00000000000E+00 0.  1.
</event>
<event>
 7    1  0.5897985E-013  0.5052886E+02  0.7816164E-02  0.1300439E+00
        -11   -1    0    0    0    0  0.00000000000E+00  0.00000000000E+00  0.45593999997E+02  0.45594000000E+02  0.51100000000E-03 0.  1.
         11   -1    0    0    0    0 -0.00000000000E+00 -0.00000000000E+00 -0.45593999997E+02  0.45594000000E+02  0.51100000000E-03 0. -1.
    9900012    2    1    2    0    0 -0.23271300025E+02  0.21304476321E+01  0.33272718097E+02  0.50528856114E+02  0.29999988645E+02 0.  0.
         12    1    1    2    0    0  0.23271300025E+02 -0.21304476321E+01 -0.33272718097E+02  0.40659143886E+02  0.00000000000E+00 0. -1.
         11    1    3    3    0    0  0.35613369816E+01 -0.76091081168E+01  0.68496219721E+01  0.10839694131E+02  0.51100000000E-03 0. -1.
        -11    1    3    3    0    0 -0.19653722852E+02  0.35105106864E+01  0.19693817492E+02  0.28043518946E+02  0.51100000000E-03 0.  1.
         12    1    3    3    0    0 -0.71789141544E+01  0.62290450624E+01  0.67292786329E+01  0.11645643037E+02  0.00000000000E+00 0. -1.
</event>
<event>
 7    1  0.5897985E-013  0.5052874E+02  0.7816164E-02  0.1300439E+00
        -11   -1    0    0    0    0  0.00000000000E+00  0.00000000000E+00  0.45593999997E+02  0.45594000000E+02  0.51100000000E-03 0.  1.
         11   -1    0    0    0    0 -0.00000000000E+00 -0.00000000000E+00 -0.45593999997E+02  0.45594000000E+02  0.51100000000E-03 0. -1.
    9900012    2    1    2    0    0 -0.67493544955E+01 -0.21559232852E+02  0.33805641880E+02  0.50528736232E+02  0.29999624247E+02 0.  0.
         12    1    1    2    0    0  0.67493544955E+01  0.21559232852E+02 -0.33805641880E+02  0.40659263768E+02  0.00000000000E+00 0. -1.
         11    1    3    3    0    0  0.54197551122E+01 -0.10756340329E+02  0.12484011223E+02  0.17347136341E+02  0.51100000000E-03 0. -1.
        -11    1    3    3    0    0 -0.50218222580E+01 -0.11090520980E+01  0.20471700780E+02  0.21107800180E+02  0.51100000000E-03 0.  1.
        -12    1    3    3    0    0 -0.71472873496E+01 -0.96938404255E+01  0.84992987622E+00  0.12073799710E+02  0.00000000000E+00 0.  1.
</event>
<event>
 7    1  0.5897985E-013  0.5052886E+02  0.7816164E-02  0.1300439E+00
        -11   -1    0    0    0    0  0.00000000000E+00  0.00000000000E+00  0.45593999997E+02  0.45594000000E+02  0.51100000000E-03 0.  1.
         11   -1    0    0    0    0 -0.00000000000E+00 -0.00000000000E+00 -0.45593999997E+02  0.45594000000E+02  0.51100000000E-03 0. -1.
    9900012    2    1    2    0    0  0.34326294420E+02  0.17583668623E+02  0.12871900760E+02  0.50528859330E+02  0.29999998421E+02 0.  0.
         12    1    1    2    0    0 -0.34326294420E+02 -0.17583668623E+02 -0.12871900760E+02  0.40659140670E+02  0.00000000000E+00 0. -1.
         11    1    3    3    0    0  0.13238249552E+02 -0.17835045018E+01  0.45768264433E+01  0.14120179888E+02  0.51100000000E-03 0. -1.
        -11    1    3    3    0    0  0.20194815176E+02  0.22303804553E+02  0.29335846381E+01  0.30230715781E+02  0.51100000000E-03 0.  1.
        -12    1    3    3    0    0  0.89322969126E+00 -0.29366314284E+01  0.53614896788E+01  0.61779636616E+01  0.00000000000E+00 0.  1.
</event>
<event>
 7    1  0.5897985E-013  0.5052886E+02  0.7816164E-02  0.1300439E+00
        -11   -1    0    0    0    0  0.00000000000E+00  0.00000000000E+00  0.45593999997E+02  0.45594000000E+02  0.51100000000E-03 0. -1.
         11   -1    0    0    0    0 -0.00000000000E+00 -0.00000000000E+00 -0.45593999997E+02  0.45594000000E+02  0.51100000000E-03 0.  1.
    9900012    2    1    2    0    0 -0.10792265347E+02  0.20867309334E+02  0.33185060009E+02  0.50528858372E+02  0.29999995507E+02 0.  0.
         12    1    1    2    0    0  0.10792265347E+02 -0.20867309334E+02 -0.33185060009E+02  0.40659141628E+02  0.00000000000E+00 0. -1.
         11    1    3    3    0    0  0.15177719331E+00  0.10227965005E+02  0.28942380465E+02  0.30696835207E+02  0.51100000000E-03 0. -1.
        -11    1    3    3    0    0 -0.10833470840E+02  0.12959394356E+02  0.28675682962E+01  0.17132803061E+02  0.51100000000E-03 0.  1.
        -12    1    3    3    0    0 -0.11057169970E+00 -0.23200500273E+01  0.13751112473E+01  0.26992201044E+01  0.00000000000E+00 0.  1.
</event>
<event>
 7    1  0.5897985E-013  0.5052886E+02  0.7816164E-02  0.1300439E+00
        -11   -1    0    0    0    0  0.00000000000E+00  0.00000000000E+00  0.45593999997E+02  0.45594000000E+02  0.51100000000E-03 0. -1.
         11   -1    0    0    0    0 -0.00000000000E+00 -0.00000000000E+00 -0.45593999997E+02  0.45594000000E+02  0.51100000000E-03 0.  1.
    9900012    2    1    2    0    0  0.26547486788E+02 -0.23840751739E+02 -0.19493967533E+02  0.50528864884E+02  0.30000015301E+02 0.  0.
         12    1    1    2    0    0 -0.26547486788E+02  0.23840751739E+02  0.19493967533E+02  0.40659135116E+02  0.00000000000E+00 0. -1.
         11    1    3    3    0    0  0.11786800015E+02 -0.93373142256E+00 -0.12642688615E+01  0.11891126312E+02  0.51100000000E-03 0. -1.
        -11    1    3    3    0    0 -0.16978181669E+01 -0.13725725455E+02 -0.24242818829E+01  0.14041198976E+02  0.51100000000E-03 0.  1.
        -12    1    3    3    0    0  0.16458504940E+02 -0.91812948615E+01 -0.15805416789E+02  0.24596539595E+02  0.00000000000E+00 0.  1.
</event>
<event>
 7    1  0.5897985E-013  0.5052880E+02  0.7816164E-02  0.1300439E+00
        -11   -1    0    0    0    0  0.00000000000E+00  0.00000000000E+00  0.45593999997E+02  0.45594000000E+02  0.51100000000E-03 0.  1.
         11   -1    0    0    0    0 -0.00000000000E+00 -0.00000000000E+00 -0.45593999997E+02  0.45594000000E+02  0.51100000000E-03 0. -1.
    9900012    2    1    2    0    0 -0.86964890901E+01  0.99555003238E+01  0.38450348983E+02  0.50528803671E+02  0.29999829239E+02 0.  0.
         12    1    1    2    0    0  0.86964890901E+01 -0.99555003238E+01 -0.38450348983E+02  0.40659196329E+02  0.00000000000E+00 0. -1.
         11    1    3    3    0    0 -0.70504557996E+01 -0.18819759364E+01  0.49430600021E+01  0.88138869322E+01  0.51100000000E-03 0. -1.
        -11    1    3    3    0    0  0.39014566678E+01 -0.14463669369E+01  0.24239331948E+02  0.24593872306E+02  0.51100000000E-03 0.  1.
        -12    1    3    3    0    0 -0.55474899582E+01  0.13283843197E+02  0.92679570327E+01  0.17121044433E+02  0.00000000000E+00 0.  1.
</event>
<event>
 7    1  0.5897985E-013  0.5052885E+02  0.7816164E-02  0.1300439E+00
        -11   -1    0    0    0    0  0.00000000000E+00  0.00000000000E+00  0.45593999997E+02  0.45594000000E+02  0.51100000000E-03 0. -1.
         11   -1    0    0    0    0 -0.00000000000E+00 -0.00000000000E+00 -0.45593999997E+02  0.45594000000E+02  0.51100000000E-03 0.  1.
    9900012    2    1    2    0    0 -0.12143646778E+01  0.33496623596E+02 -0.23014514733E+02  0.50528851431E+02  0.29999974411E+02 0.  0.
         12    1    1    2    0    0  0.12143646778E+01 -0.33496623596E+02  0.23014514733E+02  0.40659148569E+02  0.00000000000E+00 0. -1.
         11    1    3    3    0    0  0.50794285260E+01  0.65299619128E+01  0.31597539807E+01  0.88557914504E+01  0.51100000000E-03 0. -1.
        -11    1    3    3    0    0 -0.97345619600E+01  0.27268100241E+02 -0.22918886561E+02  0.36926770083E+02  0.51100000000E-03 0.  1.
        -12    1    3    3    0    0  0.34407687562E+01 -0.30143855723E+00 -0.32553821526E+01  0.47462898981E+01  0.00000000000E+00 0.  1.
</event>
<event>
 7    1  0.5897985E-013  0.5052885E+02  0.7816164E-02  0.1300439E+00
        -11   -1    0    0    0    0  0.00000000000E+00  0.00000000000E+00  0.45593999997E+02  0.45594000000E+02  0.51100000000E-03 0. -1.
         11   -1    0    0    0    0 -0.00000000000E+00 -0.00000000000E+00 -0.45593999997E+02  0.45594000000E+02  0.51100000000E-03 0.  1.
    9900012    2    1    2    0    0  0.18971960844E+02 -0.34852836701E+02 -0.88606438443E+01  0.50528849324E+02  0.29999968006E+02 0.  0.
         12    1    1    2    0    0 -0.18971960844E+02  0.34852836701E+02  0.88606438443E+01  0.40659150676E+02  0.00000000000E+00 0. -1.
         11    1    3    3    0    0  0.13508761064E+02 -0.25815434534E+02  0.54286906364E+01  0.29637711922E+02  0.51100000000E-03 0. -1.
        -11    1    3    3    0    0  0.53872579454E+01 -0.19663269791E+01 -0.12258757903E+02  0.13533888412E+02  0.51100000000E-03 0.  1.
         12    1    3    3    0    0  0.75941833668E-01 -0.70710751876E+01 -0.20305765774E+01  0.73572489904E+01  0.00000000000E+00 0. -1.
</event>
<event>
 7    1  0.5897985E-013  0.5052888E+02  0.7816164E-02  0.1300439E+00
        -11   -1    0    0    0    0  0.00000000000E+00  0.00000000000E+00  0.45593999997E+02  0.45594000000E+02  0.51100000000E-03 0. -1.
         11   -1    0    0    0    0 -0.00000000000E+00 -0.00000000000E+00 -0.45593999997E+02  0.45594000000E+02  0.51100000000E-03 0.  1.
    9900012    2    1    2    0    0 -0.55609554905E+01 -0.79714254122E+01 -0.39480331178E+02  0.50528875575E+02  0.30000047799E+02 0.  0.
         12    1    1    2    0    0  0.55609554905E+01  0.79714254122E+01  0.39480331178E+02  0.40659124425E+02  0.00000000000E+00 0. -1.
         11    1    3    3    0    0 -0.68882274338E+01 -0.13170987415E+02 -0.13844466427E+02  0.20312356771E+02  0.51100000000E-03 0. -1.
        -11    1    3    3    0    0  0.61870063441E+01  0.85097967620E+00 -0.21741971275E+02  0.22621152250E+02  0.51100000000E-03 0.  1.
        -12    1    3    3    0    0 -0.48597344008E+01  0.43485823271E+01 -0.38938934757E+01  0.75953665548E+01  0.00000000000E+00 0.  1.
</event>
<event>
 7    1  0.5897985E-013  0.5052885E+02  0.7816164E-02  0.1300439E+00
        -11   -1    0    0    0    0  0.00000000000E+00  0.00000000000E+00  0.45593999997E+02  0.45594000000E+02  0.51100000000E-03 0.  1.
         11   -1    0    0    0    0 -0.00000000000E+00 -0.00000000000E+00 -0.45593999997E+02  0.45594000000E+02  0.51100000000E-03 0. -1.
    9900012    2    1    2    0    0  0.14544361181E+02 -0.23845401227E+02  0.29546992503E+02  0.50528851364E+02  0.29999974205E+02 0.  0.
         12    1    1    2    0    0 -0.14544361181E+02  0.23845401227E+02 -0.29546992503E+02  0.40659148636E+02  0.00000000000E+00 0. -1.
         11    1    3    3    0    0  0.13900700838E+01  0.16018011058E+01 -0.15837632666E+01  0.26469544700E+01  0.51100000000E-03 0. -1.
        -11    1    3    3    0    0  0.60947879010E+01 -0.19433835108E+02  0.32653055391E+02  0.38484313859E+02  0.51100000000E-03 0.  1.
        -12    1    3    3    0    0  0.70595031966E+01 -0.60133672244E+01 -0.15222996212E+01  0.93975830348E+01  0.00000000000E+00 0.  1.
</event>
<event>
 7    1  0.5897985E-013  0.5052886E+02  0.7816164E-02  0.1300439E+00
        -11   -1    0    0    0    0  0.00000000000E+00  0.00000000000E+00  0.45593999997E+02  0.45594000000E+02  0.51100000000E-03 0.  1.
         11   -1    0    0    0    0 -0.00000000000E+00 -0.00000000000E+00 -0.45593999997E+02  0.45594000000E+02  0.51100000000E-03 0. -1.
    9900012    2    1    2    0    0 -0.36551654649E+01 -0.22340162318E+02  0.33774582705E+02  0.50528861743E+02  0.30000005753E+02 0.  0.
         12    1    1    2    0    0  0.36551654649E+01  0.22340162318E+02 -0.33774582705E+02  0.40659138257E+02  0.00000000000E+00 0. -1.
         11    1    3    3    0    0 -0.36771807206E+01 -0.46226399769E+01 -0.17486417762E+01  0.61602115817E+01  0.51100000000E-03 0. -1.
        -11    1    3    3    0    0 -0.30881357762E+01 -0.94555437398E+01  0.33981017524E+02  0.35406968837E+02  0.51100000000E-03 0.  1.
        -12    1    3    3    0    0  0.31101510319E+01 -0.82619786014E+01  0.15422069565E+01  0.89616813237E+01  0.00000000000E+00 0.  1.
</event>
<event>
 7    1  0.5897985E-013  0.5052887E+02  0.7816164E-02  0.1300439E+00
        -11   -1    0    0    0    0  0.00000000000E+00  0.00000000000E+00  0.45593999997E+02  0.45594000000E+02  0.51100000000E-03 0. -1.
         11   -1    0    0    0    0 -0.00000000000E+00 -0.00000000000E+00 -0.45593999997E+02  0.45594000000E+02  0.51100000000E-03 0.  1.
    9900012    2    1    2    0    0  0.15305740330E+02  0.37660397480E+02 -0.77057973137E+00  0.50528867956E+02  0.30000024640E+02 0.  0.
         12    1    1    2    0    0 -0.15305740330E+02 -0.37660397480E+02  0.77057973137E+00  0.40659132044E+02  0.00000000000E+00 0. -1.
         11    1    3    3    0    0  0.83660105039E+00 -0.27667012284E+01 -0.11950798808E+01  0.31277393094E+01  0.51100000000E-03 0. -1.
        -11    1    3    3    0    0  0.20861745042E+01  0.27749755636E+02  0.66611662457E+01  0.28614195741E+02  0.51100000000E-03 0.  1.
        -12    1    3    3    0    0  0.12382964775E+02  0.12677343073E+02 -0.62366660962E+01  0.18786932906E+02  0.00000000000E+00 0.  1.
</event>
<event>
 7    1  0.5897985E-013  0.5052886E+02  0.7816164E-02  0.1300439E+00
        -11   -1    0    0    0    0  0.00000000000E+00  0.00000000000E+00  0.45593999997E+02  0.45594000000E+02  0.51100000000E-03 0.  1.
         11   -1    0    0    0    0 -0.00000000000E+00 -0.00000000000E+00 -0.45593999997E+02  0.45594000000E+02  0.51100000000E-03 0. -1.
    9900012    2    1    2    0    0 -0.26412400293E+00 -0.21915218113E+00  0.40657690129E+02  0.50528861350E+02  0.30000004558E+02 0.  0.
         12    1    1    2    0    0  0.26412400293E+00  0.21915218113E+00 -0.40657690129E+02  0.40659138650E+02  0.00000000000E+00 0. -1.
         11    1    3    3    0    0  0.45222666247E+01 -0.74311156171E+00  0.82855714630E+01  0.94685693189E+01  0.51100000000E-03 0. -1.
        -11    1    3    3    0    0 -0.74772946971E+01  0.78497214523E+01  0.31371760055E+02  0.33192098337E+02  0.51100000000E-03 0.  1.
        -12    1    3    3    0    0  0.26909040695E+01 -0.73257620717E+01  0.10003586115E+01  0.78681936932E+01  0.00000000000E+00 0.  1.
</event>
<event>
 7    1  0.5897985E-013  0.5052887E+02  0.7816164E-02  0.1300439E+00
        -11   -1    0    0    0    0  0.00000000000E+00  0.00000000000E+00  0.45593999997E+02  0.45594000000E+02  0.51100000000E-03 0.  1.
         11   -1    0    0    0    0 -0.00000000000E+00 -0.00000000000E+00 -0.45593999997E+02  0.45594000000E+02  0.51100000000E-03 0. -1.
    9900012    2    1    2    0    0 -0.56600467674E+01 -0.16799359162E+02  0.36591126820E+02  0.50528866221E+02  0.30000019366E+02 0.  0.
         12    1    1    2    0    0  0.56600467674E+01  0.16799359162E+02 -0.36591126820E+02  0.40659133779E+02  0.00000000000E+00 0. -1.
         11    1    3    3    0    0 -0.55888191406E+01  0.53953921218E+01  0.12648718335E+02  0.14843693318E+02  0.51100000000E-03 0. -1.
        -11    1    3    3    0    0 -0.26336332408E+01 -0.17212694325E+02  0.24497199593E+02  0.30055376526E+02  0.51100000000E-03 0.  1.
        -12    1    3    3    0    0  0.25624056140E+01 -0.49820569589E+01 -0.55479110796E+00  0.56297963770E+01  0.00000000000E+00 0.  1.
</event>
<event>
 7    1  0.5897985E-013  0.5052886E+02  0.7816164E-02  0.1300439E+00
        -11   -1    0    0    0    0  0.00000000000E+00  0.00000000000E+00  0.45593999997E+02  0.45594000000E+02  0.51100000000E-03 0.  1.
         11   -1    0    0    0    0 -0.00000000000E+00 -0.00000000000E+00 -0.45593999997E+02  0.45594000000E+02  0.51100000000E-03 0. -1.
    9900012    2    1    2    0    0 -0.22372020522E+02  0.16325013253E+02  0.29768305888E+02  0.50528863322E+02  0.30000010555E+02 0.  0.
         12    1    1    2    0    0  0.22372020522E+02 -0.16325013253E+02 -0.29768305888E+02  0.40659136678E+02  0.00000000000E+00 0. -1.
         11    1    3    3    0    0  0.40523367483E+01 -0.13765538420E+01 -0.11301621429E+01  0.44264658964E+01  0.51100000000E-03 0. -1.
        -11    1    3    3    0    0 -0.80374641966E+01  0.92760586226E+01  0.19051098587E+02  0.22662534102E+02  0.51100000000E-03 0.  1.
        -12    1    3    3    0    0 -0.18386893073E+02  0.84255084726E+01  0.11847369444E+02  0.23439863324E+02  0.00000000000E+00 0.  1.
</event>
<event>
 7    1  0.5897985E-013  0.5052886E+02  0.7816164E-02  0.1300439E+00
        -11   -1    0    0    0    0  0.00000000000E+00  0.00000000000E+00  0.45593999997E+02  0.45594000000E+02  0.51100000000E-03 0.  1.
         11   -1    0    0    0    0 -0.00000000000E+00 -0.00000000000E+00 -0.45593999997E+02  0.45594000000E+02  0.51100000000E-03 0. -1.
    9900012    2    1    2    0    0  0.18491678843E+02  0.33040577231E+02  0.14817013662E+02  0.50528858051E+02  0.29999994531E+02 0.  0.
         12    1    1    2    0    0 -0.18491678843E+02 -0.33040577231E+02 -0.14817013662E+02  0.40659141949E+02  0.00000000000E+00 0. -1.
         11    1    3    3    0    0  0.73235801108E+00  0.68208464717E+01 -0.68109484176E+01  0.96669185088E+01  0.51100000000E-03 0. -1.
        -11    1    3    3    0    0  0.60225584809E+01  0.35982499488E+01  0.11432086615E+02  0.13413098746E+02  0.51100000000E-03 0.  1.
         12    1    3    3    0    0  0.11736762351E+02  0.22621480810E+02  0.10195875464E+02  0.27448840796E+02  0.00000000000E+00 0. -1.
</event>
<event>
 7    1  0.5897985E-013  0.5052886E+02  0.7816164E-02  0.1300439E+00
        -11   -1    0    0    0    0  0.00000000000E+00  0.00000000000E+00  0.45593999997E+02  0.45594000000E+02  0.51100000000E-03 0.  1.
         11   -1    0    0    0    0 -0.00000000000E+00 -0.00000000000E+00 -0.45593999997E+02  0.45594000000E+02  0.51100000000E-03 0. -1.
    9900012    2    1    2    0    0 -0.36086629276E+02  0.15174410232E+02  0.10984444038E+02  0.50528861430E+02  0.30000004803E+02 0.  0.
         12    1    1    2    0    0  0.36086629276E+02 -0.15174410232E+02 -0.10984444038E+02  0.40659138570E+02  0.00000000000E+00 0. -1.
         11    1    3    3    0    0 -0.83228745930E+01 -0.76164082958E+01  0.30943864608E+00  0.11286082994E+02  0.51100000000E-03 0. -1.
        -11    1    3    3    0    0 -0.11036168061E+02  0.70125900224E+01  0.96025550228E+01  0.16222900096E+02  0.51100000000E-03 0.  1.
        -12    1    3    3    0    0 -0.16727586622E+02  0.15778228506E+02  0.10724503694E+01  0.23019878340E+02  0.00000000000E+00 0.  1.
</event>
<event>
 7    1  0.5897985E-013  0.5052886E+02  0.7816164E-02  0.1300439E+00
        -11   -1    0    0    0    0  0.00000000000E+00  0.00000000000E+00  0.45593999997E+02  0.45594000000E+02  0.51100000000E-03 0. -1.
         11   -1    0    0    0    0 -0.00000000000E+00 -0.00000000000E+00 -0.45593999997E+02  0.45594000000E+02  0.51100000000E-03 0.  1.
    9900012    2    1    2    0    0  0.17730187091E+02 -0.25281140709E+02 -0.26451271941E+02  0.50528863301E+02  0.30000010489E+02 0.  0.
         12    1    1    2    0    0 -0.17730187091E+02  0.25281140709E+02  0.26451271941E+02  0.40659136699E+02  0.00000000000E+00 0. -1.
         11    1    3    3    0    0  0.85438417141E+01 -0.20212451793E+02 -0.14387471049E+02  0.26240041200E+02  0.51100000000E-03 0.  1.
        -11    1    3    3    0    0  0.68228370092E-02  0.35788015504E+01 -0.11075028100E+02  0.11638905222E+02  0.51100000000E-03 0. -1.
         12    1    3    3    0    0  0.91795225396E+01 -0.86474904670E+01 -0.98877279228E+00  0.12649916880E+02  0.00000000000E+00 0. -1.
</event>
<event>
 7    1  0.5897985E-013  0.5052878E+02  0.7816164E-02  0.1300439E+00
        -11   -1    0    0    0    0  0.00000000000E+00  0.00000000000E+00  0.45593999997E+02  0.45594000000E+02  0.51100000000E-03 0.  1.
         11   -1    0    0    0    0 -0.00000000000E+00 -0.00000000000E+00 -0.45593999997E+02  0.45594000000E+02  0.51100000000E-03 0. -1.
    9900012    2    1    2    0    0  0.30202040632E+02 -0.27210947064E+02 -0.75732189072E+00  0.50528776755E+02  0.29999747424E+02 0.  0.
         12    1    1    2    0    0 -0.30202040632E+02  0.27210947064E+02  0.75732189072E+00  0.40659223245E+02  0.00000000000E+00 0. -1.
         11    1    3    3    0    0  0.91904977325E+01 -0.91324236830E+00  0.53544021267E+01  0.10675620946E+02  0.51100000000E-03 0. -1.
        -11    1    3    3    0    0  0.18069278152E+02 -0.29616392875E+02 -0.68326506248E+01  0.35359788669E+02  0.51100000000E-03 0.  1.
        -12    1    3    3    0    0  0.29422647473E+01  0.33186881800E+01  0.72092660733E+00  0.44933671398E+01  0.00000000000E+00 0.  1.
</event>
<event>
 7    1  0.5897985E-013  0.5052881E+02  0.7816164E-02  0.1300439E+00
        -11   -1    0    0    0    0  0.00000000000E+00  0.00000000000E+00  0.45593999997E+02  0.45594000000E+02  0.51100000000E-03 0. -1.
         11   -1    0    0    0    0 -0.00000000000E+00 -0.00000000000E+00 -0.45593999997E+02  0.45594000000E+02  0.51100000000E-03 0.  1.
    9900012    2    1    2    0    0  0.17957812472E+02  0.35567323652E+02 -0.81026009534E+01  0.50528810599E+02  0.29999850297E+02 0.  0.
         12    1    1    2    0    0 -0.17957812472E+02 -0.35567323652E+02  0.81026009534E+01  0.40659189401E+02  0.00000000000E+00 0. -1.
         11    1    3    3    0    0  0.12272461805E+01 -0.18070059790E+01 -0.89423657875E+01  0.92052870642E+01  0.51100000000E-03 0. -1.
        -11    1    3    3    0    0  0.47959119032E+00  0.43274003691E+00 -0.67858702326E+00  0.93688433578E+00  0.51100000000E-03 0.  1.
         12    1    3    3    0    0  0.16250975101E+02  0.36941589594E+02  0.15183518574E+01  0.40386639199E+02  0.00000000000E+00 0. -1.
</event>
<event>
 7    1  0.5897985E-013  0.5052886E+02  0.7816164E-02  0.1300439E+00
        -11   -1    0    0    0    0  0.00000000000E+00  0.00000000000E+00  0.45593999997E+02  0.45594000000E+02  0.51100000000E-03 0. -1.
         11   -1    0    0    0    0 -0.00000000000E+00 -0.00000000000E+00 -0.45593999997E+02  0.45594000000E+02  0.51100000000E-03 0.  1.
    9900012    2    1    2    0    0 -0.10956495251E+02 -0.38744007066E+02  0.56588458936E+01  0.50528863160E+02  0.30000010061E+02 0.  0.
         12    1    1    2    0    0  0.10956495251E+02  0.38744007066E+02 -0.56588458936E+01  0.40659136840E+02  0.00000000000E+00 0. -1.
         11    1    3    3    0    0 -0.14689354938E+02 -0.10743322933E+02  0.23917745597E+01  0.18355291388E+02  0.51100000000E-03 0. -1.
        -11    1    3    3    0    0  0.65850928694E+01 -0.17113287983E+02 -0.40116128477E+01  0.18770218741E+02  0.51100000000E-03 0.  1.
        -12    1    3    3    0    0 -0.28522331823E+01 -0.10887396150E+02  0.72786841817E+01  0.13403353031E+02  0.00000000000E+00 0.  1.
</event>
<event>
 7    1  0.5897985E-013  0.5052887E+02  0.7816164E-02  0.1300439E+00
        -11   -1    0    0    0    0  0.00000000000E+00  0.00000000000E+00  0.45593999997E+02  0.45594000000E+02  0.51100000000E-03 0.  1.
         11   -1    0    0    0    0 -0.00000000000E+00 -0.00000000000E+00 -0.45593999997E+02  0.45594000000E+02  0.51100000000E-03 0. -1.
    9900012    2    1    2    0    0  0.14388285585E+02  0.17593292265E+02  0.33713770338E+02  0.50528868120E+02  0.30000025139E+02 0.  0.
         12    1    1    2    0    0 -0.14388285585E+02 -0.17593292265E+02 -0.33713770338E+02  0.40659131880E+02  0.00000000000E+00 0. -1.
         11    1    3    3    0    0 -0.71037285579E+01  0.40171807793E+01  0.64136089235E+01  0.10379551075E+02  0.51100000000E-03 0. -1.
        -11    1    3    3    0    0  0.19764996739E+02  0.12894178198E+02  0.15568831075E+02  0.28271954811E+02  0.51100000000E-03 0.  1.
        -12    1    3    3    0    0  0.17270174035E+01  0.68193328742E+00  0.11731330339E+02  0.11877362235E+02  0.00000000000E+00 0.  1.
</event>
<event>
 7    1  0.5897985E-013  0.5052886E+02  0.7816164E-02  0.1300439E+00
        -11   -1    0    0    0    0  0.00000000000E+00  0.00000000000E+00  0.45593999997E+02  0.45594000000E+02  0.51100000000E-03 0.  1.
         11   -1    0    0    0    0 -0.00000000000E+00 -0.00000000000E+00 -0.45593999997E+02  0.45594000000E+02  0.51100000000E-03 0. -1.
    9900012    2    1    2    0    0 -0.24877672292E+02 -0.31437740924E+02 -0.67775875621E+01  0.50528858024E+02  0.29999994449E+02 0.  0.
         12    1    1    2    0    0  0.24877672292E+02  0.31437740924E+02  0.67775875621E+01  0.40659141976E+02  0.00000000000E+00 0. -1.
         11    1    3    3    0    0 -0.24250254928E+02 -0.19428085946E+02 -0.19509976489E+01  0.31134093526E+02  0.51100000000E-03 0.  1.
        -11    1    3    3    0    0 -0.20497511578E+01  0.25728171641E+01 -0.33070790293E+01  0.46645085418E+01  0.51100000000E-03 0. -1.
        -12    1    3    3    0    0  0.14223337934E+01 -0.14582472143E+02 -0.15195108838E+01  0.14730255956E+02  0.00000000000E+00 0.  1.
</event>
<event>
 7    1  0.5897985E-013  0.5052886E+02  0.7816164E-02  0.1300439E+00
        -11   -1    0    0    0    0  0.00000000000E+00  0.00000000000E+00  0.45593999997E+02  0.45594000000E+02  0.51100000000E-03 0.  1.
         11   -1    0    0    0    0 -0.00000000000E+00 -0.00000000000E+00 -0.45593999997E+02  0.45594000000E+02  0.51100000000E-03 0. -1.
    9900012    2    1    2    0    0 -0.13667054864E+02  0.21177748365E+02  0.31904236562E+02  0.50528859268E+02  0.29999998230E+02 0.  0.
         12    1    1    2    0    0  0.13667054864E+02 -0.21177748365E+02 -0.31904236562E+02  0.40659140732E+02  0.00000000000E+00 0. -1.
         11    1    3    3    0    0 -0.33815424994E+00  0.99803412328E+01 -0.34330763915E+00  0.99919677650E+01  0.51100000000E-03 0. -1.
        -11    1    3    3    0    0 -0.14391404764E+02  0.14897254998E+02  0.27253278782E+02  0.34231300620E+02  0.51100000000E-03 0.  1.
        -12    1    3    3    0    0  0.10625041495E+01 -0.36998478655E+01  0.49942654194E+01  0.63055908823E+01  0.00000000000E+00 0.  1.
</event>
<event>
 7    1  0.5897985E-013  0.5052886E+02  0.7816164E-02  0.1300439E+00
        -11   -1    0    0    0    0  0.00000000000E+00  0.00000000000E+00  0.45593999997E+02  0.45594000000E+02  0.51100000000E-03 0.  1.
         11   -1    0    0    0    0 -0.00000000000E+00 -0.00000000000E+00 -0.45593999997E+02  0.45594000000E+02  0.51100000000E-03 0. -1.
    9900012    2    1    2    0    0 -0.14952057135E+02  0.10238789021E+02  0.36397370026E+02  0.50528863782E+02  0.30000011953E+02 0.  0.
         12    1    1    2    0    0  0.14952057135E+02 -0.10238789021E+02 -0.36397370026E+02  0.40659136218E+02  0.00000000000E+00 0. -1.
         11    1    3    3    0    0  0.54604369943E-01  0.85170800028E+01  0.94633262973E+01  0.12731778284E+02  0.51100000000E-03 0.  1.
        -11    1    3    3    0    0  0.30297476997E+01 -0.58570056037E+01  0.96737819609E+01  0.11707516537E+02  0.51100000000E-03 0. -1.
        -12    1    3    3    0    0 -0.18036409204E+02  0.75787146219E+01  0.17260261768E+02  0.26089568961E+02  0.00000000000E+00 0.  1.
</event>
<event>
 7    1  0.5897985E-013  0.5052887E+02  0.7816164E-02  0.1300439E+00
        -11   -1    0    0    0    0  0.00000000000E+00  0.00000000000E+00  0.45593999997E+02  0.45594000000E+02  0.51100000000E-03 0.  1.
         11   -1    0    0    0    0 -0.00000000000E+00 -0.00000000000E+00 -0.45593999997E+02  0.45594000000E+02  0.51100000000E-03 0. -1.
    9900012    2    1    2    0    0 -0.19416681690E+02 -0.27359611616E+02  0.22969739161E+02  0.50528870733E+02  0.30000033079E+02 0.  0.
         12    1    1    2    0    0  0.19416681690E+02  0.27359611616E+02 -0.22969739161E+02  0.40659129267E+02  0.00000000000E+00 0. -1.
         11    1    3    3    0    0  0.15741267315E+01  0.49319001371E+01  0.51800761532E+01  0.73235717476E+01  0.51100000000E-03 0. -1.
        -11    1    3    3    0    0 -0.75672778016E+01 -0.17309360425E+02  0.11556495514E+02  0.22145659631E+02  0.51100000000E-03 0.  1.
         12    1    3    3    0    0 -0.13423530620E+02 -0.14982151328E+02  0.62331674941E+01  0.21059639354E+02  0.00000000000E+00 0. -1.
</event>
<event>
 7    1  0.5897985E-013  0.5052886E+02  0.7816164E-02  0.1300439E+00
        -11   -1    0    0    0    0  0.00000000000E+00  0.00000000000E+00  0.45593999997E+02  0.45594000000E+02  0.51100000000E-03 0.  1.
         11   -1    0    0    0    0 -0.00000000000E+00 -0.00000000000E+00 -0.45593999997E+02  0.45594000000E+02  0.51100000000E-03 0. -1.
    9900012    2    1    2    0    0 -0.32130234202E+02  0.23764963848E+02 -0.74860105782E+01  0.50528858212E+02  0.29999995021E+02 0.  0.
         12    1    1    2    0    0  0.32130234202E+02 -0.23764963848E+02  0.74860105782E+01  0.40659141788E+02  0.00000000000E+00 0. -1.
         11    1    3    3    0    0 -0.55075431998E+01  0.15946855346E+02 -0.37241636625E+01  0.17277286326E+02  0.51100000000E-03 0.  1.
        -11    1    3    3    0    0 -0.27007189820E+02  0.80280637719E+01 -0.77641739195E+01  0.29225340149E+02  0.51100000000E-03 0. -1.
         12    1    3    3    0    0  0.38449881743E+00 -0.20995527066E+00  0.40023270038E+01  0.40262317372E+01  0.00000000000E+00 0. -1.
</event>
<event>
 7    1  0.5897985E-013  0.5052882E+02  0.7816164E-02  0.1300439E+00
        -11   -1    0    0    0    0  0.00000000000E+00  0.00000000000E+00  0.45593999997E+02  0.45594000000E+02  0.51100000000E-03 0. -1.
         11   -1    0    0    0    0 -0.00000000000E+00 -0.00000000000E+00 -0.45593999997E+02  0.45594000000E+02  0.51100000000E-03 0.  1.
    9900012    2    1    2    0    0 -0.13235726194E+02 -0.30024301831E+02 -0.24010958043E+02  0.50528815866E+02  0.29999866306E+02 0.  0.
         12    1    1    2    0    0  0.13235726194E+02  0.30024301831E+02  0.24010958043E+02  0.40659184134E+02  0.00000000000E+00 0. -1.
         11    1    3    3    0    0  0.52957022239E+01 -0.68349208812E+01 -0.38245558654E+01  0.94545139127E+01  0.51100000000E-03 0. -1.
        -11    1    3    3    0    0 -0.11761967786E+02 -0.19546128185E+02 -0.23456549176E+02  0.32720096465E+02  0.51100000000E-03 0.  1.
        -12    1    3    3    0    0 -0.67694606315E+01 -0.36432527649E+01  0.32701469978E+01  0.83542054881E+01  0.00000000000E+00 0.  1.
</event>
<event>
 7    1  0.5897985E-013  0.5052886E+02  0.7816164E-02  0.1300439E+00
        -11   -1    0    0    0    0  0.00000000000E+00  0.00000000000E+00  0.45593999997E+02  0.45594000000E+02  0.51100000000E-03 0.  1.
         11   -1    0    0    0    0 -0.00000000000E+00 -0.00000000000E+00 -0.45593999997E+02  0.45594000000E+02  0.51100000000E-03 0. -1.
    9900012    2    1    2    0    0 -0.30524540059E+02  0.28653279440E+01  0.26705951629E+02  0.50528862005E+02  0.30000006551E+02 0.  0.
         12    1    1    2    0    0  0.30524540059E+02 -0.28653279440E+01 -0.26705951629E+02  0.40659137995E+02  0.00000000000E+00 0. -1.
         11    1    3    3    0    0 -0.21254265227E+02 -0.77719649893E+01  0.15864922676E+02  0.27637709781E+02  0.51100000000E-03 0. -1.
        -11    1    3    3    0    0 -0.66359845426E+01  0.61373087128E+01  0.14095356787E+02  0.16744609052E+02  0.51100000000E-03 0.  1.
         12    1    3    3    0    0 -0.26342902896E+01  0.44999842206E+01 -0.32543278344E+01  0.61465431723E+01  0.00000000000E+00 0. -1.
</event>
<event>
 7    1  0.5897985E-013  0.5052889E+02  0.7816164E-02  0.1300439E+00
        -11   -1    0    0    0    0  0.00000000000E+00  0.00000000000E+00  0.45593999997E+02  0.45594000000E+02  0.51100000000E-03 0.  1.
         11   -1    0    0    0    0 -0.00000000000E+00 -0.00000000000E+00 -0.45593999997E+02  0.45594000000E+02  0.51100000000E-03 0. -1.
    9900012    2    1    2    0    0  0.24522373402E+02  0.32359160331E+02 -0.21682805827E+01  0.50528886689E+02  0.30000081579E+02 0.  0.
         12    1    1    2    0    0 -0.24522373402E+02 -0.32359160331E+02  0.21682805827E+01  0.40659113311E+02  0.00000000000E+00 0. -1.
         11    1    3    3    0    0  0.10939696207E+01  0.20736623207E+02  0.34827850722E+01  0.21055500556E+02  0.51100000000E-03 0. -1.
        -11    1    3    3    0    0  0.14450129941E+02  0.12585699067E+02 -0.70018302142E+00  0.19175409587E+02  0.51100000000E-03 0.  1.
         12    1    3    3    0    0  0.89782738403E+01 -0.96316194277E+00 -0.49508826334E+01  0.10297976545E+02  0.00000000000E+00 0. -1.
</event>
<event>
 7    1  0.5897985E-013  0.5052886E+02  0.7816164E-02  0.1300439E+00
        -11   -1    0    0    0    0  0.00000000000E+00  0.00000000000E+00  0.45593999997E+02  0.45594000000E+02  0.51100000000E-03 0. -1.
         11   -1    0    0    0    0 -0.00000000000E+00 -0.00000000000E+00 -0.45593999997E+02  0.45594000000E+02  0.51100000000E-03 0.  1.
    9900012    2    1    2    0    0  0.27713296814E+02 -0.29677007232E+02  0.21009251667E+01  0.50528862465E+02  0.30000007949E+02 0.  0.
         12    1    1    2    0    0 -0.27713296814E+02  0.29677007232E+02 -0.21009251667E+01  0.40659137535E+02  0.00000000000E+00 0. -1.
         11    1    3    3    0    0  0.46272492149E+01  0.85721449771E+00  0.61351416865E+01  0.77321546652E+01  0.51100000000E-03 0. -1.
        -11    1    3    3    0    0  0.25175201951E+02 -0.28279951656E+02 -0.17428465836E+00  0.37862604695E+02  0.51100000000E-03 0.  1.
        -12    1    3    3    0    0 -0.20891543521E+01 -0.22542700736E+01 -0.38599318614E+01  0.49341031046E+01  0.00000000000E+00 0.  1.
</event>
<event>
 7    1  0.5897985E-013  0.5052877E+02  0.7816164E-02  0.1300439E+00
        -11   -1    0    0    0    0  0.00000000000E+00  0.00000000000E+00  0.45593999997E+02  0.45594000000E+02  0.51100000000E-03 0.  1.
         11   -1    0    0    0    0 -0.00000000000E+00 -0.00000000000E+00 -0.45593999997E+02  0.45594000000E+02  0.51100000000E-03 0. -1.
    9900012    2    1    2    0    0 -0.27590979330E+02  0.17387300782E+02  0.24281530832E+02  0.50528768473E+02  0.29999722248E+02 0.  0.
         12    1    1    2    0    0  0.27590979330E+02 -0.17387300782E+02 -0.24281530832E+02  0.40659231527E+02  0.00000000000E+00 0. -1.
         11    1    3    3    0    0 -0.19658253210E+02  0.86994113563E+01  0.32654597487E+01  0.21743732542E+02  0.51100000000E-03 0. -1.
        -11    1    3    3    0    0 -0.86012352880E+01 -0.17531249773E+01  0.12607698653E+02  0.15362576648E+02  0.51100000000E-03 0.  1.
         12    1    3    3    0    0  0.66850916871E+00  0.10441014403E+02  0.84083724299E+01  0.13422459283E+02  0.00000000000E+00 0. -1.
</event>
<event>
 7    1  0.5897985E-013  0.5052885E+02  0.7816164E-02  0.1300439E+00
        -11   -1    0    0    0    0  0.00000000000E+00  0.00000000000E+00  0.45593999997E+02  0.45594000000E+02  0.51100000000E-03 0. -1.
         11   -1    0    0    0    0 -0.00000000000E+00 -0.00000000000E+00 -0.45593999997E+02  0.45594000000E+02  0.51100000000E-03 0.  1.
    9900012    2    1    2    0    0 -0.34287654859E+02  0.61026715027E+01  0.20982861648E+02  0.50528851483E+02  0.29999974567E+02 0.  0.
         12    1    1    2    0    0  0.34287654859E+02 -0.61026715027E+01 -0.20982861648E+02  0.40659148517E+02  0.00000000000E+00 0. -1.
         11    1    3    3    0    0 -0.19456676817E+02  0.16086519862E+02  0.18243742730E+02  0.31147592894E+02  0.51100000000E-03 0. -1.
        -11    1    3    3    0    0 -0.16351033107E+01  0.10949607274E+00  0.22204671517E+01  0.27597149961E+01  0.51100000000E-03 0.  1.
         12    1    3    3    0    0 -0.13195874732E+02 -0.10093344432E+02  0.51865176654E+00  0.16621543593E+02  0.00000000000E+00 0. -1.
</event>
<event>
 7    1  0.5897985E-013  0.5052885E+02  0.7816164E-02  0.1300439E+00
        -11   -1    0    0    0    0  0.00000000000E+00  0.00000000000E+00  0.45593999997E+02  0.45594000000E+02  0.51100000000E-03 0. -1.
         11   -1    0    0    0    0 -0.00000000000E+00 -0.00000000000E+00 -0.45593999997E+02  0.45594000000E+02  0.51100000000E-03 0.  1.
    9900012    2    1    2    0    0  0.37160873241E+02 -0.16063634237E+02  0.37677044898E+01  0.50528850451E+02  0.29999971431E+02 0.  0.
         12    1    1    2    0    0 -0.37160873241E+02  0.16063634237E+02 -0.37677044898E+01  0.40659149549E+02  0.00000000000E+00 0. -1.
         11    1    3    3    0    0  0.32185574601E+00  0.63632131634E+01  0.62087769422E+00  0.64015281189E+01  0.51100000000E-03 0. -1.
        -11    1    3    3    0    0  0.13865699127E+02 -0.11490560315E+02  0.47791123422E+01  0.18631438583E+02  0.51100000000E-03 0.  1.
         12    1    3    3    0    0  0.22973318368E+02 -0.10936287085E+02 -0.16322855466E+01  0.25495883749E+02  0.00000000000E+00 0. -1.
</event>
<event>
 7    1  0.5897985E-013  0.5052884E+02  0.7816164E-02  0.1300439E+00
        -11   -1    0    0    0    0  0.00000000000E+00  0.00000000000E+00  0.45593999997E+02  0.45594000000E+02  0.51100000000E-03 0. -1.
         11   -1    0    0    0    0 -0.00000000000E+00 -0.00000000000E+00 -0.45593999997E+02  0.45594000000E+02  0.51100000000E-03 0.  1.
    9900012    2    1    2    0    0  0.35447094973E+01  0.14534950730E+02 -0.37806585609E+02  0.50528835307E+02  0.29999925399E+02 0.  0.
         12    1    1    2    0    0 -0.35447094973E+01 -0.14534950730E+02  0.37806585609E+02  0.40659164693E+02  0.00000000000E+00 0. -1.
         11    1    3    3    0    0 -0.95441446532E+01  0.15350707854E+02 -0.22776368161E+02  0.29077446168E+02  0.51100000000E-03 0. -1.
        -11    1    3    3    0    0  0.13117595802E+01  0.18515532425E+01 -0.58743187974E+01  0.62973473940E+01  0.51100000000E-03 0.  1.
         12    1    3    3    0    0  0.11777094570E+02 -0.26673103669E+01 -0.91558986502E+01  0.15154041745E+02  0.00000000000E+00 0. -1.
</event>
<event>
 7    1  0.5897985E-013  0.5052886E+02  0.7816164E-02  0.1300439E+00
        -11   -1    0    0    0    0  0.00000000000E+00  0.00000000000E+00  0.45593999997E+02  0.45594000000E+02  0.51100000000E-03 0.  1.
         11   -1    0    0    0    0 -0.00000000000E+00 -0.00000000000E+00 -0.45593999997E+02  0.45594000000E+02  0.51100000000E-03 0. -1.
    9900012    2    1    2    0    0  0.34560504458E+02  0.14361651106E+02 -0.15889634184E+02  0.50528856313E+02  0.29999989249E+02 0.  0.
         12    1    1    2    0    0 -0.34560504458E+02 -0.14361651106E+02  0.15889634184E+02  0.40659143687E+02  0.00000000000E+00 0. -1.
         11    1    3    3    0    0  0.25393490572E+02  0.74424958694E+01 -0.12201109416E+02  0.29139100525E+02  0.51100000000E-03 0. -1.
        -11    1    3    3    0    0  0.84885874121E+01  0.34856169846E+01  0.60835833890E+01  0.11009796961E+02  0.51100000000E-03 0.  1.
        -12    1    3    3    0    0  0.67842647375E+00  0.34335382521E+01 -0.97721081570E+01  0.10379958827E+02  0.00000000000E+00 0.  1.
</event>
<event>
 7    1  0.5897985E-013  0.5052886E+02  0.7816164E-02  0.1300439E+00
        -11   -1    0    0    0    0  0.00000000000E+00  0.00000000000E+00  0.45593999997E+02  0.45594000000E+02  0.51100000000E-03 0. -1.
         11   -1    0    0    0    0 -0.00000000000E+00 -0.00000000000E+00 -0.45593999997E+02  0.45594000000E+02  0.51100000000E-03 0.  1.
    9900012    2    1    2    0    0  0.38660310313E+02 -0.45561479143E+01 -0.11738301060E+02  0.50528858481E+02  0.29999995838E+02 0.  0.
         12    1    1    2    0    0 -0.38660310313E+02  0.45561479143E+01  0.11738301060E+02  0.40659141519E+02  0.00000000000E+00 0. -1.
         11    1    3    3    0    0  0.56963760125E+00 -0.59924111063E+01  0.25347849009E+01  0.65313561087E+01  0.51100000000E-03 0. -1.
        -11    1    3    3    0    0  0.11393891962E+02 -0.44878862943E+01 -0.10991291035E+02  0.16455101832E+02  0.51100000000E-03 0.  1.
         12    1    3    3    0    0  0.26696780750E+02  0.59241494863E+01 -0.32817949258E+01  0.27542400540E+02  0.00000000000E+00 0. -1.
</event>
<event>
 7    1  0.5897985E-013  0.5052887E+02  0.7816164E-02  0.1300439E+00
        -11   -1    0    0    0    0  0.00000000000E+00  0.00000000000E+00  0.45593999997E+02  0.45594000000E+02  0.51100000000E-03 0.  1.
         11   -1    0    0    0    0 -0.00000000000E+00 -0.00000000000E+00 -0.45593999997E+02  0.45594000000E+02  0.51100000000E-03 0. -1.
    9900012    2    1    2    0    0 -0.61474302272E+01 -0.32247422024E+02  0.23989117148E+02  0.50528869818E+02  0.30000030300E+02 0.  0.
         12    1    1    2    0    0  0.61474302272E+01  0.32247422024E+02 -0.23989117148E+02  0.40659130182E+02  0.00000000000E+00 0. -1.
         11    1    3    3    0    0 -0.90395498858E+01 -0.25832646584E+01  0.10711345462E+02  0.14252004782E+02  0.51100000000E-03 0. -1.
        -11    1    3    3    0    0  0.59419301634E+01 -0.55479087737E+01  0.79931865398E+01  0.11400739325E+02  0.51100000000E-03 0.  1.
        -12    1    3    3    0    0 -0.30498105048E+01 -0.24116248592E+02  0.52845851463E+01  0.24876125712E+02  0.00000000000E+00 0.  1.
</event>
<event>
 7    1  0.5897985E-013  0.5052884E+02  0.7816164E-02  0.1300439E+00
        -11   -1    0    0    0    0  0.00000000000E+00  0.00000000000E+00  0.45593999997E+02  0.45594000000E+02  0.51100000000E-03 0. -1.
         11   -1    0    0    0    0 -0.00000000000E+00 -0.00000000000E+00 -0.45593999997E+02  0.45594000000E+02  0.51100000000E-03 0.  1.
    9900012    2    1    2    0    0  0.15155433298E+02 -0.42608011105E+01 -0.37487676963E+02  0.50528837335E+02  0.29999931564E+02 0.  0.
         12    1    1    2    0    0 -0.15155433298E+02  0.42608011105E+01  0.37487676963E+02  0.40659162665E+02  0.00000000000E+00 0. -1.
         11    1    3    3    0    0  0.89541624519E+01  0.11228249026E+02 -0.11836996103E+02  0.18610886019E+02  0.51100000000E-03 0. -1.
        -11    1    3    3    0    0  0.28489301518E+01 -0.13626504764E+02 -0.23994779225E+02  0.27740718545E+02  0.51100000000E-03 0.  1.
         12    1    3    3    0    0  0.33523406946E+01 -0.18625453725E+01 -0.16559016348E+01  0.41772327708E+01  0.00000000000E+00 0. -1.
</event>
<event>
 7    1  0.5897985E-013  0.5052886E+02  0.7816164E-02  0.1300439E+00
        -11   -1    0    0    0    0  0.00000000000E+00  0.00000000000E+00  0.45593999997E+02  0.45594000000E+02  0.51100000000E-03 0. -1.
         11   -1    0    0    0    0 -0.00000000000E+00 -0.00000000000E+00 -0.45593999997E+02  0.45594000000E+02  0.51100000000E-03 0.  1.
    9900012    2    1    2    0    0 -0.26683155593E+02  0.45603408818E+01 -0.30337731193E+02  0.50528862832E+02  0.30000009063E+02 0.  0.
         12    1    1    2    0    0  0.26683155593E+02 -0.45603408818E+01  0.30337731193E+02  0.40659137168E+02  0.00000000000E+00 0. -1.
         11    1    3    3    0    0  0.43720459857E+01  0.95429566470E+00  0.12474669246E-01  0.44749996866E+01  0.51100000000E-03 0. -1.
        -11    1    3    3    0    0 -0.24987258053E+02 -0.24351613641E+01 -0.17464597807E+02  0.30582760711E+02  0.51100000000E-03 0.  1.
        -12    1    3    3    0    0 -0.60679435252E+01  0.60412065812E+01 -0.12885608055E+02  0.15471102434E+02  0.00000000000E+00 0.  1.
</event>
<event>
 7    1  0.6040693E-013  0.5052886E+02  0.7816164E-02  0.1300439E+00
        -11   -1    0    0    0    0  0.00000000000E+00  0.00000000000E+00  0.45593999997E+02  0.45594000000E+02  0.51100000000E-03 0. -1.
         11   -1    0    0    0    0 -0.00000000000E+00 -0.00000000000E+00 -0.45593999997E+02  0.45594000000E+02  0.51100000000E-03 0.  1.
    9900012    2    1    2    0    0 -0.98713518106E+01 -0.11115979748E+02 -0.37843853542E+02  0.50528857815E+02  0.29999993814E+02 0.  0.
         12    1    1    2    0    0  0.98713518106E+01  0.11115979748E+02  0.37843853542E+02  0.40659142185E+02  0.00000000000E+00 0. -1.
         11    1    3    3    0    0 -0.51741415605E+01 -0.11904316487E+01  0.13377477341E+01  0.54752568579E+01  0.51100000000E-03 0. -1.
        -11    1    3    3    0    0  0.57352433607E+01  0.77201900027E+00 -0.19511735368E+02  0.20351826628E+02  0.51100000000E-03 0.  1.
        -12    1    3    3    0    0 -0.10432453611E+02 -0.10697567100E+02 -0.19669865908E+02  0.24701774329E+02  0.00000000000E+00 0.  1.
</event>
<event>
 7    1  0.5897985E-013  0.5052887E+02  0.7816164E-02  0.1300439E+00
        -11   -1    0    0    0    0  0.00000000000E+00  0.00000000000E+00  0.45593999997E+02  0.45594000000E+02  0.51100000000E-03 0.  1.
         11   -1    0    0    0    0 -0.00000000000E+00 -0.00000000000E+00 -0.45593999997E+02  0.45594000000E+02  0.51100000000E-03 0. -1.
    9900012    2    1    2    0    0 -0.30879469626E+02  0.25656301223E+02  0.64325549336E+01  0.50528865727E+02  0.30000017864E+02 0.  0.
         12    1    1    2    0    0  0.30879469626E+02 -0.25656301223E+02 -0.64325549336E+01  0.40659134273E+02  0.00000000000E+00 0. -1.
         11    1    3    3    0    0 -0.27407763071E+02  0.13369319843E+02 -0.38626816049E+01  0.30738322971E+02  0.51100000000E-03 0. -1.
        -11    1    3    3    0    0 -0.26283523767E+01  0.92463280120E+01  0.12625157776E+02  0.15868126135E+02  0.51100000000E-03 0.  1.
        -12    1    3    3    0    0 -0.84335417793E+00  0.30406533682E+01 -0.23299212371E+01  0.39224166207E+01  0.00000000000E+00 0.  1.
</event>
<event>
 7    1  0.5897985E-013  0.5052885E+02  0.7816164E-02  0.1300439E+00
        -11   -1    0    0    0    0  0.00000000000E+00  0.00000000000E+00  0.45593999997E+02  0.45594000000E+02  0.51100000000E-03 0.  1.
         11   -1    0    0    0    0 -0.00000000000E+00 -0.00000000000E+00 -0.45593999997E+02  0.45594000000E+02  0.51100000000E-03 0. -1.
    9900012    2    1    2    0    0 -0.35934925798E+02  0.14239153056E+02  0.12613238384E+02  0.50528853989E+02  0.29999982184E+02 0.  0.
         12    1    1    2    0    0  0.35934925798E+02 -0.14239153056E+02 -0.12613238384E+02  0.40659146011E+02  0.00000000000E+00 0. -1.
         11    1    3    3    0    0 -0.10926122333E+02  0.18877470438E+02  0.49376355053E+01  0.22363346887E+02  0.51100000000E-03 0. -1.
        -11    1    3    3    0    0 -0.13944190319E+02  0.17203334903E+01  0.19730737191E+01  0.14187776821E+02  0.51100000000E-03 0.  1.
         12    1    3    3    0    0 -0.11064613145E+02 -0.63586508717E+01  0.57025291597E+01  0.13977730280E+02  0.00000000000E+00 0. -1.
</event>
<event>
 7    1  0.5897985E-013  0.5052886E+02  0.7816164E-02  0.1300439E+00
        -11   -1    0    0    0    0  0.00000000000E+00  0.00000000000E+00  0.45593999997E+02  0.45594000000E+02  0.51100000000E-03 0.  1.
         11   -1    0    0    0    0 -0.00000000000E+00 -0.00000000000E+00 -0.45593999997E+02  0.45594000000E+02  0.51100000000E-03 0. -1.
    9900012    2    1    2    0    0 -0.77859108819E+01 -0.24000905423E+02  0.31882628347E+02  0.50528857612E+02  0.29999993197E+02 0.  0.
         12    1    1    2    0    0  0.77859108819E+01  0.24000905423E+02 -0.31882628347E+02  0.40659142388E+02  0.00000000000E+00 0. -1.
         11    1    3    3    0    0 -0.11462114695E+02 -0.11501481519E+02  0.27611572916E+01  0.16470826945E+02  0.51100000000E-03 0. -1.
        -11    1    3    3    0    0  0.48300561754E+01 -0.14435880134E+02  0.26804810468E+02  0.30825670186E+02  0.51100000000E-03 0.  1.
        -12    1    3    3    0    0 -0.11538523627E+01  0.19364562291E+01  0.23166605877E+01  0.32323604812E+01  0.00000000000E+00 0.  1.
</event>
<event>
 7    1  0.5897985E-013  0.5052879E+02  0.7816164E-02  0.1300439E+00
        -11   -1    0    0    0    0  0.00000000000E+00  0.00000000000E+00  0.45593999997E+02  0.45594000000E+02  0.51100000000E-03 0.  1.
         11   -1    0    0    0    0 -0.00000000000E+00 -0.00000000000E+00 -0.45593999997E+02  0.45594000000E+02  0.51100000000E-03 0. -1.
    9900012    2    1    2    0    0  0.39257256853E+01  0.22877358092E+02  0.33382433478E+02  0.50528785788E+02  0.29999774882E+02 0.  0.
         12    1    1    2    0    0 -0.39257256853E+01 -0.22877358092E+02 -0.33382433478E+02  0.40659214212E+02  0.00000000000E+00 0. -1.
         11    1    3    3    0    0  0.93702440967E+01  0.12128224670E+02  0.46917925647E+01  0.16028356928E+02  0.51100000000E-03 0.  1.
        -11    1    3    3    0    0  0.17355210177E+01  0.84158890180E+01  0.24282479839E+02  0.25758067640E+02  0.51100000000E-03 0. -1.
         12    1    3    3    0    0 -0.71800394292E+01  0.23332444035E+01  0.44081610739E+01  0.87423612202E+01  0.00000000000E+00 0. -1.
</event>
<event>
 7    1  0.5897985E-013  0.5052886E+02  0.7816164E-02  0.1300439E+00
        -11   -1    0    0    0    0  0.00000000000E+00  0.00000000000E+00  0.45593999997E+02  0.45594000000E+02  0.51100000000E-03 0.  1.
         11   -1    0    0    0    0 -0.00000000000E+00 -0.00000000000E+00 -0.45593999997E+02  0.45594000000E+02  0.51100000000E-03 0. -1.
    9900012    2    1    2    0    0  0.36416139091E+01  0.36194839012E+02  0.18161445216E+02  0.50528858158E+02  0.29999994858E+02 0.  0.
         12    1    1    2    0    0 -0.36416139091E+01 -0.36194839012E+02 -0.18161445216E+02  0.40659141842E+02  0.00000000000E+00 0. -1.
         11    1    3    3    0    0 -0.41480841824E+01 -0.21823482077E+01  0.55092255848E+01  0.72333127189E+01  0.51100000000E-03 0. -1.
        -11    1    3    3    0    0  0.99636326209E+01  0.30106799314E+02  0.55826161147E+01  0.32200294143E+02  0.51100000000E-03 0.  1.
        -12    1    3    3    0    0 -0.21739345295E+01  0.82703879059E+01  0.70696035160E+01  0.11095251296E+02  0.00000000000E+00 0.  1.
</event>
<event>
 7    1  0.5897985E-013  0.5052886E+02  0.7816164E-02  0.1300439E+00
        -11   -1    0    0    0    0  0.00000000000E+00  0.00000000000E+00  0.45593999997E+02  0.45594000000E+02  0.51100000000E-03 0. -1.
         11   -1    0    0    0    0 -0.00000000000E+00 -0.00000000000E+00 -0.45593999997E+02  0.45594000000E+02  0.51100000000E-03 0.  1.
    9900012    2    1    2    0    0 -0.13602382343E+02 -0.15212359231E+02 -0.35167102719E+02  0.50528858440E+02  0.29999995715E+02 0.  0.
         12    1    1    2    0    0  0.13602382343E+02  0.15212359231E+02  0.35167102719E+02  0.40659141560E+02  0.00000000000E+00 0. -1.
         11    1    3    3    0    0 -0.65804088587E-01 -0.15983962268E+02 -0.68207573943E+01  0.17378553209E+02  0.51100000000E-03 0. -1.
        -11    1    3    3    0    0 -0.40366627151E+01  0.49005592215E+01 -0.14744172365E+02  0.16053060318E+02  0.51100000000E-03 0.  1.
         12    1    3    3    0    0 -0.94999155390E+01 -0.41289561845E+01 -0.13602172959E+02  0.17097244913E+02  0.00000000000E+00 0. -1.
</event>
<event>
 7    1  0.5897985E-013  0.5052886E+02  0.7816164E-02  0.1300439E+00
        -11   -1    0    0    0    0  0.00000000000E+00  0.00000000000E+00  0.45593999997E+02  0.45594000000E+02  0.51100000000E-03 0.  1.
         11   -1    0    0    0    0 -0.00000000000E+00 -0.00000000000E+00 -0.45593999997E+02  0.45594000000E+02  0.51100000000E-03 0. -1.
    9900012    2    1    2    0    0 -0.71590584070E+01 -0.22932458104E+02  0.32802680272E+02  0.50528860990E+02  0.30000003466E+02 0.  0.
         12    1    1    2    0    0  0.71590584070E+01  0.22932458104E+02 -0.32802680272E+02  0.40659139010E+02  0.00000000000E+00 0. -1.
         11    1    3    3    0    0 -0.78017602233E+00  0.51770353469E+01  0.59752261526E+01  0.79444129704E+01  0.51100000000E-03 0. -1.
        -11    1    3    3    0    0 -0.11276238596E+02 -0.21700902082E+02  0.23310075078E+02  0.33785238026E+02  0.51100000000E-03 0.  1.
        -12    1    3    3    0    0  0.48973562115E+01 -0.64085913686E+01  0.35173790417E+01  0.87992099938E+01  0.00000000000E+00 0.  1.
</event>
<event>
 7    1  0.5897985E-013  0.5052884E+02  0.7816164E-02  0.1300439E+00
        -11   -1    0    0    0    0  0.00000000000E+00  0.00000000000E+00  0.45593999997E+02  0.45594000000E+02  0.51100000000E-03 0.  1.
         11   -1    0    0    0    0 -0.00000000000E+00 -0.00000000000E+00 -0.45593999997E+02  0.45594000000E+02  0.51100000000E-03 0. -1.
    9900012    2    1    2    0    0  0.10484651617E+02 -0.36991980718E+02  0.13222422498E+02  0.50528843421E+02  0.29999950063E+02 0.  0.
         12    1    1    2    0    0 -0.10484651617E+02  0.36991980718E+02 -0.13222422498E+02  0.40659156579E+02  0.00000000000E+00 0. -1.
         11    1    3    3    0    0  0.56604521717E+01 -0.11130661462E-01  0.91797103352E+01  0.10784615189E+02  0.51100000000E-03 0. -1.
        -11    1    3    3    0    0 -0.39475309457E+01 -0.14537296093E+02 -0.11032328932E+01  0.15104075653E+02  0.51100000000E-03 0.  1.
        -12    1    3    3    0    0  0.87717303910E+01 -0.22443553964E+02  0.51459450559E+01  0.24640152579E+02  0.00000000000E+00 0.  1.
</event>
<event>
 7    1  0.5897985E-013  0.5052884E+02  0.7816164E-02  0.1300439E+00
        -11   -1    0    0    0    0  0.00000000000E+00  0.00000000000E+00  0.45593999997E+02  0.45594000000E+02  0.51100000000E-03 0. -1.
         11   -1    0    0    0    0 -0.00000000000E+00 -0.00000000000E+00 -0.45593999997E+02  0.45594000000E+02  0.51100000000E-03 0.  1.
    9900012    2    1    2    0    0 -0.15845307073E+02 -0.92316792843E+01 -0.36288699721E+02  0.50528838842E+02  0.29999936143E+02 0.  0.
         12    1    1    2    0    0  0.15845307073E+02  0.92316792843E+01  0.36288699721E+02  0.40659161158E+02  0.00000000000E+00 0. -1.
         11    1    3    3    0    0 -0.13098302358E+02 -0.99907194160E+00 -0.12171947796E+02  0.17908656645E+02  0.51100000000E-03 0. -1.
        -11    1    3    3    0    0  0.31923588707E+00  0.47836542826E+01 -0.16602901325E+02  0.17281249738E+02  0.51100000000E-03 0.  1.
        -12    1    3    3    0    0 -0.30662406013E+01 -0.13016261625E+02 -0.75138506000E+01  0.15338932458E+02  0.00000000000E+00 0.  1.
</event>
<event>
 7    1  0.5897985E-013  0.5052885E+02  0.7816164E-02  0.1300439E+00
        -11   -1    0    0    0    0  0.00000000000E+00  0.00000000000E+00  0.45593999997E+02  0.45594000000E+02  0.51100000000E-03 0. -1.
         11   -1    0    0    0    0 -0.00000000000E+00 -0.00000000000E+00 -0.45593999997E+02  0.45594000000E+02  0.51100000000E-03 0.  1.
    9900012    2    1    2    0    0  0.12306919318E+02 -0.18471417998E+02 -0.34066299129E+02  0.50528852416E+02  0.29999977403E+02 0.  0.
         12    1    1    2    0    0 -0.12306919318E+02  0.18471417998E+02  0.34066299129E+02  0.40659147584E+02  0.00000000000E+00 0. -1.
         11    1    3    3    0    0  0.10538024999E+02  0.42745135610E+01 -0.53261377619E+01  0.12557435279E+02  0.51100000000E-03 0. -1.
        -11    1    3    3    0    0 -0.26766708223E+00 -0.66156358021E+01 -0.16000564912E+02  0.17316361064E+02  0.51100000000E-03 0.  1.
         12    1    3    3    0    0  0.20365614012E+01 -0.16130295757E+02 -0.12739596455E+02  0.20655056073E+02  0.00000000000E+00 0. -1.
</event>
<event>
 7    1  0.5897985E-013  0.5052886E+02  0.7816164E-02  0.1300439E+00
        -11   -1    0    0    0    0  0.00000000000E+00  0.00000000000E+00  0.45593999997E+02  0.45594000000E+02  0.51100000000E-03 0.  1.
         11   -1    0    0    0    0 -0.00000000000E+00 -0.00000000000E+00 -0.45593999997E+02  0.45594000000E+02  0.51100000000E-03 0. -1.
    9900012    2    1    2    0    0  0.17055855590E+02  0.80730017287E+01  0.36015136009E+02  0.50528860947E+02  0.30000003334E+02 0.  0.
         12    1    1    2    0    0 -0.17055855590E+02 -0.80730017287E+01 -0.36015136009E+02  0.40659139053E+02  0.00000000000E+00 0. -1.
         11    1    3    3    0    0 -0.88720781761E-01  0.43784770752E+01  0.70825911786E+01  0.83271862558E+01  0.51100000000E-03 0. -1.
        -11    1    3    3    0    0  0.97865767667E+01 -0.25361239593E+01 -0.15524152579E+01  0.10228343118E+02  0.51100000000E-03 0.  1.
        -12    1    3    3    0    0  0.73579996051E+01  0.62306486127E+01  0.30484960088E+02  0.31973331573E+02  0.00000000000E+00 0.  1.
</event>
<event>
 7    1  0.5897985E-013  0.5052886E+02  0.7816164E-02  0.1300439E+00
        -11   -1    0    0    0    0  0.00000000000E+00  0.00000000000E+00  0.45593999997E+02  0.45594000000E+02  0.51100000000E-03 0.  1.
         11   -1    0    0    0    0 -0.00000000000E+00 -0.00000000000E+00 -0.45593999997E+02  0.45594000000E+02  0.51100000000E-03 0. -1.
    9900012    2    1    2    0    0  0.11922583402E+02  0.11672955178E+02  0.37077753365E+02  0.50528859919E+02  0.30000000209E+02 0.  0.
         12    1    1    2    0    0 -0.11922583402E+02 -0.11672955178E+02 -0.37077753365E+02  0.40659140081E+02  0.00000000000E+00 0. -1.
         11    1    3    3    0    0 -0.26467966735E+01 -0.13809134493E+01  0.59546119776E+01  0.66610703832E+01  0.51100000000E-03 0. -1.
        -11    1    3    3    0    0  0.16099076620E+02  0.68759162541E+01  0.32893369863E+02  0.37261672984E+02  0.51100000000E-03 0.  1.
        -12    1    3    3    0    0 -0.15296965446E+01  0.61779523729E+01 -0.17702284753E+01  0.66061165517E+01  0.00000000000E+00 0.  1.
</event>
<event>
 7    1  0.5897985E-013  0.5052887E+02  0.7816164E-02  0.1300439E+00
        -11   -1    0    0    0    0  0.00000000000E+00  0.00000000000E+00  0.45593999997E+02  0.45594000000E+02  0.51100000000E-03 0.  1.
         11   -1    0    0    0    0 -0.00000000000E+00 -0.00000000000E+00 -0.45593999997E+02  0.45594000000E+02  0.51100000000E-03 0. -1.
    9900012    2    1    2    0    0 -0.58185947970E+01  0.30749284892E+02  0.25957477238E+02  0.50528865831E+02  0.30000018180E+02 0.  0.
         12    1    1    2    0    0  0.58185947970E+01 -0.30749284892E+02 -0.25957477238E+02  0.40659134169E+02  0.00000000000E+00 0. -1.
         11    1    3    3    0    0 -0.61803494576E+01 -0.27783390407E+01  0.11863002271E+02  0.13661870677E+02  0.51100000000E-03 0. -1.
        -11    1    3    3    0    0 -0.21854499640E+01  0.15902353972E+02  0.87085536752E+01  0.18261981294E+02  0.51100000000E-03 0.  1.
         12    1    3    3    0    0  0.25472046245E+01  0.17625269961E+02  0.53859212917E+01  0.18605013861E+02  0.00000000000E+00 0. -1.
</event>
<event>
 7    1  0.5897985E-013  0.5052886E+02  0.7816164E-02  0.1300439E+00
        -11   -1    0    0    0    0  0.00000000000E+00  0.00000000000E+00  0.45593999997E+02  0.45594000000E+02  0.51100000000E-03 0. -1.
         11   -1    0    0    0    0 -0.00000000000E+00 -0.00000000000E+00 -0.45593999997E+02  0.45594000000E+02  0.51100000000E-03 0.  1.
    9900012    2    1    2    0    0 -0.10751845443E+01  0.39104541395E+02  0.11083533294E+02  0.50528857242E+02  0.29999992072E+02 0.  0.
         12    1    1    2    0    0  0.10751845443E+01 -0.39104541395E+02 -0.11083533294E+02  0.40659142758E+02  0.00000000000E+00 0. -1.
         11    1    3    3    0    0 -0.29853109666E+01 -0.18102119166E+01  0.69334020821E+01  0.77627967540E+01  0.51100000000E-03 0. -1.
        -11    1    3    3    0    0 -0.18573961923E+01  0.21678620674E+02  0.72217860240E+01  0.22925241734E+02  0.51100000000E-03 0.  1.
        -12    1    3    3    0    0  0.37675226146E+01  0.19236132638E+02 -0.30716548123E+01  0.19840818754E+02  0.00000000000E+00 0.  1.
</event>
<event>
 7    1  0.5897985E-013  0.5052886E+02  0.7816164E-02  0.1300439E+00
        -11   -1    0    0    0    0  0.00000000000E+00  0.00000000000E+00  0.45593999997E+02  0.45594000000E+02  0.51100000000E-03 0. -1.
         11   -1    0    0    0    0 -0.00000000000E+00 -0.00000000000E+00 -0.45593999997E+02  0.45594000000E+02  0.51100000000E-03 0.  1.
    9900012    2    1    2    0    0 -0.29413284401E+02  0.57954949401E+01 -0.27467008513E+02  0.50528860591E+02  0.30000002251E+02 0.  0.
         12    1    1    2    0    0  0.29413284401E+02 -0.57954949401E+01  0.27467008513E+02  0.40659139409E+02  0.00000000000E+00 0. -1.
         11    1    3    3    0    0 -0.23635679602E+01  0.28025983210E+01  0.22512378409E+01  0.43022183730E+01  0.51100000000E-03 0. -1.
        -11    1    3    3    0    0 -0.16217308034E+02  0.11873908956E+02 -0.23436664214E+02  0.30875038842E+02  0.51100000000E-03 0.  1.
        -12    1    3    3    0    0 -0.10832408407E+02 -0.88810123368E+01 -0.62815821403E+01  0.15351603376E+02  0.00000000000E+00 0.  1.
</event>
<event>
 7    1  0.5897985E-013  0.5052886E+02  0.7816164E-02  0.1300439E+00
        -11   -1    0    0    0    0  0.00000000000E+00  0.00000000000E+00  0.45593999997E+02  0.45594000000E+02  0.51100000000E-03 0.  1.
         11   -1    0    0    0    0 -0.00000000000E+00 -0.00000000000E+00 -0.45593999997E+02  0.45594000000E+02  0.51100000000E-03 0. -1.
    9900012    2    1    2    0    0 -0.11724302408E+02 -0.83656328201E+01  0.38022659425E+02  0.50528859463E+02  0.29999998824E+02 0.  0.
         12    1    1    2    0    0  0.11724302408E+02  0.83656328201E+01 -0.38022659425E+02  0.40659140537E+02  0.00000000000E+00 0. -1.
         11    1    3    3    0    0 -0.46856221049E+01 -0.92579775891E+01  0.42022416686E+01  0.11194821966E+02  0.51100000000E-03 0. -1.
        -11    1    3    3    0    0 -0.97244481087E+00  0.83052350300E+01  0.24818340872E+02  0.26189169932E+02  0.51100000000E-03 0.  1.
        -12    1    3    3    0    0 -0.60662354927E+01 -0.74128902611E+01  0.90020768847E+01  0.13144867565E+02  0.00000000000E+00 0.  1.
</event>
<event>
 7    1  0.5897985E-013  0.5052885E+02  0.7816164E-02  0.1300439E+00
        -11   -1    0    0    0    0  0.00000000000E+00  0.00000000000E+00  0.45593999997E+02  0.45594000000E+02  0.51100000000E-03 0.  1.
         11   -1    0    0    0    0 -0.00000000000E+00 -0.00000000000E+00 -0.45593999997E+02  0.45594000000E+02  0.51100000000E-03 0. -1.
    9900012    2    1    2    0    0 -0.28594196400E+02 -0.25384707346E+02  0.13825894858E+02  0.50528846007E+02  0.29999957924E+02 0.  0.
         12    1    1    2    0    0  0.28594196400E+02  0.25384707346E+02 -0.13825894858E+02  0.40659153993E+02  0.00000000000E+00 0. -1.
         11    1    3    3    0    0 -0.61560209986E+01 -0.52669029565E+01 -0.40728914507E+01  0.90678170647E+01  0.51100000000E-03 0. -1.
        -11    1    3    3    0    0 -0.23541161605E+02 -0.20333206868E+02  0.21417735244E+02  0.37766982597E+02  0.51100000000E-03 0.  1.
        -12    1    3    3    0    0  0.11029862039E+01  0.21540247838E+00 -0.35189489353E+01  0.36940463456E+01  0.00000000000E+00 0.  1.
</event>
<event>
 7    1  0.5897985E-013  0.5052886E+02  0.7816164E-02  0.1300439E+00
        -11   -1    0    0    0    0  0.00000000000E+00  0.00000000000E+00  0.45593999997E+02  0.45594000000E+02  0.51100000000E-03 0.  1.
         11   -1    0    0    0    0 -0.00000000000E+00 -0.00000000000E+00 -0.45593999997E+02  0.45594000000E+02  0.51100000000E-03 0. -1.
    9900012    2    1    2    0    0  0.11323815013E+02 -0.36188260040E+02  0.14674696262E+02  0.50528860049E+02  0.30000000605E+02 0.  0.
         12    1    1    2    0    0 -0.11323815013E+02  0.36188260040E+02 -0.14674696262E+02  0.40659139951E+02  0.00000000000E+00 0. -1.
         11    1    3    3    0    0 -0.88128864118E+01 -0.78689644016E+01  0.58159031326E+01  0.13168610298E+02  0.51100000000E-03 0. -1.
        -11    1    3    3    0    0  0.10187205824E+02 -0.18926606244E+02  0.98462643700E+01  0.23642007290E+02  0.51100000000E-03 0.  1.
        -12    1    3    3    0    0  0.99494956012E+01 -0.93926893946E+01 -0.98747124005E+00  0.13718242461E+02  0.00000000000E+00 0.  1.
</event>
<event>
 7    1  0.5897985E-013  0.5052887E+02  0.7816164E-02  0.1300439E+00
        -11   -1    0    0    0    0  0.00000000000E+00  0.00000000000E+00  0.45593999997E+02  0.45594000000E+02  0.51100000000E-03 0.  1.
         11   -1    0    0    0    0 -0.00000000000E+00 -0.00000000000E+00 -0.45593999997E+02  0.45594000000E+02  0.51100000000E-03 0. -1.
    9900012    2    1    2    0    0 -0.18681521637E+02 -0.64522086656E+01  0.35532160012E+02  0.50528872581E+02  0.30000038698E+02 0.  0.
         12    1    1    2    0    0  0.18681521637E+02  0.64522086656E+01 -0.35532160012E+02  0.40659127419E+02  0.00000000000E+00 0. -1.
         11    1    3    3    0    0 -0.58629048707E+01 -0.11116747893E+02  0.16623682442E+01  0.12677507865E+02  0.51100000000E-03 0. -1.
        -11    1    3    3    0    0 -0.37790563296E+01  0.56748412533E+01  0.21093384459E+02  0.22167903784E+02  0.51100000000E-03 0.  1.
        -12    1    3    3    0    0 -0.90395604369E+01 -0.10103020260E+01  0.12776407309E+02  0.15683460932E+02  0.00000000000E+00 0.  1.
</event>
<event>
 7    1  0.5897985E-013  0.5052886E+02  0.7816164E-02  0.1300439E+00
        -11   -1    0    0    0    0  0.00000000000E+00  0.00000000000E+00  0.45593999997E+02  0.45594000000E+02  0.51100000000E-03 0. -1.
         11   -1    0    0    0    0 -0.00000000000E+00 -0.00000000000E+00 -0.45593999997E+02  0.45594000000E+02  0.51100000000E-03 0.  1.
    9900012    2    1    2    0    0 -0.32765440539E+02  0.36298215318E+01 -0.23799502674E+02  0.50528855572E+02  0.29999986997E+02 0.  0.
         12    1    1    2    0    0  0.32765440539E+02 -0.36298215318E+01  0.23799502674E+02  0.40659144428E+02  0.00000000000E+00 0. -1.
         11    1    3    3    0    0 -0.22722615972E+01  0.11364799362E+02 -0.10801060597E+02  0.15842498149E+02  0.51100000000E-03 0. -1.
        -11    1    3    3    0    0 -0.21174903148E+02 -0.30482551089E+01 -0.63443304247E+01  0.22314096695E+02  0.51100000000E-03 0.  1.
         12    1    3    3    0    0 -0.93182757944E+01 -0.46867227215E+01 -0.66541116518E+01  0.12372260728E+02  0.00000000000E+00 0. -1.
</event>
<event>
 7    1  0.5897985E-013  0.5052887E+02  0.7816164E-02  0.1300439E+00
        -11   -1    0    0    0    0  0.00000000000E+00  0.00000000000E+00  0.45593999997E+02  0.45594000000E+02  0.51100000000E-03 0. -1.
         11   -1    0    0    0    0 -0.00000000000E+00 -0.00000000000E+00 -0.45593999997E+02  0.45594000000E+02  0.51100000000E-03 0.  1.
    9900012    2    1    2    0    0 -0.24850685115E+02 -0.31108028484E+02 -0.82401013833E+01  0.50528865016E+02  0.30000015702E+02 0.  0.
         12    1    1    2    0    0  0.24850685115E+02  0.31108028484E+02  0.82401013833E+01  0.40659134984E+02  0.00000000000E+00 0. -1.
         11    1    3    3    0    0 -0.14740347829E+02 -0.33624166225E+02 -0.36447455573E+01  0.36893720047E+02  0.51100000000E-03 0. -1.
        -11    1    3    3    0    0 -0.87431056035E+01  0.27733770289E+01 -0.65248272613E+01  0.11256415361E+02  0.51100000000E-03 0.  1.
         12    1    3    3    0    0 -0.13672316828E+01 -0.25723928730E+00  0.19294714352E+01  0.23787296073E+01  0.00000000000E+00 0. -1.
</event>
<event>
 7    1  0.5897985E-013  0.5052892E+02  0.7816164E-02  0.1300439E+00
        -11   -1    0    0    0    0  0.00000000000E+00  0.00000000000E+00  0.45593999997E+02  0.45594000000E+02  0.51100000000E-03 0.  1.
         11   -1    0    0    0    0 -0.00000000000E+00 -0.00000000000E+00 -0.45593999997E+02  0.45594000000E+02  0.51100000000E-03 0. -1.
    9900012    2    1    2    0    0  0.37843607861E+02  0.14864612903E+02 -0.25553734636E+00  0.50528921407E+02  0.30000187109E+02 0.  0.
         12    1    1    2    0    0 -0.37843607861E+02 -0.14864612903E+02  0.25553734636E+00  0.40659078593E+02  0.00000000000E+00 0. -1.
         11    1    3    3    0    0  0.95883757704E+01 -0.57649466853E+01 -0.50175175699E+01  0.12261608501E+02  0.51100000000E-03 0. -1.
        -11    1    3    3    0    0  0.81419355182E+01  0.14258098238E+02  0.50137179466E+01  0.17167464788E+02  0.51100000000E-03 0.  1.
        -12    1    3    3    0    0  0.20113296572E+02  0.63714613501E+01 -0.25173772307E+00  0.21099848118E+02  0.00000000000E+00 0.  1.
</event>
<event>
 7    1  0.5897985E-013  0.5052886E+02  0.7816164E-02  0.1300439E+00
        -11   -1    0    0    0    0  0.00000000000E+00  0.00000000000E+00  0.45593999997E+02  0.45594000000E+02  0.51100000000E-03 0.  1.
         11   -1    0    0    0    0 -0.00000000000E+00 -0.00000000000E+00 -0.45593999997E+02  0.45594000000E+02  0.51100000000E-03 0. -1.
    9900012    2    1    2    0    0  0.68920480065E+00  0.23171988857E+02  0.33402842409E+02  0.50528856479E+02  0.29999989755E+02 0.  0.
         12    1    1    2    0    0 -0.68920480065E+00 -0.23171988857E+02 -0.33402842409E+02  0.40659143521E+02  0.00000000000E+00 0. -1.
         11    1    3    3    0    0 -0.35136943171E+01  0.21627773043E+02  0.18171604602E+02  0.28466011815E+02  0.51100000000E-03 0. -1.
        -11    1    3    3    0    0  0.69793827363E+01  0.19576459352E+01  0.72205173348E+00  0.72846084284E+01  0.51100000000E-03 0.  1.
         12    1    3    3    0    0 -0.27764836186E+01 -0.41343012138E+00  0.14509186073E+02  0.14778236236E+02  0.00000000000E+00 0. -1.
</event>
<event>
 7    1  0.5897985E-013  0.5052886E+02  0.7816164E-02  0.1300439E+00
        -11   -1    0    0    0    0  0.00000000000E+00  0.00000000000E+00  0.45593999997E+02  0.45594000000E+02  0.51100000000E-03 0.  1.
         11   -1    0    0    0    0 -0.00000000000E+00 -0.00000000000E+00 -0.45593999997E+02  0.45594000000E+02  0.51100000000E-03 0. -1.
    9900012    2    1    2    0    0 -0.18453401285E+01  0.19763403183E+02  0.35484760969E+02  0.50528860233E+02  0.30000001165E+02 0.  0.
         12    1    1    2    0    0  0.18453401285E+01 -0.19763403183E+02 -0.35484760969E+02  0.40659139767E+02  0.00000000000E+00 0. -1.
         11    1    3    3    0    0 -0.76023681013E+01  0.15737229936E+02  0.22512913811E+02  0.28500661314E+02  0.51100000000E-03 0. -1.
        -11    1    3    3    0    0  0.36225942078E+01 -0.45427202248E+01  0.11756915529E+02  0.13114288347E+02  0.51100000000E-03 0.  1.
        -12    1    3    3    0    0  0.21344337650E+01  0.85688934718E+01  0.12149316283E+01  0.89139105722E+01  0.00000000000E+00 0.  1.
</event>
<event>
 7    1  0.5897985E-013  0.5052887E+02  0.7816164E-02  0.1300439E+00
        -11   -1    0    0    0    0  0.00000000000E+00  0.00000000000E+00  0.45593999997E+02  0.45594000000E+02  0.51100000000E-03 0. -1.
         11   -1    0    0    0    0 -0.00000000000E+00 -0.00000000000E+00 -0.45593999997E+02  0.45594000000E+02  0.51100000000E-03 0.  1.
    9900012    2    1    2    0    0 -0.31388171403E+02  0.16719952889E+02 -0.19707637707E+02  0.50528866800E+02  0.30000021125E+02 0.  0.
         12    1    1    2    0    0  0.31388171403E+02 -0.16719952889E+02  0.19707637707E+02  0.40659133200E+02  0.00000000000E+00 0. -1.
         11    1    3    3    0    0 -0.21365526654E+01  0.17800121002E+01 -0.82272203745E+01  0.86844951333E+01  0.51100000000E-03 0. -1.
        -11    1    3    3    0    0 -0.55151510092E+01  0.18214200726E+01  0.69475686295E+01  0.90555602730E+01  0.51100000000E-03 0.  1.
        -12    1    3    3    0    0 -0.23736467728E+02  0.13118520717E+02 -0.18427985962E+02  0.32788811393E+02  0.00000000000E+00 0.  1.
</event>
<event>
 7    1  0.5897985E-013  0.5052884E+02  0.7816164E-02  0.1300439E+00
        -11   -1    0    0    0    0  0.00000000000E+00  0.00000000000E+00  0.45593999997E+02  0.45594000000E+02  0.51100000000E-03 0.  1.
         11   -1    0    0    0    0 -0.00000000000E+00 -0.00000000000E+00 -0.45593999997E+02  0.45594000000E+02  0.51100000000E-03 0. -1.
    9900012    2    1    2    0    0  0.26655894574E+02 -0.30562846687E+02  0.29227700171E+01  0.50528844847E+02  0.29999954398E+02 0.  0.
         12    1    1    2    0    0 -0.26655894574E+02  0.30562846687E+02 -0.29227700171E+01  0.40659155153E+02  0.00000000000E+00 0. -1.
         11    1    3    3    0    0  0.12101182607E+02 -0.20005905092E+02 -0.12366256699E+02  0.26449936939E+02  0.51100000000E-03 0. -1.
        -11    1    3    3    0    0  0.12517830060E+02 -0.68268459186E+01  0.12754240095E+02  0.19130408654E+02  0.51100000000E-03 0.  1.
         12    1    3    3    0    0  0.20368819066E+01 -0.37300956763E+01  0.25347866210E+01  0.49484992543E+01  0.00000000000E+00 0. -1.
</event>
<event>
 7    1  0.5897985E-013  0.5052885E+02  0.7816164E-02  0.1300439E+00
        -11   -1    0    0    0    0  0.00000000000E+00  0.00000000000E+00  0.45593999997E+02  0.45594000000E+02  0.51100000000E-03 0. -1.
         11   -1    0    0    0    0 -0.00000000000E+00 -0.00000000000E+00 -0.45593999997E+02  0.45594000000E+02  0.51100000000E-03 0.  1.
    9900012    2    1    2    0    0  0.16664468041E+01 -0.11639061138E+02 -0.38921990866E+02  0.50528853894E+02  0.29999981896E+02 0.  0.
         12    1    1    2    0    0 -0.16664468041E+01  0.11639061138E+02  0.38921990866E+02  0.40659146106E+02  0.00000000000E+00 0. -1.
         11    1    3    3    0    0 -0.10917477820E+02 -0.97185814559E+01 -0.12646458175E+02  0.19328089717E+02  0.51100000000E-03 0. -1.
        -11    1    3    3    0    0  0.18530075897E+01  0.14193718629E+01 -0.15351046491E+02  0.15527487957E+02  0.51100000000E-03 0.  1.
         12    1    3    3    0    0  0.10730917035E+02 -0.33398515450E+01 -0.10924486199E+02  0.15673276220E+02  0.00000000000E+00 0. -1.
</event>
<event>
 7    1  0.5897985E-013  0.5052886E+02  0.7816164E-02  0.1300439E+00
        -11   -1    0    0    0    0  0.00000000000E+00  0.00000000000E+00  0.45593999997E+02  0.45594000000E+02  0.51100000000E-03 0.  1.
         11   -1    0    0    0    0 -0.00000000000E+00 -0.00000000000E+00 -0.45593999997E+02  0.45594000000E+02  0.51100000000E-03 0. -1.
    9900012    2    1    2    0    0  0.40656920866E+02 -0.27030095999E+00 -0.32722516019E+00  0.50528863840E+02  0.30000012129E+02 0.  0.
         12    1    1    2    0    0 -0.40656920866E+02  0.27030095999E+00  0.32722516019E+00  0.40659136160E+02  0.00000000000E+00 0. -1.
         11    1    3    3    0    0 -0.34845961891E+01 -0.38499117964E+01 -0.21818231866E+01  0.56324580886E+01  0.51100000000E-03 0. -1.
        -11    1    3    3    0    0  0.29954953886E+02  0.39518634063E+01  0.42246067228E+01  0.30508421606E+02  0.51100000000E-03 0.  1.
         12    1    3    3    0    0  0.14186563170E+02 -0.37225256994E+00 -0.23700086963E+01  0.14387984145E+02  0.00000000000E+00 0. -1.
</event>
<event>
 7    1  0.5897985E-013  0.5052891E+02  0.7816164E-02  0.1300439E+00
        -11   -1    0    0    0    0  0.00000000000E+00  0.00000000000E+00  0.45593999997E+02  0.45594000000E+02  0.51100000000E-03 0. -1.
         11   -1    0    0    0    0 -0.00000000000E+00 -0.00000000000E+00 -0.45593999997E+02  0.45594000000E+02  0.51100000000E-03 0.  1.
    9900012    2    1    2    0    0  0.19863381441E+02  0.27064326007E+02 -0.22937528702E+02  0.50528906461E+02  0.30000141678E+02 0.  0.
         12    1    1    2    0    0 -0.19863381441E+02 -0.27064326007E+02  0.22937528702E+02  0.40659093539E+02  0.00000000000E+00 0. -1.
         11    1    3    3    0    0  0.13096963117E+02 -0.24360669728E+00 -0.85407217022E+01  0.15637573807E+02  0.51100000000E-03 0. -1.
        -11    1    3    3    0    0  0.32253045135E+00  0.22020117868E+02 -0.54985025036E+01  0.22698527416E+02  0.51100000000E-03 0.  1.
        -12    1    3    3    0    0  0.64438878724E+01  0.52878148364E+01 -0.88983044958E+01  0.12192805237E+02  0.00000000000E+00 0.  1.
</event>
<event>
 7    1  0.5897985E-013  0.5052885E+02  0.7816164E-02  0.1300439E+00
        -11   -1    0    0    0    0  0.00000000000E+00  0.00000000000E+00  0.45593999997E+02  0.45594000000E+02  0.51100000000E-03 0.  1.
         11   -1    0    0    0    0 -0.00000000000E+00 -0.00000000000E+00 -0.45593999997E+02  0.45594000000E+02  0.51100000000E-03 0. -1.
    9900012    2    1    2    0    0 -0.31386044911E+02 -0.56176386004E+01  0.25229440791E+02  0.50528851445E+02  0.29999974452E+02 0.  0.
         12    1    1    2    0    0  0.31386044911E+02  0.56176386004E+01 -0.25229440791E+02  0.40659148555E+02  0.00000000000E+00 0. -1.
         11    1    3    3    0    0  0.18008720503E+01 -0.34740116905E+01 -0.92604942707E+00  0.40211273506E+01  0.51100000000E-03 0. -1.
        -11    1    3    3    0    0 -0.21005689025E+02 -0.96869761935E+01  0.21113749134E+02  0.31318794388E+02  0.51100000000E-03 0.  1.
        -12    1    3    3    0    0 -0.12181227936E+02  0.75433492836E+01  0.50417410839E+01  0.15188929706E+02  0.00000000000E+00 0.  1.
</event>
<event>
 7    1  0.5897985E-013  0.5052890E+02  0.7816164E-02  0.1300439E+00
        -11   -1    0    0    0    0  0.00000000000E+00  0.00000000000E+00  0.45593999997E+02  0.45594000000E+02  0.51100000000E-03 0.  1.
         11   -1    0    0    0    0 -0.00000000000E+00 -0.00000000000E+00 -0.45593999997E+02  0.45594000000E+02  0.51100000000E-03 0. -1.
    9900012    2    1    2    0    0  0.32618993047E+02 -0.16344515963E+02  0.17944934363E+02  0.50528897960E+02  0.30000115838E+02 0.  0.
         12    1    1    2    0    0 -0.32618993047E+02  0.16344515963E+02 -0.17944934363E+02  0.40659102040E+02  0.00000000000E+00 0. -1.
         11    1    3    3    0    0 -0.31492050526E+01 -0.57248235024E+01  0.91900629909E+01  0.11276007921E+02  0.51100000000E-03 0. -1.
        -11    1    3    3    0    0  0.26595940280E+02 -0.63058903425E+01  0.98588081254E+01  0.29056916394E+02  0.51100000000E-03 0.  1.
         12    1    3    3    0    0  0.91722578193E+01 -0.43138021179E+01 -0.11039367537E+01  0.10195973645E+02  0.00000000000E+00 0. -1.
</event>
<event>
 7    1  0.5897985E-013  0.5052886E+02  0.7816164E-02  0.1300439E+00
        -11   -1    0    0    0    0  0.00000000000E+00  0.00000000000E+00  0.45593999997E+02  0.45594000000E+02  0.51100000000E-03 0.  1.
         11   -1    0    0    0    0 -0.00000000000E+00 -0.00000000000E+00 -0.45593999997E+02  0.45594000000E+02  0.51100000000E-03 0. -1.
    9900012    2    1    2    0    0 -0.14331911452E+02 -0.33491783718E+02 -0.18057206853E+02  0.50528856111E+02  0.29999988635E+02 0.  0.
         12    1    1    2    0    0  0.14331911452E+02  0.33491783718E+02  0.18057206853E+02  0.40659143889E+02  0.00000000000E+00 0. -1.
         11    1    3    3    0    0  0.57436097398E+01 -0.28523805870E+00  0.66223444278E+00  0.57886931436E+01  0.51100000000E-03 0. -1.
        -11    1    3    3    0    0 -0.67607169143E+01 -0.15943296190E+02 -0.14383298165E+02  0.22511669262E+02  0.51100000000E-03 0.  1.
         12    1    3    3    0    0 -0.13314804277E+02 -0.17263249469E+02 -0.43361431303E+01  0.22228493705E+02  0.00000000000E+00 0. -1.
</event>
<event>
 7    1  0.5897985E-013  0.5052892E+02  0.7816164E-02  0.1300439E+00
        -11   -1    0    0    0    0  0.00000000000E+00  0.00000000000E+00  0.45593999997E+02  0.45594000000E+02  0.51100000000E-03 0. -1.
         11   -1    0    0    0    0 -0.00000000000E+00 -0.00000000000E+00 -0.45593999997E+02  0.45594000000E+02  0.51100000000E-03 0.  1.
    9900012    2    1    2    0    0 -0.21902840777E+02 -0.28398987687E+02 -0.19155247522E+02  0.50528924219E+02  0.30000195657E+02 0.  0.
         12    1    1    2    0    0  0.21902840777E+02  0.28398987687E+02  0.19155247522E+02  0.40659075781E+02  0.00000000000E+00 0. -1.
         11    1    3    3    0    0 -0.23817521799E+02 -0.18863861628E+02 -0.55165214998E+01  0.30879631310E+02  0.51100000000E-03 0. -1.
        -11    1    3    3    0    0 -0.29451907309E+01 -0.37981259979E+01 -0.10411297971E+02  0.11467128465E+02  0.51100000000E-03 0.  1.
         12    1    3    3    0    0  0.48598717533E+01 -0.57370000613E+01 -0.32274280507E+01  0.81821644438E+01  0.00000000000E+00 0. -1.
</event>
<event>
 7    1  0.5897985E-013  0.5052886E+02  0.7816164E-02  0.1300439E+00
        -11   -1    0    0    0    0  0.00000000000E+00  0.00000000000E+00  0.45593999997E+02  0.45594000000E+02  0.51100000000E-03 0. -1.
         11   -1    0    0    0    0 -0.00000000000E+00 -0.00000000000E+00 -0.45593999997E+02  0.45594000000E+02  0.51100000000E-03 0.  1.
    9900012    2    1    2    0    0 -0.29002235454E+02  0.26981318016E+02 -0.91675886915E+01  0.50528857539E+02  0.29999992976E+02 0.  0.
         12    1    1    2    0    0  0.29002235454E+02 -0.26981318016E+02  0.91675886915E+01  0.40659142461E+02  0.00000000000E+00 0. -1.
         11    1    3    3    0    0 -0.20863204590E+02  0.59475068488E+01 -0.81750339815E+00  0.21709777878E+02  0.51100000000E-03 0. -1.
        -11    1    3    3    0    0 -0.61760080528E-01  0.19288963923E+02 -0.64603657949E+01  0.20342179578E+02  0.51100000000E-03 0.  1.
        -12    1    3    3    0    0 -0.80772707841E+01  0.17448472442E+01 -0.18897194984E+01  0.84769000824E+01  0.00000000000E+00 0.  1.
</event>
<event>
 7    1  0.5897985E-013  0.5052886E+02  0.7816164E-02  0.1300439E+00
        -11   -1    0    0    0    0  0.00000000000E+00  0.00000000000E+00  0.45593999997E+02  0.45594000000E+02  0.51100000000E-03 0.  1.
         11   -1    0    0    0    0 -0.00000000000E+00 -0.00000000000E+00 -0.45593999997E+02  0.45594000000E+02  0.51100000000E-03 0. -1.
    9900012    2    1    2    0    0  0.11101337463E+02 -0.15539350433E+02  0.35895047329E+02  0.50528861690E+02  0.30000005592E+02 0.  0.
         12    1    1    2    0    0 -0.11101337463E+02  0.15539350433E+02 -0.35895047329E+02  0.40659138310E+02  0.00000000000E+00 0. -1.
         11    1    3    3    0    0 -0.28645088406E+01  0.48137486778E+01 -0.13320531993E+01  0.57577732864E+01  0.51100000000E-03 0. -1.
        -11    1    3    3    0    0  0.84468463125E+01 -0.14524659361E+02  0.26393302790E+02  0.31287719230E+02  0.51100000000E-03 0.  1.
         12    1    3    3    0    0  0.55189999912E+01 -0.58284397495E+01  0.10833797739E+02  0.13483369173E+02  0.00000000000E+00 0. -1.
</event>
<event>
 7    1  0.5897985E-013  0.5052886E+02  0.7816164E-02  0.1300439E+00
        -11   -1    0    0    0    0  0.00000000000E+00  0.00000000000E+00  0.45593999997E+02  0.45594000000E+02  0.51100000000E-03 0.  1.
         11   -1    0    0    0    0 -0.00000000000E+00 -0.00000000000E+00 -0.45593999997E+02  0.45594000000E+02  0.51100000000E-03 0. -1.
    9900012    2    1    2    0    0 -0.63394143696E+00 -0.31741377622E+02  0.25401753295E+02  0.50528855819E+02  0.29999987747E+02 0.  0.
         12    1    1    2    0    0  0.63394143696E+00  0.31741377622E+02 -0.25401753295E+02  0.40659144181E+02  0.00000000000E+00 0. -1.
         11    1    3    3    0    0  0.43202329825E+01 -0.36985565204E+01 -0.39836319177E+00  0.57010899705E+01  0.51100000000E-03 0. -1.
        -11    1    3    3    0    0 -0.45454391414E+01 -0.31333704988E+02  0.18162309868E+02  0.36501117589E+02  0.51100000000E-03 0.  1.
        -12    1    3    3    0    0 -0.40873527814E+00  0.32908838864E+01  0.76378066191E+01  0.83266482592E+01  0.00000000000E+00 0.  1.
</event>
<event>
 7    1  0.5897985E-013  0.5052886E+02  0.7816164E-02  0.1300439E+00
        -11   -1    0    0    0    0  0.00000000000E+00  0.00000000000E+00  0.45593999997E+02  0.45594000000E+02  0.51100000000E-03 0. -1.
         11   -1    0    0    0    0 -0.00000000000E+00 -0.00000000000E+00 -0.45593999997E+02  0.45594000000E+02  0.51100000000E-03 0.  1.
    9900012    2    1    2    0    0 -0.32014062892E+02  0.25042036485E+02  0.10779041214E+01  0.50528859682E+02  0.29999999488E+02 0.  0.
         12    1    1    2    0    0  0.32014062892E+02 -0.25042036485E+02 -0.10779041214E+01  0.40659140318E+02  0.00000000000E+00 0. -1.
         11    1    3    3    0    0 -0.74458906046E+01 -0.21652464156E+01 -0.32782790001E+01  0.84188296336E+01  0.51100000000E-03 0.  1.
        -11    1    3    3    0    0 -0.11674929077E+02  0.26426717822E+02  0.41831494640E+01  0.29192021573E+02  0.51100000000E-03 0. -1.
         12    1    3    3    0    0 -0.12893243210E+02  0.78056507851E+00  0.17303365752E+00  0.12918008475E+02  0.00000000000E+00 0. -1.
</event>
<event>
 7    1  0.5897985E-013  0.5052886E+02  0.7816164E-02  0.1300439E+00
        -11   -1    0    0    0    0  0.00000000000E+00  0.00000000000E+00  0.45593999997E+02  0.45594000000E+02  0.51100000000E-03 0.  1.
         11   -1    0    0    0    0 -0.00000000000E+00 -0.00000000000E+00 -0.45593999997E+02  0.45594000000E+02  0.51100000000E-03 0. -1.
    9900012    2    1    2    0    0 -0.25378236615E+02  0.28659071617E+02 -0.13702845727E+02  0.50528864979E+02  0.30000015589E+02 0.  0.
         12    1    1    2    0    0  0.25378236615E+02 -0.28659071617E+02  0.13702845727E+02  0.40659135021E+02  0.00000000000E+00 0. -1.
         11    1    3    3    0    0 -0.19251186177E+02  0.12356586729E+02 -0.13088823440E+02  0.26355468201E+02  0.51100000000E-03 0. -1.
        -11    1    3    3    0    0  0.29666954569E+01  0.12875587065E+02 -0.41229832059E+01  0.13841279384E+02  0.51100000000E-03 0.  1.
        -12    1    3    3    0    0 -0.90937458954E+01  0.34268978232E+01  0.35089609188E+01  0.10332117393E+02  0.00000000000E+00 0.  1.
</event>
<event>
 7    1  0.5897985E-013  0.5052887E+02  0.7816164E-02  0.1300439E+00
        -11   -1    0    0    0    0  0.00000000000E+00  0.00000000000E+00  0.45593999997E+02  0.45594000000E+02  0.51100000000E-03 0.  1.
         11   -1    0    0    0    0 -0.00000000000E+00 -0.00000000000E+00 -0.45593999997E+02  0.45594000000E+02  0.51100000000E-03 0. -1.
    9900012    2    1    2    0    0 -0.26274623794E+02  0.79713363618E+01  0.29987782703E+02  0.50528866090E+02  0.30000018967E+02 0.  0.
         12    1    1    2    0    0  0.26274623794E+02 -0.79713363618E+01 -0.29987782703E+02  0.40659133910E+02  0.00000000000E+00 0. -1.
         11    1    3    3    0    0 -0.14047656924E+02 -0.70838863061E+01  0.24885383391E+02  0.29441474437E+02  0.51100000000E-03 0.  1.
        -11    1    3    3    0    0 -0.85507153256E+01  0.76958990712E+01  0.18941730023E+00  0.11505541025E+02  0.51100000000E-03 0. -1.
        -12    1    3    3    0    0 -0.36762515440E+01  0.73593235967E+01  0.49129820117E+01  0.95818506283E+01  0.00000000000E+00 0.  1.
</event>
<event>
 7    1  0.5897985E-013  0.5052885E+02  0.7816164E-02  0.1300439E+00
        -11   -1    0    0    0    0  0.00000000000E+00  0.00000000000E+00  0.45593999997E+02  0.45594000000E+02  0.51100000000E-03 0.  1.
         11   -1    0    0    0    0 -0.00000000000E+00 -0.00000000000E+00 -0.45593999997E+02  0.45594000000E+02  0.51100000000E-03 0. -1.
    9900012    2    1    2    0    0 -0.18376501070E+00  0.10873336117E+02  0.39177836809E+02  0.50528854597E+02  0.29999984033E+02 0.  0.
         12    1    1    2    0    0  0.18376501070E+00 -0.10873336117E+02 -0.39177836809E+02  0.40659145403E+02  0.00000000000E+00 0. -1.
         11    1    3    3    0    0 -0.25130957873E+01 -0.61110000926E+00 -0.16399541871E+01  0.30624408001E+01  0.51100000000E-03 0. -1.
        -11    1    3    3    0    0 -0.17583709542E+01  0.15514421549E+02  0.37977573476E+02  0.41061968192E+02  0.51100000000E-03 0.  1.
         12    1    3    3    0    0  0.40877017308E+01 -0.40299854230E+01  0.28402175201E+01  0.64044456053E+01  0.00000000000E+00 0. -1.
</event>
<event>
 7    1  0.5897985E-013  0.5052886E+02  0.7816164E-02  0.1300439E+00
        -11   -1    0    0    0    0  0.00000000000E+00  0.00000000000E+00  0.45593999997E+02  0.45594000000E+02  0.51100000000E-03 0. -1.
         11   -1    0    0    0    0 -0.00000000000E+00 -0.00000000000E+00 -0.45593999997E+02  0.45594000000E+02  0.51100000000E-03 0.  1.
    9900012    2    1    2    0    0  0.39833721731E+02  0.41872866587E+01 -0.69933590608E+01  0.50528858009E+02  0.29999994403E+02 0.  0.
         12    1    1    2    0    0 -0.39833721731E+02 -0.41872866587E+01  0.69933590608E+01  0.40659141991E+02  0.00000000000E+00 0. -1.
         11    1    3    3    0    0 -0.16844183634E+01  0.23960284007E+01 -0.33653211805E+01  0.44613455626E+01  0.51100000000E-03 0. -1.
        -11    1    3    3    0    0  0.36808718213E+02  0.65482012040E+01 -0.77841527149E+01  0.38188397573E+02  0.51100000000E-03 0.  1.
        -12    1    3    3    0    0  0.47094218819E+01 -0.47569429460E+01  0.41561148347E+01  0.78791148724E+01  0.00000000000E+00 0.  1.
</event>
<event>
 7    1  0.5897985E-013  0.5052886E+02  0.7816164E-02  0.1300439E+00
        -11   -1    0    0    0    0  0.00000000000E+00  0.00000000000E+00  0.45593999997E+02  0.45594000000E+02  0.51100000000E-03 0. -1.
         11   -1    0    0    0    0 -0.00000000000E+00 -0.00000000000E+00 -0.45593999997E+02  0.45594000000E+02  0.51100000000E-03 0.  1.
    9900012    2    1    2    0    0 -0.40071377335E+02  0.28096979235E+00 -0.68826802840E+01  0.50528861871E+02  0.30000006142E+02 0.  0.
         12    1    1    2    0    0  0.40071377335E+02 -0.28096979235E+00  0.68826802840E+01  0.40659138129E+02  0.00000000000E+00 0. -1.
         11    1    3    3    0    0 -0.61282707890E+00 -0.33795072189E+01  0.26618930285E+00  0.34449213456E+01  0.51100000000E-03 0. -1.
        -11    1    3    3    0    0 -0.31278543128E+02  0.12040985576E+02 -0.30030180788E+00  0.33517499539E+02  0.51100000000E-03 0.  1.
        -12    1    3    3    0    0 -0.81800071274E+01 -0.83805085651E+01 -0.68485677789E+01  0.13566440986E+02  0.00000000000E+00 0.  1.
</event>
<event>
 7    1  0.5897985E-013  0.5052886E+02  0.7816164E-02  0.1300439E+00
        -11   -1    0    0    0    0  0.00000000000E+00  0.00000000000E+00  0.45593999997E+02  0.45594000000E+02  0.51100000000E-03 0. -1.
         11   -1    0    0    0    0 -0.00000000000E+00 -0.00000000000E+00 -0.45593999997E+02  0.45594000000E+02  0.51100000000E-03 0.  1.
    9900012    2    1    2    0    0  0.10335703376E+02 -0.36258555372E+02 -0.15220239352E+02  0.50528864644E+02  0.30000014573E+02 0.  0.
         12    1    1    2    0    0 -0.10335703376E+02  0.36258555372E+02  0.15220239352E+02  0.40659135356E+02  0.00000000000E+00 0. -1.
         11    1    3    3    0    0 -0.48899423922E+01 -0.10822165710E+02 -0.12114027265E+02  0.16964093377E+02  0.51100000000E-03 0. -1.
        -11    1    3    3    0    0  0.29819293150E+01 -0.10799685871E+02  0.56746516007E+01  0.12558932614E+02  0.51100000000E-03 0.  1.
         12    1    3    3    0    0  0.12243716453E+02 -0.14636703791E+02 -0.87808636874E+01  0.21005838654E+02  0.00000000000E+00 0. -1.
</event>
<event>
 7    1  0.5897985E-013  0.5052886E+02  0.7816164E-02  0.1300439E+00
        -11   -1    0    0    0    0  0.00000000000E+00  0.00000000000E+00  0.45593999997E+02  0.45594000000E+02  0.51100000000E-03 0.  1.
         11   -1    0    0    0    0 -0.00000000000E+00 -0.00000000000E+00 -0.45593999997E+02  0.45594000000E+02  0.51100000000E-03 0. -1.
    9900012    2    1    2    0    0 -0.15491297574E+02 -0.90828010966E+01  0.36478593636E+02  0.50528863635E+02  0.30000011503E+02 0.  0.
         12    1    1    2    0    0  0.15491297574E+02  0.90828010966E+01 -0.36478593636E+02  0.40659136365E+02  0.00000000000E+00 0. -1.
         11    1    3    3    0    0 -0.51630783990E+01  0.22334350582E+01  0.18847960286E+00  0.56285997846E+01  0.51100000000E-03 0. -1.
        -11    1    3    3    0    0 -0.15203521342E+02 -0.68990611371E+01  0.34097819565E+02  0.37965845245E+02  0.51100000000E-03 0.  1.
        -12    1    3    3    0    0  0.48753021669E+01 -0.44171750176E+01  0.21922944682E+01  0.69344186051E+01  0.00000000000E+00 0.  1.
</event>
<event>
 7    1  0.5897985E-013  0.5052886E+02  0.7816164E-02  0.1300439E+00
        -11   -1    0    0    0    0  0.00000000000E+00  0.00000000000E+00  0.45593999997E+02  0.45594000000E+02  0.51100000000E-03 0. -1.
         11   -1    0    0    0    0 -0.00000000000E+00 -0.00000000000E+00 -0.45593999997E+02  0.45594000000E+02  0.51100000000E-03 0.  1.
    9900012    2    1    2    0    0  0.26736280715E+02 -0.96172640428E+01 -0.29083415886E+02  0.50528861375E+02  0.30000004635E+02 0.  0.
         12    1    1    2    0    0 -0.26736280715E+02  0.96172640428E+01  0.29083415886E+02  0.40659138625E+02  0.00000000000E+00 0. -1.
         11    1    3    3    0    0  0.15335543712E+01  0.26321008076E+01  0.15036542520E+01  0.33971635288E+01  0.51100000000E-03 0. -1.
        -11    1    3    3    0    0  0.23778181094E+02 -0.17560555929E+02 -0.28996436959E+02  0.41407346900E+02  0.51100000000E-03 0.  1.
        -12    1    3    3    0    0  0.14245452495E+01  0.53111910790E+01 -0.15906331789E+01  0.57243509462E+01  0.00000000000E+00 0.  1.
</event>
<event>
 7    1  0.5897985E-013  0.5052885E+02  0.7816164E-02  0.1300439E+00
        -11   -1    0    0    0    0  0.00000000000E+00  0.00000000000E+00  0.45593999997E+02  0.45594000000E+02  0.51100000000E-03 0.  1.
         11   -1    0    0    0    0 -0.00000000000E+00 -0.00000000000E+00 -0.45593999997E+02  0.45594000000E+02  0.51100000000E-03 0. -1.
    9900012    2    1    2    0    0 -0.21629909814E+02  0.16715232464E+02  0.30098415937E+02  0.50528848056E+02  0.29999964152E+02 0.  0.
         12    1    1    2    0    0  0.21629909814E+02 -0.16715232464E+02 -0.30098415937E+02  0.40659151944E+02  0.00000000000E+00 0. -1.
         11    1    3    3    0    0  0.46398902399E+01 -0.33688802388E+01  0.31811493990E+01  0.65572591273E+01  0.51100000000E-03 0. -1.
        -11    1    3    3    0    0 -0.19258032948E+02  0.14507250481E+02  0.25148839245E+02  0.34839579004E+02  0.51100000000E-03 0.  1.
         12    1    3    3    0    0 -0.70117671056E+01  0.55768622216E+01  0.17684272924E+01  0.91320099250E+01  0.00000000000E+00 0. -1.
</event>
<event>
 7    1  0.5897985E-013  0.5052886E+02  0.7816164E-02  0.1300439E+00
        -11   -1    0    0    0    0  0.00000000000E+00  0.00000000000E+00  0.45593999997E+02  0.45594000000E+02  0.51100000000E-03 0.  1.
         11   -1    0    0    0    0 -0.00000000000E+00 -0.00000000000E+00 -0.45593999997E+02  0.45594000000E+02  0.51100000000E-03 0. -1.
    9900012    2    1    2    0    0 -0.52103016213E+01 -0.34167084151E+02  0.21415621980E+02  0.50528858996E+02  0.29999997405E+02 0.  0.
         12    1    1    2    0    0  0.52103016213E+01  0.34167084151E+02 -0.21415621980E+02  0.40659141004E+02  0.00000000000E+00 0. -1.
         11    1    3    3    0    0 -0.75156007937E+01  0.20626613266E+00  0.59878305824E+00  0.75422372291E+01  0.51100000000E-03 0. -1.
        -11    1    3    3    0    0  0.27831961088E+01 -0.35775174919E+02  0.18875863481E+02  0.40545129713E+02  0.51100000000E-03 0.  1.
        -12    1    3    3    0    0 -0.47789693630E+00  0.14018246346E+01  0.19409754409E+01  0.24414920540E+01  0.00000000000E+00 0.  1.
</event>
<event>
 7    1  0.5897985E-013  0.5052885E+02  0.7816164E-02  0.1300439E+00
        -11   -1    0    0    0    0  0.00000000000E+00  0.00000000000E+00  0.45593999997E+02  0.45594000000E+02  0.51100000000E-03 0. -1.
         11   -1    0    0    0    0 -0.00000000000E+00 -0.00000000000E+00 -0.45593999997E+02  0.45594000000E+02  0.51100000000E-03 0.  1.
    9900012    2    1    2    0    0 -0.16758765916E+02 -0.32008298515E+02  0.18648825195E+02  0.50528854780E+02  0.29999984591E+02 0.  0.
         12    1    1    2    0    0  0.16758765916E+02  0.32008298515E+02 -0.18648825195E+02  0.40659145220E+02  0.00000000000E+00 0. -1.
         11    1    3    3    0    0 -0.20552143991E+02 -0.23393307923E+02  0.24181650721E+02  0.39425749328E+02  0.51100000000E-03 0. -1.
        -11    1    3    3    0    0  0.37891675591E+01 -0.73619319623E+01 -0.42387269947E+01  0.93017546627E+01  0.51100000000E-03 0.  1.
         12    1    3    3    0    0  0.42105162285E-02 -0.12530586294E+01 -0.12940985317E+01  0.18013507895E+01  0.00000000000E+00 0. -1.
</event>
<event>
 7    1  0.5897985E-013  0.5052886E+02  0.7816164E-02  0.1300439E+00
        -11   -1    0    0    0    0  0.00000000000E+00  0.00000000000E+00  0.45593999997E+02  0.45594000000E+02  0.51100000000E-03 0. -1.
         11   -1    0    0    0    0 -0.00000000000E+00 -0.00000000000E+00 -0.45593999997E+02  0.45594000000E+02  0.51100000000E-03 0.  1.
    9900012    2    1    2    0    0  0.27304160770E+02 -0.26937798778E+02  0.13490874762E+02  0.50528857114E+02  0.29999991684E+02 0.  0.
         12    1    1    2    0    0 -0.27304160770E+02  0.26937798778E+02 -0.13490874762E+02  0.40659142886E+02  0.00000000000E+00 0. -1.
         11    1    3    3    0    0  0.20653189759E+02 -0.28762923816E+02  0.19598923822E+02  0.40471939030E+02  0.51100000000E-03 0. -1.
        -11    1    3    3    0    0  0.43810293472E+01  0.27547416833E+01 -0.26414959515E+01  0.58102943992E+01  0.51100000000E-03 0.  1.
         12    1    3    3    0    0  0.22699416639E+01 -0.92961664575E+00 -0.34665531080E+01  0.42466236843E+01  0.00000000000E+00 0. -1.
</event>
<event>
 7    1  0.5897985E-013  0.5052886E+02  0.7816164E-02  0.1300439E+00
        -11   -1    0    0    0    0  0.00000000000E+00  0.00000000000E+00  0.45593999997E+02  0.45594000000E+02  0.51100000000E-03 0.  1.
         11   -1    0    0    0    0 -0.00000000000E+00 -0.00000000000E+00 -0.45593999997E+02  0.45594000000E+02  0.51100000000E-03 0. -1.
    9900012    2    1    2    0    0 -0.22664819388E+02  0.33318441453E+02 -0.54178465997E+01  0.50528860308E+02  0.30000001392E+02 0.  0.
         12    1    1    2    0    0  0.22664819388E+02 -0.33318441453E+02  0.54178465997E+01  0.40659139692E+02  0.00000000000E+00 0. -1.
         11    1    3    3    0    0 -0.17501952889E+02  0.29155541709E+02 -0.10993716500E+02  0.35738295567E+02  0.51100000000E-03 0. -1.
        -11    1    3    3    0    0 -0.74784548026E+01 -0.14576786339E+01  0.31989672470E+01  0.82635043984E+01  0.51100000000E-03 0.  1.
         12    1    3    3    0    0  0.23155883035E+01  0.56205783775E+01  0.23769026537E+01  0.65270603424E+01  0.00000000000E+00 0. -1.
</event>
<event>
 7    1  0.5897985E-013  0.5052884E+02  0.7816164E-02  0.1300439E+00
        -11   -1    0    0    0    0  0.00000000000E+00  0.00000000000E+00  0.45593999997E+02  0.45594000000E+02  0.51100000000E-03 0. -1.
         11   -1    0    0    0    0 -0.00000000000E+00 -0.00000000000E+00 -0.45593999997E+02  0.45594000000E+02  0.51100000000E-03 0.  1.
    9900012    2    1    2    0    0 -0.12465190417E+02 -0.29594411750E+02 -0.24939069256E+02  0.50528839232E+02  0.29999937330E+02 0.  0.
         12    1    1    2    0    0  0.12465190417E+02  0.29594411750E+02  0.24939069256E+02  0.40659160768E+02  0.00000000000E+00 0. -1.
         11    1    3    3    0    0 -0.10004195943E+01  0.19010842577E+01  0.44370814018E+01  0.49297720380E+01  0.51100000000E-03 0. -1.
        -11    1    3    3    0    0 -0.12972038294E+02 -0.25170320799E+02 -0.24877186464E+02  0.37692084491E+02  0.51100000000E-03 0.  1.
         12    1    3    3    0    0  0.15072674716E+01 -0.63251752086E+01 -0.44989641940E+01  0.79069827032E+01  0.00000000000E+00 0. -1.
</event>
<event>
 7    1  0.5897985E-013  0.5052886E+02  0.7816164E-02  0.1300439E+00
        -11   -1    0    0    0    0  0.00000000000E+00  0.00000000000E+00  0.45593999997E+02  0.45594000000E+02  0.51100000000E-03 0. -1.
         11   -1    0    0    0    0 -0.00000000000E+00 -0.00000000000E+00 -0.45593999997E+02  0.45594000000E+02  0.51100000000E-03 0.  1.
    9900012    2    1    2    0    0  0.17221012889E+02 -0.34502813965E+02 -0.12890227661E+02  0.50528862951E+02  0.30000009426E+02 0.  0.
         12    1    1    2    0    0 -0.17221012889E+02  0.34502813965E+02  0.12890227661E+02  0.40659137049E+02  0.00000000000E+00 0. -1.
         11    1    3    3    0    0  0.11602918656E+02 -0.12638650870E+02 -0.26127640290E-01  0.17157036459E+02  0.51100000000E-03 0. -1.
        -11    1    3    3    0    0  0.38668820823E+01 -0.19433377798E+02 -0.18423784083E+02  0.27056325875E+02  0.51100000000E-03 0.  1.
        -12    1    3    3    0    0  0.17512121507E+01 -0.24307852975E+01  0.55596840628E+01  0.63155006165E+01  0.00000000000E+00 0.  1.
</event>
<event>
 7    1  0.5897985E-013  0.5052885E+02  0.7816164E-02  0.1300439E+00
        -11   -1    0    0    0    0  0.00000000000E+00  0.00000000000E+00  0.45593999997E+02  0.45594000000E+02  0.51100000000E-03 0.  1.
         11   -1    0    0    0    0 -0.00000000000E+00 -0.00000000000E+00 -0.45593999997E+02  0.45594000000E+02  0.51100000000E-03 0. -1.
    9900012    2    1    2    0    0  0.26904650675E+02 -0.29772894847E+02 -0.65483332821E+01  0.50528853866E+02  0.29999981813E+02 0.  0.
         12    1    1    2    0    0 -0.26904650675E+02  0.29772894847E+02  0.65483332821E+01  0.40659146134E+02  0.00000000000E+00 0. -1.
         11    1    3    3    0    0  0.28739737807E+00 -0.10434307664E+02 -0.74154671729E+01  0.12804160547E+02  0.51100000000E-03 0. -1.
        -11    1    3    3    0    0  0.20139258870E+02 -0.55651506419E+01 -0.48777453774E+01  0.21455839525E+02  0.51100000000E-03 0.  1.
        -12    1    3    3    0    0  0.64779944272E+01 -0.13773436542E+02  0.57448792681E+01  0.16268853794E+02  0.00000000000E+00 0.  1.
</event>
<event>
 7    1  0.5897985E-013  0.5052887E+02  0.7816164E-02  0.1300439E+00
        -11   -1    0    0    0    0  0.00000000000E+00  0.00000000000E+00  0.45593999997E+02  0.45594000000E+02  0.51100000000E-03 0.  1.
         11   -1    0    0    0    0 -0.00000000000E+00 -0.00000000000E+00 -0.45593999997E+02  0.45594000000E+02  0.51100000000E-03 0. -1.
    9900012    2    1    2    0    0 -0.13336427098E+01  0.40156164939E+02  0.62344481046E+01  0.50528873981E+02  0.30000042952E+02 0.  0.
         12    1    1    2    0    0  0.13336427098E+01 -0.40156164939E+02 -0.62344481046E+01  0.40659126019E+02  0.00000000000E+00 0. -1.
         11    1    3    3    0    0 -0.10407885384E+02  0.23494725380E+02  0.17547219431E+01  0.25756654445E+02  0.51100000000E-03 0. -1.
        -11    1    3    3    0    0  0.91399020422E+01  0.18411957534E+02  0.69895217036E+01  0.21711550002E+02  0.51100000000E-03 0.  1.
         12    1    3    3    0    0 -0.65659368382E-01 -0.17505179751E+01 -0.25097955420E+01  0.30606695340E+01  0.00000000000E+00 0. -1.
</event>
<event>
 7    1  0.5897985E-013  0.5052886E+02  0.7816164E-02  0.1300439E+00
        -11   -1    0    0    0    0  0.00000000000E+00  0.00000000000E+00  0.45593999997E+02  0.45594000000E+02  0.51100000000E-03 0.  1.
         11   -1    0    0    0    0 -0.00000000000E+00 -0.00000000000E+00 -0.45593999997E+02  0.45594000000E+02  0.51100000000E-03 0. -1.
    9900012    2    1    2    0    0 -0.25315435578E+02  0.18272161709E+02  0.26046541173E+02  0.50528862293E+02  0.30000007424E+02 0.  0.
         12    1    1    2    0    0  0.25315435578E+02 -0.18272161709E+02 -0.26046541173E+02  0.40659137707E+02  0.00000000000E+00 0. -1.
         11    1    3    3    0    0  0.22777160407E+01  0.33757941171E+01  0.10582824614E+02  0.11339318910E+02  0.51100000000E-03 0. -1.
        -11    1    3    3    0    0 -0.21587024334E+02  0.13451427259E+02  0.19290509486E+02  0.31922786084E+02  0.51100000000E-03 0.  1.
        -12    1    3    3    0    0 -0.60061272850E+01  0.14449403334E+01 -0.38267929263E+01  0.72667572982E+01  0.00000000000E+00 0.  1.
</event>
<event>
 7    1  0.5897985E-013  0.5052886E+02  0.7816164E-02  0.1300439E+00
        -11   -1    0    0    0    0  0.00000000000E+00  0.00000000000E+00  0.45593999997E+02  0.45594000000E+02  0.51100000000E-03 0.  1.
         11   -1    0    0    0    0 -0.00000000000E+00 -0.00000000000E+00 -0.45593999997E+02  0.45594000000E+02  0.51100000000E-03 0. -1.
    9900012    2    1    2    0    0  0.32470092927E+02 -0.24120434292E+02 -0.41308279720E+01  0.50528855581E+02  0.29999987023E+02 0.  0.
         12    1    1    2    0    0 -0.32470092927E+02  0.24120434292E+02  0.41308279720E+01  0.40659144419E+02  0.00000000000E+00 0. -1.
         11    1    3    3    0    0  0.43581071920E+01 -0.16154874634E+02 -0.68085620872E+01  0.18064594949E+02  0.51100000000E-03 0. -1.
        -11    1    3    3    0    0  0.28207588020E+02 -0.10178623895E+02  0.16802553750E+01  0.30034907436E+02  0.51100000000E-03 0.  1.
         12    1    3    3    0    0 -0.95602285052E-01  0.22130642360E+01  0.99747874024E+00  0.24293531952E+01  0.00000000000E+00 0. -1.
</event>
<event>
 7    1  0.5897985E-013  0.5052886E+02  0.7816164E-02  0.1300439E+00
        -11   -1    0    0    0    0  0.00000000000E+00  0.00000000000E+00  0.45593999997E+02  0.45594000000E+02  0.51100000000E-03 0.  1.
         11   -1    0    0    0    0 -0.00000000000E+00 -0.00000000000E+00 -0.45593999997E+02  0.45594000000E+02  0.51100000000E-03 0. -1.
    9900012    2    1    2    0    0 -0.12451971438E+01  0.40558852895E+02  0.25679506916E+01  0.50528862837E+02  0.30000009080E+02 0.  0.
         12    1    1    2    0    0  0.12451971438E+01 -0.40558852895E+02 -0.25679506916E+01  0.40659137163E+02  0.00000000000E+00 0. -1.
         11    1    3    3    0    0  0.91496995984E+01  0.13260797058E+02  0.88198338298E+01  0.18367231974E+02  0.51100000000E-03 0. -1.
        -11    1    3    3    0    0 -0.85503795039E+01  0.17992389348E+02  0.14053130729E+01  0.19970227069E+02  0.51100000000E-03 0.  1.
         12    1    3    3    0    0 -0.18445172382E+01  0.93056664890E+01 -0.76571962110E+01  0.12191403794E+02  0.00000000000E+00 0. -1.
</event>
<event>
 7    1  0.5897985E-013  0.5052882E+02  0.7816164E-02  0.1300439E+00
        -11   -1    0    0    0    0  0.00000000000E+00  0.00000000000E+00  0.45593999997E+02  0.45594000000E+02  0.51100000000E-03 0. -1.
         11   -1    0    0    0    0 -0.00000000000E+00 -0.00000000000E+00 -0.45593999997E+02  0.45594000000E+02  0.51100000000E-03 0.  1.
    9900012    2    1    2    0    0 -0.40840755446E+00 -0.19822088340E+02 -0.35497707044E+02  0.50528816679E+02  0.29999868778E+02 0.  0.
         12    1    1    2    0    0  0.40840755446E+00  0.19822088340E+02  0.35497707044E+02  0.40659183321E+02  0.00000000000E+00 0. -1.
         11    1    3    3    0    0 -0.21476361760E+01 -0.23397610412E+02 -0.15481763935E+02  0.28137973078E+02  0.51100000000E-03 0. -1.
        -11    1    3    3    0    0  0.28084737417E+01  0.54096170046E+01 -0.19152436005E+02  0.20098937436E+02  0.51100000000E-03 0.  1.
        -12    1    3    3    0    0 -0.10692451202E+01 -0.18340949330E+01 -0.86350710413E+00  0.22919061650E+01  0.00000000000E+00 0.  1.
</event>
<event>
 7    1  0.5897985E-013  0.5052883E+02  0.7816164E-02  0.1300439E+00
        -11   -1    0    0    0    0  0.00000000000E+00  0.00000000000E+00  0.45593999997E+02  0.45594000000E+02  0.51100000000E-03 0.  1.
         11   -1    0    0    0    0 -0.00000000000E+00 -0.00000000000E+00 -0.45593999997E+02  0.45594000000E+02  0.51100000000E-03 0. -1.
    9900012    2    1    2    0    0  0.10367016553E+02  0.39223537018E+02 -0.26845879989E+01  0.50528832508E+02  0.29999916892E+02 0.  0.
         12    1    1    2    0    0 -0.10367016553E+02 -0.39223537018E+02  0.26845879989E+01  0.40659167492E+02  0.00000000000E+00 0. -1.
         11    1    3    3    0    0  0.19456681671E+01  0.41235793057E+01 -0.66177714244E+01  0.80364438525E+01  0.51100000000E-03 0. -1.
        -11    1    3    3    0    0  0.22920247455E+01  0.27107472694E+02  0.11858073596E+02  0.29676292945E+02  0.51100000000E-03 0.  1.
        -12    1    3    3    0    0  0.61293236404E+01  0.79924850181E+01 -0.79248901704E+01  0.12816095711E+02  0.00000000000E+00 0.  1.
</event>
<event>
 7    1  0.5897985E-013  0.5052899E+02  0.7816164E-02  0.1300438E+00
        -11   -1    0    0    0    0  0.00000000000E+00  0.00000000000E+00  0.45593999997E+02  0.45594000000E+02  0.51100000000E-03 0.  1.
         11   -1    0    0    0    0 -0.00000000000E+00 -0.00000000000E+00 -0.45593999997E+02  0.45594000000E+02  0.51100000000E-03 0. -1.
    9900012    2    1    2    0    0  0.38352775826E+02  0.67864134084E+01 -0.11668937505E+02  0.50528992105E+02  0.30000402000E+02 0.  0.
         12    1    1    2    0    0 -0.38352775826E+02 -0.67864134084E+01  0.11668937505E+02  0.40659007895E+02  0.00000000000E+00 0. -1.
         11    1    3    3    0    0  0.19690652254E+02  0.12138983099E+02  0.28862677438E+01  0.23311096899E+02  0.51100000000E-03 0. -1.
        -11    1    3    3    0    0  0.12824736038E+02 -0.44057337958E+01 -0.24980368263E+01  0.13788565297E+02  0.51100000000E-03 0.  1.
         12    1    3    3    0    0  0.58373875336E+01 -0.94683589452E+00 -0.12057168423E+02  0.13429329909E+02  0.00000000000E+00 0. -1.
</event>
<event>
 7    1  0.5897985E-013  0.5052886E+02  0.7816164E-02  0.1300439E+00
        -11   -1    0    0    0    0  0.00000000000E+00  0.00000000000E+00  0.45593999997E+02  0.45594000000E+02  0.51100000000E-03 0.  1.
         11   -1    0    0    0    0 -0.00000000000E+00 -0.00000000000E+00 -0.45593999997E+02  0.45594000000E+02  0.51100000000E-03 0. -1.
    9900012    2    1    2    0    0 -0.26233790432E+02  0.42805316140E+01  0.30767372208E+02  0.50528857069E+02  0.29999991547E+02 0.  0.
         12    1    1    2    0    0  0.26233790432E+02 -0.42805316140E+01 -0.30767372208E+02  0.40659142931E+02  0.00000000000E+00 0. -1.
         11    1    3    3    0    0  0.44010636211E+01  0.16102743867E+01  0.11487972396E+02  0.12407088886E+02  0.51100000000E-03 0. -1.
        -11    1    3    3    0    0 -0.81748136254E+01  0.49880261453E+01  0.95853486702E+01  0.13549424048E+02  0.51100000000E-03 0.  1.
         12    1    3    3    0    0 -0.22460040428E+02 -0.23177689179E+01  0.96940511418E+01  0.24572344135E+02  0.00000000000E+00 0. -1.
</event>
<event>
 7    1  0.5897985E-013  0.5052884E+02  0.7816164E-02  0.1300439E+00
        -11   -1    0    0    0    0  0.00000000000E+00  0.00000000000E+00  0.45593999997E+02  0.45594000000E+02  0.51100000000E-03 0.  1.
         11   -1    0    0    0    0 -0.00000000000E+00 -0.00000000000E+00 -0.45593999997E+02  0.45594000000E+02  0.51100000000E-03 0. -1.
    9900012    2    1    2    0    0 -0.19152562726E+02  0.27954614496E+02  0.22469663694E+02  0.50528844609E+02  0.29999953673E+02 0.  0.
         12    1    1    2    0    0  0.19152562726E+02 -0.27954614496E+02 -0.22469663694E+02  0.40659155391E+02  0.00000000000E+00 0. -1.
         11    1    3    3    0    0  0.19246352597E+01  0.12769705395E+02 -0.11257141436E+01  0.12962902042E+02  0.51100000000E-03 0. -1.
        -11    1    3    3    0    0 -0.17488855599E+02  0.10639136261E+02  0.99880670906E+01  0.22777461997E+02  0.51100000000E-03 0.  1.
         12    1    3    3    0    0 -0.35883423862E+01  0.45457728399E+01  0.13607310747E+02  0.14788480570E+02  0.00000000000E+00 0. -1.
</event>
<event>
 7    1  0.5897985E-013  0.5052886E+02  0.7816164E-02  0.1300439E+00
        -11   -1    0    0    0    0  0.00000000000E+00  0.00000000000E+00  0.45593999997E+02  0.45594000000E+02  0.51100000000E-03 0.  1.
         11   -1    0    0    0    0 -0.00000000000E+00 -0.00000000000E+00 -0.45593999997E+02  0.45594000000E+02  0.51100000000E-03 0. -1.
    9900012    2    1    2    0    0  0.35800808423E+02  0.52257588057E+01  0.18551530125E+02  0.50528859468E+02  0.29999998839E+02 0.  0.
         12    1    1    2    0    0 -0.35800808423E+02 -0.52257588057E+01 -0.18551530125E+02  0.40659140532E+02  0.00000000000E+00 0. -1.
         11    1    3    3    0    0 -0.88358527163E+00 -0.30892746383E+01  0.27660683248E+01  0.42397493984E+01  0.51100000000E-03 0. -1.
        -11    1    3    3    0    0  0.31570555670E+02  0.12710867999E+02  0.62379854069E+01  0.34600268970E+02  0.51100000000E-03 0.  1.
        -12    1    3    3    0    0  0.51138380248E+01 -0.43958345547E+01  0.95474763935E+01  0.11688841100E+02  0.00000000000E+00 0.  1.
</event>
<event>
 7    1  0.5897985E-013  0.5052885E+02  0.7816164E-02  0.1300439E+00
        -11   -1    0    0    0    0  0.00000000000E+00  0.00000000000E+00  0.45593999997E+02  0.45594000000E+02  0.51100000000E-03 0.  1.
         11   -1    0    0    0    0 -0.00000000000E+00 -0.00000000000E+00 -0.45593999997E+02  0.45594000000E+02  0.51100000000E-03 0. -1.
    9900012    2    1    2    0    0  0.27083448795E+02 -0.30155283846E+02  0.32112931171E+01  0.50528846714E+02  0.29999960073E+02 0.  0.
         12    1    1    2    0    0 -0.27083448795E+02  0.30155283846E+02 -0.32112931171E+01  0.40659153286E+02  0.00000000000E+00 0. -1.
         11    1    3    3    0    0 -0.90811448621E+00 -0.15388949006E+02 -0.55651134249E+01  0.16389475620E+02  0.51100000000E-03 0. -1.
        -11    1    3    3    0    0  0.40233921236E+01 -0.56302514326E+01  0.41679140381E+01  0.80782995156E+01  0.51100000000E-03 0.  1.
         12    1    3    3    0    0  0.23968171157E+02 -0.91360834076E+01  0.46084925040E+01  0.26061071578E+02  0.00000000000E+00 0. -1.
</event>
<event>
 7    1  0.5897985E-013  0.5052886E+02  0.7816164E-02  0.1300439E+00
        -11   -1    0    0    0    0  0.00000000000E+00  0.00000000000E+00  0.45593999997E+02  0.45594000000E+02  0.51100000000E-03 0.  1.
         11   -1    0    0    0    0 -0.00000000000E+00 -0.00000000000E+00 -0.45593999997E+02  0.45594000000E+02  0.51100000000E-03 0. -1.
    9900012    2    1    2    0    0 -0.55957167740E+00 -0.19667018651E+02  0.35581747153E+02  0.50528862361E+02  0.30000007633E+02 0.  0.
         12    1    1    2    0    0  0.55957167740E+00  0.19667018651E+02 -0.35581747153E+02  0.40659137639E+02  0.00000000000E+00 0. -1.
         11    1    3    3    0    0  0.13970564273E+01 -0.81694612186E+01 -0.15309376420E+01  0.84282639724E+01  0.51100000000E-03 0. -1.
        -11    1    3    3    0    0 -0.63636507828E+01 -0.95859779094E+01  0.35018333519E+02  0.36860150657E+02  0.51100000000E-03 0.  1.
        -12    1    3    3    0    0  0.44070226781E+01 -0.19115795229E+01  0.20943512761E+01  0.52404477314E+01  0.00000000000E+00 0.  1.
</event>
<event>
 7    1  0.5897985E-013  0.5052888E+02  0.7816164E-02  0.1300439E+00
        -11   -1    0    0    0    0  0.00000000000E+00  0.00000000000E+00  0.45593999997E+02  0.45594000000E+02  0.51100000000E-03 0.  1.
         11   -1    0    0    0    0 -0.00000000000E+00 -0.00000000000E+00 -0.45593999997E+02  0.45594000000E+02  0.51100000000E-03 0. -1.
    9900012    2    1    2    0    0  0.39771671818E+02 -0.83665660232E+01  0.11742629392E+01  0.50528878026E+02  0.30000055248E+02 0.  0.
         12    1    1    2    0    0 -0.39771671818E+02  0.83665660232E+01 -0.11742629392E+01  0.40659121974E+02  0.00000000000E+00 0. -1.
         11    1    3    3    0    0  0.11805682036E+02  0.38708814862E+01 -0.49475707662E+01  0.13372969325E+02  0.51100000000E-03 0. -1.
        -11    1    3    3    0    0  0.26104499911E+02 -0.46654439445E+01  0.10131821067E+02  0.28387762878E+02  0.51100000000E-03 0.  1.
        -12    1    3    3    0    0  0.18614898707E+01 -0.75720035649E+01 -0.40099873619E+01  0.87681458227E+01  0.00000000000E+00 0.  1.
</event>
<event>
 7    1  0.5897985E-013  0.5052886E+02  0.7816164E-02  0.1300439E+00
        -11   -1    0    0    0    0  0.00000000000E+00  0.00000000000E+00  0.45593999997E+02  0.45594000000E+02  0.51100000000E-03 0.  1.
         11   -1    0    0    0    0 -0.00000000000E+00 -0.00000000000E+00 -0.45593999997E+02  0.45594000000E+02  0.51100000000E-03 0. -1.
    9900012    2    1    2    0    0  0.19196919253E+02 -0.29448658111E+01  0.35720742228E+02  0.50528863649E+02  0.30000011548E+02 0.  0.
         12    1    1    2    0    0 -0.19196919253E+02  0.29448658111E+01 -0.35720742228E+02  0.40659136351E+02  0.00000000000E+00 0. -1.
         11    1    3    3    0    0  0.73040871814E+01  0.45529069398E+01  0.19040473209E+02  0.20895412689E+02  0.51100000000E-03 0. -1.
        -11    1    3    3    0    0  0.13076160099E+02 -0.12331273172E+02  0.80995315198E+01  0.19714174395E+02  0.51100000000E-03 0.  1.
        -12    1    3    3    0    0 -0.11833280269E+01  0.48335004212E+01  0.85807374990E+01  0.99192765648E+01  0.00000000000E+00 0.  1.
</event>
<event>
 7    1  0.5897985E-013  0.5052886E+02  0.7816164E-02  0.1300439E+00
        -11   -1    0    0    0    0  0.00000000000E+00  0.00000000000E+00  0.45593999997E+02  0.45594000000E+02  0.51100000000E-03 0.  1.
         11   -1    0    0    0    0 -0.00000000000E+00 -0.00000000000E+00 -0.45593999997E+02  0.45594000000E+02  0.51100000000E-03 0. -1.
    9900012    2    1    2    0    0  0.31239995305E+02  0.23512628168E+02 -0.11152784337E+02  0.50528860948E+02  0.30000003336E+02 0.  0.
         12    1    1    2    0    0 -0.31239995305E+02 -0.23512628168E+02  0.11152784337E+02  0.40659139052E+02  0.00000000000E+00 0. -1.
         11    1    3    3    0    0  0.15326793706E+02  0.14974092455E+02 -0.15134150012E+02  0.26233119277E+02  0.51100000000E-03 0. -1.
        -11    1    3    3    0    0  0.16521494562E+02  0.12077882446E+01  0.34470317190E+01  0.16920418521E+02  0.51100000000E-03 0.  1.
        -12    1    3    3    0    0 -0.60829296357E+00  0.73307474687E+01  0.53433395600E+00  0.73753231493E+01  0.00000000000E+00 0.  1.
</event>
<event>
 7    1  0.5897985E-013  0.5052883E+02  0.7816164E-02  0.1300439E+00
        -11   -1    0    0    0    0  0.00000000000E+00  0.00000000000E+00  0.45593999997E+02  0.45594000000E+02  0.51100000000E-03 0. -1.
         11   -1    0    0    0    0 -0.00000000000E+00 -0.00000000000E+00 -0.45593999997E+02  0.45594000000E+02  0.51100000000E-03 0.  1.
    9900012    2    1    2    0    0  0.11968959237E+02  0.38827012880E+02 -0.15412316270E+01  0.50528827488E+02  0.29999901634E+02 0.  0.
         12    1    1    2    0    0 -0.11968959237E+02 -0.38827012880E+02  0.15412316270E+01  0.40659172512E+02  0.00000000000E+00 0. -1.
         11    1    3    3    0    0  0.19811097048E+01 -0.38169793769E+01 -0.10206278524E+01  0.44199331104E+01  0.51100000000E-03 0. -1.
        -11    1    3    3    0    0  0.84870435143E+01  0.36278155598E+02 -0.57964361692E+01  0.37705876913E+02  0.51100000000E-03 0.  1.
        -12    1    3    3    0    0  0.15008060181E+01  0.63658366586E+01  0.52758323946E+01  0.84030174654E+01  0.00000000000E+00 0.  1.
</event>
<event>
 7    1  0.5897985E-013  0.5052887E+02  0.7816164E-02  0.1300439E+00
        -11   -1    0    0    0    0  0.00000000000E+00  0.00000000000E+00  0.45593999997E+02  0.45594000000E+02  0.51100000000E-03 0.  1.
         11   -1    0    0    0    0 -0.00000000000E+00 -0.00000000000E+00 -0.45593999997E+02  0.45594000000E+02  0.51100000000E-03 0. -1.
    9900012    2    1    2    0    0 -0.14085290995E+02 -0.29518606396E+02  0.24154115561E+02  0.50528870097E+02  0.30000031146E+02 0.  0.
         12    1    1    2    0    0  0.14085290995E+02  0.29518606396E+02 -0.24154115561E+02  0.40659129903E+02  0.00000000000E+00 0. -1.
         11    1    3    3    0    0  0.20039666728E+01 -0.85956071505E+01  0.22318477663E+02  0.24000308126E+02  0.51100000000E-03 0.  1.
        -11    1    3    3    0    0 -0.79765051996E+01 -0.11547037023E+02  0.16270854943E+01  0.14128202528E+02  0.51100000000E-03 0. -1.
        -12    1    3    3    0    0 -0.81127524678E+01 -0.93759622219E+01  0.20855240420E+00  0.12400359442E+02  0.00000000000E+00 0.  1.
</event>
<event>
 7    1  0.5897985E-013  0.5052885E+02  0.7816164E-02  0.1300439E+00
        -11   -1    0    0    0    0  0.00000000000E+00  0.00000000000E+00  0.45593999997E+02  0.45594000000E+02  0.51100000000E-03 0.  1.
         11   -1    0    0    0    0 -0.00000000000E+00 -0.00000000000E+00 -0.45593999997E+02  0.45594000000E+02  0.51100000000E-03 0. -1.
    9900012    2    1    2    0    0 -0.26130599004E+02  0.84554087712E+01  0.29981060306E+02  0.50528854425E+02  0.29999983510E+02 0.  0.
         12    1    1    2    0    0  0.26130599004E+02 -0.84554087712E+01 -0.29981060306E+02  0.40659145575E+02  0.00000000000E+00 0. -1.
         11    1    3    3    0    0 -0.25399502438E+02  0.13069087074E+02  0.28395473283E+02  0.40277024024E+02  0.51100000000E-03 0.  1.
        -11    1    3    3    0    0  0.30700160470E+01 -0.52407754178E+01  0.19575137774E+01  0.63814250727E+01  0.51100000000E-03 0. -1.
         12    1    3    3    0    0 -0.38011126135E+01  0.62709711494E+00 -0.37192675384E+00  0.38704053279E+01  0.00000000000E+00 0. -1.
</event>
<event>
 7    1  0.5897985E-013  0.5052886E+02  0.7816164E-02  0.1300439E+00
        -11   -1    0    0    0    0  0.00000000000E+00  0.00000000000E+00  0.45593999997E+02  0.45594000000E+02  0.51100000000E-03 0.  1.
         11   -1    0    0    0    0 -0.00000000000E+00 -0.00000000000E+00 -0.45593999997E+02  0.45594000000E+02  0.51100000000E-03 0. -1.
    9900012    2    1    2    0    0  0.18419287486E+02 -0.96712675662E+00  0.36234790325E+02  0.50528861845E+02  0.30000006063E+02 0.  0.
         12    1    1    2    0    0 -0.18419287486E+02  0.96712675662E+00 -0.36234790325E+02  0.40659138155E+02  0.00000000000E+00 0. -1.
         11    1    3    3    0    0  0.13203156108E+02 -0.29530352930E+01  0.10897238737E+01  0.13573181168E+02  0.51100000000E-03 0. -1.
        -11    1    3    3    0    0  0.79923709035E+01  0.29001129098E+01  0.26309820487E+02  0.27649508166E+02  0.51100000000E-03 0.  1.
        -12    1    3    3    0    0 -0.27762395247E+01 -0.91420437348E+00  0.88352459644E+01  0.93061725100E+01  0.00000000000E+00 0.  1.
</event>
<event>
 7    1  0.5897985E-013  0.5052884E+02  0.7816164E-02  0.1300439E+00
        -11   -1    0    0    0    0  0.00000000000E+00  0.00000000000E+00  0.45593999997E+02  0.45594000000E+02  0.51100000000E-03 0.  1.
         11   -1    0    0    0    0 -0.00000000000E+00 -0.00000000000E+00 -0.45593999997E+02  0.45594000000E+02  0.51100000000E-03 0. -1.
    9900012    2    1    2    0    0  0.76474616378E+01 -0.19751774068E+02  0.34706638321E+02  0.50528843689E+02  0.29999950877E+02 0.  0.
         12    1    1    2    0    0 -0.76474616378E+01  0.19751774068E+02 -0.34706638321E+02  0.40659156311E+02  0.00000000000E+00 0. -1.
         11    1    3    3    0    0 -0.33898568822E+01 -0.54620496585E+01  0.26913960503E+02  0.27671038766E+02  0.51100000000E-03 0. -1.
        -11    1    3    3    0    0  0.43193140212E+01 -0.13446703054E+02  0.77009690973E+01  0.16086491909E+02  0.51100000000E-03 0.  1.
        -12    1    3    3    0    0  0.67180044988E+01 -0.84302135575E+00  0.91708721063E-01  0.67713130146E+01  0.00000000000E+00 0.  1.
</event>
<event>
 7    1  0.5897985E-013  0.5052881E+02  0.7816164E-02  0.1300439E+00
        -11   -1    0    0    0    0  0.00000000000E+00  0.00000000000E+00  0.45593999997E+02  0.45594000000E+02  0.51100000000E-03 0. -1.
         11   -1    0    0    0    0 -0.00000000000E+00 -0.00000000000E+00 -0.45593999997E+02  0.45594000000E+02  0.51100000000E-03 0.  1.
    9900012    2    1    2    0    0 -0.36423336578E+02  0.84872070511E+01  0.15952354809E+02  0.50528809711E+02  0.29999847596E+02 0.  0.
         12    1    1    2    0    0  0.36423336578E+02 -0.84872070511E+01 -0.15952354809E+02  0.40659190289E+02  0.00000000000E+00 0. -1.
         11    1    3    3    0    0 -0.79736976998E+01  0.10838125635E+02  0.93172682031E+01  0.16366316303E+02  0.51100000000E-03 0. -1.
        -11    1    3    3    0    0 -0.21222762426E+02 -0.22470457784E+01 -0.35896356922E+01  0.21641172436E+02  0.51100000000E-03 0.  1.
        -12    1    3    3    0    0 -0.72268764526E+01 -0.10387280578E+00  0.10224722298E+02  0.12521320972E+02  0.00000000000E+00 0.  1.
</event>
<event>
 7    1  0.5897985E-013  0.5052885E+02  0.7816164E-02  0.1300439E+00
        -11   -1    0    0    0    0  0.00000000000E+00  0.00000000000E+00  0.45593999997E+02  0.45594000000E+02  0.51100000000E-03 0. -1.
         11   -1    0    0    0    0 -0.00000000000E+00 -0.00000000000E+00 -0.45593999997E+02  0.45594000000E+02  0.51100000000E-03 0.  1.
    9900012    2    1    2    0    0 -0.29582844950E+02 -0.27732950739E+02  0.29841307154E+01  0.50528852097E+02  0.29999976435E+02 0.  0.
         12    1    1    2    0    0  0.29582844950E+02  0.27732950739E+02 -0.29841307154E+01  0.40659147903E+02  0.00000000000E+00 0. -1.
         11    1    3    3    0    0 -0.49373590439E+01 -0.20973632706E+02  0.37763875676E+01  0.21875371690E+02  0.51100000000E-03 0. -1.
        -11    1    3    3    0    0 -0.21149607558E+02 -0.98153321019E+01 -0.30064408304E+01  0.23509260534E+02  0.51100000000E-03 0.  1.
        -12    1    3    3    0    0 -0.34958783480E+01  0.30560140696E+01  0.22141839782E+01  0.51442198735E+01  0.00000000000E+00 0.  1.
</event>
<event>
 7    1  0.5897985E-013  0.5052885E+02  0.7816164E-02  0.1300439E+00
        -11   -1    0    0    0    0  0.00000000000E+00  0.00000000000E+00  0.45593999997E+02  0.45594000000E+02  0.51100000000E-03 0.  1.
         11   -1    0    0    0    0 -0.00000000000E+00 -0.00000000000E+00 -0.45593999997E+02  0.45594000000E+02  0.51100000000E-03 0. -1.
    9900012    2    1    2    0    0  0.30639181008E+02 -0.19011282519E+02  0.18787714052E+02  0.50528850044E+02  0.29999970193E+02 0.  0.
         12    1    1    2    0    0 -0.30639181008E+02  0.19011282519E+02 -0.18787714052E+02  0.40659149956E+02  0.00000000000E+00 0. -1.
         11    1    3    3    0    0  0.10123333213E+02 -0.24294553487E+01  0.51323335435E+01  0.11607108877E+02  0.51100000000E-03 0. -1.
        -11    1    3    3    0    0  0.29742223587E+01 -0.99102693199E+01 -0.58231815534E+01  0.11873031639E+02  0.51100000000E-03 0.  1.
        -12    1    3    3    0    0  0.17541625437E+02 -0.66715578506E+01  0.19478562061E+02  0.27048709528E+02  0.00000000000E+00 0.  1.
</event>
<event>
 7    1  0.5897985E-013  0.5052884E+02  0.7816164E-02  0.1300439E+00
        -11   -1    0    0    0    0  0.00000000000E+00  0.00000000000E+00  0.45593999997E+02  0.45594000000E+02  0.51100000000E-03 0.  1.
         11   -1    0    0    0    0 -0.00000000000E+00 -0.00000000000E+00 -0.45593999997E+02  0.45594000000E+02  0.51100000000E-03 0. -1.
    9900012    2    1    2    0    0  0.16195675648E+02 -0.20920127646E+02  0.30874195488E+02  0.50528836243E+02  0.29999928244E+02 0.  0.
         12    1    1    2    0    0 -0.16195675648E+02  0.20920127646E+02 -0.30874195488E+02  0.40659163757E+02  0.00000000000E+00 0. -1.
         11    1    3    3    0    0  0.34455442580E+01  0.31462864488E+01  0.10127114031E+02  0.11150306386E+02  0.51100000000E-03 0. -1.
        -11    1    3    3    0    0  0.92742388712E+01 -0.22562149534E+02  0.73808473955E+01  0.25486055144E+02  0.51100000000E-03 0.  1.
         12    1    3    3    0    0  0.34758925191E+01 -0.15042645601E+01  0.13366234061E+02  0.13892474713E+02  0.00000000000E+00 0. -1.
</event>
<event>
 7    1  0.5897985E-013  0.5052886E+02  0.7816164E-02  0.1300439E+00
        -11   -1    0    0    0    0  0.00000000000E+00  0.00000000000E+00  0.45593999997E+02  0.45594000000E+02  0.51100000000E-03 0.  1.
         11   -1    0    0    0    0 -0.00000000000E+00 -0.00000000000E+00 -0.45593999997E+02  0.45594000000E+02  0.51100000000E-03 0. -1.
    9900012    2    1    2    0    0 -0.26122672104E+02 -0.31011151029E+02  0.30133712282E+01  0.50528857213E+02  0.29999991986E+02 0.  0.
         12    1    1    2    0    0  0.26122672104E+02  0.31011151029E+02 -0.30133712282E+01  0.40659142787E+02  0.00000000000E+00 0. -1.
         11    1    3    3    0    0 -0.97994955185E+01 -0.23054277523E+02 -0.11877471115E+01  0.25078687526E+02  0.51100000000E-03 0.  1.
        -11    1    3    3    0    0 -0.14704895914E+02 -0.38180142655E+01  0.99672630563E+01  0.18170237475E+02  0.51100000000E-03 0. -1.
         12    1    3    3    0    0 -0.16182806714E+01 -0.41388592397E+01 -0.57661447166E+01  0.72799322133E+01  0.00000000000E+00 0. -1.
</event>
<event>
 7    1  0.5897985E-013  0.5052885E+02  0.7816164E-02  0.1300439E+00
        -11   -1    0    0    0    0  0.00000000000E+00  0.00000000000E+00  0.45593999997E+02  0.45594000000E+02  0.51100000000E-03 0. -1.
         11   -1    0    0    0    0 -0.00000000000E+00 -0.00000000000E+00 -0.45593999997E+02  0.45594000000E+02  0.51100000000E-03 0.  1.
    9900012    2    1    2    0    0  0.18851717430E+02 -0.21432055792E+02 -0.28955939362E+02  0.50528847404E+02  0.29999962168E+02 0.  0.
         12    1    1    2    0    0 -0.18851717430E+02  0.21432055792E+02  0.28955939362E+02  0.40659152596E+02  0.00000000000E+00 0. -1.
         11    1    3    3    0    0  0.13790809512E+02 -0.56874009236E+01  0.26560333801E+00  0.14919902871E+02  0.51100000000E-03 0. -1.
        -11    1    3    3    0    0  0.55233933325E+01 -0.17227983655E+02 -0.28779224732E+02  0.33993456299E+02  0.51100000000E-03 0.  1.
         12    1    3    3    0    0 -0.46248541476E+00  0.14833287872E+01 -0.44231796791E+00  0.16154882341E+01  0.00000000000E+00 0. -1.
</event>
<event>
 7    1  0.5897985E-013  0.5052891E+02  0.7816164E-02  0.1300439E+00
        -11   -1    0    0    0    0  0.00000000000E+00  0.00000000000E+00  0.45593999997E+02  0.45594000000E+02  0.51100000000E-03 0.  1.
         11   -1    0    0    0    0 -0.00000000000E+00 -0.00000000000E+00 -0.45593999997E+02  0.45594000000E+02  0.51100000000E-03 0. -1.
    9900012    2    1    2    0    0  0.13246537203E+02  0.36112338500E+02 -0.13175356722E+02  0.50528907972E+02  0.30000146270E+02 0.  0.
         12    1    1    2    0    0 -0.13246537203E+02 -0.36112338500E+02  0.13175356722E+02  0.40659092028E+02  0.00000000000E+00 0. -1.
         11    1    3    3    0    0  0.11916109514E+02  0.10829125574E+02 -0.14702976164E+02  0.21804612700E+02  0.51100000000E-03 0.  1.
        -11    1    3    3    0    0  0.53955866561E+01  0.13642012641E+02  0.56532545761E+01  0.15721836782E+02  0.51100000000E-03 0. -1.
        -12    1    3    3    0    0 -0.40651589669E+01  0.11641200285E+02 -0.41256351334E+01  0.13002458489E+02  0.00000000000E+00 0.  1.
</event>
<event>
 7    1  0.5897985E-013  0.5052873E+02  0.7816164E-02  0.1300439E+00
        -11   -1    0    0    0    0  0.00000000000E+00  0.00000000000E+00  0.45593999997E+02  0.45594000000E+02  0.51100000000E-03 0. -1.
         11   -1    0    0    0    0 -0.00000000000E+00 -0.00000000000E+00 -0.45593999997E+02  0.45594000000E+02  0.51100000000E-03 0.  1.
    9900012    2    1    2    0    0  0.35385839170E+01 -0.33985493934E+02 -0.22037267229E+02  0.50528726507E+02  0.29999594687E+02 0.  0.
         12    1    1    2    0    0 -0.35385839170E+01  0.33985493934E+02  0.22037267229E+02  0.40659273493E+02  0.00000000000E+00 0. -1.
         11    1    3    3    0    0 -0.12169357594E+01  0.24423050441E+01  0.28469066448E+01  0.39434330571E+01  0.51100000000E-03 0. -1.
        -11    1    3    3    0    0  0.95302138532E+01 -0.19820104692E+02 -0.15650559787E+02  0.26992620251E+02  0.51100000000E-03 0.  1.
        -12    1    3    3    0    0 -0.47746941768E+01 -0.16607694286E+02 -0.92336140859E+01  0.19592673199E+02  0.00000000000E+00 0.  1.
</event>
<event>
 7    1  0.5897985E-013  0.5052899E+02  0.7816164E-02  0.1300438E+00
        -11   -1    0    0    0    0  0.00000000000E+00  0.00000000000E+00  0.45593999997E+02  0.45594000000E+02  0.51100000000E-03 0.  1.
         11   -1    0    0    0    0 -0.00000000000E+00 -0.00000000000E+00 -0.45593999997E+02  0.45594000000E+02  0.51100000000E-03 0. -1.
    9900012    2    1    2    0    0 -0.15151976532E+02 -0.17402900584E+02  0.33477029820E+02  0.50528992792E+02  0.30000404087E+02 0.  0.
         12    1    1    2    0    0  0.15151976532E+02  0.17402900584E+02 -0.33477029820E+02  0.40659007208E+02  0.00000000000E+00 0. -1.
         11    1    3    3    0    0 -0.29634453367E+01 -0.10598653192E+02  0.51715784108E+01  0.12159715509E+02  0.51100000000E-03 0. -1.
        -11    1    3    3    0    0 -0.11003628229E+02  0.57684333776E+01  0.91667609462E+01  0.15439694438E+02  0.51100000000E-03 0.  1.
        -12    1    3    3    0    0 -0.11849029665E+01 -0.12572680770E+02  0.19138690463E+02  0.22929582845E+02  0.00000000000E+00 0.  1.
</event>
<event>
 7    1  0.5897985E-013  0.5052885E+02  0.7816164E-02  0.1300439E+00
        -11   -1    0    0    0    0  0.00000000000E+00  0.00000000000E+00  0.45593999997E+02  0.45594000000E+02  0.51100000000E-03 0. -1.
         11   -1    0    0    0    0 -0.00000000000E+00 -0.00000000000E+00 -0.45593999997E+02  0.45594000000E+02  0.51100000000E-03 0.  1.
    9900012    2    1    2    0    0 -0.43401749295E+01 -0.40426473907E+02  0.17188449705E+00  0.50528850288E+02  0.29999970936E+02 0.  0.
         12    1    1    2    0    0  0.43401749295E+01  0.40426473907E+02 -0.17188449705E+00  0.40659149712E+02  0.00000000000E+00 0. -1.
         11    1    3    3    0    0 -0.86010320241E+01 -0.15788535519E+01  0.12652718143E+01  0.88358046291E+01  0.51100000000E-03 0. -1.
        -11    1    3    3    0    0  0.22046848884E+01 -0.31215535977E+02  0.50292903287E+01  0.31694858941E+02  0.51100000000E-03 0.  1.
         12    1    3    3    0    0  0.20561722061E+01 -0.76320843781E+01 -0.61226776460E+01  0.99981867182E+01  0.00000000000E+00 0. -1.
</event>
<event>
 7    1  0.5897985E-013  0.5052886E+02  0.7816164E-02  0.1300439E+00
        -11   -1    0    0    0    0  0.00000000000E+00  0.00000000000E+00  0.45593999997E+02  0.45594000000E+02  0.51100000000E-03 0.  1.
         11   -1    0    0    0    0 -0.00000000000E+00 -0.00000000000E+00 -0.45593999997E+02  0.45594000000E+02  0.51100000000E-03 0. -1.
    9900012    2    1    2    0    0 -0.32281742173E+01 -0.19612192846E+02  0.35469796012E+02  0.50528860238E+02  0.30000001181E+02 0.  0.
         12    1    1    2    0    0  0.32281742173E+01  0.19612192846E+02 -0.35469796012E+02  0.40659139762E+02  0.00000000000E+00 0. -1.
         11    1    3    3    0    0 -0.18896770636E+01 -0.15230127715E+01  0.10943057313E+02  0.11208967434E+02  0.51100000000E-03 0. -1.
        -11    1    3    3    0    0 -0.60614762072E+01 -0.30021010874E+01 -0.31380492194E+01  0.74566385130E+01  0.51100000000E-03 0.  1.
        -12    1    3    3    0    0  0.47229790534E+01 -0.15087078987E+02  0.27664787918E+02  0.31863254292E+02  0.00000000000E+00 0.  1.
</event>
<event>
 7    1  0.5897985E-013  0.5052886E+02  0.7816164E-02  0.1300439E+00
        -11   -1    0    0    0    0  0.00000000000E+00  0.00000000000E+00  0.45593999997E+02  0.45594000000E+02  0.51100000000E-03 0.  1.
         11   -1    0    0    0    0 -0.00000000000E+00 -0.00000000000E+00 -0.45593999997E+02  0.45594000000E+02  0.51100000000E-03 0. -1.
    9900012    2    1    2    0    0 -0.31854029543E+02 -0.15701130001E+02  0.19798009932E+02  0.50528857378E+02  0.29999992487E+02 0.  0.
         12    1    1    2    0    0  0.31854029543E+02  0.15701130001E+02 -0.19798009932E+02  0.40659142622E+02  0.00000000000E+00 0. -1.
         11    1    3    3    0    0 -0.54225207504E+00  0.38818706177E+01  0.25498743704E+01  0.46759829310E+01  0.51100000000E-03 0. -1.
        -11    1    3    3    0    0 -0.29851449710E+02 -0.21681576777E+02  0.20106840080E+02  0.42017672943E+02  0.51100000000E-03 0.  1.
        -12    1    3    3    0    0 -0.14603277584E+01  0.20985761586E+01 -0.28587045179E+01  0.38352015040E+01  0.00000000000E+00 0.  1.
</event>
<event>
 7    1  0.5897985E-013  0.5052886E+02  0.7816164E-02  0.1300439E+00
        -11   -1    0    0    0    0  0.00000000000E+00  0.00000000000E+00  0.45593999997E+02  0.45594000000E+02  0.51100000000E-03 0.  1.
         11   -1    0    0    0    0 -0.00000000000E+00 -0.00000000000E+00 -0.45593999997E+02  0.45594000000E+02  0.51100000000E-03 0. -1.
    9900012    2    1    2    0    0 -0.39646503918E+01  0.14321989428E+02  0.37846106092E+02  0.50528861049E+02  0.30000003644E+02 0.  0.
         12    1    1    2    0    0  0.39646503918E+01 -0.14321989428E+02 -0.37846106092E+02  0.40659138951E+02  0.00000000000E+00 0. -1.
         11    1    3    3    0    0 -0.87913975298E+01 -0.19247445182E+01  0.17280226840E+01  0.91640261154E+01  0.51100000000E-03 0. -1.
        -11    1    3    3    0    0  0.63742341753E+01  0.36965885001E+01  0.15789570272E+02  0.17424297905E+02  0.51100000000E-03 0.  1.
         12    1    3    3    0    0 -0.15474870374E+01  0.12550145446E+02  0.20328513137E+02  0.23940537028E+02  0.00000000000E+00 0. -1.
</event>
<event>
 7    1  0.5897985E-013  0.5052886E+02  0.7816164E-02  0.1300439E+00
        -11   -1    0    0    0    0  0.00000000000E+00  0.00000000000E+00  0.45593999997E+02  0.45594000000E+02  0.51100000000E-03 0.  1.
         11   -1    0    0    0    0 -0.00000000000E+00 -0.00000000000E+00 -0.45593999997E+02  0.45594000000E+02  0.51100000000E-03 0. -1.
    9900012    2    1    2    0    0  0.19476156628E+02 -0.33587218569E+02 -0.12072445120E+02  0.50528857616E+02  0.29999993209E+02 0.  0.
         12    1    1    2    0    0 -0.19476156628E+02  0.33587218569E+02  0.12072445120E+02  0.40659142384E+02  0.00000000000E+00 0. -1.
         11    1    3    3    0    0 -0.69683218354E+00  0.13790211297E+01  0.55631385779E+01  0.57737150489E+01  0.51100000000E-03 0. -1.
        -11    1    3    3    0    0  0.15660348449E+02 -0.22942218357E+02 -0.15263792220E+02  0.31695035098E+02  0.51100000000E-03 0.  1.
         12    1    3    3    0    0  0.45126403630E+01 -0.12024021342E+02 -0.23717914775E+01  0.13060107469E+02  0.00000000000E+00 0. -1.
</event>
<event>
 7    1  0.5897985E-013  0.5052886E+02  0.7816164E-02  0.1300439E+00
        -11   -1    0    0    0    0  0.00000000000E+00  0.00000000000E+00  0.45593999997E+02  0.45594000000E+02  0.51100000000E-03 0.  1.
         11   -1    0    0    0    0 -0.00000000000E+00 -0.00000000000E+00 -0.45593999997E+02  0.45594000000E+02  0.51100000000E-03 0. -1.
    9900012    2    1    2    0    0 -0.18160279518E+02 -0.35884317442E+02  0.59737742051E+01  0.50528856272E+02  0.29999989124E+02 0.  0.
         12    1    1    2    0    0  0.18160279518E+02  0.35884317442E+02 -0.59737742051E+01  0.40659143728E+02  0.00000000000E+00 0. -1.
         11    1    3    3    0    0  0.44410903928E+01 -0.32838864251E+00 -0.45285866582E+01  0.63513164273E+01  0.51100000000E-03 0. -1.
        -11    1    3    3    0    0 -0.59190023446E+01 -0.61856704608E+01  0.51156080760E+01  0.99732920369E+01  0.51100000000E-03 0.  1.
         12    1    3    3    0    0 -0.16682367567E+02 -0.29370258339E+02  0.53867527873E+01  0.34204247808E+02  0.00000000000E+00 0. -1.
</event>
<event>
 7    1  0.5897985E-013  0.5052885E+02  0.7816164E-02  0.1300439E+00
        -11   -1    0    0    0    0  0.00000000000E+00  0.00000000000E+00  0.45593999997E+02  0.45594000000E+02  0.51100000000E-03 0.  1.
         11   -1    0    0    0    0 -0.00000000000E+00 -0.00000000000E+00 -0.45593999997E+02  0.45594000000E+02  0.51100000000E-03 0. -1.
    9900012    2    1    2    0    0 -0.10978652162E+02  0.99550462921E+01  0.37862021426E+02  0.50528850766E+02  0.29999972389E+02 0.  0.
         12    1    1    2    0    0  0.10978652162E+02 -0.99550462921E+01 -0.37862021426E+02  0.40659149234E+02  0.00000000000E+00 0. -1.
         11    1    3    3    0    0 -0.74501517808E+01  0.85962498363E+01  0.30437995275E+02  0.32494181471E+02  0.51100000000E-03 0. -1.
        -11    1    3    3    0    0  0.48065279017E+01 -0.40227630523E+01  0.44162923879E+01  0.76673966743E+01  0.51100000000E-03 0.  1.
         12    1    3    3    0    0 -0.83350282831E+01  0.53815595081E+01  0.30077337625E+01  0.10367272621E+02  0.00000000000E+00 0. -1.
</event>
<event>
 7    1  0.5897985E-013  0.5052886E+02  0.7816164E-02  0.1300439E+00
        -11   -1    0    0    0    0  0.00000000000E+00  0.00000000000E+00  0.45593999997E+02  0.45594000000E+02  0.51100000000E-03 0.  1.
         11   -1    0    0    0    0 -0.00000000000E+00 -0.00000000000E+00 -0.45593999997E+02  0.45594000000E+02  0.51100000000E-03 0. -1.
    9900012    2    1    2    0    0 -0.11047453982E+02 -0.18685525232E+02  0.34379799006E+02  0.50528859916E+02  0.30000000201E+02 0.  0.
         12    1    1    2    0    0  0.11047453982E+02  0.18685525232E+02 -0.34379799006E+02  0.40659140084E+02  0.00000000000E+00 0. -1.
         11    1    3    3    0    0 -0.97362998304E+01 -0.77349769101E+01  0.21799851238E+01  0.12624489597E+02  0.51100000000E-03 0. -1.
        -11    1    3    3    0    0  0.22019633147E+01 -0.12342704896E+02  0.31704065178E+02  0.34093089559E+02  0.51100000000E-03 0.  1.
        -12    1    3    3    0    0 -0.35131174661E+01  0.13921565734E+01  0.49574870325E+00  0.38112807601E+01  0.00000000000E+00 0.  1.
</event>
<event>
 7    1  0.5897985E-013  0.5052886E+02  0.7816164E-02  0.1300439E+00
        -11   -1    0    0    0    0  0.00000000000E+00  0.00000000000E+00  0.45593999997E+02  0.45594000000E+02  0.51100000000E-03 0.  1.
         11   -1    0    0    0    0 -0.00000000000E+00 -0.00000000000E+00 -0.45593999997E+02  0.45594000000E+02  0.51100000000E-03 0. -1.
    9900012    2    1    2    0    0 -0.29972663909E+02  0.27333998748E+02  0.27672213153E+01  0.50528861013E+02  0.30000003535E+02 0.  0.
         12    1    1    2    0    0  0.29972663909E+02 -0.27333998748E+02 -0.27672213153E+01  0.40659138987E+02  0.00000000000E+00 0. -1.
         11    1    3    3    0    0 -0.16978987524E+02  0.23344702888E+02  0.12455576421E+02  0.31438870122E+02  0.51100000000E-03 0. -1.
        -11    1    3    3    0    0 -0.53450387633E+01  0.38499513012E+01  0.19720175382E+00  0.65901785405E+01  0.51100000000E-03 0.  1.
         12    1    3    3    0    0 -0.76486376217E+01  0.13934455889E+00 -0.98855568600E+01  0.12499812351E+02  0.00000000000E+00 0. -1.
</event>
<event>
 7    1  0.5897985E-013  0.5052886E+02  0.7816164E-02  0.1300439E+00
        -11   -1    0    0    0    0  0.00000000000E+00  0.00000000000E+00  0.45593999997E+02  0.45594000000E+02  0.51100000000E-03 0.  1.
         11   -1    0    0    0    0 -0.00000000000E+00 -0.00000000000E+00 -0.45593999997E+02  0.45594000000E+02  0.51100000000E-03 0. -1.
    9900012    2    1    2    0    0  0.13625249265E+02  0.30068154633E+02  0.23736561792E+02  0.50528859498E+02  0.29999998932E+02 0.  0.
         12    1    1    2    0    0 -0.13625249265E+02 -0.30068154633E+02 -0.23736561792E+02  0.40659140502E+02  0.00000000000E+00 0. -1.
         11    1    3    3    0    0  0.29198257695E+01  0.50022382981E+01 -0.51089205183E+01  0.77232661251E+01  0.51100000000E-03 0. -1.
        -11    1    3    3    0    0  0.35519714600E+01  0.17966246741E+01  0.13391565232E+02  0.13970625651E+02  0.51100000000E-03 0.  1.
        -12    1    3    3    0    0  0.71534520356E+01  0.23269291661E+02  0.15453917079E+02  0.28834967722E+02  0.00000000000E+00 0.  1.
</event>
<event>
 7    1  0.5897985E-013  0.5052886E+02  0.7816164E-02  0.1300439E+00
        -11   -1    0    0    0    0  0.00000000000E+00  0.00000000000E+00  0.45593999997E+02  0.45594000000E+02  0.51100000000E-03 0.  1.
         11   -1    0    0    0    0 -0.00000000000E+00 -0.00000000000E+00 -0.45593999997E+02  0.45594000000E+02  0.51100000000E-03 0. -1.
    9900012    2    1    2    0    0  0.78110133002E+01 -0.39165362271E+02  0.76307501730E+01  0.50528857378E+02  0.29999992486E+02 0.  0.
         12    1    1    2    0    0 -0.78110133002E+01  0.39165362271E+02 -0.76307501730E+01  0.40659142622E+02  0.00000000000E+00 0. -1.
         11    1    3    3    0    0  0.74548844985E+01 -0.23255309044E+01 -0.73132279664E+01  0.10698911179E+02  0.51100000000E-03 0. -1.
        -11    1    3    3    0    0  0.11746522953E+01 -0.30737080174E+02  0.12649030651E+02  0.33258771509E+02  0.51100000000E-03 0.  1.
         12    1    3    3    0    0 -0.81852349361E+00 -0.61027511924E+01  0.22949474884E+01  0.65711746895E+01  0.00000000000E+00 0. -1.
</event>
<event>
 7    1  0.5897985E-013  0.5052885E+02  0.7816164E-02  0.1300439E+00
        -11   -1    0    0    0    0  0.00000000000E+00  0.00000000000E+00  0.45593999997E+02  0.45594000000E+02  0.51100000000E-03 0.  1.
         11   -1    0    0    0    0 -0.00000000000E+00 -0.00000000000E+00 -0.45593999997E+02  0.45594000000E+02  0.51100000000E-03 0. -1.
    9900012    2    1    2    0    0 -0.11105478789E+01 -0.13487777995E+02  0.38340752670E+02  0.50528846208E+02  0.29999958533E+02 0.  0.
         12    1    1    2    0    0  0.11105478789E+01  0.13487777995E+02 -0.38340752670E+02  0.40659153792E+02  0.00000000000E+00 0. -1.
         11    1    3    3    0    0 -0.71824811816E+01 -0.66442652859E+01  0.69169493295E+01  0.11982424020E+02  0.51100000000E-03 0. -1.
        -11    1    3    3    0    0  0.93360479597E+01 -0.57335084448E+01  0.32988514972E+02  0.34760279500E+02  0.51100000000E-03 0.  1.
        -12    1    3    3    0    0 -0.32641146570E+01 -0.11100042642E+01 -0.15647116319E+01  0.37861426877E+01  0.00000000000E+00 0.  1.
</event>
<event>
 7    1  0.5897985E-013  0.5052886E+02  0.7816164E-02  0.1300439E+00
        -11   -1    0    0    0    0  0.00000000000E+00  0.00000000000E+00  0.45593999997E+02  0.45594000000E+02  0.51100000000E-03 0. -1.
         11   -1    0    0    0    0 -0.00000000000E+00 -0.00000000000E+00 -0.45593999997E+02  0.45594000000E+02  0.51100000000E-03 0.  1.
    9900012    2    1    2    0    0 -0.58056839632E+01 -0.35374800550E+02 -0.19185488881E+02  0.50528862480E+02  0.30000007995E+02 0.  0.
         12    1    1    2    0    0  0.58056839632E+01  0.35374800550E+02  0.19185488881E+02  0.40659137520E+02  0.00000000000E+00 0. -1.
         11    1    3    3    0    0 -0.91219194750E+01 -0.13873367450E+02  0.51303127168E+01  0.17378142827E+02  0.51100000000E-03 0. -1.
        -11    1    3    3    0    0  0.18483210851E+01 -0.14713537294E+02 -0.12274040907E+02  0.19249845479E+02  0.51100000000E-03 0.  1.
         12    1    3    3    0    0  0.14679144268E+01 -0.67878958065E+01 -0.12041760691E+02  0.13900874174E+02  0.00000000000E+00 0. -1.
</event>
<event>
 7    1  0.5897985E-013  0.5052885E+02  0.7816164E-02  0.1300439E+00
        -11   -1    0    0    0    0  0.00000000000E+00  0.00000000000E+00  0.45593999997E+02  0.45594000000E+02  0.51100000000E-03 0.  1.
         11   -1    0    0    0    0 -0.00000000000E+00 -0.00000000000E+00 -0.45593999997E+02  0.45594000000E+02  0.51100000000E-03 0. -1.
    9900012    2    1    2    0    0  0.19935215426E+02 -0.18784352764E+02  0.30048328943E+02  0.50528846110E+02  0.29999958235E+02 0.  0.
         12    1    1    2    0    0 -0.19935215426E+02  0.18784352764E+02 -0.30048328943E+02  0.40659153890E+02  0.00000000000E+00 0. -1.
         11    1    3    3    0    0  0.40131178445E+01 -0.12014687283E+02  0.19219049748E+02  0.23018029864E+02  0.51100000000E-03 0. -1.
        -11    1    3    3    0    0  0.62036060401E+01  0.38291766831E+01 -0.26928896632E+01  0.77716778735E+01  0.51100000000E-03 0.  1.
        -12    1    3    3    0    0  0.97184915418E+01 -0.10598842164E+02  0.13522168857E+02  0.19739138372E+02  0.00000000000E+00 0.  1.
</event>
<event>
 7    1  0.5897985E-013  0.5052889E+02  0.7816164E-02  0.1300439E+00
        -11   -1    0    0    0    0  0.00000000000E+00  0.00000000000E+00  0.45593999997E+02  0.45594000000E+02  0.51100000000E-03 0. -1.
         11   -1    0    0    0    0 -0.00000000000E+00 -0.00000000000E+00 -0.45593999997E+02  0.45594000000E+02  0.51100000000E-03 0.  1.
    9900012    2    1    2    0    0 -0.30443602986E+01  0.10644950570E+01 -0.40531003504E+02  0.50528886330E+02  0.30000080488E+02 0.  0.
         12    1    1    2    0    0  0.30443602986E+01 -0.10644950570E+01  0.40531003504E+02  0.40659113670E+02  0.00000000000E+00 0. -1.
         11    1    3    3    0    0 -0.69580200893E+01 -0.75310499295E+01 -0.17591165148E+02  0.20361233954E+02  0.51100000000E-03 0.  1.
        -11    1    3    3    0    0  0.10126303474E+02  0.54926747053E+01 -0.90904197006E+01  0.14674713900E+02  0.51100000000E-03 0. -1.
        -12    1    3    3    0    0 -0.62126436828E+01  0.31028702812E+01 -0.13849418656E+02  0.15492938476E+02  0.00000000000E+00 0.  1.
</event>
<event>
 7    1  0.5897985E-013  0.5052885E+02  0.7816164E-02  0.1300439E+00
        -11   -1    0    0    0    0  0.00000000000E+00  0.00000000000E+00  0.45593999997E+02  0.45594000000E+02  0.51100000000E-03 0.  1.
         11   -1    0    0    0    0 -0.00000000000E+00 -0.00000000000E+00 -0.45593999997E+02  0.45594000000E+02  0.51100000000E-03 0. -1.
    9900012    2    1    2    0    0 -0.19970662326E+02 -0.13859553356E+02  0.32592210970E+02  0.50528846185E+02  0.29999958465E+02 0.  0.
         12    1    1    2    0    0  0.19970662326E+02  0.13859553356E+02 -0.32592210970E+02  0.40659153815E+02  0.00000000000E+00 0. -1.
         11    1    3    3    0    0  0.36325559854E+01 -0.23176307194E+01  0.17817845526E+01  0.46627922527E+01  0.51100000000E-03 0. -1.
        -11    1    3    3    0    0 -0.22920679029E+02 -0.83439346725E+01  0.12772071482E+02  0.27533699046E+02  0.51100000000E-03 0.  1.
        -12    1    3    3    0    0 -0.68253928288E+00 -0.31979879639E+01  0.18038354936E+02  0.18332354886E+02  0.00000000000E+00 0.  1.
</event>
<event>
 7    1  0.5897985E-013  0.5052886E+02  0.7816164E-02  0.1300439E+00
        -11   -1    0    0    0    0  0.00000000000E+00  0.00000000000E+00  0.45593999997E+02  0.45594000000E+02  0.51100000000E-03 0. -1.
         11   -1    0    0    0    0 -0.00000000000E+00 -0.00000000000E+00 -0.45593999997E+02  0.45594000000E+02  0.51100000000E-03 0.  1.
    9900012    2    1    2    0    0 -0.12154279591E+02 -0.52735320969E+01 -0.38439935204E+02  0.50528864844E+02  0.30000015181E+02 0.  0.
         12    1    1    2    0    0  0.12154279591E+02  0.52735320969E+01  0.38439935204E+02  0.40659135156E+02  0.00000000000E+00 0. -1.
         11    1    3    3    0    0 -0.35853224720E+00 -0.12147828787E+02 -0.27891526440E+02  0.30424259022E+02  0.51100000000E-03 0. -1.
        -11    1    3    3    0    0 -0.12497233244E+02  0.83810443307E+01 -0.10657135416E+02  0.18439015114E+02  0.51100000000E-03 0.  1.
         12    1    3    3    0    0  0.70148590083E+00 -0.15067476407E+01  0.10872665306E+00  0.16655907081E+01  0.00000000000E+00 0. -1.
</event>
<event>
 7    1  0.5897985E-013  0.5052886E+02  0.7816164E-02  0.1300439E+00
        -11   -1    0    0    0    0  0.00000000000E+00  0.00000000000E+00  0.45593999997E+02  0.45594000000E+02  0.51100000000E-03 0.  1.
         11   -1    0    0    0    0 -0.00000000000E+00 -0.00000000000E+00 -0.45593999997E+02  0.45594000000E+02  0.51100000000E-03 0. -1.
    9900012    2    1    2    0    0 -0.22934664769E+02 -0.28078976868E+02  0.18404828855E+02  0.50528861849E+02  0.30000006076E+02 0.  0.
         12    1    1    2    0    0  0.22934664769E+02  0.28078976868E+02 -0.18404828855E+02  0.40659138151E+02  0.00000000000E+00 0. -1.
         11    1    3    3    0    0  0.78241201618E+00 -0.79258529087E+01 -0.48977372211E+01  0.93498204818E+01  0.51100000000E-03 0. -1.
        -11    1    3    3    0    0 -0.75400897692E+01 -0.47864450121E+01  0.14831673548E+02  0.17313045662E+02  0.51100000000E-03 0.  1.
        -12    1    3    3    0    0 -0.16176987016E+02 -0.15366678947E+02  0.84708925274E+01  0.23865995705E+02  0.00000000000E+00 0.  1.
</event>
<event>
 7    1  0.5897985E-013  0.5052887E+02  0.7816164E-02  0.1300439E+00
        -11   -1    0    0    0    0  0.00000000000E+00  0.00000000000E+00  0.45593999997E+02  0.45594000000E+02  0.51100000000E-03 0.  1.
         11   -1    0    0    0    0 -0.00000000000E+00 -0.00000000000E+00 -0.45593999997E+02  0.45594000000E+02  0.51100000000E-03 0. -1.
    9900012    2    1    2    0    0 -0.10546137220E+02 -0.16273238006E+02  0.35736889328E+02  0.50528873788E+02  0.30000042365E+02 0.  0.
         12    1    1    2    0    0  0.10546137220E+02  0.16273238006E+02 -0.35736889328E+02  0.40659126212E+02  0.00000000000E+00 0. -1.
         11    1    3    3    0    0 -0.54512634948E+01  0.64149071428E+01  0.21114172376E+01  0.86790201263E+01  0.51100000000E-03 0. -1.
        -11    1    3    3    0    0 -0.66897823352E+01 -0.94428946112E+01  0.15827550003E+02  0.19606957584E+02  0.51100000000E-03 0.  1.
         12    1    3    3    0    0  0.15949086095E+01 -0.13245250538E+02  0.17797922088E+02  0.22242896078E+02  0.00000000000E+00 0. -1.
</event>
<event>
 7    1  0.5897985E-013  0.5052885E+02  0.7816164E-02  0.1300439E+00
        -11   -1    0    0    0    0  0.00000000000E+00  0.00000000000E+00  0.45593999997E+02  0.45594000000E+02  0.51100000000E-03 0.  1.
         11   -1    0    0    0    0 -0.00000000000E+00 -0.00000000000E+00 -0.45593999997E+02  0.45594000000E+02  0.51100000000E-03 0. -1.
    9900012    2    1    2    0    0 -0.20985899390E+02  0.87513643712E+01  0.33707147806E+02  0.50528853860E+02  0.29999981794E+02 0.  0.
         12    1    1    2    0    0  0.20985899390E+02 -0.87513643712E+01 -0.33707147806E+02  0.40659146140E+02  0.00000000000E+00 0. -1.
         11    1    3    3    0    0 -0.27612835273E+01 -0.57080164110E+01  0.12018287447E+02  0.13588427852E+02  0.51100000000E-03 0. -1.
        -11    1    3    3    0    0 -0.15388238003E+02  0.16875310164E+02  0.10478507505E+02  0.25127138352E+02  0.51100000000E-03 0.  1.
        -12    1    3    3    0    0 -0.28363778601E+01 -0.24159293815E+01  0.11210352855E+02  0.11813287657E+02  0.00000000000E+00 0.  1.
</event>
<event>
 7    1  0.5897985E-013  0.5052880E+02  0.7816164E-02  0.1300439E+00
        -11   -1    0    0    0    0  0.00000000000E+00  0.00000000000E+00  0.45593999997E+02  0.45594000000E+02  0.51100000000E-03 0.  1.
         11   -1    0    0    0    0 -0.00000000000E+00 -0.00000000000E+00 -0.45593999997E+02  0.45594000000E+02  0.51100000000E-03 0. -1.
    9900012    2    1    2    0    0  0.12344265068E+02  0.80299900109E+01  0.37898666821E+02  0.50528799732E+02  0.29999817265E+02 0.  0.
         12    1    1    2    0    0 -0.12344265068E+02 -0.80299900109E+01 -0.37898666821E+02  0.40659200268E+02  0.00000000000E+00 0. -1.
         11    1    3    3    0    0  0.48425916700E+01  0.84741424492E+01 -0.13921128030E+00  0.97612071166E+01  0.51100000000E-03 0. -1.
        -11    1    3    3    0    0  0.87900592741E+01  0.18670792233E+01  0.36735024830E+02  0.37818159347E+02  0.51100000000E-03 0.  1.
         12    1    3    3    0    0 -0.12883858763E+01 -0.23112316616E+01  0.13028532705E+01  0.29494332683E+01  0.00000000000E+00 0. -1.
</event>
<event>
 7    1  0.5897985E-013  0.5052886E+02  0.7816164E-02  0.1300439E+00
        -11   -1    0    0    0    0  0.00000000000E+00  0.00000000000E+00  0.45593999997E+02  0.45594000000E+02  0.51100000000E-03 0.  1.
         11   -1    0    0    0    0 -0.00000000000E+00 -0.00000000000E+00 -0.45593999997E+02  0.45594000000E+02  0.51100000000E-03 0. -1.
    9900012    2    1    2    0    0 -0.26340016640E+02  0.18406299611E+02  0.24911397547E+02  0.50528855030E+02  0.29999985350E+02 0.  0.
         12    1    1    2    0    0  0.26340016640E+02 -0.18406299611E+02 -0.24911397547E+02  0.40659144970E+02  0.00000000000E+00 0. -1.
         11    1    3    3    0    0 -0.10274145905E+02  0.44225777378E+01 -0.13311371497E+01  0.11264510389E+02  0.51100000000E-03 0. -1.
        -11    1    3    3    0    0  0.18848689100E+01  0.10651941048E+02  0.79928331285E+01  0.13449979947E+02  0.51100000000E-03 0.  1.
        -12    1    3    3    0    0 -0.17950739644E+02  0.33317808249E+01  0.18249701568E+02  0.25814364694E+02  0.00000000000E+00 0.  1.
</event>
<event>
 7    1  0.5897985E-013  0.5052879E+02  0.7816164E-02  0.1300439E+00
        -11   -1    0    0    0    0  0.00000000000E+00  0.00000000000E+00  0.45593999997E+02  0.45594000000E+02  0.51100000000E-03 0. -1.
         11   -1    0    0    0    0 -0.00000000000E+00 -0.00000000000E+00 -0.45593999997E+02  0.45594000000E+02  0.51100000000E-03 0.  1.
    9900012    2    1    2    0    0  0.32960758228E+02 -0.22838716006E+02 -0.67195728007E+01  0.50528792059E+02  0.29999793941E+02 0.  0.
         12    1    1    2    0    0 -0.32960758228E+02  0.22838716006E+02  0.67195728007E+01  0.40659207941E+02  0.00000000000E+00 0. -1.
         11    1    3    3    0    0  0.14978206371E+02 -0.79994992943E+01  0.61832644528E+01  0.18071287021E+02  0.51100000000E-03 0. -1.
        -11    1    3    3    0    0  0.79167998766E+01 -0.22797199238E+01 -0.14086411278E+02  0.16318695603E+02  0.51100000000E-03 0.  1.
        -12    1    3    3    0    0  0.10065751981E+02 -0.12559496788E+02  0.11835740249E+01  0.16138809435E+02  0.00000000000E+00 0.  1.
</event>
<event>
 7    1  0.5897985E-013  0.5052899E+02  0.7816164E-02  0.1300438E+00
        -11   -1    0    0    0    0  0.00000000000E+00  0.00000000000E+00  0.45593999997E+02  0.45594000000E+02  0.51100000000E-03 0.  1.
         11   -1    0    0    0    0 -0.00000000000E+00 -0.00000000000E+00 -0.45593999997E+02  0.45594000000E+02  0.51100000000E-03 0. -1.
    9900012    2    1    2    0    0 -0.26183322906E+02  0.24982430156E+02  0.18532858384E+02  0.50528990484E+02  0.30000397073E+02 0.  0.
         12    1    1    2    0    0  0.26183322906E+02 -0.24982430156E+02 -0.18532858384E+02  0.40659009516E+02  0.00000000000E+00 0. -1.
         11    1    3    3    0    0 -0.92958672854E+00 -0.10986962436E+01  0.12053899973E+02  0.12139512747E+02  0.51100000000E-03 0. -1.
        -11    1    3    3    0    0 -0.17582147094E+02  0.19536753304E+02 -0.21830194330E+00  0.26284297253E+02  0.51100000000E-03 0.  1.
        -12    1    3    3    0    0 -0.76715890835E+01  0.65443730961E+01  0.66972603546E+01  0.12105180484E+02  0.00000000000E+00 0.  1.
</event>
<event>
 7    1  0.5897985E-013  0.5052886E+02  0.7816164E-02  0.1300439E+00
        -11   -1    0    0    0    0  0.00000000000E+00  0.00000000000E+00  0.45593999997E+02  0.45594000000E+02  0.51100000000E-03 0.  1.
         11   -1    0    0    0    0 -0.00000000000E+00 -0.00000000000E+00 -0.45593999997E+02  0.45594000000E+02  0.51100000000E-03 0. -1.
    9900012    2    1    2    0    0 -0.39280643060E+01  0.15205867350E+02  0.37503566237E+02  0.50528861156E+02  0.30000003969E+02 0.  0.
         12    1    1    2    0    0  0.39280643060E+01 -0.15205867350E+02 -0.37503566237E+02  0.40659138844E+02  0.00000000000E+00 0. -1.
         11    1    3    3    0    0 -0.55881291522E+01 -0.43631960317E+01  0.14977376128E+02  0.16570650650E+02  0.51100000000E-03 0. -1.
        -11    1    3    3    0    0  0.37425789518E+01  0.21886551970E+02  0.18744175728E+02  0.29058082840E+02  0.51100000000E-03 0.  1.
        -12    1    3    3    0    0 -0.20825141056E+01 -0.23174885885E+01  0.37820143807E+01  0.49001276651E+01  0.00000000000E+00 0.  1.
</event>
<event>
 7    1  0.5897985E-013  0.5052886E+02  0.7816164E-02  0.1300439E+00
        -11   -1    0    0    0    0  0.00000000000E+00  0.00000000000E+00  0.45593999997E+02  0.45594000000E+02  0.51100000000E-03 0.  1.
         11   -1    0    0    0    0 -0.00000000000E+00 -0.00000000000E+00 -0.45593999997E+02  0.45594000000E+02  0.51100000000E-03 0. -1.
    9900012    2    1    2    0    0  0.10636899862E+02  0.67202224569E+01  0.38663424935E+02  0.50528862574E+02  0.30000008280E+02 0.  0.
         12    1    1    2    0    0 -0.10636899862E+02 -0.67202224569E+01 -0.38663424935E+02  0.40659137426E+02  0.00000000000E+00 0. -1.
         11    1    3    3    0    0 -0.87092587858E+01  0.44460416597E+01  0.44167982282E+01  0.10729705582E+02  0.51100000000E-03 0. -1.
        -11    1    3    3    0    0  0.80187143293E+01  0.31722066244E+01  0.18167117052E+02  0.20109868637E+02  0.51100000000E-03 0.  1.
         12    1    3    3    0    0  0.11327444318E+02 -0.89802582711E+00  0.16079509655E+02  0.19689288354E+02  0.00000000000E+00 0. -1.
</event>
<event>
 7    1  0.5897985E-013  0.5052887E+02  0.7816164E-02  0.1300439E+00
        -11   -1    0    0    0    0  0.00000000000E+00  0.00000000000E+00  0.45593999997E+02  0.45594000000E+02  0.51100000000E-03 0.  1.
         11   -1    0    0    0    0 -0.00000000000E+00 -0.00000000000E+00 -0.45593999997E+02  0.45594000000E+02  0.51100000000E-03 0. -1.
    9900012    2    1    2    0    0  0.84727574629E+01  0.32756645959E+01  0.39631397419E+02  0.50528865000E+02  0.30000015655E+02 0.  0.
         12    1    1    2    0    0 -0.84727574629E+01 -0.32756645959E+01 -0.39631397419E+02  0.40659135000E+02  0.00000000000E+00 0. -1.
         11    1    3    3    0    0  0.61500755824E+01 -0.10072610704E+02  0.82449111914E+01  0.14396509191E+02  0.51100000000E-03 0. -1.
        -11    1    3    3    0    0 -0.24644551579E+01  0.62029583562E+01  0.23616660961E+02  0.24541738055E+02  0.51100000000E-03 0.  1.
         12    1    3    3    0    0  0.47871370385E+01  0.71453169436E+01  0.77698252667E+01  0.11590617754E+02  0.00000000000E+00 0. -1.
</event>
<event>
 7    1  0.5897985E-013  0.5052887E+02  0.7816164E-02  0.1300439E+00
        -11   -1    0    0    0    0  0.00000000000E+00  0.00000000000E+00  0.45593999997E+02  0.45594000000E+02  0.51100000000E-03 0. -1.
         11   -1    0    0    0    0 -0.00000000000E+00 -0.00000000000E+00 -0.45593999997E+02  0.45594000000E+02  0.51100000000E-03 0.  1.
    9900012    2    1    2    0    0 -0.18369231394E+02 -0.20036456183E+02 -0.30237008814E+02  0.50528868918E+02  0.30000027562E+02 0.  0.
         12    1    1    2    0    0  0.18369231394E+02  0.20036456183E+02  0.30237008814E+02  0.40659131082E+02  0.00000000000E+00 0. -1.
         11    1    3    3    0    0 -0.19326048932E+01  0.67655188177E+00 -0.16822182223E+02  0.16946341762E+02  0.51100000000E-03 0.  1.
        -11    1    3    3    0    0 -0.38925951569E+01 -0.84052461517E+01  0.27941498800E+01  0.96751089782E+01  0.51100000000E-03 0. -1.
        -12    1    3    3    0    0 -0.12544031344E+02 -0.12307761913E+02 -0.16208976471E+02  0.23907418177E+02  0.00000000000E+00 0.  1.
</event>
<event>
 7    1  0.5897985E-013  0.5052887E+02  0.7816164E-02  0.1300439E+00
        -11   -1    0    0    0    0  0.00000000000E+00  0.00000000000E+00  0.45593999997E+02  0.45594000000E+02  0.51100000000E-03 0.  1.
         11   -1    0    0    0    0 -0.00000000000E+00 -0.00000000000E+00 -0.45593999997E+02  0.45594000000E+02  0.51100000000E-03 0. -1.
    9900012    2    1    2    0    0 -0.36762056398E+02  0.12137291730E+02  0.12425869828E+02  0.50528869634E+02  0.30000029740E+02 0.  0.
         12    1    1    2    0    0  0.36762056398E+02 -0.12137291730E+02 -0.12425869828E+02  0.40659130366E+02  0.00000000000E+00 0. -1.
         11    1    3    3    0    0 -0.94945684624E+01  0.53034209187E+01 -0.78776780600E+01  0.13428734699E+02  0.51100000000E-03 0. -1.
        -11    1    3    3    0    0 -0.20377190118E+02  0.68386336431E+01  0.21153784195E+02  0.30157575719E+02  0.51100000000E-03 0.  1.
        -12    1    3    3    0    0 -0.68902978178E+01 -0.47628315251E-02 -0.85023630726E+00  0.69425592169E+01  0.00000000000E+00 0.  1.
</event>
<event>
 7    1  0.5897985E-013  0.5052886E+02  0.7816164E-02  0.1300439E+00
        -11   -1    0    0    0    0  0.00000000000E+00  0.00000000000E+00  0.45593999997E+02  0.45594000000E+02  0.51100000000E-03 0.  1.
         11   -1    0    0    0    0 -0.00000000000E+00 -0.00000000000E+00 -0.45593999997E+02  0.45594000000E+02  0.51100000000E-03 0. -1.
    9900012    2    1    2    0    0  0.13421658802E+02  0.25645199225E+02  0.28554311398E+02  0.50528857514E+02  0.29999992899E+02 0.  0.
         12    1    1    2    0    0 -0.13421658802E+02 -0.25645199225E+02 -0.28554311398E+02  0.40659142486E+02  0.00000000000E+00 0. -1.
         11    1    3    3    0    0  0.79767969486E+00 -0.43696705646E+01  0.49312882537E+01  0.66368605410E+01  0.51100000000E-03 0. -1.
        -11    1    3    3    0    0  0.12014645455E+02  0.21838454183E+02  0.78789560316E+01  0.26140920698E+02  0.51100000000E-03 0.  1.
        -12    1    3    3    0    0  0.60933365160E+00  0.81764156071E+01  0.15744067113E+02  0.17751076275E+02  0.00000000000E+00 0.  1.
</event>
<event>
 7    1  0.5897985E-013  0.5052888E+02  0.7816164E-02  0.1300439E+00
        -11   -1    0    0    0    0  0.00000000000E+00  0.00000000000E+00  0.45593999997E+02  0.45594000000E+02  0.51100000000E-03 0.  1.
         11   -1    0    0    0    0 -0.00000000000E+00 -0.00000000000E+00 -0.45593999997E+02  0.45594000000E+02  0.51100000000E-03 0. -1.
    9900012    2    1    2    0    0 -0.24134156130E+02  0.30741748340E+02  0.11209444583E+02  0.50528877641E+02  0.30000054078E+02 0.  0.
         12    1    1    2    0    0  0.24134156130E+02 -0.30741748340E+02 -0.11209444583E+02  0.40659122359E+02  0.00000000000E+00 0. -1.
         11    1    3    3    0    0 -0.10711860307E+02  0.10458144020E+01 -0.68223897744E+01  0.12742946343E+02  0.51100000000E-03 0. -1.
        -11    1    3    3    0    0 -0.10025544815E+02  0.27131408253E+02  0.15215447363E+02  0.32682330108E+02  0.51100000000E-03 0.  1.
        -12    1    3    3    0    0 -0.33967510079E+01  0.25645256854E+01  0.28163869946E+01  0.51036011898E+01  0.00000000000E+00 0.  1.
</event>
<event>
 7    1  0.5897985E-013  0.5052887E+02  0.7816164E-02  0.1300439E+00
        -11   -1    0    0    0    0  0.00000000000E+00  0.00000000000E+00  0.45593999997E+02  0.45594000000E+02  0.51100000000E-03 0.  1.
         11   -1    0    0    0    0 -0.00000000000E+00 -0.00000000000E+00 -0.45593999997E+02  0.45594000000E+02  0.51100000000E-03 0. -1.
    9900012    2    1    2    0    0  0.29165914875E+02  0.16559365718E+02 -0.22984821756E+02  0.50528865545E+02  0.30000017312E+02 0.  0.
         12    1    1    2    0    0 -0.29165914875E+02 -0.16559365718E+02  0.22984821756E+02  0.40659134455E+02  0.00000000000E+00 0. -1.
         11    1    3    3    0    0 -0.26466060587E+01 -0.54933976216E+01 -0.21412907242E+01  0.64627445629E+01  0.51100000000E-03 0. -1.
        -11    1    3    3    0    0  0.13658778652E+02  0.10255044745E+02 -0.10721982385E+02  0.20166533751E+02  0.51100000000E-03 0.  1.
         12    1    3    3    0    0  0.18153742281E+02  0.11797718594E+02 -0.10121548646E+02  0.23899587232E+02  0.00000000000E+00 0. -1.
</event>
<event>
 7    1  0.5897985E-013  0.5052886E+02  0.7816164E-02  0.1300439E+00
        -11   -1    0    0    0    0  0.00000000000E+00  0.00000000000E+00  0.45593999997E+02  0.45594000000E+02  0.51100000000E-03 0.  1.
         11   -1    0    0    0    0 -0.00000000000E+00 -0.00000000000E+00 -0.45593999997E+02  0.45594000000E+02  0.51100000000E-03 0. -1.
    9900012    2    1    2    0    0  0.72105320018E+01  0.15399250040E+02  0.36932873712E+02  0.50528857927E+02  0.29999994155E+02 0.  0.
         12    1    1    2    0    0 -0.72105320018E+01 -0.15399250040E+02 -0.36932873712E+02  0.40659142073E+02  0.00000000000E+00 0. -1.
         11    1    3    3    0    0  0.10471939081E+02  0.18336140809E+01  0.44521232365E+00  0.10640576253E+02  0.51100000000E-03 0. -1.
        -11    1    3    3    0    0  0.19319451630E+01  0.44958348859E+00  0.52827297661E+01  0.56428513597E+01  0.51100000000E-03 0.  1.
         12    1    3    3    0    0 -0.51933522421E+01  0.13116052470E+02  0.31204931622E+02  0.34245430315E+02  0.00000000000E+00 0. -1.
</event>
<event>
 7    1  0.5897985E-013  0.5052887E+02  0.7816164E-02  0.1300439E+00
        -11   -1    0    0    0    0  0.00000000000E+00  0.00000000000E+00  0.45593999997E+02  0.45594000000E+02  0.51100000000E-03 0. -1.
         11   -1    0    0    0    0 -0.00000000000E+00 -0.00000000000E+00 -0.45593999997E+02  0.45594000000E+02  0.51100000000E-03 0.  1.
    9900012    2    1    2    0    0 -0.20379686674E+02 -0.34259368139E+02 -0.80080422392E+01  0.50528872185E+02  0.30000037492E+02 0.  0.
         12    1    1    2    0    0  0.20379686674E+02  0.34259368139E+02  0.80080422392E+01  0.40659127815E+02  0.00000000000E+00 0. -1.
         11    1    3    3    0    0 -0.42977020689E+00  0.31308848061E+01  0.43361276088E+01  0.53655516958E+01  0.51100000000E-03 0. -1.
        -11    1    3    3    0    0 -0.17460802583E+02 -0.30521878449E+02 -0.63911747304E+01  0.35739499236E+02  0.51100000000E-03 0.  1.
         12    1    3    3    0    0 -0.24891138843E+01 -0.68683744953E+01 -0.59529951176E+01  0.94238212529E+01  0.00000000000E+00 0. -1.
</event>
<event>
 7    1  0.5897985E-013  0.5052886E+02  0.7816164E-02  0.1300439E+00
        -11   -1    0    0    0    0  0.00000000000E+00  0.00000000000E+00  0.45593999997E+02  0.45594000000E+02  0.51100000000E-03 0.  1.
         11   -1    0    0    0    0 -0.00000000000E+00 -0.00000000000E+00 -0.45593999997E+02  0.45594000000E+02  0.51100000000E-03 0. -1.
    9900012    2    1    2    0    0 -0.75671259053E+00  0.13201747818E+02  0.38448755395E+02  0.50528861411E+02  0.30000004745E+02 0.  0.
         12    1    1    2    0    0  0.75671259053E+00 -0.13201747818E+02 -0.38448755395E+02  0.40659138589E+02  0.00000000000E+00 0. -1.
         11    1    3    3    0    0 -0.37306452183E+01 -0.39010503138E+01  0.14655535177E+01  0.55931882384E+01  0.51100000000E-03 0. -1.
        -11    1    3    3    0    0 -0.36408425867E+01  0.88321423515E+01  0.31684939355E+02  0.33093773666E+02  0.51100000000E-03 0.  1.
         12    1    3    3    0    0  0.66147752145E+01  0.82706557799E+01  0.52982625220E+01  0.11841899506E+02  0.00000000000E+00 0. -1.
</event>
<event>
 7    1  0.5897985E-013  0.5052887E+02  0.7816164E-02  0.1300439E+00
        -11   -1    0    0    0    0  0.00000000000E+00  0.00000000000E+00  0.45593999997E+02  0.45594000000E+02  0.51100000000E-03 0.  1.
         11   -1    0    0    0    0 -0.00000000000E+00 -0.00000000000E+00 -0.45593999997E+02  0.45594000000E+02  0.51100000000E-03 0. -1.
    9900012    2    1    2    0    0 -0.13013138993E+02 -0.54651468039E+01  0.38130764379E+02  0.50528870544E+02  0.30000032505E+02 0.  0.
         12    1    1    2    0    0  0.13013138993E+02  0.54651468039E+01 -0.38130764379E+02  0.40659129456E+02  0.00000000000E+00 0. -1.
         11    1    3    3    0    0 -0.17559597909E+01  0.88755806732E+01  0.44693577854E+01  0.10091307465E+02  0.51100000000E-03 0. -1.
        -11    1    3    3    0    0  0.25694163067E+01 -0.48361344988E+01  0.10436901473E+02  0.11786390867E+02  0.51100000000E-03 0.  1.
         12    1    3    3    0    0 -0.13826595509E+02 -0.95045929784E+01  0.23224505120E+02  0.28651172212E+02  0.00000000000E+00 0. -1.
</event>
<event>
 7    1  0.5897985E-013  0.5052881E+02  0.7816164E-02  0.1300439E+00
        -11   -1    0    0    0    0  0.00000000000E+00  0.00000000000E+00  0.45593999997E+02  0.45594000000E+02  0.51100000000E-03 0. -1.
         11   -1    0    0    0    0 -0.00000000000E+00 -0.00000000000E+00 -0.45593999997E+02  0.45594000000E+02  0.51100000000E-03 0.  1.
    9900012    2    1    2    0    0 -0.67959597110E+01 -0.38447972205E+02 -0.11346263967E+02  0.50528814801E+02  0.29999863067E+02 0.  0.
         12    1    1    2    0    0  0.67959597110E+01  0.38447972205E+02  0.11346263967E+02  0.40659185199E+02  0.00000000000E+00 0. -1.
         11    1    3    3    0    0 -0.92338085643E+01 -0.12299189063E+02  0.25911453915E+01  0.15596387624E+02  0.51100000000E-03 0. -1.
        -11    1    3    3    0    0  0.10346103685E+02 -0.14777180465E+02 -0.62503794024E+01  0.19091206533E+02  0.51100000000E-03 0.  1.
         12    1    3    3    0    0 -0.79082548319E+01 -0.11371602677E+02 -0.76870299556E+01  0.15841220643E+02  0.00000000000E+00 0. -1.
</event>
<event>
 7    1  0.5897985E-013  0.5052887E+02  0.7816164E-02  0.1300439E+00
        -11   -1    0    0    0    0  0.00000000000E+00  0.00000000000E+00  0.45593999997E+02  0.45594000000E+02  0.51100000000E-03 0. -1.
         11   -1    0    0    0    0 -0.00000000000E+00 -0.00000000000E+00 -0.45593999997E+02  0.45594000000E+02  0.51100000000E-03 0.  1.
    9900012    2    1    2    0    0 -0.24481874170E+02  0.32440562107E+02 -0.11886577619E+01  0.50528866463E+02  0.30000020101E+02 0.  0.
         12    1    1    2    0    0  0.24481874170E+02 -0.32440562107E+02  0.11886577619E+01  0.40659133537E+02  0.00000000000E+00 0. -1.
         11    1    3    3    0    0 -0.20445222041E+01  0.21826767614E+02  0.19063340624E+01  0.22005044089E+02  0.51100000000E-03 0. -1.
        -11    1    3    3    0    0 -0.14698863044E+02  0.96816597670E+01 -0.79796764235E+01  0.19325277403E+02  0.51100000000E-03 0.  1.
         12    1    3    3    0    0 -0.77384889222E+01  0.93213472526E+00  0.48846845992E+01  0.91985449707E+01  0.00000000000E+00 0. -1.
</event>
<event>
 7    1  0.5897985E-013  0.5052886E+02  0.7816164E-02  0.1300439E+00
        -11   -1    0    0    0    0  0.00000000000E+00  0.00000000000E+00  0.45593999997E+02  0.45594000000E+02  0.51100000000E-03 0.  1.
         11   -1    0    0    0    0 -0.00000000000E+00 -0.00000000000E+00 -0.45593999997E+02  0.45594000000E+02  0.51100000000E-03 0. -1.
    9900012    2    1    2    0    0 -0.23841792965E+02  0.32708783738E+02  0.38561266242E+01  0.50528864029E+02  0.30000012701E+02 0.  0.
         12    1    1    2    0    0  0.23841792965E+02 -0.32708783738E+02 -0.38561266242E+01  0.40659135971E+02  0.00000000000E+00 0. -1.
         11    1    3    3    0    0 -0.26270817525E+01  0.90357539436E+01 -0.40076557611E+01  0.10227791200E+02  0.51100000000E-03 0. -1.
        -11    1    3    3    0    0 -0.10810788517E+02  0.64145937023E+01  0.14400793740E+02  0.19115517815E+02  0.51100000000E-03 0.  1.
        -12    1    3    3    0    0 -0.10403922695E+02  0.17258436092E+02 -0.65370113549E+01  0.21185555014E+02  0.00000000000E+00 0.  1.
</event>
<event>
 7    1  0.5897985E-013  0.5052886E+02  0.7816164E-02  0.1300439E+00
        -11   -1    0    0    0    0  0.00000000000E+00  0.00000000000E+00  0.45593999997E+02  0.45594000000E+02  0.51100000000E-03 0. -1.
         11   -1    0    0    0    0 -0.00000000000E+00 -0.00000000000E+00 -0.45593999997E+02  0.45594000000E+02  0.51100000000E-03 0.  1.
    9900012    2    1    2    0    0  0.18277375436E+02 -0.67875244183E+01 -0.35679585862E+02  0.50528858496E+02  0.29999995884E+02 0.  0.
         12    1    1    2    0    0 -0.18277375436E+02  0.67875244183E+01  0.35679585862E+02  0.40659141504E+02  0.00000000000E+00 0. -1.
         11    1    3    3    0    0  0.13114132581E+02 -0.82262124125E+01 -0.62945498841E+01  0.16711445255E+02  0.51100000000E-03 0. -1.
        -11    1    3    3    0    0  0.69825195168E+01  0.65612726248E+01 -0.25190525824E+02  0.26951223883E+02  0.51100000000E-03 0.  1.
        -12    1    3    3    0    0 -0.18192766612E+01 -0.51225846305E+01 -0.41945101536E+01  0.68661893577E+01  0.00000000000E+00 0.  1.
</event>
<event>
 7    1  0.5897985E-013  0.5052885E+02  0.7816164E-02  0.1300439E+00
        -11   -1    0    0    0    0  0.00000000000E+00  0.00000000000E+00  0.45593999997E+02  0.45594000000E+02  0.51100000000E-03 0. -1.
         11   -1    0    0    0    0 -0.00000000000E+00 -0.00000000000E+00 -0.45593999997E+02  0.45594000000E+02  0.51100000000E-03 0.  1.
    9900012    2    1    2    0    0  0.91387902435E+01 -0.24340016582E+02 -0.31260400853E+02  0.50528849052E+02  0.29999967179E+02 0.  0.
         12    1    1    2    0    0 -0.91387902435E+01  0.24340016582E+02  0.31260400853E+02  0.40659150948E+02  0.00000000000E+00 0. -1.
         11    1    3    3    0    0  0.12411247510E+02 -0.18950439694E+01 -0.10605453434E+02  0.16434898819E+02  0.51100000000E-03 0. -1.
        -11    1    3    3    0    0 -0.66765383945E+01 -0.49448953516E+01 -0.11105497832E+02  0.13869399314E+02  0.51100000000E-03 0.  1.
         12    1    3    3    0    0  0.34040811283E+01 -0.17500077261E+02 -0.95494495867E+01  0.20224550919E+02  0.00000000000E+00 0. -1.
</event>
<event>
 7    1  0.5897985E-013  0.5052886E+02  0.7816164E-02  0.1300439E+00
        -11   -1    0    0    0    0  0.00000000000E+00  0.00000000000E+00  0.45593999997E+02  0.45594000000E+02  0.51100000000E-03 0.  1.
         11   -1    0    0    0    0 -0.00000000000E+00 -0.00000000000E+00 -0.45593999997E+02  0.45594000000E+02  0.51100000000E-03 0. -1.
    9900012    2    1    2    0    0  0.24977899096E+02  0.21082903681E+01  0.32012889623E+02  0.50528862853E+02  0.30000009127E+02 0.  0.
         12    1    1    2    0    0 -0.24977899096E+02 -0.21082903681E+01 -0.32012889623E+02  0.40659137147E+02  0.00000000000E+00 0. -1.
         11    1    3    3    0    0  0.16567019326E+02 -0.12526803092E+02  0.20174671446E+02  0.28955211851E+02  0.51100000000E-03 0.  1.
        -11    1    3    3    0    0  0.50341132444E+01  0.13560590954E+02  0.99679013903E+01  0.17566757856E+02  0.51100000000E-03 0. -1.
         12    1    3    3    0    0  0.33767665254E+01  0.10745025064E+01  0.18703167863E+01  0.40068931461E+01  0.00000000000E+00 0. -1.
</event>
<event>
 7    1  0.5897985E-013  0.5052886E+02  0.7816164E-02  0.1300439E+00
        -11   -1    0    0    0    0  0.00000000000E+00  0.00000000000E+00  0.45593999997E+02  0.45594000000E+02  0.51100000000E-03 0.  1.
         11   -1    0    0    0    0 -0.00000000000E+00 -0.00000000000E+00 -0.45593999997E+02  0.45594000000E+02  0.51100000000E-03 0. -1.
    9900012    2    1    2    0    0 -0.64360247546E+01 -0.77467193312E+00  0.40139047153E+02  0.50528860343E+02  0.30000001499E+02 0.  0.
         12    1    1    2    0    0  0.64360247546E+01  0.77467193312E+00 -0.40139047153E+02  0.40659139657E+02  0.00000000000E+00 0. -1.
         11    1    3    3    0    0 -0.46683525791E+01  0.72236799205E+01  0.14034216012E+02  0.16460081613E+02  0.51100000000E-03 0. -1.
        -11    1    3    3    0    0 -0.17976343206E+01 -0.13667553276E+02  0.24606495444E+02  0.28204842137E+02  0.51100000000E-03 0.  1.
        -12    1    3    3    0    0  0.29962145057E-01  0.56692014224E+01  0.14983356978E+01  0.58639365925E+01  0.00000000000E+00 0.  1.
</event>
<event>
 7    1  0.5897985E-013  0.5052885E+02  0.7816164E-02  0.1300439E+00
        -11   -1    0    0    0    0  0.00000000000E+00  0.00000000000E+00  0.45593999997E+02  0.45594000000E+02  0.51100000000E-03 0. -1.
         11   -1    0    0    0    0 -0.00000000000E+00 -0.00000000000E+00 -0.45593999997E+02  0.45594000000E+02  0.51100000000E-03 0.  1.
    9900012    2    1    2    0    0  0.32813081737E+02  0.19634411371E+02  0.13818743500E+02  0.50528854474E+02  0.29999983659E+02 0.  0.
         12    1    1    2    0    0 -0.32813081737E+02 -0.19634411371E+02 -0.13818743500E+02  0.40659145526E+02  0.00000000000E+00 0. -1.
         11    1    3    3    0    0 -0.11771105034E+01 -0.29366418593E+01 -0.44290464000E+01  0.54429685670E+01  0.51100000000E-03 0. -1.
        -11    1    3    3    0    0  0.87495752970E+01  0.57735395019E+01  0.19450802822E+01  0.10661714863E+02  0.51100000000E-03 0.  1.
         12    1    3    3    0    0  0.25240616944E+02  0.16797513729E+02  0.16302709618E+02  0.34424171044E+02  0.00000000000E+00 0. -1.
</event>
<event>
 7    1  0.5897985E-013  0.5052886E+02  0.7816164E-02  0.1300439E+00
        -11   -1    0    0    0    0  0.00000000000E+00  0.00000000000E+00  0.45593999997E+02  0.45594000000E+02  0.51100000000E-03 0.  1.
         11   -1    0    0    0    0 -0.00000000000E+00 -0.00000000000E+00 -0.45593999997E+02  0.45594000000E+02  0.51100000000E-03 0. -1.
    9900012    2    1    2    0    0  0.20569172567E+02 -0.26850428134E+02  0.22563890208E+02  0.50528862129E+02  0.30000006928E+02 0.  0.
         12    1    1    2    0    0 -0.20569172567E+02  0.26850428134E+02 -0.22563890208E+02  0.40659137871E+02  0.00000000000E+00 0. -1.
         11    1    3    3    0    0  0.16594735137E+02 -0.80904179860E+01 -0.65164096580E-01  0.18461970211E+02  0.51100000000E-03 0. -1.
        -11    1    3    3    0    0  0.33086646605E+01 -0.13238536968E+02  0.22722020590E+02  0.26504647570E+02  0.51100000000E-03 0.  1.
         12    1    3    3    0    0  0.66577276963E+00 -0.55214731794E+01 -0.92966284712E-01  0.55622443476E+01  0.00000000000E+00 0. -1.
</event>
<event>
 7    1  0.5897985E-013  0.5052887E+02  0.7816164E-02  0.1300439E+00
        -11   -1    0    0    0    0  0.00000000000E+00  0.00000000000E+00  0.45593999997E+02  0.45594000000E+02  0.51100000000E-03 0.  1.
         11   -1    0    0    0    0 -0.00000000000E+00 -0.00000000000E+00 -0.45593999997E+02  0.45594000000E+02  0.51100000000E-03 0. -1.
    9900012    2    1    2    0    0  0.34328539285E+02  0.15581838348E+02  0.15229000134E+02  0.50528871371E+02  0.30000035020E+02 0.  0.
         12    1    1    2    0    0 -0.34328539285E+02 -0.15581838348E+02 -0.15229000134E+02  0.40659128629E+02  0.00000000000E+00 0. -1.
         11    1    3    3    0    0  0.11172059826E+02  0.11790888113E+02  0.13055037397E+02  0.20839240987E+02  0.51100000000E-03 0. -1.
        -11    1    3    3    0    0  0.22268432581E+02  0.44482902257E+01 -0.43086647320E+01  0.23113523478E+02  0.51100000000E-03 0.  1.
         12    1    3    3    0    0  0.88804687861E+00 -0.65733999107E+00  0.64826274699E+01  0.65761069057E+01  0.00000000000E+00 0. -1.
</event>
<event>
 7    1  0.5897985E-013  0.5052886E+02  0.7816164E-02  0.1300439E+00
        -11   -1    0    0    0    0  0.00000000000E+00  0.00000000000E+00  0.45593999997E+02  0.45594000000E+02  0.51100000000E-03 0. -1.
         11   -1    0    0    0    0 -0.00000000000E+00 -0.00000000000E+00 -0.45593999997E+02  0.45594000000E+02  0.51100000000E-03 0.  1.
    9900012    2    1    2    0    0 -0.24349186314E+02  0.27914975545E+02  0.16764154254E+02  0.50528860785E+02  0.30000002842E+02 0.  0.
         12    1    1    2    0    0  0.24349186314E+02 -0.27914975545E+02 -0.16764154254E+02  0.40659139215E+02  0.00000000000E+00 0. -1.
         11    1    3    3    0    0 -0.10889988039E+01 -0.18513676682E+01  0.16844384835E+01  0.27296179043E+01  0.51100000000E-03 0. -1.
        -11    1    3    3    0    0 -0.69281788755E+01  0.24322590997E+02  0.17006520604E+02  0.30476381654E+02  0.51100000000E-03 0.  1.
        -12    1    3    3    0    0 -0.16332008635E+02  0.54437522153E+01 -0.19268048334E+01  0.17322861227E+02  0.00000000000E+00 0.  1.
</event>
<event>
 7    1  0.5897985E-013  0.5052887E+02  0.7816164E-02  0.1300439E+00
        -11   -1    0    0    0    0  0.00000000000E+00  0.00000000000E+00  0.45593999997E+02  0.45594000000E+02  0.51100000000E-03 0.  1.
         11   -1    0    0    0    0 -0.00000000000E+00 -0.00000000000E+00 -0.45593999997E+02  0.45594000000E+02  0.51100000000E-03 0. -1.
    9900012    2    1    2    0    0 -0.93613660260E+01 -0.41711225678E+01  0.39346305583E+02  0.50528865720E+02  0.30000017843E+02 0.  0.
         12    1    1    2    0    0  0.93613660260E+01  0.41711225678E+01 -0.39346305583E+02  0.40659134280E+02  0.00000000000E+00 0. -1.
         11    1    3    3    0    0  0.35087158783E+01  0.76407020305E+01  0.14909426099E+01  0.85389885093E+01  0.51100000000E-03 0. -1.
        -11    1    3    3    0    0 -0.38421197867E+01 -0.65006428165E+01  0.18507308411E+02  0.19988514361E+02  0.51100000000E-03 0.  1.
         12    1    3    3    0    0 -0.90279621176E+01 -0.53111817818E+01  0.19348054562E+02  0.22001362850E+02  0.00000000000E+00 0. -1.
</event>
<event>
 7    1  0.5897985E-013  0.5052886E+02  0.7816164E-02  0.1300439E+00
        -11   -1    0    0    0    0  0.00000000000E+00  0.00000000000E+00  0.45593999997E+02  0.45594000000E+02  0.51100000000E-03 0.  1.
         11   -1    0    0    0    0 -0.00000000000E+00 -0.00000000000E+00 -0.45593999997E+02  0.45594000000E+02  0.51100000000E-03 0. -1.
    9900012    2    1    2    0    0  0.17555871009E+02 -0.12501929916E+02  0.34476927649E+02  0.50528863283E+02  0.30000010434E+02 0.  0.
         12    1    1    2    0    0 -0.17555871009E+02  0.12501929916E+02 -0.34476927649E+02  0.40659136717E+02  0.00000000000E+00 0. -1.
         11    1    3    3    0    0  0.17610250031E+01  0.47199123593E+01  0.52174784013E+01  0.72526452326E+01  0.51100000000E-03 0. -1.
        -11    1    3    3    0    0  0.13921788399E+02 -0.78876108798E+01  0.43087925226E+01  0.16570947193E+02  0.51100000000E-03 0.  1.
        -12    1    3    3    0    0  0.18730576065E+01 -0.93342313951E+01  0.24950656725E+02  0.26705270857E+02  0.00000000000E+00 0.  1.
</event>
<event>
 7    1  0.5897985E-013  0.5052885E+02  0.7816164E-02  0.1300439E+00
        -11   -1    0    0    0    0  0.00000000000E+00  0.00000000000E+00  0.45593999997E+02  0.45594000000E+02  0.51100000000E-03 0. -1.
         11   -1    0    0    0    0 -0.00000000000E+00 -0.00000000000E+00 -0.45593999997E+02  0.45594000000E+02  0.51100000000E-03 0.  1.
    9900012    2    1    2    0    0  0.25874358547E+02  0.14120695438E+02 -0.28005172285E+02  0.50528854109E+02  0.29999982550E+02 0.  0.
         12    1    1    2    0    0 -0.25874358547E+02 -0.14120695438E+02  0.28005172285E+02  0.40659145891E+02  0.00000000000E+00 0. -1.
         11    1    3    3    0    0  0.59578204402E+00  0.12519534270E+02 -0.14164433529E+02  0.18913616049E+02  0.51100000000E-03 0. -1.
        -11    1    3    3    0    0  0.23664764701E+02  0.52930765024E+01 -0.12942143424E+02  0.27487030103E+02  0.51100000000E-03 0.  1.
         12    1    3    3    0    0  0.16138118014E+01 -0.36919153342E+01 -0.89859533179E+00  0.41282079569E+01  0.00000000000E+00 0. -1.
</event>
<event>
 7    1  0.5897985E-013  0.5052887E+02  0.7816164E-02  0.1300439E+00
        -11   -1    0    0    0    0  0.00000000000E+00  0.00000000000E+00  0.45593999997E+02  0.45594000000E+02  0.51100000000E-03 0.  1.
         11   -1    0    0    0    0 -0.00000000000E+00 -0.00000000000E+00 -0.45593999997E+02  0.45594000000E+02  0.51100000000E-03 0. -1.
    9900012    2    1    2    0    0  0.26976851813E+02  0.30044188258E+02 -0.47708302680E+01  0.50528873063E+02  0.30000040163E+02 0.  0.
         12    1    1    2    0    0 -0.26976851813E+02 -0.30044188258E+02  0.47708302680E+01  0.40659126937E+02  0.00000000000E+00 0. -1.
         11    1    3    3    0    0  0.28701129011E+01  0.16653509849E+01  0.64426800166E+01  0.72470040724E+01  0.51100000000E-03 0. -1.
        -11    1    3    3    0    0  0.12038153960E+02  0.15183853732E+02 -0.15592719240E+02  0.24871659745E+02  0.51100000000E-03 0.  1.
        -12    1    3    3    0    0  0.12068584952E+02  0.13194983542E+02  0.43792089552E+01  0.18410209246E+02  0.00000000000E+00 0.  1.
</event>
<event>
 7    1  0.5897985E-013  0.5052886E+02  0.7816164E-02  0.1300439E+00
        -11   -1    0    0    0    0  0.00000000000E+00  0.00000000000E+00  0.45593999997E+02  0.45594000000E+02  0.51100000000E-03 0.  1.
         11   -1    0    0    0    0 -0.00000000000E+00 -0.00000000000E+00 -0.45593999997E+02  0.45594000000E+02  0.51100000000E-03 0. -1.
    9900012    2    1    2    0    0 -0.98325419798E+00 -0.25038157617E+02  0.32020139968E+02  0.50528862168E+02  0.30000007045E+02 0.  0.
         12    1    1    2    0    0  0.98325419798E+00  0.25038157617E+02 -0.32020139968E+02  0.40659137832E+02  0.00000000000E+00 0. -1.
         11    1    3    3    0    0  0.47627642007E+01 -0.22186775602E+02  0.15198303411E+02  0.27311634174E+02  0.51100000000E-03 0.  1.
        -11    1    3    3    0    0 -0.15054967508E+01  0.56098872457E+01  0.32039699677E+01  0.66334590668E+01  0.51100000000E-03 0. -1.
         12    1    3    3    0    0 -0.42405216479E+01 -0.84612692611E+01  0.13617866590E+02  0.16583768927E+02  0.00000000000E+00 0. -1.
</event>
<event>
 7    1  0.5897985E-013  0.5052886E+02  0.7816164E-02  0.1300439E+00
        -11   -1    0    0    0    0  0.00000000000E+00  0.00000000000E+00  0.45593999997E+02  0.45594000000E+02  0.51100000000E-03 0.  1.
         11   -1    0    0    0    0 -0.00000000000E+00 -0.00000000000E+00 -0.45593999997E+02  0.45594000000E+02  0.51100000000E-03 0. -1.
    9900012    2    1    2    0    0 -0.76375104207E+01  0.35887390070E+02  0.17519407008E+02  0.50528856460E+02  0.29999989697E+02 0.  0.
         12    1    1    2    0    0  0.76375104207E+01 -0.35887390070E+02 -0.17519407008E+02  0.40659143540E+02  0.00000000000E+00 0. -1.
         11    1    3    3    0    0  0.35533445029E+01 -0.37857894302E+00 -0.10486248001E+01  0.37241365985E+01  0.51100000000E-03 0. -1.
        -11    1    3    3    0    0 -0.14368080903E+02  0.26404718242E+02  0.62405004460E+01  0.30701705821E+02  0.51100000000E-03 0.  1.
        -12    1    3    3    0    0  0.31772259797E+01  0.98612507716E+01  0.12327531362E+02  0.16103014040E+02  0.00000000000E+00 0.  1.
</event>
<event>
 7    1  0.5897985E-013  0.5052887E+02  0.7816164E-02  0.1300439E+00
        -11   -1    0    0    0    0  0.00000000000E+00  0.00000000000E+00  0.45593999997E+02  0.45594000000E+02  0.51100000000E-03 0. -1.
         11   -1    0    0    0    0 -0.00000000000E+00 -0.00000000000E+00 -0.45593999997E+02  0.45594000000E+02  0.51100000000E-03 0.  1.
    9900012    2    1    2    0    0 -0.29417621359E+02 -0.22749624943E+02 -0.16438454249E+02  0.50528872371E+02  0.30000038058E+02 0.  0.
         12    1    1    2    0    0  0.29417621359E+02  0.22749624943E+02  0.16438454249E+02  0.40659127629E+02  0.00000000000E+00 0. -1.
         11    1    3    3    0    0 -0.10977908859E+02  0.11323178869E+01 -0.12241369152E+02  0.16481739765E+02  0.51100000000E-03 0. -1.
        -11    1    3    3    0    0 -0.14554169072E+02 -0.14791886845E+02  0.40860931780E+01  0.21149938807E+02  0.51100000000E-03 0.  1.
        -12    1    3    3    0    0 -0.38855434273E+01 -0.90900559844E+01 -0.82831782756E+01  0.12897193798E+02  0.00000000000E+00 0.  1.
</event>
<event>
 7    1  0.5897985E-013  0.5052888E+02  0.7816164E-02  0.1300439E+00
        -11   -1    0    0    0    0  0.00000000000E+00  0.00000000000E+00  0.45593999997E+02  0.45594000000E+02  0.51100000000E-03 0.  1.
         11   -1    0    0    0    0 -0.00000000000E+00 -0.00000000000E+00 -0.45593999997E+02  0.45594000000E+02  0.51100000000E-03 0. -1.
    9900012    2    1    2    0    0 -0.13830696934E+02  0.36284119967E+02  0.12055632989E+02  0.50528882619E+02  0.30000069209E+02 0.  0.
         12    1    1    2    0    0  0.13830696934E+02 -0.36284119967E+02 -0.12055632989E+02  0.40659117381E+02  0.00000000000E+00 0. -1.
         11    1    3    3    0    0 -0.33160401234E+01  0.21904838791E+02  0.11819868912E+02  0.25110304377E+02  0.51100000000E-03 0. -1.
        -11    1    3    3    0    0 -0.14184255873E+02  0.11631157328E+02  0.47879515741E+01  0.18957885325E+02  0.51100000000E-03 0.  1.
         12    1    3    3    0    0  0.36695990626E+01  0.27481238477E+01 -0.45521874966E+01  0.64606929169E+01  0.00000000000E+00 0. -1.
</event>
<event>
 7    1  0.5897985E-013  0.5052886E+02  0.7816164E-02  0.1300439E+00
        -11   -1    0    0    0    0  0.00000000000E+00  0.00000000000E+00  0.45593999997E+02  0.45594000000E+02  0.51100000000E-03 0. -1.
         11   -1    0    0    0    0 -0.00000000000E+00 -0.00000000000E+00 -0.45593999997E+02  0.45594000000E+02  0.51100000000E-03 0.  1.
    9900012    2    1    2    0    0  0.36730397094E+02  0.65024099933E+01  0.16179057675E+02  0.50528864327E+02  0.30000013609E+02 0.  0.
         12    1    1    2    0    0 -0.36730397094E+02 -0.65024099933E+01 -0.16179057675E+02  0.40659135673E+02  0.00000000000E+00 0. -1.
         11    1    3    3    0    0  0.99206651609E+01  0.90238680767E+01  0.16337963488E+02  0.21137143693E+02  0.51100000000E-03 0. -1.
        -11    1    3    3    0    0  0.20984978662E+02 -0.63867212977E+01  0.21237295385E+01  0.22037916549E+02  0.51100000000E-03 0.  1.
        -12    1    3    3    0    0  0.58247532704E+01  0.38652632143E+01 -0.22826353514E+01  0.73538040853E+01  0.00000000000E+00 0.  1.
</event>
<event>
 7    1  0.5897985E-013  0.5052887E+02  0.7816164E-02  0.1300439E+00
        -11   -1    0    0    0    0  0.00000000000E+00  0.00000000000E+00  0.45593999997E+02  0.45594000000E+02  0.51100000000E-03 0.  1.
         11   -1    0    0    0    0 -0.00000000000E+00 -0.00000000000E+00 -0.45593999997E+02  0.45594000000E+02  0.51100000000E-03 0. -1.
    9900012    2    1    2    0    0 -0.35701951406E+02 -0.13455357433E+01  0.19409416740E+02  0.50528865001E+02  0.30000015658E+02 0.  0.
         12    1    1    2    0    0  0.35701951406E+02  0.13455357433E+01 -0.19409416740E+02  0.40659134999E+02  0.00000000000E+00 0. -1.
         11    1    3    3    0    0 -0.19904245772E+00  0.38770800681E+01  0.12824465238E+01  0.40885250522E+01  0.51100000000E-03 0. -1.
        -11    1    3    3    0    0 -0.10788041274E+02 -0.12838061778E+02  0.88823076596E+01  0.18976118001E+02  0.51100000000E-03 0.  1.
        -12    1    3    3    0    0 -0.24714867674E+02  0.76154459669E+01  0.92446625568E+01  0.27464221948E+02  0.00000000000E+00 0.  1.
</event>
<event>
 7    1  0.5897985E-013  0.5052886E+02  0.7816164E-02  0.1300439E+00
        -11   -1    0    0    0    0  0.00000000000E+00  0.00000000000E+00  0.45593999997E+02  0.45594000000E+02  0.51100000000E-03 0. -1.
         11   -1    0    0    0    0 -0.00000000000E+00 -0.00000000000E+00 -0.45593999997E+02  0.45594000000E+02  0.51100000000E-03 0.  1.
    9900012    2    1    2    0    0 -0.10261142325E+02  0.39263086878E+02  0.25068982643E+01  0.50528861151E+02  0.30000003956E+02 0.  0.
         12    1    1    2    0    0  0.10261142325E+02 -0.39263086878E+02 -0.25068982643E+01  0.40659138849E+02  0.00000000000E+00 0. -1.
         11    1    3    3    0    0  0.35029016356E+01  0.89042382030E+01  0.76620998580E+01  0.12258203471E+02  0.51100000000E-03 0. -1.
        -11    1    3    3    0    0 -0.80529286568E+01  0.20407127778E+02 -0.11902913169E+02  0.24959564625E+02  0.51100000000E-03 0.  1.
        -12    1    3    3    0    0 -0.57111153042E+01  0.99517208964E+01  0.67477115752E+01  0.13311093055E+02  0.00000000000E+00 0.  1.
</event>
<event>
 7    1  0.5897985E-013  0.5052886E+02  0.7816164E-02  0.1300439E+00
        -11   -1    0    0    0    0  0.00000000000E+00  0.00000000000E+00  0.45593999997E+02  0.45594000000E+02  0.51100000000E-03 0. -1.
         11   -1    0    0    0    0 -0.00000000000E+00 -0.00000000000E+00 -0.45593999997E+02  0.45594000000E+02  0.51100000000E-03 0.  1.
    9900012    2    1    2    0    0  0.40434309936E+02 -0.19707514569E+01 -0.37879394646E+01  0.50528858756E+02  0.29999996675E+02 0.  0.
         12    1    1    2    0    0 -0.40434309936E+02  0.19707514569E+01  0.37879394646E+01  0.40659141244E+02  0.00000000000E+00 0. -1.
         11    1    3    3    0    0 -0.41275344484E+01  0.16189379802E+01 -0.16994190580E+01  0.47482129483E+01  0.51100000000E-03 0. -1.
        -11    1    3    3    0    0  0.11725103859E+02  0.14547135143E+01 -0.40785509898E+01  0.12499153186E+02  0.51100000000E-03 0.  1.
         12    1    3    3    0    0  0.32836740525E+02 -0.50444029514E+01  0.19900305832E+01  0.33281492622E+02  0.00000000000E+00 0. -1.
</event>
<event>
 7    1  0.5897985E-013  0.5052886E+02  0.7816164E-02  0.1300439E+00
        -11   -1    0    0    0    0  0.00000000000E+00  0.00000000000E+00  0.45593999997E+02  0.45594000000E+02  0.51100000000E-03 0.  1.
         11   -1    0    0    0    0 -0.00000000000E+00 -0.00000000000E+00 -0.45593999997E+02  0.45594000000E+02  0.51100000000E-03 0. -1.
    9900012    2    1    2    0    0 -0.22869997763E+02  0.26924044827E+02 -0.20130194753E+02  0.50528859228E+02  0.29999998110E+02 0.  0.
         12    1    1    2    0    0  0.22869997763E+02 -0.26924044827E+02  0.20130194753E+02  0.40659140772E+02  0.00000000000E+00 0. -1.
         11    1    3    3    0    0  0.20537408859E+01  0.12744902528E+02  0.26022116161E+01  0.13168974813E+02  0.51100000000E-03 0. -1.
        -11    1    3    3    0    0 -0.17682332980E+02  0.13490527815E+02 -0.15553279560E+02  0.27139707914E+02  0.51100000000E-03 0.  1.
         12    1    3    3    0    0 -0.72414056689E+01  0.68861448355E+00 -0.71791268086E+01  0.10220176501E+02  0.00000000000E+00 0. -1.
</event>
<event>
 7    1  0.5897985E-013  0.5052886E+02  0.7816164E-02  0.1300439E+00
        -11   -1    0    0    0    0  0.00000000000E+00  0.00000000000E+00  0.45593999997E+02  0.45594000000E+02  0.51100000000E-03 0. -1.
         11   -1    0    0    0    0 -0.00000000000E+00 -0.00000000000E+00 -0.45593999997E+02  0.45594000000E+02  0.51100000000E-03 0.  1.
    9900012    2    1    2    0    0 -0.39741326826E+02 -0.79684795279E+01 -0.32087170004E+01  0.50528860945E+02  0.30000003330E+02 0.  0.
         12    1    1    2    0    0  0.39741326826E+02  0.79684795279E+01  0.32087170004E+01  0.40659139055E+02  0.00000000000E+00 0. -1.
         11    1    3    3    0    0 -0.21492083090E+02  0.26741991987E+01 -0.98438845217E+01  0.23789977714E+02  0.51100000000E-03 0. -1.
        -11    1    3    3    0    0 -0.18479874921E+02 -0.12005736926E+02  0.22628153551E+01  0.22153190060E+02  0.51100000000E-03 0.  1.
         12    1    3    3    0    0  0.23063118504E+00  0.13630581992E+01  0.43723521662E+01  0.45856931715E+01  0.00000000000E+00 0. -1.
</event>
<event>
 7    1  0.5897985E-013  0.5052887E+02  0.7816164E-02  0.1300439E+00
        -11   -1    0    0    0    0  0.00000000000E+00  0.00000000000E+00  0.45593999997E+02  0.45594000000E+02  0.51100000000E-03 0.  1.
         11   -1    0    0    0    0 -0.00000000000E+00 -0.00000000000E+00 -0.45593999997E+02  0.45594000000E+02  0.51100000000E-03 0. -1.
    9900012    2    1    2    0    0  0.34681531661E+02 -0.13681439871E+02  0.16222662637E+02  0.50528865500E+02  0.30000017172E+02 0.  0.
         12    1    1    2    0    0 -0.34681531661E+02  0.13681439871E+02 -0.16222662637E+02  0.40659134500E+02  0.00000000000E+00 0. -1.
         11    1    3    3    0    0  0.35190578402E+01 -0.69836934163E+01 -0.52725768145E+01  0.94316386881E+01  0.51100000000E-03 0. -1.
        -11    1    3    3    0    0  0.60895152131E+01  0.27648782622E+01  0.97830492287E+01  0.11850518968E+02  0.51100000000E-03 0.  1.
         12    1    3    3    0    0  0.25072958608E+02 -0.94626247165E+01  0.11712190222E+02  0.29246707844E+02  0.00000000000E+00 0. -1.
</event>
<event>
 7    1  0.5897985E-013  0.5052886E+02  0.7816164E-02  0.1300439E+00
        -11   -1    0    0    0    0  0.00000000000E+00  0.00000000000E+00  0.45593999997E+02  0.45594000000E+02  0.51100000000E-03 0. -1.
         11   -1    0    0    0    0 -0.00000000000E+00 -0.00000000000E+00 -0.45593999997E+02  0.45594000000E+02  0.51100000000E-03 0.  1.
    9900012    2    1    2    0    0 -0.14054389294E+02 -0.24217971631E+02 -0.29481000653E+02  0.50528863169E+02  0.30000010088E+02 0.  0.
         12    1    1    2    0    0  0.14054389294E+02  0.24217971631E+02  0.29481000653E+02  0.40659136831E+02  0.00000000000E+00 0. -1.
         11    1    3    3    0    0 -0.76224343454E+01 -0.53332428510E+01 -0.28109498476E+02  0.29608932596E+02  0.51100000000E-03 0. -1.
        -11    1    3    3    0    0 -0.32612155406E+01 -0.16629203406E+02 -0.62278551825E+00  0.16957411205E+02  0.51100000000E-03 0.  1.
         12    1    3    3    0    0 -0.31707394080E+01 -0.22555253739E+01 -0.74871665933E+00  0.39625193680E+01  0.00000000000E+00 0. -1.
</event>
<event>
 7    1  0.5897985E-013  0.5052886E+02  0.7816164E-02  0.1300439E+00
        -11   -1    0    0    0    0  0.00000000000E+00  0.00000000000E+00  0.45593999997E+02  0.45594000000E+02  0.51100000000E-03 0.  1.
         11   -1    0    0    0    0 -0.00000000000E+00 -0.00000000000E+00 -0.45593999997E+02  0.45594000000E+02  0.51100000000E-03 0. -1.
    9900012    2    1    2    0    0  0.14470086903E+02 -0.16988976916E+02  0.33987600624E+02  0.50528858988E+02  0.29999997381E+02 0.  0.
         12    1    1    2    0    0 -0.14470086903E+02  0.16988976916E+02 -0.33987600624E+02  0.40659141012E+02  0.00000000000E+00 0. -1.
         11    1    3    3    0    0  0.26903168578E+01  0.49156868020E+01  0.14843866889E+02  0.15866384781E+02  0.51100000000E-03 0. -1.
        -11    1    3    3    0    0  0.57889919764E+01 -0.20443578072E+02  0.18985785042E+02  0.28494075637E+02  0.51100000000E-03 0.  1.
        -12    1    3    3    0    0  0.59907780687E+01 -0.14610856459E+01  0.15794869282E+00  0.61683985703E+01  0.00000000000E+00 0.  1.
</event>
<event>
 7    1  0.5897985E-013  0.5052886E+02  0.7816164E-02  0.1300439E+00
        -11   -1    0    0    0    0  0.00000000000E+00  0.00000000000E+00  0.45593999997E+02  0.45594000000E+02  0.51100000000E-03 0.  1.
         11   -1    0    0    0    0 -0.00000000000E+00 -0.00000000000E+00 -0.45593999997E+02  0.45594000000E+02  0.51100000000E-03 0. -1.
    9900012    2    1    2    0    0  0.34315013125E+02 -0.17531297335E+02 -0.12973015836E+02  0.50528860168E+02  0.30000000967E+02 0.  0.
         12    1    1    2    0    0 -0.34315013125E+02  0.17531297335E+02  0.12973015836E+02  0.40659139832E+02  0.00000000000E+00 0. -1.
         11    1    3    3    0    0  0.95292553104E+01 -0.17619972290E+02 -0.37640339056E+01  0.20382298246E+02  0.51100000000E-03 0. -1.
        -11    1    3    3    0    0  0.83917174916E+01  0.30037268204E+01  0.31031619156E+01  0.94378446377E+01  0.51100000000E-03 0.  1.
         12    1    3    3    0    0  0.16394040323E+02 -0.29150518651E+01 -0.12312143846E+02  0.20708717284E+02  0.00000000000E+00 0. -1.
</event>
<event>
 7    1  0.5897985E-013  0.5052886E+02  0.7816164E-02  0.1300439E+00
        -11   -1    0    0    0    0  0.00000000000E+00  0.00000000000E+00  0.45593999997E+02  0.45594000000E+02  0.51100000000E-03 0. -1.
         11   -1    0    0    0    0 -0.00000000000E+00 -0.00000000000E+00 -0.45593999997E+02  0.45594000000E+02  0.51100000000E-03 0.  1.
    9900012    2    1    2    0    0 -0.34654285418E+02 -0.20896566344E+02  0.39471437772E+01  0.50528856787E+02  0.29999990690E+02 0.  0.
         12    1    1    2    0    0  0.34654285418E+02  0.20896566344E+02 -0.39471437772E+01  0.40659143213E+02  0.00000000000E+00 0. -1.
         11    1    3    3    0    0 -0.11561696758E+02 -0.21383894722E+02 -0.59443545799E+01  0.25025569665E+02  0.51100000000E-03 0. -1.
        -11    1    3    3    0    0 -0.18005990740E+02 -0.11441130476E+01  0.65085162114E+01  0.19180340996E+02  0.51100000000E-03 0.  1.
         12    1    3    3    0    0 -0.50865979200E+01  0.16314414250E+01  0.33829821457E+01  0.63229461267E+01  0.00000000000E+00 0. -1.
</event>
<event>
 7    1  0.5897985E-013  0.5052883E+02  0.7816164E-02  0.1300439E+00
        -11   -1    0    0    0    0  0.00000000000E+00  0.00000000000E+00  0.45593999997E+02  0.45594000000E+02  0.51100000000E-03 0. -1.
         11   -1    0    0    0    0 -0.00000000000E+00 -0.00000000000E+00 -0.45593999997E+02  0.45594000000E+02  0.51100000000E-03 0.  1.
    9900012    2    1    2    0    0  0.21382560534E+02  0.17505394781E+02  0.29824750036E+02  0.50528825683E+02  0.29999896146E+02 0.  0.
         12    1    1    2    0    0 -0.21382560534E+02 -0.17505394781E+02 -0.29824750036E+02  0.40659174317E+02  0.00000000000E+00 0. -1.
         11    1    3    3    0    0  0.80168890909E+01 -0.84883450813E+00  0.17353912314E+02  0.19135028184E+02  0.51100000000E-03 0.  1.
        -11    1    3    3    0    0  0.37007618404E+01  0.20988135768E+01 -0.43494637147E+01  0.60842823321E+01  0.51100000000E-03 0. -1.
        -12    1    3    3    0    0  0.96649096030E+01  0.16255415712E+02  0.16820301436E+02  0.25309515168E+02  0.00000000000E+00 0.  1.
</event>
<event>
 7    1  0.5897985E-013  0.5052885E+02  0.7816164E-02  0.1300439E+00
        -11   -1    0    0    0    0  0.00000000000E+00  0.00000000000E+00  0.45593999997E+02  0.45594000000E+02  0.51100000000E-03 0.  1.
         11   -1    0    0    0    0 -0.00000000000E+00 -0.00000000000E+00 -0.45593999997E+02  0.45594000000E+02  0.51100000000E-03 0. -1.
    9900012    2    1    2    0    0 -0.12222929288E+02 -0.32456999257E+02  0.21220506038E+02  0.50528847554E+02  0.29999962624E+02 0.  0.
         12    1    1    2    0    0  0.12222929288E+02  0.32456999257E+02 -0.21220506038E+02  0.40659152446E+02  0.00000000000E+00 0. -1.
         11    1    3    3    0    0 -0.38236472889E+01  0.51619159089E+01  0.24952902217E+01  0.68914532569E+01  0.51100000000E-03 0. -1.
        -11    1    3    3    0    0 -0.40061527965E+01 -0.30733710598E+02  0.16767839397E+02  0.35238766517E+02  0.51100000000E-03 0.  1.
        -12    1    3    3    0    0 -0.43931292025E+01 -0.68852045684E+01  0.19573764194E+01  0.83986277799E+01  0.00000000000E+00 0.  1.
</event>
<event>
 7    1  0.5897985E-013  0.5052887E+02  0.7816164E-02  0.1300439E+00
        -11   -1    0    0    0    0  0.00000000000E+00  0.00000000000E+00  0.45593999997E+02  0.45594000000E+02  0.51100000000E-03 0.  1.
         11   -1    0    0    0    0 -0.00000000000E+00 -0.00000000000E+00 -0.45593999997E+02  0.45594000000E+02  0.51100000000E-03 0. -1.
    9900012    2    1    2    0    0  0.13625809068E+02  0.33922774761E+02  0.17797393426E+02  0.50528873927E+02  0.30000042789E+02 0.  0.
         12    1    1    2    0    0 -0.13625809068E+02 -0.33922774761E+02 -0.17797393426E+02  0.40659126073E+02  0.00000000000E+00 0. -1.
         11    1    3    3    0    0  0.91685167963E+01  0.15356204527E+02 -0.58134565643E+01  0.18806142486E+02  0.51100000000E-03 0. -1.
        -11    1    3    3    0    0 -0.22606679073E-01  0.15716928441E+02  0.15866534871E+02  0.22333143078E+02  0.51100000000E-03 0.  1.
        -12    1    3    3    0    0  0.44798989510E+01  0.28496417932E+01  0.77443151192E+01  0.93895883630E+01  0.00000000000E+00 0.  1.
</event>
<event>
 7    1  0.5897985E-013  0.5052885E+02  0.7816164E-02  0.1300439E+00
        -11   -1    0    0    0    0  0.00000000000E+00  0.00000000000E+00  0.45593999997E+02  0.45594000000E+02  0.51100000000E-03 0. -1.
         11   -1    0    0    0    0 -0.00000000000E+00 -0.00000000000E+00 -0.45593999997E+02  0.45594000000E+02  0.51100000000E-03 0.  1.
    9900012    2    1    2    0    0  0.23296274239E+02  0.95705557638E+01 -0.31919496529E+02  0.50528853554E+02  0.29999980862E+02 0.  0.
         12    1    1    2    0    0 -0.23296274239E+02 -0.95705557638E+01  0.31919496529E+02  0.40659146446E+02  0.00000000000E+00 0. -1.
         11    1    3    3    0    0 -0.49830770422E+01  0.27054196571E+01 -0.37315221064E+01  0.67878280636E+01  0.51100000000E-03 0. -1.
        -11    1    3    3    0    0  0.25869362528E+02  0.78989582351E+01 -0.30120976404E+02  0.40483214776E+02  0.51100000000E-03 0.  1.
        -12    1    3    3    0    0  0.24099887538E+01 -0.10338221284E+01  0.19330019819E+01  0.32578107140E+01  0.00000000000E+00 0.  1.
</event>
<event>
 7    1  0.5897985E-013  0.5052886E+02  0.7816164E-02  0.1300439E+00
        -11   -1    0    0    0    0  0.00000000000E+00  0.00000000000E+00  0.45593999997E+02  0.45594000000E+02  0.51100000000E-03 0.  1.
         11   -1    0    0    0    0 -0.00000000000E+00 -0.00000000000E+00 -0.45593999997E+02  0.45594000000E+02  0.51100000000E-03 0. -1.
    9900012    2    1    2    0    0  0.13771393464E+02  0.29772413362E+02  0.24023270784E+02  0.50528863087E+02  0.30000009839E+02 0.  0.
         12    1    1    2    0    0 -0.13771393464E+02 -0.29772413362E+02 -0.24023270784E+02  0.40659136913E+02  0.00000000000E+00 0. -1.
         11    1    3    3    0    0  0.40725344554E+01 -0.12457733748E+01 -0.29133813627E+01  0.51599689356E+01  0.51100000000E-03 0. -1.
        -11    1    3    3    0    0  0.37184879119E+01  0.22694551860E+02  0.26532192091E+02  0.35111637016E+02  0.51100000000E-03 0.  1.
        -12    1    3    3    0    0  0.59803710972E+01  0.83236348763E+01  0.40446005574E+00  0.10257257136E+02  0.00000000000E+00 0.  1.
</event>
<event>
 7    1  0.5897985E-013  0.5052887E+02  0.7816164E-02  0.1300439E+00
        -11   -1    0    0    0    0  0.00000000000E+00  0.00000000000E+00  0.45593999997E+02  0.45594000000E+02  0.51100000000E-03 0. -1.
         11   -1    0    0    0    0 -0.00000000000E+00 -0.00000000000E+00 -0.45593999997E+02  0.45594000000E+02  0.51100000000E-03 0.  1.
    9900012    2    1    2    0    0  0.25604011353E+02  0.17707633709E+02 -0.26154146724E+02  0.50528867203E+02  0.30000022351E+02 0.  0.
         12    1    1    2    0    0 -0.25604011353E+02 -0.17707633709E+02  0.26154146724E+02  0.40659132797E+02  0.00000000000E+00 0. -1.
         11    1    3    3    0    0  0.16356157689E+02 -0.50586980186E+01 -0.14413173891E+02  0.22379765456E+02  0.51100000000E-03 0. -1.
        -11    1    3    3    0    0  0.69829291770E+01  0.78927137133E+01 -0.48933958140E+01  0.11619016848E+02  0.51100000000E-03 0.  1.
         12    1    3    3    0    0  0.22649244866E+01  0.14873618014E+02 -0.68475770195E+01  0.16530084900E+02  0.00000000000E+00 0. -1.
</event>
<event>
 7    1  0.5897985E-013  0.5052886E+02  0.7816164E-02  0.1300439E+00
        -11   -1    0    0    0    0  0.00000000000E+00  0.00000000000E+00  0.45593999997E+02  0.45594000000E+02  0.51100000000E-03 0.  1.
         11   -1    0    0    0    0 -0.00000000000E+00 -0.00000000000E+00 -0.45593999997E+02  0.45594000000E+02  0.51100000000E-03 0. -1.
    9900012    2    1    2    0    0 -0.14843256795E+02  0.24225356181E+02  0.29085663718E+02  0.50528856031E+02  0.29999988390E+02 0.  0.
         12    1    1    2    0    0  0.14843256795E+02 -0.24225356181E+02 -0.29085663718E+02  0.40659143969E+02  0.00000000000E+00 0. -1.
         11    1    3    3    0    0 -0.65219772180E+01 -0.34159192834E+01  0.89907176862E+01  0.11620572110E+02  0.51100000000E-03 0.  1.
        -11    1    3    3    0    0  0.17853374429E+01  0.13943926415E+02  0.16194303688E+02  0.21444719300E+02  0.51100000000E-03 0. -1.
         12    1    3    3    0    0 -0.10106617020E+02  0.13697349050E+02  0.39006423444E+01  0.17463564621E+02  0.00000000000E+00 0. -1.
</event>
<event>
 7    1  0.5897985E-013  0.5052885E+02  0.7816164E-02  0.1300439E+00
        -11   -1    0    0    0    0  0.00000000000E+00  0.00000000000E+00  0.45593999997E+02  0.45594000000E+02  0.51100000000E-03 0.  1.
         11   -1    0    0    0    0 -0.00000000000E+00 -0.00000000000E+00 -0.45593999997E+02  0.45594000000E+02  0.51100000000E-03 0. -1.
    9900012    2    1    2    0    0  0.24014972995E+02 -0.12241101010E+01  0.32786415582E+02  0.50528850720E+02  0.29999972248E+02 0.  0.
         12    1    1    2    0    0 -0.24014972995E+02  0.12241101010E+01 -0.32786415582E+02  0.40659149280E+02  0.00000000000E+00 0. -1.
         11    1    3    3    0    0 -0.55332411589E+01  0.47827956013E+01  0.87809708044E+01  0.11427919321E+02  0.51100000000E-03 0. -1.
        -11    1    3    3    0    0  0.21345577334E+02 -0.71938719554E+01  0.18529579089E+02  0.29167289330E+02  0.51100000000E-03 0.  1.
        -12    1    3    3    0    0  0.82026368206E+01  0.11869662531E+01  0.54758656886E+01  0.99336420680E+01  0.00000000000E+00 0.  1.
</event>
<event>
 7    1  0.5897985E-013  0.5052884E+02  0.7816164E-02  0.1300439E+00
        -11   -1    0    0    0    0  0.00000000000E+00  0.00000000000E+00  0.45593999997E+02  0.45594000000E+02  0.51100000000E-03 0. -1.
         11   -1    0    0    0    0 -0.00000000000E+00 -0.00000000000E+00 -0.45593999997E+02  0.45594000000E+02  0.51100000000E-03 0.  1.
    9900012    2    1    2    0    0 -0.27179342555E+02 -0.30196484909E+02  0.16196205218E+01  0.50528837032E+02  0.29999930643E+02 0.  0.
         12    1    1    2    0    0  0.27179342555E+02  0.30196484909E+02 -0.16196205218E+01  0.40659162968E+02  0.00000000000E+00 0. -1.
         11    1    3    3    0    0 -0.11293906757E+01 -0.99835324536E+01 -0.84590003944E+01  0.13133968611E+02  0.51100000000E-03 0. -1.
        -11    1    3    3    0    0 -0.20640916412E+02 -0.94700192639E+01  0.11187998030E+02  0.25316002752E+02  0.51100000000E-03 0.  1.
        -12    1    3    3    0    0 -0.54090354678E+01 -0.10742933192E+02 -0.11093771138E+01  0.12078865668E+02  0.00000000000E+00 0.  1.
</event>
<event>
 7    1  0.5897985E-013  0.5052886E+02  0.7816164E-02  0.1300439E+00
        -11   -1    0    0    0    0  0.00000000000E+00  0.00000000000E+00  0.45593999997E+02  0.45594000000E+02  0.51100000000E-03 0. -1.
         11   -1    0    0    0    0 -0.00000000000E+00 -0.00000000000E+00 -0.45593999997E+02  0.45594000000E+02  0.51100000000E-03 0.  1.
    9900012    2    1    2    0    0 -0.69033803473E+00  0.39413274535E+02  0.99640624916E+01  0.50528864280E+02  0.30000013465E+02 0.  0.
         12    1    1    2    0    0  0.69033803473E+00 -0.39413274535E+02 -0.99640624916E+01  0.40659135720E+02  0.00000000000E+00 0. -1.
         11    1    3    3    0    0  0.11386470144E+02  0.18594128021E+02  0.63272531638E+01  0.22703026936E+02  0.51100000000E-03 0. -1.
        -11    1    3    3    0    0 -0.13033590120E+02  0.92788780414E+01  0.17756052458E+01  0.16097354546E+02  0.51100000000E-03 0.  1.
        -12    1    3    3    0    0  0.95678194164E+00  0.11540268473E+02  0.18612040819E+01  0.11728482798E+02  0.00000000000E+00 0.  1.
</event>
<event>
 7    1  0.5897985E-013  0.5052883E+02  0.7816164E-02  0.1300439E+00
        -11   -1    0    0    0    0  0.00000000000E+00  0.00000000000E+00  0.45593999997E+02  0.45594000000E+02  0.51100000000E-03 0. -1.
         11   -1    0    0    0    0 -0.00000000000E+00 -0.00000000000E+00 -0.45593999997E+02  0.45594000000E+02  0.51100000000E-03 0.  1.
    9900012    2    1    2    0    0  0.27340983896E+02 -0.10009741621E+02 -0.28380338281E+02  0.50528832170E+02  0.29999915864E+02 0.  0.
         12    1    1    2    0    0 -0.27340983896E+02  0.10009741621E+02  0.28380338281E+02  0.40659167830E+02  0.00000000000E+00 0. -1.
         11    1    3    3    0    0  0.92593702704E+01  0.18884915162E+01 -0.14414033972E+02  0.17235623389E+02  0.51100000000E-03 0. -1.
        -11    1    3    3    0    0  0.16710900582E+02 -0.14609967650E+02 -0.35952870921E+01  0.22486250077E+02  0.51100000000E-03 0.  1.
        -12    1    3    3    0    0  0.13707130437E+01  0.27117345130E+01 -0.10371017217E+02  0.10806958704E+02  0.00000000000E+00 0.  1.
</event>
<event>
 7    1  0.6303790E-013  0.5052886E+02  0.7816164E-02  0.1300439E+00
        -11   -1    0    0    0    0  0.00000000000E+00  0.00000000000E+00  0.45593999997E+02  0.45594000000E+02  0.51100000000E-03 0.  1.
         11   -1    0    0    0    0 -0.00000000000E+00 -0.00000000000E+00 -0.45593999997E+02  0.45594000000E+02  0.51100000000E-03 0. -1.
    9900012    2    1    2    0    0 -0.44466390645E+01  0.39164282471E+02  0.99775877161E+01  0.50528857399E+02  0.29999992549E+02 0.  0.
         12    1    1    2    0    0  0.44466390645E+01 -0.39164282471E+02 -0.99775877161E+01  0.40659142601E+02  0.00000000000E+00 0. -1.
         11    1    3    3    0    0 -0.13823664548E+01 -0.92708781963E+00 -0.51049308287E+01  0.53694271452E+01  0.51100000000E-03 0. -1.
        -11    1    3    3    0    0 -0.33922581110E+01  0.17335269517E+02  0.13708761138E+02  0.22359541957E+02  0.51100000000E-03 0.  1.
        -12    1    3    3    0    0  0.32798550117E+00  0.22756100774E+02  0.13737574067E+01  0.22799888296E+02  0.00000000000E+00 0.  1.
</event>
<event>
 7    1  0.5897985E-013  0.5052886E+02  0.7816164E-02  0.1300439E+00
        -11   -1    0    0    0    0  0.00000000000E+00  0.00000000000E+00  0.45593999997E+02  0.45594000000E+02  0.51100000000E-03 0.  1.
         11   -1    0    0    0    0 -0.00000000000E+00 -0.00000000000E+00 -0.45593999997E+02  0.45594000000E+02  0.51100000000E-03 0. -1.
    9900012    2    1    2    0    0  0.10713163851E+02  0.17052681901E+02  0.35321381067E+02  0.50528858344E+02  0.29999995421E+02 0.  0.
         12    1    1    2    0    0 -0.10713163851E+02 -0.17052681901E+02 -0.35321381067E+02  0.40659141656E+02  0.00000000000E+00 0. -1.
         11    1    3    3    0    0  0.85145793281E+01  0.17942627563E+01  0.13881801061E+01  0.88116107632E+01  0.51100000000E-03 0. -1.
        -11    1    3    3    0    0 -0.58815463267E+01  0.14225179893E+02  0.17043892316E+02  0.22966118430E+02  0.51100000000E-03 0.  1.
        -12    1    3    3    0    0  0.80801308501E+01  0.10332392512E+01  0.16889308645E+02  0.18751129151E+02  0.00000000000E+00 0.  1.
</event>
<event>
 7    1  0.5897985E-013  0.5052886E+02  0.7816164E-02  0.1300439E+00
        -11   -1    0    0    0    0  0.00000000000E+00  0.00000000000E+00  0.45593999997E+02  0.45594000000E+02  0.51100000000E-03 0. -1.
         11   -1    0    0    0    0 -0.00000000000E+00 -0.00000000000E+00 -0.45593999997E+02  0.45594000000E+02  0.51100000000E-03 0.  1.
    9900012    2    1    2    0    0  0.43001339077E+01  0.37047869274E+02 -0.16190428535E+02  0.50528859016E+02  0.29999997466E+02 0.  0.
         12    1    1    2    0    0 -0.43001339077E+01 -0.37047869274E+02  0.16190428535E+02  0.40659140984E+02  0.00000000000E+00 0. -1.
         11    1    3    3    0    0  0.46921174761E+01 -0.13202107032E+01  0.37086302659E+01  0.61247743976E+01  0.51100000000E-03 0. -1.
        -11    1    3    3    0    0  0.39367293861E+01  0.26229411294E+02 -0.15837369183E+02  0.30891780752E+02  0.51100000000E-03 0.  1.
         12    1    3    3    0    0 -0.43287129545E+01  0.12138668683E+02 -0.40616896178E+01  0.13512303867E+02  0.00000000000E+00 0. -1.
</event>
<event>
 7    1  0.5897985E-013  0.5052885E+02  0.7816164E-02  0.1300439E+00
        -11   -1    0    0    0    0  0.00000000000E+00  0.00000000000E+00  0.45593999997E+02  0.45594000000E+02  0.51100000000E-03 0. -1.
         11   -1    0    0    0    0 -0.00000000000E+00 -0.00000000000E+00 -0.45593999997E+02  0.45594000000E+02  0.51100000000E-03 0.  1.
    9900012    2    1    2    0    0 -0.23936568507E+02 -0.31760841503E+02  0.84531567924E+01  0.50528853125E+02  0.29999979557E+02 0.  0.
         12    1    1    2    0    0  0.23936568507E+02  0.31760841503E+02 -0.84531567924E+01  0.40659146875E+02  0.00000000000E+00 0. -1.
         11    1    3    3    0    0 -0.76658266973E+01 -0.29400211761E+02  0.13082809161E+02  0.33080163941E+02  0.51100000000E-03 0. -1.
        -11    1    3    3    0    0 -0.93585583031E+01  0.43143573186E+00 -0.25756018937E+01  0.97160936430E+01  0.51100000000E-03 0.  1.
         12    1    3    3    0    0 -0.69121835071E+01 -0.27920654738E+01 -0.20540504748E+01  0.77325955409E+01  0.00000000000E+00 0. -1.
</event>
<event>
 7    1  0.5897985E-013  0.5052887E+02  0.7816164E-02  0.1300439E+00
        -11   -1    0    0    0    0  0.00000000000E+00  0.00000000000E+00  0.45593999997E+02  0.45594000000E+02  0.51100000000E-03 0.  1.
         11   -1    0    0    0    0 -0.00000000000E+00 -0.00000000000E+00 -0.45593999997E+02  0.45594000000E+02  0.51100000000E-03 0. -1.
    9900012    2    1    2    0    0  0.37345317362E+02 -0.11698078548E+02  0.11029362787E+02  0.50528872930E+02  0.30000039759E+02 0.  0.
         12    1    1    2    0    0 -0.37345317362E+02  0.11698078548E+02 -0.11029362787E+02  0.40659127070E+02  0.00000000000E+00 0. -1.
         11    1    3    3    0    0  0.99053754391E+01  0.40493356023E+01  0.25107974567E+01  0.10991709855E+02  0.51100000000E-03 0. -1.
        -11    1    3    3    0    0  0.67010883835E+01 -0.12709141746E+02  0.11451266567E+02  0.18372761788E+02  0.51100000000E-03 0.  1.
        -12    1    3    3    0    0  0.20738853539E+02 -0.30382724038E+01 -0.29327012368E+01  0.21164401288E+02  0.00000000000E+00 0.  1.
</event>
<event>
 7    1  0.5897985E-013  0.5052881E+02  0.7816164E-02  0.1300439E+00
        -11   -1    0    0    0    0  0.00000000000E+00  0.00000000000E+00  0.45593999997E+02  0.45594000000E+02  0.51100000000E-03 0. -1.
         11   -1    0    0    0    0 -0.00000000000E+00 -0.00000000000E+00 -0.45593999997E+02  0.45594000000E+02  0.51100000000E-03 0.  1.
    9900012    2    1    2    0    0  0.15077065168E+02 -0.37279917967E+02 -0.60049671813E+01  0.50528809052E+02  0.29999845594E+02 0.  0.
         12    1    1    2    0    0 -0.15077065168E+02  0.37279917967E+02  0.60049671813E+01  0.40659190948E+02  0.00000000000E+00 0. -1.
         11    1    3    3    0    0  0.13153305820E+02 -0.17782960967E+01 -0.61771502470E+01  0.14639978703E+02  0.51100000000E-03 0. -1.
        -11    1    3    3    0    0 -0.99142348083E+00 -0.23532666364E+02  0.62220691771E+00  0.23561758178E+02  0.51100000000E-03 0.  1.
         12    1    3    3    0    0  0.29151828293E+01 -0.11968955506E+02 -0.45002385200E+00  0.12327072171E+02  0.00000000000E+00 0. -1.
</event>
<event>
 7    1  0.5897985E-013  0.5052887E+02  0.7816164E-02  0.1300439E+00
        -11   -1    0    0    0    0  0.00000000000E+00  0.00000000000E+00  0.45593999997E+02  0.45594000000E+02  0.51100000000E-03 0. -1.
         11   -1    0    0    0    0 -0.00000000000E+00 -0.00000000000E+00 -0.45593999997E+02  0.45594000000E+02  0.51100000000E-03 0.  1.
    9900012    2    1    2    0    0  0.65108534045E+01  0.19107403177E+02 -0.35294199992E+02  0.50528872842E+02  0.30000039489E+02 0.  0.
         12    1    1    2    0    0 -0.65108534045E+01 -0.19107403177E+02  0.35294199992E+02  0.40659127158E+02  0.00000000000E+00 0. -1.
         11    1    3    3    0    0  0.16222654764E+02  0.75113103087E+01 -0.15467578470E+02  0.23639803175E+02  0.51100000000E-03 0. -1.
        -11    1    3    3    0    0 -0.41952389002E+01  0.83502429670E+01 -0.17920476410E+02  0.20210642297E+02  0.51100000000E-03 0.  1.
         12    1    3    3    0    0 -0.55165624593E+01  0.32458499011E+01 -0.19061451119E+01  0.66784273699E+01  0.00000000000E+00 0. -1.
</event>
<event>
 7    1  0.5897985E-013  0.5052885E+02  0.7816164E-02  0.1300439E+00
        -11   -1    0    0    0    0  0.00000000000E+00  0.00000000000E+00  0.45593999997E+02  0.45594000000E+02  0.51100000000E-03 0.  1.
         11   -1    0    0    0    0 -0.00000000000E+00 -0.00000000000E+00 -0.45593999997E+02  0.45594000000E+02  0.51100000000E-03 0. -1.
    9900012    2    1    2    0    0 -0.26537884579E+02 -0.30796848097E+02 -0.67896938153E+00  0.50528853795E+02  0.29999981596E+02 0.  0.
         12    1    1    2    0    0  0.26537884579E+02  0.30796848097E+02  0.67896938153E+00  0.40659146205E+02  0.00000000000E+00 0. -1.
         11    1    3    3    0    0 -0.72208181643E+01 -0.17433296256E+01 -0.83152924470E+00  0.74746808822E+01  0.51100000000E-03 0. -1.
        -11    1    3    3    0    0 -0.22358361898E+02 -0.19856869336E+02 -0.73604459885E+01  0.30795580398E+02  0.51100000000E-03 0.  1.
         12    1    3    3    0    0  0.30412954833E+01 -0.91966491354E+01  0.75130058517E+01  0.12258592516E+02  0.00000000000E+00 0. -1.
</event>
<event>
 7    1  0.5897985E-013  0.5052886E+02  0.7816164E-02  0.1300439E+00
        -11   -1    0    0    0    0  0.00000000000E+00  0.00000000000E+00  0.45593999997E+02  0.45594000000E+02  0.51100000000E-03 0. -1.
         11   -1    0    0    0    0 -0.00000000000E+00 -0.00000000000E+00 -0.45593999997E+02  0.45594000000E+02  0.51100000000E-03 0.  1.
    9900012    2    1    2    0    0 -0.26530228596E+02  0.20307198095E+02 -0.23171755187E+02  0.50528861270E+02  0.30000004317E+02 0.  0.
         12    1    1    2    0    0  0.26530228596E+02 -0.20307198095E+02  0.23171755187E+02  0.40659138730E+02  0.00000000000E+00 0. -1.
         11    1    3    3    0    0 -0.38553451910E+01  0.54895347630E+01 -0.38452724554E+00  0.67191174956E+01  0.51100000000E-03 0. -1.
        -11    1    3    3    0    0  0.23974204021E+01 -0.48427089844E+01 -0.47644525746E+01  0.72041282254E+01  0.51100000000E-03 0.  1.
        -12    1    3    3    0    0 -0.25072303807E+02  0.19660372316E+02 -0.18022775367E+02  0.36605615549E+02  0.00000000000E+00 0.  1.
</event>
<event>
 7    1  0.5897985E-013  0.5052886E+02  0.7816164E-02  0.1300439E+00
        -11   -1    0    0    0    0  0.00000000000E+00  0.00000000000E+00  0.45593999997E+02  0.45594000000E+02  0.51100000000E-03 0.  1.
         11   -1    0    0    0    0 -0.00000000000E+00 -0.00000000000E+00 -0.45593999997E+02  0.45594000000E+02  0.51100000000E-03 0. -1.
    9900012    2    1    2    0    0  0.50519118977E+01 -0.13915136175E+02  0.37868359895E+02  0.50528861916E+02  0.30000006281E+02 0.  0.
         12    1    1    2    0    0 -0.50519118977E+01  0.13915136175E+02 -0.37868359895E+02  0.40659138084E+02  0.00000000000E+00 0. -1.
         11    1    3    3    0    0  0.10272648743E+02 -0.38132896376E+01  0.24067673334E+01  0.11218779761E+02  0.51100000000E-03 0. -1.
        -11    1    3    3    0    0 -0.85404065179E+01 -0.50685149013E+01  0.28047021483E+02  0.29753383020E+02  0.51100000000E-03 0.  1.
         12    1    3    3    0    0  0.33196696724E+01 -0.50333316363E+01  0.74145710779E+01  0.95566991354E+01  0.00000000000E+00 0. -1.
</event>
<event>
 7    1  0.5897985E-013  0.5052886E+02  0.7816164E-02  0.1300439E+00
        -11   -1    0    0    0    0  0.00000000000E+00  0.00000000000E+00  0.45593999997E+02  0.45594000000E+02  0.51100000000E-03 0.  1.
         11   -1    0    0    0    0 -0.00000000000E+00 -0.00000000000E+00 -0.45593999997E+02  0.45594000000E+02  0.51100000000E-03 0. -1.
    9900012    2    1    2    0    0 -0.34415131696E+02  0.52745350429E+01  0.20998657930E+02  0.50528860260E+02  0.30000001245E+02 0.  0.
         12    1    1    2    0    0  0.34415131696E+02 -0.52745350429E+01 -0.20998657930E+02  0.40659139740E+02  0.00000000000E+00 0. -1.
         11    1    3    3    0    0 -0.18392354961E+02  0.13997701485E+01  0.87796586482E+01  0.20428423427E+02  0.51100000000E-03 0. -1.
        -11    1    3    3    0    0 -0.46674747636E+01 -0.70933596672E+01 -0.21433059566E+01  0.87575586051E+01  0.51100000000E-03 0.  1.
        -12    1    3    3    0    0 -0.11355301971E+02  0.10968124562E+02  0.14362305239E+02  0.21342878227E+02  0.00000000000E+00 0.  1.
</event>
<event>
 7    1  0.5897985E-013  0.5052886E+02  0.7816164E-02  0.1300439E+00
        -11   -1    0    0    0    0  0.00000000000E+00  0.00000000000E+00  0.45593999997E+02  0.45594000000E+02  0.51100000000E-03 0. -1.
         11   -1    0    0    0    0 -0.00000000000E+00 -0.00000000000E+00 -0.45593999997E+02  0.45594000000E+02  0.51100000000E-03 0.  1.
    9900012    2    1    2    0    0 -0.32606077250E+02 -0.73154610659E+01  0.23162331965E+02  0.50528857531E+02  0.29999992952E+02 0.  0.
         12    1    1    2    0    0  0.32606077250E+02  0.73154610659E+01 -0.23162331965E+02  0.40659142469E+02  0.00000000000E+00 0. -1.
         11    1    3    3    0    0  0.99730467629E+00 -0.47307745372E+01 -0.12036219031E+01  0.49823237837E+01  0.51100000000E-03 0. -1.
        -11    1    3    3    0    0 -0.33675811609E+02 -0.32082836738E+01  0.16468189410E+02  0.37623857250E+02  0.51100000000E-03 0.  1.
        -12    1    3    3    0    0  0.72429682464E-01  0.62359714505E+00  0.78977644578E+01  0.79226764978E+01  0.00000000000E+00 0.  1.
</event>
<event>
 7    1  0.5897985E-013  0.5052885E+02  0.7816164E-02  0.1300439E+00
        -11   -1    0    0    0    0  0.00000000000E+00  0.00000000000E+00  0.45593999997E+02  0.45594000000E+02  0.51100000000E-03 0.  1.
         11   -1    0    0    0    0 -0.00000000000E+00 -0.00000000000E+00 -0.45593999997E+02  0.45594000000E+02  0.51100000000E-03 0. -1.
    9900012    2    1    2    0    0 -0.19771436057E+02 -0.34686847026E+02  0.76862890665E+01  0.50528854904E+02  0.29999984965E+02 0.  0.
         12    1    1    2    0    0  0.19771436057E+02  0.34686847026E+02 -0.76862890665E+01  0.40659145096E+02  0.00000000000E+00 0. -1.
         11    1    3    3    0    0 -0.40854124255E+01 -0.26016042535E+02  0.35346946026E+01  0.26571020494E+02  0.51100000000E-03 0. -1.
        -11    1    3    3    0    0 -0.13016399042E+02  0.14556617844E+01  0.28586158115E+01  0.13405867367E+02  0.51100000000E-03 0.  1.
        -12    1    3    3    0    0 -0.26696245897E+01 -0.10126466275E+02  0.12929786523E+01  0.10551967042E+02  0.00000000000E+00 0.  1.
</event>
<event>
 7    1  0.5897985E-013  0.5052886E+02  0.7816164E-02  0.1300439E+00
        -11   -1    0    0    0    0  0.00000000000E+00  0.00000000000E+00  0.45593999997E+02  0.45594000000E+02  0.51100000000E-03 0.  1.
         11   -1    0    0    0    0 -0.00000000000E+00 -0.00000000000E+00 -0.45593999997E+02  0.45594000000E+02  0.51100000000E-03 0. -1.
    9900012    2    1    2    0    0  0.62546514080E+01  0.40175135033E+02  0.60229153590E-01  0.50528858756E+02  0.29999996675E+02 0.  0.
         12    1    1    2    0    0 -0.62546514080E+01 -0.40175135033E+02 -0.60229153590E-01  0.40659141244E+02  0.00000000000E+00 0. -1.
         11    1    3    3    0    0  0.10099464516E+02  0.15072027243E+02 -0.96607545839E+01  0.20554692119E+02  0.51100000000E-03 0. -1.
        -11    1    3    3    0    0  0.52702203218E+00  0.21042868123E+02  0.34713697422E+01  0.21333786799E+02  0.51100000000E-03 0.  1.
         12    1    3    3    0    0 -0.43718351401E+01  0.40602396672E+01  0.62496139953E+01  0.86403798376E+01  0.00000000000E+00 0. -1.
</event>
<event>
 7    1  0.5897985E-013  0.5052885E+02  0.7816164E-02  0.1300439E+00
        -11   -1    0    0    0    0  0.00000000000E+00  0.00000000000E+00  0.45593999997E+02  0.45594000000E+02  0.51100000000E-03 0. -1.
         11   -1    0    0    0    0 -0.00000000000E+00 -0.00000000000E+00 -0.45593999997E+02  0.45594000000E+02  0.51100000000E-03 0.  1.
    9900012    2    1    2    0    0 -0.31426230045E+02  0.51633029157E+01  0.25276446126E+02  0.50528851452E+02  0.29999974475E+02 0.  0.
         12    1    1    2    0    0  0.31426230045E+02 -0.51633029157E+01 -0.25276446126E+02  0.40659148548E+02  0.00000000000E+00 0. -1.
         11    1    3    3    0    0 -0.26804260681E+02  0.23036883420E+01  0.29678756698E+02  0.40057508285E+02  0.51100000000E-03 0.  1.
        -11    1    3    3    0    0  0.11387178023E+00 -0.23602206720E+01 -0.50063794497E+00  0.24154186006E+01  0.51100000000E-03 0. -1.
         12    1    3    3    0    0 -0.47358411443E+01  0.52198352457E+01 -0.39016726267E+01  0.80559245666E+01  0.00000000000E+00 0. -1.
</event>
<event>
 7    1  0.5897985E-013  0.5052886E+02  0.7816164E-02  0.1300439E+00
        -11   -1    0    0    0    0  0.00000000000E+00  0.00000000000E+00  0.45593999997E+02  0.45594000000E+02  0.51100000000E-03 0.  1.
         11   -1    0    0    0    0 -0.00000000000E+00 -0.00000000000E+00 -0.45593999997E+02  0.45594000000E+02  0.51100000000E-03 0. -1.
    9900012    2    1    2    0    0  0.45770479345E+00 -0.40451988719E+02  0.40734402686E+01  0.50528858339E+02  0.29999995408E+02 0.  0.
         12    1    1    2    0    0 -0.45770479345E+00  0.40451988719E+02 -0.40734402686E+01  0.40659141661E+02  0.00000000000E+00 0. -1.
         11    1    3    3    0    0  0.89728034154E+00  0.10705882958E+01 -0.63640125673E+01  0.65155143717E+01  0.51100000000E-03 0. -1.
        -11    1    3    3    0    0 -0.10876250007E+01 -0.39806808610E+02  0.12014340852E+02  0.41594582895E+02  0.51100000000E-03 0.  1.
        -12    1    3    3    0    0  0.64804945265E+00 -0.17157684042E+01 -0.15768880158E+01  0.24187610722E+01  0.00000000000E+00 0.  1.
</event>
<event>
 7    1  0.5897985E-013  0.5052886E+02  0.7816164E-02  0.1300439E+00
        -11   -1    0    0    0    0  0.00000000000E+00  0.00000000000E+00  0.45593999997E+02  0.45594000000E+02  0.51100000000E-03 0.  1.
         11   -1    0    0    0    0 -0.00000000000E+00 -0.00000000000E+00 -0.45593999997E+02  0.45594000000E+02  0.51100000000E-03 0. -1.
    9900012    2    1    2    0    0 -0.21527840185E+02  0.24349659281E+02 -0.24429731227E+02  0.50528861076E+02  0.30000003728E+02 0.  0.
         12    1    1    2    0    0  0.21527840185E+02 -0.24349659281E+02  0.24429731227E+02  0.40659138924E+02  0.00000000000E+00 0. -1.
         11    1    3    3    0    0  0.78146107589E+00 -0.39378743081E+01 -0.51891235769E+01  0.65608337304E+01  0.51100000000E-03 0. -1.
        -11    1    3    3    0    0 -0.17812255549E+02  0.14945924082E+02 -0.18767357072E+02  0.29880943528E+02  0.51100000000E-03 0.  1.
         12    1    3    3    0    0 -0.44970457125E+01  0.13341609507E+02 -0.47325057839E+00  0.14087083818E+02  0.00000000000E+00 0. -1.
</event>
<event>
 7    1  0.5897985E-013  0.5052883E+02  0.7816164E-02  0.1300439E+00
        -11   -1    0    0    0    0  0.00000000000E+00  0.00000000000E+00  0.45593999997E+02  0.45594000000E+02  0.51100000000E-03 0.  1.
         11   -1    0    0    0    0 -0.00000000000E+00 -0.00000000000E+00 -0.45593999997E+02  0.45594000000E+02  0.51100000000E-03 0. -1.
    9900012    2    1    2    0    0 -0.51047706485E+01 -0.21512140847E+02  0.34122381605E+02  0.50528833585E+02  0.29999920163E+02 0.  0.
         12    1    1    2    0    0  0.51047706485E+01  0.21512140847E+02 -0.34122381605E+02  0.40659166415E+02  0.00000000000E+00 0. -1.
         11    1    3    3    0    0 -0.19499777241E+00  0.22501384638E+01 -0.17641964580E+01  0.28659268380E+01  0.51100000000E-03 0. -1.
        -11    1    3    3    0    0 -0.11420024528E+02 -0.19898455613E+02  0.21682617888E+02  0.31567410644E+02  0.51100000000E-03 0.  1.
        -12    1    3    3    0    0  0.65102516517E+01 -0.38638236969E+01  0.14203960175E+02  0.16095496102E+02  0.00000000000E+00 0.  1.
</event>
<event>
 7    1  0.5897985E-013  0.5052886E+02  0.7816164E-02  0.1300439E+00
        -11   -1    0    0    0    0  0.00000000000E+00  0.00000000000E+00  0.45593999997E+02  0.45594000000E+02  0.51100000000E-03 0.  1.
         11   -1    0    0    0    0 -0.00000000000E+00 -0.00000000000E+00 -0.45593999997E+02  0.45594000000E+02  0.51100000000E-03 0. -1.
    9900012    2    1    2    0    0 -0.71443933775E+01  0.10232120010E+01  0.40013450432E+02  0.50528861605E+02  0.30000005336E+02 0.  0.
         12    1    1    2    0    0  0.71443933775E+01 -0.10232120010E+01 -0.40013450432E+02  0.40659138395E+02  0.00000000000E+00 0. -1.
         11    1    3    3    0    0  0.76001369994E+01  0.40008546365E-01  0.50108378140E+01  0.91034157849E+01  0.51100000000E-03 0. -1.
        -11    1    3    3    0    0 -0.49239982659E+01 -0.66387862144E+01  0.21687751259E+02  0.23209433346E+02  0.51100000000E-03 0.  1.
         12    1    3    3    0    0 -0.98205321110E+01  0.76219896690E+01  0.13314861359E+02  0.18216012475E+02  0.00000000000E+00 0. -1.
</event>
<event>
 7    1  0.5897985E-013  0.5052886E+02  0.7816164E-02  0.1300439E+00
        -11   -1    0    0    0    0  0.00000000000E+00  0.00000000000E+00  0.45593999997E+02  0.45594000000E+02  0.51100000000E-03 0.  1.
         11   -1    0    0    0    0 -0.00000000000E+00 -0.00000000000E+00 -0.45593999997E+02  0.45594000000E+02  0.51100000000E-03 0. -1.
    9900012    2    1    2    0    0 -0.34114228327E+02  0.18418810418E+02 -0.12252867358E+02  0.50528856993E+02  0.29999991317E+02 0.  0.
         12    1    1    2    0    0  0.34114228327E+02 -0.18418810418E+02  0.12252867358E+02  0.40659143007E+02  0.00000000000E+00 0. -1.
         11    1    3    3    0    0 -0.26234494458E+02  0.16050915039E+02 -0.98309096097E+01  0.32288192224E+02  0.51100000000E-03 0. -1.
        -11    1    3    3    0    0  0.23783419073E+01  0.47201466050E+01  0.33300582999E+01  0.62470459213E+01  0.51100000000E-03 0.  1.
         12    1    3    3    0    0 -0.10258075776E+02 -0.23522512261E+01 -0.57520160479E+01  0.11993618848E+02  0.00000000000E+00 0. -1.
</event>
<event>
 7    1  0.5897985E-013  0.5052887E+02  0.7816164E-02  0.1300439E+00
        -11   -1    0    0    0    0  0.00000000000E+00  0.00000000000E+00  0.45593999997E+02  0.45594000000E+02  0.51100000000E-03 0.  1.
         11   -1    0    0    0    0 -0.00000000000E+00 -0.00000000000E+00 -0.45593999997E+02  0.45594000000E+02  0.51100000000E-03 0. -1.
    9900012    2    1    2    0    0 -0.39575138820E+02 -0.51368033518E+01  0.77837262797E+01  0.50528871183E+02  0.30000034449E+02 0.  0.
         12    1    1    2    0    0  0.39575138820E+02  0.51368033518E+01 -0.77837262797E+01  0.40659128817E+02  0.00000000000E+00 0. -1.
         11    1    3    3    0    0 -0.80089237625E+01 -0.11818843527E+02 -0.46922261133E+01  0.15028137220E+02  0.51100000000E-03 0. -1.
        -11    1    3    3    0    0 -0.25715844184E+02  0.21504234249E+01  0.10322858499E+02  0.27793710994E+02  0.51100000000E-03 0.  1.
         12    1    3    3    0    0 -0.58503708744E+01  0.45316167498E+01  0.21530938945E+01  0.77070229696E+01  0.00000000000E+00 0. -1.
</event>
<event>
 7    1  0.5897985E-013  0.5052886E+02  0.7816164E-02  0.1300439E+00
        -11   -1    0    0    0    0  0.00000000000E+00  0.00000000000E+00  0.45593999997E+02  0.45594000000E+02  0.51100000000E-03 0.  1.
         11   -1    0    0    0    0 -0.00000000000E+00 -0.00000000000E+00 -0.45593999997E+02  0.45594000000E+02  0.51100000000E-03 0. -1.
    9900012    2    1    2    0    0  0.72646429542E+01  0.39171280099E+02 -0.81241393750E+01  0.50528857579E+02  0.29999993097E+02 0.  0.
         12    1    1    2    0    0 -0.72646429542E+01 -0.39171280099E+02  0.81241393750E+01  0.40659142421E+02  0.00000000000E+00 0. -1.
         11    1    3    3    0    0  0.93119990114E+01  0.16378675089E+02  0.74844783983E+01  0.20272931224E+02  0.51100000000E-03 0. -1.
        -11    1    3    3    0    0  0.18122973336E+00  0.13875746333E+02 -0.22761570244E+01  0.14062363655E+02  0.51100000000E-03 0.  1.
         12    1    3    3    0    0 -0.22285857906E+01  0.89168586771E+01 -0.13332460749E+02  0.16193562700E+02  0.00000000000E+00 0. -1.
</event>
<event>
 7    1  0.5897985E-013  0.5052886E+02  0.7816164E-02  0.1300439E+00
        -11   -1    0    0    0    0  0.00000000000E+00  0.00000000000E+00  0.45593999997E+02  0.45594000000E+02  0.51100000000E-03 0. -1.
         11   -1    0    0    0    0 -0.00000000000E+00 -0.00000000000E+00 -0.45593999997E+02  0.45594000000E+02  0.51100000000E-03 0.  1.
    9900012    2    1    2    0    0 -0.25839042098E+02  0.25340116954E+02 -0.18530734857E+02  0.50528858861E+02  0.29999996994E+02 0.  0.
         12    1    1    2    0    0  0.25839042098E+02 -0.25340116954E+02  0.18530734857E+02  0.40659141139E+02  0.00000000000E+00 0. -1.
         11    1    3    3    0    0  0.58143759577E+01 -0.20562512319E-01 -0.26531646704E+01  0.63911402444E+01  0.51100000000E-03 0. -1.
        -11    1    3    3    0    0 -0.15914773293E+02  0.85579244348E+01 -0.84390986687E+01  0.19943331372E+02  0.51100000000E-03 0.  1.
         12    1    3    3    0    0 -0.15738644763E+02  0.16802755032E+02 -0.74384715180E+01  0.24194387245E+02  0.00000000000E+00 0. -1.
</event>
<event>
 7    1  0.5897985E-013  0.5052880E+02  0.7816164E-02  0.1300439E+00
        -11   -1    0    0    0    0  0.00000000000E+00  0.00000000000E+00  0.45593999997E+02  0.45594000000E+02  0.51100000000E-03 0. -1.
         11   -1    0    0    0    0 -0.00000000000E+00 -0.00000000000E+00 -0.45593999997E+02  0.45594000000E+02  0.51100000000E-03 0.  1.
    9900012    2    1    2    0    0  0.31572431642E+02  0.25031584772E+02  0.54563529184E+01  0.50528801002E+02  0.29999821125E+02 0.  0.
         12    1    1    2    0    0 -0.31572431642E+02 -0.25031584772E+02 -0.54563529184E+01  0.40659198998E+02  0.00000000000E+00 0. -1.
         11    1    3    3    0    0  0.19285663315E+02  0.18396477854E+02  0.95903850262E+01  0.28325654311E+02  0.51100000000E-03 0. -1.
        -11    1    3    3    0    0 -0.37131971349E+01 -0.13237170977E+01 -0.61385586805E+00  0.39895963712E+01  0.51100000000E-03 0.  1.
        -12    1    3    3    0    0  0.15999965462E+02  0.79588240155E+01 -0.35201762397E+01  0.18213550319E+02  0.00000000000E+00 0.  1.
</event>
<event>
 7    1  0.5897985E-013  0.5052887E+02  0.7816164E-02  0.1300439E+00
        -11   -1    0    0    0    0  0.00000000000E+00  0.00000000000E+00  0.45593999997E+02  0.45594000000E+02  0.51100000000E-03 0.  1.
         11   -1    0    0    0    0 -0.00000000000E+00 -0.00000000000E+00 -0.45593999997E+02  0.45594000000E+02  0.51100000000E-03 0. -1.
    9900012    2    1    2    0    0  0.19641878113E+02  0.23738914173E+02  0.26529706978E+02  0.50528870961E+02  0.30000033773E+02 0.  0.
         12    1    1    2    0    0 -0.19641878113E+02 -0.23738914173E+02 -0.26529706978E+02  0.40659129039E+02  0.00000000000E+00 0. -1.
         11    1    3    3    0    0  0.52129750601E+01 -0.98665731088E+00 -0.34645988934E+01  0.63365643198E+01  0.51100000000E-03 0. -1.
        -11    1    3    3    0    0  0.16673584899E+02  0.15081051204E+02  0.22136460776E+02  0.31551060755E+02  0.51100000000E-03 0.  1.
         12    1    3    3    0    0 -0.22446818464E+01  0.96445202795E+01  0.78578450954E+01  0.12641245886E+02  0.00000000000E+00 0. -1.
</event>
<event>
 7    1  0.5897985E-013  0.5052886E+02  0.7816164E-02  0.1300439E+00
        -11   -1    0    0    0    0  0.00000000000E+00  0.00000000000E+00  0.45593999997E+02  0.45594000000E+02  0.51100000000E-03 0.  1.
         11   -1    0    0    0    0 -0.00000000000E+00 -0.00000000000E+00 -0.45593999997E+02  0.45594000000E+02  0.51100000000E-03 0. -1.
    9900012    2    1    2    0    0 -0.27205298165E+02 -0.22470629011E+02  0.20201688549E+02  0.50528860356E+02  0.30000001537E+02 0.  0.
         12    1    1    2    0    0  0.27205298165E+02  0.22470629011E+02 -0.20201688549E+02  0.40659139644E+02  0.00000000000E+00 0. -1.
         11    1    3    3    0    0 -0.16954839009E+02 -0.87452332184E+01 -0.36022453357E+01  0.19414475053E+02  0.51100000000E-03 0. -1.
        -11    1    3    3    0    0 -0.31710305973E+00 -0.86309042136E+01  0.12783441383E+02  0.15427554432E+02  0.51100000000E-03 0.  1.
        -12    1    3    3    0    0 -0.99333560966E+01 -0.50944915788E+01  0.11020492502E+02  0.15686830871E+02  0.00000000000E+00 0.  1.
</event>
<event>
 7    1  0.5897985E-013  0.5052886E+02  0.7816164E-02  0.1300439E+00
        -11   -1    0    0    0    0  0.00000000000E+00  0.00000000000E+00  0.45593999997E+02  0.45594000000E+02  0.51100000000E-03 0. -1.
         11   -1    0    0    0    0 -0.00000000000E+00 -0.00000000000E+00 -0.45593999997E+02  0.45594000000E+02  0.51100000000E-03 0.  1.
    9900012    2    1    2    0    0  0.20713342149E+02 -0.21345949490E+02 -0.27721357128E+02  0.50528859039E+02  0.29999997536E+02 0.  0.
         12    1    1    2    0    0 -0.20713342149E+02  0.21345949490E+02  0.27721357128E+02  0.40659140961E+02  0.00000000000E+00 0. -1.
         11    1    3    3    0    0  0.11272751186E+02 -0.62712788003E+00 -0.20248391616E+02  0.23183303733E+02  0.51100000000E-03 0. -1.
        -11    1    3    3    0    0  0.99907972258E+01 -0.13412183601E+02 -0.10128093888E+02  0.19552007166E+02  0.51100000000E-03 0.  1.
         12    1    3    3    0    0 -0.55020626214E+00 -0.73066380095E+01  0.26551283760E+01  0.77935481410E+01  0.00000000000E+00 0. -1.
</event>
<event>
 7    1  0.5897985E-013  0.5052887E+02  0.7816164E-02  0.1300439E+00
        -11   -1    0    0    0    0  0.00000000000E+00  0.00000000000E+00  0.45593999997E+02  0.45594000000E+02  0.51100000000E-03 0.  1.
         11   -1    0    0    0    0 -0.00000000000E+00 -0.00000000000E+00 -0.45593999997E+02  0.45594000000E+02  0.51100000000E-03 0. -1.
    9900012    2    1    2    0    0 -0.21326217705E+02 -0.21326750647E+02  0.27267698419E+02  0.50528865334E+02  0.30000016669E+02 0.  0.
         12    1    1    2    0    0  0.21326217705E+02  0.21326750647E+02 -0.27267698419E+02  0.40659134666E+02  0.00000000000E+00 0. -1.
         11    1    3    3    0    0 -0.29816272468E+01 -0.55140157991E+01 -0.35270551696E+01  0.71926761155E+01  0.51100000000E-03 0. -1.
        -11    1    3    3    0    0 -0.21400899006E+02 -0.13711650060E+02  0.30371167005E+02  0.39603227282E+02  0.51100000000E-03 0.  1.
        -12    1    3    3    0    0  0.30563085480E+01 -0.21010847876E+01  0.42358658298E+00  0.37329619364E+01  0.00000000000E+00 0.  1.
</event>
<event>
 7    1  0.5897985E-013  0.5052886E+02  0.7816164E-02  0.1300439E+00
        -11   -1    0    0    0    0  0.00000000000E+00  0.00000000000E+00  0.45593999997E+02  0.45594000000E+02  0.51100000000E-03 0. -1.
         11   -1    0    0    0    0 -0.00000000000E+00 -0.00000000000E+00 -0.45593999997E+02  0.45594000000E+02  0.51100000000E-03 0.  1.
    9900012    2    1    2    0    0 -0.12003631257E+02  0.89019489600E+01 -0.37813142221E+02  0.50528861012E+02  0.30000003532E+02 0.  0.
         12    1    1    2    0    0  0.12003631257E+02 -0.89019489600E+01  0.37813142221E+02  0.40659138988E+02  0.00000000000E+00 0. -1.
         11    1    3    3    0    0 -0.47904763098E+01  0.66918444573E+01  0.20326088171E+01  0.84770834832E+01  0.51100000000E-03 0. -1.
        -11    1    3    3    0    0 -0.60106628909E+01 -0.52377864266E+00 -0.38136079424E+02  0.38610399720E+02  0.51100000000E-03 0.  1.
        -12    1    3    3    0    0 -0.12024920560E+01  0.27338831454E+01 -0.17096716142E+01  0.34413778092E+01  0.00000000000E+00 0.  1.
</event>
<event>
 7    1  0.5897985E-013  0.5052886E+02  0.7816164E-02  0.1300439E+00
        -11   -1    0    0    0    0  0.00000000000E+00  0.00000000000E+00  0.45593999997E+02  0.45594000000E+02  0.51100000000E-03 0.  1.
         11   -1    0    0    0    0 -0.00000000000E+00 -0.00000000000E+00 -0.45593999997E+02  0.45594000000E+02  0.51100000000E-03 0. -1.
    9900012    2    1    2    0    0 -0.30716652122E+02 -0.12636847806E+02  0.23451286625E+02  0.50528862227E+02  0.30000007227E+02 0.  0.
         12    1    1    2    0    0  0.30716652122E+02  0.12636847806E+02 -0.23451286625E+02  0.40659137773E+02  0.00000000000E+00 0. -1.
         11    1    3    3    0    0  0.21589335659E+01  0.30633862058E+00  0.26220010949E+01  0.34102386273E+01  0.51100000000E-03 0. -1.
        -11    1    3    3    0    0 -0.34755896386E+02 -0.95586374484E+01  0.22922276143E+02  0.42717334038E+02  0.51100000000E-03 0.  1.
        -12    1    3    3    0    0  0.18803106984E+01 -0.33845489777E+01 -0.20929906129E+01  0.44012895622E+01  0.00000000000E+00 0.  1.
</event>
<event>
 7    1  0.5897985E-013  0.5052886E+02  0.7816164E-02  0.1300439E+00
        -11   -1    0    0    0    0  0.00000000000E+00  0.00000000000E+00  0.45593999997E+02  0.45594000000E+02  0.51100000000E-03 0.  1.
         11   -1    0    0    0    0 -0.00000000000E+00 -0.00000000000E+00 -0.45593999997E+02  0.45594000000E+02  0.51100000000E-03 0. -1.
    9900012    2    1    2    0    0  0.11453917299E+01  0.95213678753E+01  0.39511992216E+02  0.50528857149E+02  0.29999991792E+02 0.  0.
         12    1    1    2    0    0 -0.11453917299E+01 -0.95213678753E+01 -0.39511992216E+02  0.40659142851E+02  0.00000000000E+00 0. -1.
         11    1    3    3    0    0 -0.53529479880E+00  0.61328223419E+01 -0.48883613643E+00  0.61755170980E+01  0.51100000000E-03 0. -1.
        -11    1    3    3    0    0  0.42246662564E+01 -0.74828215896E+00  0.39196635549E+02  0.39430749039E+02  0.51100000000E-03 0.  1.
        -12    1    3    3    0    0 -0.25439797278E+01  0.41368276924E+01  0.80419280425E+00  0.49225910127E+01  0.00000000000E+00 0.  1.
</event>
<event>
 7    1  0.5897985E-013  0.5052888E+02  0.7816164E-02  0.1300439E+00
        -11   -1    0    0    0    0  0.00000000000E+00  0.00000000000E+00  0.45593999997E+02  0.45594000000E+02  0.51100000000E-03 0.  1.
         11   -1    0    0    0    0 -0.00000000000E+00 -0.00000000000E+00 -0.45593999997E+02  0.45594000000E+02  0.51100000000E-03 0. -1.
    9900012    2    1    2    0    0 -0.16400138445E+02  0.13083526202E+02  0.34828444551E+02  0.50528883572E+02  0.30000072106E+02 0.  0.
         12    1    1    2    0    0  0.16400138445E+02 -0.13083526202E+02 -0.34828444551E+02  0.40659116428E+02  0.00000000000E+00 0. -1.
         11    1    3    3    0    0 -0.98671590752E+01  0.51382455421E+01  0.83567934464E+01  0.13913963937E+02  0.51100000000E-03 0. -1.
        -11    1    3    3    0    0  0.45381547301E+01  0.71405577738E+01  0.23712680195E+02  0.25176846823E+02  0.51100000000E-03 0.  1.
        -12    1    3    3    0    0 -0.11071134100E+02  0.80472288588E+00  0.27589709093E+01  0.11438072812E+02  0.00000000000E+00 0.  1.
</event>
<event>
 7    1  0.5897985E-013  0.5052886E+02  0.7816164E-02  0.1300439E+00
        -11   -1    0    0    0    0  0.00000000000E+00  0.00000000000E+00  0.45593999997E+02  0.45594000000E+02  0.51100000000E-03 0. -1.
         11   -1    0    0    0    0 -0.00000000000E+00 -0.00000000000E+00 -0.45593999997E+02  0.45594000000E+02  0.51100000000E-03 0.  1.
    9900012    2    1    2    0    0  0.30979875428E+02 -0.14288186153E+02  0.22119239925E+02  0.50528859330E+02  0.29999998421E+02 0.  0.
         12    1    1    2    0    0 -0.30979875428E+02  0.14288186153E+02 -0.22119239925E+02  0.40659140670E+02  0.00000000000E+00 0. -1.
         11    1    3    3    0    0 -0.14256582492E+01 -0.36618928067E+01  0.72840001971E+01  0.82763892794E+01  0.51100000000E-03 0. -1.
        -11    1    3    3    0    0  0.19070820156E+02  0.42899428118E+01  0.69240251722E+01  0.20737452004E+02  0.51100000000E-03 0.  1.
        -12    1    3    3    0    0  0.13334713521E+02 -0.14916236158E+02  0.79112145561E+01  0.21515018047E+02  0.00000000000E+00 0.  1.
</event>
<event>
 7    1  0.5897985E-013  0.5052896E+02  0.7816164E-02  0.1300438E+00
        -11   -1    0    0    0    0  0.00000000000E+00  0.00000000000E+00  0.45593999997E+02  0.45594000000E+02  0.51100000000E-03 0.  1.
         11   -1    0    0    0    0 -0.00000000000E+00 -0.00000000000E+00 -0.45593999997E+02  0.45594000000E+02  0.51100000000E-03 0. -1.
    9900012    2    1    2    0    0 -0.17716783836E+02  0.18955246958E+02  0.31304504142E+02  0.50528956771E+02  0.30000294598E+02 0.  0.
         12    1    1    2    0    0  0.17716783836E+02 -0.18955246958E+02 -0.31304504142E+02  0.40659043229E+02  0.00000000000E+00 0. -1.
         11    1    3    3    0    0 -0.21992201226E+01 -0.59757327414E+01  0.14264679867E+02  0.15621364951E+02  0.51100000000E-03 0. -1.
        -11    1    3    3    0    0 -0.70160132150E+01  0.18163294204E+02  0.12452287807E+02  0.23112532740E+02  0.51100000000E-03 0.  1.
         12    1    3    3    0    0 -0.85015504984E+01  0.67676854961E+01  0.45875364673E+01  0.11795059080E+02  0.00000000000E+00 0. -1.
</event>
<event>
 7    1  0.5897985E-013  0.5052886E+02  0.7816164E-02  0.1300439E+00
        -11   -1    0    0    0    0  0.00000000000E+00  0.00000000000E+00  0.45593999997E+02  0.45594000000E+02  0.51100000000E-03 0.  1.
         11   -1    0    0    0    0 -0.00000000000E+00 -0.00000000000E+00 -0.45593999997E+02  0.45594000000E+02  0.51100000000E-03 0. -1.
    9900012    2    1    2    0    0 -0.15926826688E+02  0.35927070914E+02 -0.10428201516E+02  0.50528860564E+02  0.30000002171E+02 0.  0.
         12    1    1    2    0    0  0.15926826688E+02 -0.35927070914E+02  0.10428201516E+02  0.40659139436E+02  0.00000000000E+00 0. -1.
         11    1    3    3    0    0 -0.15027392455E+02  0.24789207543E+01 -0.72002760545E+00  0.15247491995E+02  0.51100000000E-03 0. -1.
        -11    1    3    3    0    0  0.10669035860E+01  0.25816556133E+02 -0.90314719089E+01  0.27371524235E+02  0.51100000000E-03 0.  1.
         12    1    3    3    0    0 -0.19663378183E+01  0.76315940265E+01 -0.67670200178E+00  0.79098443348E+01  0.00000000000E+00 0. -1.
</event>
<event>
 7    1  0.5897985E-013  0.5052886E+02  0.7816164E-02  0.1300439E+00
        -11   -1    0    0    0    0  0.00000000000E+00  0.00000000000E+00  0.45593999997E+02  0.45594000000E+02  0.51100000000E-03 0. -1.
         11   -1    0    0    0    0 -0.00000000000E+00 -0.00000000000E+00 -0.45593999997E+02  0.45594000000E+02  0.51100000000E-03 0.  1.
    9900012    2    1    2    0    0 -0.17503762275E+02 -0.28240104698E+02 -0.23436727419E+02  0.50528863274E+02  0.30000010408E+02 0.  0.
         12    1    1    2    0    0  0.17503762275E+02  0.28240104698E+02  0.23436727419E+02  0.40659136726E+02  0.00000000000E+00 0. -1.
         11    1    3    3    0    0 -0.13761983357E+02 -0.10256234318E+02  0.17860293582E+01  0.17256083838E+02  0.51100000000E-03 0. -1.
        -11    1    3    3    0    0 -0.74242623045E+01 -0.15528371888E+02 -0.19005349855E+02  0.25640852709E+02  0.51100000000E-03 0.  1.
        -12    1    3    3    0    0  0.36824833857E+01 -0.24554984922E+01 -0.62174069226E+01  0.76319267274E+01  0.00000000000E+00 0.  1.
</event>
<event>
 7    1  0.5897985E-013  0.5052887E+02  0.7816164E-02  0.1300439E+00
        -11   -1    0    0    0    0  0.00000000000E+00  0.00000000000E+00  0.45593999997E+02  0.45594000000E+02  0.51100000000E-03 0. -1.
         11   -1    0    0    0    0 -0.00000000000E+00 -0.00000000000E+00 -0.45593999997E+02  0.45594000000E+02  0.51100000000E-03 0.  1.
    9900012    2    1    2    0    0  0.31102753051E+02 -0.24453429441E+02  0.93708957796E+01  0.50528866383E+02  0.30000019859E+02 0.  0.
         12    1    1    2    0    0 -0.31102753051E+02  0.24453429441E+02 -0.93708957796E+01  0.40659133617E+02  0.00000000000E+00 0. -1.
         11    1    3    3    0    0  0.76720943328E+01  0.16457398441E+00  0.25720424370E+00  0.76781684230E+01  0.51100000000E-03 0. -1.
        -11    1    3    3    0    0 -0.35252529914E+01 -0.10377414940E+02  0.51441323670E+01  0.12107032979E+02  0.51100000000E-03 0.  1.
        -12    1    3    3    0    0  0.26955911709E+02 -0.14240588485E+02  0.39695591689E+01  0.30743664981E+02  0.00000000000E+00 0.  1.
</event>
<event>
 7    1  0.5897985E-013  0.5052885E+02  0.7816164E-02  0.1300439E+00
        -11   -1    0    0    0    0  0.00000000000E+00  0.00000000000E+00  0.45593999997E+02  0.45594000000E+02  0.51100000000E-03 0.  1.
         11   -1    0    0    0    0 -0.00000000000E+00 -0.00000000000E+00 -0.45593999997E+02  0.45594000000E+02  0.51100000000E-03 0. -1.
    9900012    2    1    2    0    0  0.12049109075E+01  0.10859694104E+02  0.39163526856E+02  0.50528848483E+02  0.29999965448E+02 0.  0.
         12    1    1    2    0    0 -0.12049109075E+01 -0.10859694104E+02 -0.39163526856E+02  0.40659151517E+02  0.00000000000E+00 0. -1.
         11    1    3    3    0    0  0.78674805349E-01 -0.10580640932E+01  0.12547280214E+02  0.12592058227E+02  0.51100000000E-03 0. -1.
        -11    1    3    3    0    0  0.64493992524E+00  0.17345911396E+02  0.91126525549E+01  0.19604515462E+02  0.51100000000E-03 0.  1.
        -12    1    3    3    0    0  0.48129617692E+00 -0.54281531983E+01  0.17503594087E+02  0.18332274793E+02  0.00000000000E+00 0.  1.
</event>
<event>
 7    1  0.5897985E-013  0.5052877E+02  0.7816164E-02  0.1300439E+00
        -11   -1    0    0    0    0  0.00000000000E+00  0.00000000000E+00  0.45593999997E+02  0.45594000000E+02  0.51100000000E-03 0.  1.
         11   -1    0    0    0    0 -0.00000000000E+00 -0.00000000000E+00 -0.45593999997E+02  0.45594000000E+02  0.51100000000E-03 0. -1.
    9900012    2    1    2    0    0  0.40446284090E+02  0.16103210948E+01  0.38311850361E+01  0.50528769689E+02  0.29999725944E+02 0.  0.
         12    1    1    2    0    0 -0.40446284090E+02 -0.16103210948E+01 -0.38311850361E+01  0.40659230311E+02  0.00000000000E+00 0. -1.
         11    1    3    3    0    0  0.15850921016E+02  0.10267926454E+01 -0.63865420959E+01  0.17119985993E+02  0.51100000000E-03 0. -1.
        -11    1    3    3    0    0  0.20056862878E+01 -0.75222031677E+01  0.19598839588E+01  0.80279177484E+01  0.51100000000E-03 0.  1.
        -12    1    3    3    0    0  0.22589676786E+02  0.81057316171E+01  0.82578431732E+01  0.25380865947E+02  0.00000000000E+00 0.  1.
</event>
<event>
 7    1  0.5897985E-013  0.5052886E+02  0.7816164E-02  0.1300439E+00
        -11   -1    0    0    0    0  0.00000000000E+00  0.00000000000E+00  0.45593999997E+02  0.45594000000E+02  0.51100000000E-03 0. -1.
         11   -1    0    0    0    0 -0.00000000000E+00 -0.00000000000E+00 -0.45593999997E+02  0.45594000000E+02  0.51100000000E-03 0.  1.
    9900012    2    1    2    0    0 -0.36293338867E+01  0.20588332562E+02 -0.34872824457E+02  0.50528863417E+02  0.30000010841E+02 0.  0.
         12    1    1    2    0    0  0.36293338867E+01 -0.20588332562E+02  0.34872824457E+02  0.40659136583E+02  0.00000000000E+00 0. -1.
         11    1    3    3    0    0 -0.35215851428E+01  0.10644464389E+02 -0.80821617250E+00  0.11240969607E+02  0.51100000000E-03 0. -1.
        -11    1    3    3    0    0  0.21643549905E+01  0.12095717502E+02 -0.34006012538E+02  0.36157982568E+02  0.51100000000E-03 0.  1.
         12    1    3    3    0    0 -0.22721037344E+01 -0.21518493298E+01 -0.58595745927E-01  0.31299112415E+01  0.00000000000E+00 0. -1.
</event>
<event>
 7    1  0.5897985E-013  0.5052885E+02  0.7816164E-02  0.1300439E+00
        -11   -1    0    0    0    0  0.00000000000E+00  0.00000000000E+00  0.45593999997E+02  0.45594000000E+02  0.51100000000E-03 0.  1.
         11   -1    0    0    0    0 -0.00000000000E+00 -0.00000000000E+00 -0.45593999997E+02  0.45594000000E+02  0.51100000000E-03 0. -1.
    9900012    2    1    2    0    0  0.30283401675E+02  0.19780614233E+01  0.27058624627E+02  0.50528852066E+02  0.29999976341E+02 0.  0.
         12    1    1    2    0    0 -0.30283401675E+02 -0.19780614233E+01 -0.27058624627E+02  0.40659147934E+02  0.00000000000E+00 0. -1.
         11    1    3    3    0    0  0.18584403091E+02 -0.23199926139E+01 -0.49919329103E+00  0.18735303526E+02  0.51100000000E-03 0. -1.
        -11    1    3    3    0    0  0.28874193142E+01  0.50313221396E+01  0.17321861644E+02  0.18267410431E+02  0.51100000000E-03 0.  1.
        -12    1    3    3    0    0  0.88115792692E+01 -0.73326810235E+00  0.10235956274E+02  0.13526138110E+02  0.00000000000E+00 0.  1.
</event>
<event>
 7    1  0.5897985E-013  0.5052886E+02  0.7816164E-02  0.1300439E+00
        -11   -1    0    0    0    0  0.00000000000E+00  0.00000000000E+00  0.45593999997E+02  0.45594000000E+02  0.51100000000E-03 0. -1.
         11   -1    0    0    0    0 -0.00000000000E+00 -0.00000000000E+00 -0.45593999997E+02  0.45594000000E+02  0.51100000000E-03 0.  1.
    9900012    2    1    2    0    0  0.18464705178E+02  0.30118641123E+02 -0.20126785603E+02  0.50528863523E+02  0.30000011163E+02 0.  0.
         12    1    1    2    0    0 -0.18464705178E+02 -0.30118641123E+02  0.20126785603E+02  0.40659136477E+02  0.00000000000E+00 0. -1.
         11    1    3    3    0    0  0.84800193231E+01  0.42864508810E+01  0.42011262384E+01  0.10389121753E+02  0.51100000000E-03 0. -1.
        -11    1    3    3    0    0  0.28364198082E+00  0.87540715805E+01 -0.17096925635E+02  0.19209869558E+02  0.51100000000E-03 0.  1.
         12    1    3    3    0    0  0.97010438743E+01  0.17078118661E+02 -0.72309862059E+01  0.20929872211E+02  0.00000000000E+00 0. -1.
</event>
<event>
 7    1  0.5897985E-013  0.5052886E+02  0.7816164E-02  0.1300439E+00
        -11   -1    0    0    0    0  0.00000000000E+00  0.00000000000E+00  0.45593999997E+02  0.45594000000E+02  0.51100000000E-03 0.  1.
         11   -1    0    0    0    0 -0.00000000000E+00 -0.00000000000E+00 -0.45593999997E+02  0.45594000000E+02  0.51100000000E-03 0. -1.
    9900012    2    1    2    0    0 -0.30306614858E+02 -0.26298593577E+02 -0.65618900437E+01  0.50528864136E+02  0.30000013028E+02 0.  0.
         12    1    1    2    0    0  0.30306614858E+02  0.26298593577E+02  0.65618900437E+01  0.40659135864E+02  0.00000000000E+00 0. -1.
         11    1    3    3    0    0  0.58828457356E+00 -0.10152494851E+02 -0.84528489207E+01  0.13223837778E+02  0.51100000000E-03 0. -1.
        -11    1    3    3    0    0 -0.25318847798E+02 -0.67574075634E+01 -0.10015147758E+00  0.26205278883E+02  0.51100000000E-03 0.  1.
        -12    1    3    3    0    0 -0.55760516339E+01 -0.93886911618E+01  0.19911103546E+01  0.11099747475E+02  0.00000000000E+00 0.  1.
</event>
<event>
 7    1  0.5897985E-013  0.5052882E+02  0.7816164E-02  0.1300439E+00
        -11   -1    0    0    0    0  0.00000000000E+00  0.00000000000E+00  0.45593999997E+02  0.45594000000E+02  0.51100000000E-03 0. -1.
         11   -1    0    0    0    0 -0.00000000000E+00 -0.00000000000E+00 -0.45593999997E+02  0.45594000000E+02  0.51100000000E-03 0.  1.
    9900012    2    1    2    0    0  0.50482683490E+01 -0.39378241958E+02  0.87771131265E+01  0.50528823079E+02  0.29999888231E+02 0.  0.
         12    1    1    2    0    0 -0.50482683490E+01  0.39378241958E+02 -0.87771131265E+01  0.40659176921E+02  0.00000000000E+00 0. -1.
         11    1    3    3    0    0  0.12164810674E+02 -0.30057237127E+02  0.80267637103E+01  0.33404326941E+02  0.51100000000E-03 0. -1.
        -11    1    3    3    0    0 -0.83973757921E+01 -0.96569604631E+01 -0.30025088918E+01  0.13144879820E+02  0.51100000000E-03 0.  1.
        -12    1    3    3    0    0  0.12808334675E+01  0.33595563214E+00  0.37528583081E+01  0.39796163180E+01  0.00000000000E+00 0.  1.
</event>
<event>
 7    1  0.5897985E-013  0.5052887E+02  0.7816164E-02  0.1300439E+00
        -11   -1    0    0    0    0  0.00000000000E+00  0.00000000000E+00  0.45593999997E+02  0.45594000000E+02  0.51100000000E-03 0.  1.
         11   -1    0    0    0    0 -0.00000000000E+00 -0.00000000000E+00 -0.45593999997E+02  0.45594000000E+02  0.51100000000E-03 0. -1.
    9900012    2    1    2    0    0  0.85619184193E+00 -0.23293999723E+02  0.33313987452E+02  0.50528865140E+02  0.30000016081E+02 0.  0.
         12    1    1    2    0    0 -0.85619184193E+00  0.23293999723E+02 -0.33313987452E+02  0.40659134860E+02  0.00000000000E+00 0. -1.
         11    1    3    3    0    0  0.15002225524E+01 -0.73620192316E+01  0.10734662722E+02  0.13102785158E+02  0.51100000000E-03 0. -1.
        -11    1    3    3    0    0  0.43001293706E+01 -0.13138346628E+02 -0.32528480882E+00  0.13827981602E+02  0.51100000000E-03 0.  1.
        -12    1    3    3    0    0 -0.49441600810E+01 -0.27936338640E+01  0.22904609538E+02  0.23598098381E+02  0.00000000000E+00 0.  1.
</event>
<event>
 7    1  0.5897985E-013  0.5052886E+02  0.7816164E-02  0.1300439E+00
        -11   -1    0    0    0    0  0.00000000000E+00  0.00000000000E+00  0.45593999997E+02  0.45594000000E+02  0.51100000000E-03 0. -1.
         11   -1    0    0    0    0 -0.00000000000E+00 -0.00000000000E+00 -0.45593999997E+02  0.45594000000E+02  0.51100000000E-03 0.  1.
    9900012    2    1    2    0    0  0.13433212150E+02  0.38293553375E+02  0.25135378748E+01  0.50528864600E+02  0.30000014440E+02 0.  0.
         12    1    1    2    0    0 -0.13433212150E+02 -0.38293553375E+02 -0.25135378748E+01  0.40659135400E+02  0.00000000000E+00 0. -1.
         11    1    3    3    0    0  0.17341028821E+01 -0.10763388371E+01  0.27707676087E+01  0.34413328087E+01  0.51100000000E-03 0. -1.
        -11    1    3    3    0    0  0.68178873441E+01  0.40808762841E+02  0.22074396744E+01  0.41433217382E+02  0.51100000000E-03 0.  1.
        -12    1    3    3    0    0  0.48812219240E+01 -0.14388706282E+01 -0.24646694083E+01  0.56543144101E+01  0.00000000000E+00 0.  1.
</event>
<event>
 7    1  0.5897985E-013  0.5052885E+02  0.7816164E-02  0.1300439E+00
        -11   -1    0    0    0    0  0.00000000000E+00  0.00000000000E+00  0.45593999997E+02  0.45594000000E+02  0.51100000000E-03 0.  1.
         11   -1    0    0    0    0 -0.00000000000E+00 -0.00000000000E+00 -0.45593999997E+02  0.45594000000E+02  0.51100000000E-03 0. -1.
    9900012    2    1    2    0    0 -0.18059233320E+02  0.14403918488E+01  0.36399943925E+02  0.50528849068E+02  0.29999967228E+02 0.  0.
         12    1    1    2    0    0  0.18059233320E+02 -0.14403918488E+01 -0.36399943925E+02  0.40659150932E+02  0.00000000000E+00 0. -1.
         11    1    3    3    0    0 -0.25119906624E+02  0.45023833593E+01  0.31174916556E+02  0.40288417532E+02  0.51100000000E-03 0.  1.
        -11    1    3    3    0    0  0.49989761262E+01 -0.17357034630E+01  0.10440226419E+01  0.53937382546E+01  0.51100000000E-03 0. -1.
        -12    1    3    3    0    0  0.20616971783E+01 -0.13262880474E+01  0.41810047266E+01  0.48466932814E+01  0.00000000000E+00 0.  1.
</event>
<event>
 7    1  0.5897985E-013  0.5052884E+02  0.7816164E-02  0.1300439E+00
        -11   -1    0    0    0    0  0.00000000000E+00  0.00000000000E+00  0.45593999997E+02  0.45594000000E+02  0.51100000000E-03 0. -1.
         11   -1    0    0    0    0 -0.00000000000E+00 -0.00000000000E+00 -0.45593999997E+02  0.45594000000E+02  0.51100000000E-03 0.  1.
    9900012    2    1    2    0    0  0.15529385986E+01  0.19583638124E+02 -0.35598271582E+02  0.50528838178E+02  0.29999934125E+02 0.  0.
         12    1    1    2    0    0 -0.15529385986E+01 -0.19583638124E+02  0.35598271582E+02  0.40659161822E+02  0.00000000000E+00 0. -1.
         11    1    3    3    0    0  0.15888052352E+01  0.16422738455E+01 -0.85766714705E+00  0.24406881520E+01  0.51100000000E-03 0. -1.
        -11    1    3    3    0    0  0.17138982561E+01  0.20587892057E+02 -0.96570844989E+01  0.22804780811E+02  0.51100000000E-03 0.  1.
        -12    1    3    3    0    0 -0.17497648927E+01 -0.26465277783E+01 -0.25083519936E+02  0.25283369214E+02  0.00000000000E+00 0.  1.
</event>
<event>
 7    1  0.5897985E-013  0.5052886E+02  0.7816164E-02  0.1300439E+00
        -11   -1    0    0    0    0  0.00000000000E+00  0.00000000000E+00  0.45593999997E+02  0.45594000000E+02  0.51100000000E-03 0. -1.
         11   -1    0    0    0    0 -0.00000000000E+00 -0.00000000000E+00 -0.45593999997E+02  0.45594000000E+02  0.51100000000E-03 0.  1.
    9900012    2    1    2    0    0 -0.23350930844E+02  0.32581389646E+02 -0.68082592903E+01  0.50528864285E+02  0.30000013480E+02 0.  0.
         12    1    1    2    0    0  0.23350930844E+02 -0.32581389646E+02  0.68082592903E+01  0.40659135715E+02  0.00000000000E+00 0. -1.
         11    1    3    3    0    0 -0.12393075161E+02  0.29315370388E+02  0.60860557133E+01  0.32404001718E+02  0.51100000000E-03 0. -1.
        -11    1    3    3    0    0 -0.65634922289E+01  0.46576830112E+00 -0.36797663973E+01  0.75390351736E+01  0.51100000000E-03 0.  1.
         12    1    3    3    0    0 -0.43943634539E+01  0.28002509573E+01 -0.92145486062E+01  0.10585827394E+02  0.00000000000E+00 0. -1.
</event>
