<event>
 7    1  0.2744502E-011  0.5052887E+02  0.7816164E-02  0.1300439E+00
        -11   -1    0    0    0    0  0.00000000000E+00  0.00000000000E+00  0.45593999997E+02  0.45594000000E+02  0.51100000000E-03 0.  1.
         11   -1    0    0    0    0 -0.00000000000E+00 -0.00000000000E+00 -0.45593999997E+02  0.45594000000E+02  0.51100000000E-03 0. -1.
    9900012    2    1    2    0    0  0.18330928930E+02  0.34669303011E+02  0.10732258591E+02  0.50528869399E+02  0.30000029026E+02 0.  0.
         12    1    1    2    0    0 -0.18330928930E+02 -0.34669303011E+02 -0.10732258591E+02  0.40659130601E+02  0.00000000000E+00 0. -1.
         11    1    3    3    0    0  0.58932294965E+01  0.30510673245E+02  0.31147170232E+01  0.31230318573E+02  0.51100000000E-03 0. -1.
        -11    1    3    3    0    0  0.29577185843E+01  0.71590982748E+01  0.26790110059E+01  0.81962117812E+01  0.51100000000E-03 0.  1.
        -12    1    3    3    0    0  0.94799808491E+01 -0.30004685082E+01  0.49385305619E+01  0.11102339045E+02  0.00000000000E+00 0.  1.
</event>
<event>
 7    1  0.2744502E-011  0.5052881E+02  0.7816164E-02  0.1300439E+00
        -11   -1    0    0    0    0  0.00000000000E+00  0.00000000000E+00  0.45593999997E+02  0.45594000000E+02  0.51100000000E-03 0.  1.
         11   -1    0    0    0    0 -0.00000000000E+00 -0.00000000000E+00 -0.45593999997E+02  0.45594000000E+02  0.51100000000E-03 0. -1.
    9900012    2    1    2    0    0  0.31013916087E+02 -0.19355279658E+02  0.17795501691E+02  0.50528810115E+02  0.29999848825E+02 0.  0.
         12    1    1    2    0    0 -0.31013916087E+02  0.19355279658E+02 -0.17795501691E+02  0.40659189885E+02  0.00000000000E+00 0. -1.
         11    1    3    3    0    0 -0.90258602975E+00 -0.41841965602E-01 -0.47928702217E+00  0.10228042833E+01  0.51100000000E-03 0. -1.
        -11    1    3    3    0    0  0.17763756155E+02  0.44731359137E+01  0.67096540624E+01  0.19508445236E+02  0.51100000000E-03 0.  1.
        -12    1    3    3    0    0  0.14152745962E+02 -0.23786573606E+02  0.11565134650E+02  0.29997560595E+02  0.00000000000E+00 0.  1.
</event>
<event>
 7    1  0.2744502E-011  0.5052885E+02  0.7816164E-02  0.1300439E+00
        -11   -1    0    0    0    0  0.00000000000E+00  0.00000000000E+00  0.45593999997E+02  0.45594000000E+02  0.51100000000E-03 0. -1.
         11   -1    0    0    0    0 -0.00000000000E+00 -0.00000000000E+00 -0.45593999997E+02  0.45594000000E+02  0.51100000000E-03 0.  1.
    9900012    2    1    2    0    0 -0.39506291932E+02 -0.50417734978E+01 -0.81853271384E+01  0.50528853888E+02  0.29999981878E+02 0.  0.
         12    1    1    2    0    0  0.39506291932E+02  0.50417734978E+01  0.81853271384E+01  0.40659146112E+02  0.00000000000E+00 0. -1.
         11    1    3    3    0    0 -0.76828787256E+01 -0.93246252500E+00 -0.99829951318E+01  0.12631559838E+02  0.51100000000E-03 0. -1.
        -11    1    3    3    0    0 -0.59853204800E+01 -0.59421345257E+01 -0.65539875590E+01  0.10681188003E+02  0.51100000000E-03 0.  1.
         12    1    3    3    0    0 -0.25838092726E+02  0.18328235528E+01  0.83516555524E+01  0.27216106047E+02  0.00000000000E+00 0. -1.
</event>
<event>
 7    1  0.2744502E-011  0.5052886E+02  0.7816164E-02  0.1300439E+00
        -11   -1    0    0    0    0  0.00000000000E+00  0.00000000000E+00  0.45593999997E+02  0.45594000000E+02  0.51100000000E-03 0.  1.
         11   -1    0    0    0    0 -0.00000000000E+00 -0.00000000000E+00 -0.45593999997E+02  0.45594000000E+02  0.51100000000E-03 0. -1.
    9900012    2    1    2    0    0 -0.15235893797E+02  0.49210776430E+01  0.37374009037E+02  0.50528855684E+02  0.29999987338E+02 0.  0.
         12    1    1    2    0    0  0.15235893797E+02 -0.49210776430E+01 -0.37374009037E+02  0.40659144316E+02  0.00000000000E+00 0. -1.
         11    1    3    3    0    0 -0.10519684188E+01 -0.13683210516E+01  0.23103723115E+02  0.23168102255E+02  0.51100000000E-03 0. -1.
        -11    1    3    3    0    0 -0.94219801670E+01 -0.52683981711E+01  0.57283606133E+01  0.12220631945E+02  0.51100000000E-03 0.  1.
         12    1    3    3    0    0 -0.47619452109E+01  0.11557796866E+02  0.85419253092E+01  0.15140121485E+02  0.00000000000E+00 0. -1.
</event>
<event>
 7    1  0.2744502E-011  0.5052885E+02  0.7816164E-02  0.1300439E+00
        -11   -1    0    0    0    0  0.00000000000E+00  0.00000000000E+00  0.45593999997E+02  0.45594000000E+02  0.51100000000E-03 0.  1.
         11   -1    0    0    0    0 -0.00000000000E+00 -0.00000000000E+00 -0.45593999997E+02  0.45594000000E+02  0.51100000000E-03 0. -1.
    9900012    2    1    2    0    0 -0.15960174427E+02  0.39749808125E+01  0.37183846477E+02  0.50528854915E+02  0.29999985000E+02 0.  0.
         12    1    1    2    0    0  0.15960174427E+02 -0.39749808125E+01 -0.37183846477E+02  0.40659145085E+02  0.00000000000E+00 0. -1.
         11    1    3    3    0    0  0.18042539808E+01 -0.12097887630E+01 -0.26144369040E+00  0.21879840819E+01  0.51100000000E-03 0. -1.
        -11    1    3    3    0    0 -0.36164537601E+01 -0.79085760497E+01  0.36435220791E+01  0.94286566559E+01  0.51100000000E-03 0.  1.
        -12    1    3    3    0    0 -0.14147974648E+02  0.13093345625E+02  0.33801768088E+02  0.38912214177E+02  0.00000000000E+00 0.  1.
</event>
<event>
 7    1  0.2744502E-011  0.5052886E+02  0.7816164E-02  0.1300439E+00
        -11   -1    0    0    0    0  0.00000000000E+00  0.00000000000E+00  0.45593999997E+02  0.45594000000E+02  0.51100000000E-03 0.  1.
         11   -1    0    0    0    0 -0.00000000000E+00 -0.00000000000E+00 -0.45593999997E+02  0.45594000000E+02  0.51100000000E-03 0. -1.
    9900012    2    1    2    0    0  0.24253190495E+02 -0.25832370934E+02  0.19940842720E+02  0.50528857785E+02  0.29999993723E+02 0.  0.
         12    1    1    2    0    0 -0.24253190495E+02  0.25832370934E+02 -0.19940842720E+02  0.40659142215E+02  0.00000000000E+00 0. -1.
         11    1    3    3    0    0  0.15703790202E+02 -0.17085221820E+02  0.18178639937E+02  0.29478412128E+02  0.51100000000E-03 0. -1.
        -11    1    3    3    0    0  0.44882881360E+01 -0.90248104996E+01  0.84957211036E+01  0.13182155070E+02  0.51100000000E-03 0.  1.
         12    1    3    3    0    0  0.40611121565E+01  0.27766138482E+00 -0.67335183207E+01  0.78682905873E+01  0.00000000000E+00 0. -1.
</event>
<event>
 7    1  0.2744502E-011  0.5052886E+02  0.7816164E-02  0.1300439E+00
        -11   -1    0    0    0    0  0.00000000000E+00  0.00000000000E+00  0.45593999997E+02  0.45594000000E+02  0.51100000000E-03 0. -1.
         11   -1    0    0    0    0 -0.00000000000E+00 -0.00000000000E+00 -0.45593999997E+02  0.45594000000E+02  0.51100000000E-03 0.  1.
    9900012    2    1    2    0    0 -0.16621438865E+02 -0.36958240898E+02 -0.33138460039E+01  0.50528863566E+02  0.30000011295E+02 0.  0.
         12    1    1    2    0    0  0.16621438865E+02  0.36958240898E+02  0.33138460039E+01  0.40659136434E+02  0.00000000000E+00 0. -1.
         11    1    3    3    0    0  0.17762704479E+01 -0.39819599414E+01 -0.33788600257E+01  0.55161433098E+01  0.51100000000E-03 0. -1.
        -11    1    3    3    0    0 -0.84382883800E+01 -0.28877136833E+02 -0.84884561341E+01  0.31259360682E+02  0.51100000000E-03 0.  1.
        -12    1    3    3    0    0 -0.99594209328E+01 -0.40991441234E+01  0.85534701559E+01  0.13753359574E+02  0.00000000000E+00 0.  1.
</event>
<event>
 7    1  0.2744502E-011  0.5052884E+02  0.7816164E-02  0.1300439E+00
        -11   -1    0    0    0    0  0.00000000000E+00  0.00000000000E+00  0.45593999997E+02  0.45594000000E+02  0.51100000000E-03 0.  1.
         11   -1    0    0    0    0 -0.00000000000E+00 -0.00000000000E+00 -0.45593999997E+02  0.45594000000E+02  0.51100000000E-03 0. -1.
    9900012    2    1    2    0    0  0.13385698787E+02 -0.37423423033E+02  0.85719072271E+01  0.50528842150E+02  0.29999946199E+02 0.  0.
         12    1    1    2    0    0 -0.13385698787E+02  0.37423423033E+02 -0.85719072271E+01  0.40659157850E+02  0.00000000000E+00 0. -1.
         11    1    3    3    0    0  0.32146843351E+01 -0.48696109971E+01 -0.72992010492E+01  0.93448190382E+01  0.51100000000E-03 0. -1.
        -11    1    3    3    0    0  0.43862547942E+01 -0.79535373811E+01  0.12845488775E+02  0.15732277970E+02  0.51100000000E-03 0.  1.
         12    1    3    3    0    0  0.57847596581E+01 -0.24600274655E+02  0.30256195013E+01  0.25451745142E+02  0.00000000000E+00 0. -1.
</event>
<event>
 7    1  0.2744502E-011  0.5052887E+02  0.7816164E-02  0.1300439E+00
        -11   -1    0    0    0    0  0.00000000000E+00  0.00000000000E+00  0.45593999997E+02  0.45594000000E+02  0.51100000000E-03 0.  1.
         11   -1    0    0    0    0 -0.00000000000E+00 -0.00000000000E+00 -0.45593999997E+02  0.45594000000E+02  0.51100000000E-03 0. -1.
    9900012    2    1    2    0    0  0.10658487510E+02 -0.30573718575E+02  0.24592870797E+02  0.50528869199E+02  0.30000028417E+02 0.  0.
         12    1    1    2    0    0 -0.10658487510E+02  0.30573718575E+02 -0.24592870797E+02  0.40659130801E+02  0.00000000000E+00 0. -1.
         11    1    3    3    0    0 -0.34415829990E+01 -0.90218566599E+01  0.29579841270E+01  0.10098913877E+02  0.51100000000E-03 0. -1.
        -11    1    3    3    0    0  0.13314097235E+01 -0.19853114659E+02  0.73925363991E+01  0.21226596717E+02  0.51100000000E-03 0.  1.
        -12    1    3    3    0    0  0.12768660786E+02 -0.16987472561E+01  0.14242350270E+02  0.19203358605E+02  0.00000000000E+00 0.  1.
</event>
<event>
 7    1  0.2744502E-011  0.5052887E+02  0.7816164E-02  0.1300439E+00
        -11   -1    0    0    0    0  0.00000000000E+00  0.00000000000E+00  0.45593999997E+02  0.45594000000E+02  0.51100000000E-03 0.  1.
         11   -1    0    0    0    0 -0.00000000000E+00 -0.00000000000E+00 -0.45593999997E+02  0.45594000000E+02  0.51100000000E-03 0. -1.
    9900012    2    1    2    0    0  0.21187902531E+02 -0.29739235229E+02  0.17883395802E+02  0.50528866081E+02  0.30000018939E+02 0.  0.
         12    1    1    2    0    0 -0.21187902531E+02  0.29739235229E+02 -0.17883395802E+02  0.40659133919E+02  0.00000000000E+00 0. -1.
         11    1    3    3    0    0  0.20701966650E+02 -0.19412852785E+02  0.14245428515E+02  0.31754724219E+02  0.51100000000E-03 0. -1.
        -11    1    3    3    0    0  0.76362000139E+01 -0.66109203293E+01  0.35799398516E+01  0.10715959493E+02  0.51100000000E-03 0.  1.
        -12    1    3    3    0    0 -0.71502641330E+01 -0.37154621148E+01  0.58027435467E-01  0.80581823684E+01  0.00000000000E+00 0.  1.
</event>
<event>
 7    1  0.2744502E-011  0.5052886E+02  0.7816164E-02  0.1300439E+00
        -11   -1    0    0    0    0  0.00000000000E+00  0.00000000000E+00  0.45593999997E+02  0.45594000000E+02  0.51100000000E-03 0. -1.
         11   -1    0    0    0    0 -0.00000000000E+00 -0.00000000000E+00 -0.45593999997E+02  0.45594000000E+02  0.51100000000E-03 0.  1.
    9900012    2    1    2    0    0  0.32925265827E+02 -0.41617837907E+01 -0.23489825433E+02  0.50528862368E+02  0.30000007654E+02 0.  0.
         12    1    1    2    0    0 -0.32925265827E+02  0.41617837907E+01  0.23489825433E+02  0.40659137632E+02  0.00000000000E+00 0. -1.
         11    1    3    3    0    0  0.78754717608E+01  0.46566665978E+01 -0.86620789425E+01  0.12599175018E+02  0.51100000000E-03 0. -1.
        -11    1    3    3    0    0  0.21583761281E+02  0.37191347103E+01 -0.91269214881E+01  0.23727440025E+02  0.51100000000E-03 0.  1.
         12    1    3    3    0    0  0.34660327845E+01 -0.12537585099E+02 -0.57008250027E+01  0.14202247325E+02  0.00000000000E+00 0. -1.
</event>
<event>
 7    1  0.2744502E-011  0.5052886E+02  0.7816164E-02  0.1300439E+00
        -11   -1    0    0    0    0  0.00000000000E+00  0.00000000000E+00  0.45593999997E+02  0.45594000000E+02  0.51100000000E-03 0.  1.
         11   -1    0    0    0    0 -0.00000000000E+00 -0.00000000000E+00 -0.45593999997E+02  0.45594000000E+02  0.51100000000E-03 0. -1.
    9900012    2    1    2    0    0  0.24266415046E+02 -0.31310174750E+02 -0.91640455342E+01  0.50528859913E+02  0.30000000192E+02 0.  0.
         12    1    1    2    0    0 -0.24266415046E+02  0.31310174750E+02  0.91640455342E+01  0.40659140087E+02  0.00000000000E+00 0. -1.
         11    1    3    3    0    0  0.14644826750E+02 -0.87510689984E+01  0.52793951653E+01  0.17858448217E+02  0.51100000000E-03 0. -1.
        -11    1    3    3    0    0  0.55625953658E+01  0.19032102381E-01 -0.61117698904E+01  0.82641733330E+01  0.51100000000E-03 0.  1.
        -12    1    3    3    0    0  0.40589929303E+01 -0.22578137854E+02 -0.83316708091E+01  0.24406238363E+02  0.00000000000E+00 0.  1.
</event>
<event>
 7    1  0.2744502E-011  0.5052885E+02  0.7816164E-02  0.1300439E+00
        -11   -1    0    0    0    0  0.00000000000E+00  0.00000000000E+00  0.45593999997E+02  0.45594000000E+02  0.51100000000E-03 0. -1.
         11   -1    0    0    0    0 -0.00000000000E+00 -0.00000000000E+00 -0.45593999997E+02  0.45594000000E+02  0.51100000000E-03 0.  1.
    9900012    2    1    2    0    0  0.33331392627E+02 -0.23283480279E+02  0.25280567136E+00  0.50528854669E+02  0.29999984251E+02 0.  0.
         12    1    1    2    0    0 -0.33331392627E+02  0.23283480279E+02 -0.25280567136E+00  0.40659145331E+02  0.00000000000E+00 0. -1.
         11    1    3    3    0    0  0.89219108925E+00 -0.33141715312E+01  0.49167267568E+01  0.59961604499E+01  0.51100000000E-03 0. -1.
        -11    1    3    3    0    0  0.24275855086E+02 -0.24787917562E+02 -0.23485510393E+01  0.34774612715E+02  0.51100000000E-03 0.  1.
         12    1    3    3    0    0  0.81633464516E+01  0.48186088138E+01 -0.23153700462E+01  0.97580815041E+01  0.00000000000E+00 0. -1.
</event>
<event>
 7    1  0.2744502E-011  0.5052898E+02  0.7816164E-02  0.1300438E+00
        -11   -1    0    0    0    0  0.00000000000E+00  0.00000000000E+00  0.45593999997E+02  0.45594000000E+02  0.51100000000E-03 0.  1.
         11   -1    0    0    0    0 -0.00000000000E+00 -0.00000000000E+00 -0.45593999997E+02  0.45594000000E+02  0.51100000000E-03 0. -1.
    9900012    2    1    2    0    0  0.61183309293E+01  0.39780224359E+02  0.57667449335E+01  0.50528984142E+02  0.30000377795E+02 0.  0.
         12    1    1    2    0    0 -0.61183309293E+01 -0.39780224359E+02 -0.57667449335E+01  0.40659015858E+02  0.00000000000E+00 0. -1.
         11    1    3    3    0    0  0.35876182046E+01  0.21891005863E+02  0.44271823313E+01  0.22620501447E+02  0.51100000000E-03 0. -1.
        -11    1    3    3    0    0 -0.30337949014E+01  0.21132937060E+02  0.19513097484E+01  0.21438576219E+02  0.51100000000E-03 0.  1.
         12    1    3    3    0    0  0.55645076260E+01 -0.32437185636E+01 -0.61174714617E+00  0.64699064762E+01  0.00000000000E+00 0. -1.
</event>
<event>
 7    1  0.2744502E-011  0.5052886E+02  0.7816164E-02  0.1300439E+00
        -11   -1    0    0    0    0  0.00000000000E+00  0.00000000000E+00  0.45593999997E+02  0.45594000000E+02  0.51100000000E-03 0.  1.
         11   -1    0    0    0    0 -0.00000000000E+00 -0.00000000000E+00 -0.45593999997E+02  0.45594000000E+02  0.51100000000E-03 0. -1.
    9900012    2    1    2    0    0  0.32210776261E+02 -0.65397087700E+01  0.23934577200E+02  0.50528857315E+02  0.29999992296E+02 0.  0.
         12    1    1    2    0    0 -0.32210776261E+02  0.65397087700E+01 -0.23934577200E+02  0.40659142685E+02  0.00000000000E+00 0. -1.
         11    1    3    3    0    0 -0.44612113679E+01  0.10850886538E+00 -0.32507785533E-01  0.44626492199E+01  0.51100000000E-03 0. -1.
        -11    1    3    3    0    0  0.15339182708E+02 -0.31049674051E+01  0.17538246860E+02  0.23505774863E+02  0.51100000000E-03 0.  1.
         12    1    3    3    0    0  0.21332804921E+02 -0.35432502303E+01  0.64288381251E+01  0.22560433232E+02  0.00000000000E+00 0. -1.
</event>
<event>
 7    1  0.2744502E-011  0.5052887E+02  0.7816164E-02  0.1300439E+00
        -11   -1    0    0    0    0  0.00000000000E+00  0.00000000000E+00  0.45593999997E+02  0.45594000000E+02  0.51100000000E-03 0. -1.
         11   -1    0    0    0    0 -0.00000000000E+00 -0.00000000000E+00 -0.45593999997E+02  0.45594000000E+02  0.51100000000E-03 0.  1.
    9900012    2    1    2    0    0 -0.37969229750E+02 -0.52904424844E+01 -0.13546716341E+02  0.50528871713E+02  0.30000036059E+02 0.  0.
         12    1    1    2    0    0  0.37969229750E+02  0.52904424844E+01  0.13546716341E+02  0.40659128287E+02  0.00000000000E+00 0. -1.
         11    1    3    3    0    0 -0.13598804408E+02 -0.40912483269E+01  0.32435632672E+01  0.14566622708E+02  0.51100000000E-03 0. -1.
        -11    1    3    3    0    0 -0.27852238996E+02  0.71750344069E-01 -0.13276042207E+02  0.30854588996E+02  0.51100000000E-03 0.  1.
        -12    1    3    3    0    0  0.34818136543E+01 -0.12709445016E+01 -0.35142374011E+01  0.51076600083E+01  0.00000000000E+00 0.  1.
</event>
<event>
 7    1  0.2744502E-011  0.5052886E+02  0.7816164E-02  0.1300439E+00
        -11   -1    0    0    0    0  0.00000000000E+00  0.00000000000E+00  0.45593999997E+02  0.45594000000E+02  0.51100000000E-03 0. -1.
         11   -1    0    0    0    0 -0.00000000000E+00 -0.00000000000E+00 -0.45593999997E+02  0.45594000000E+02  0.51100000000E-03 0.  1.
    9900012    2    1    2    0    0 -0.18796412524E+02 -0.17437721891E+02 -0.31556077879E+02  0.50528864254E+02  0.30000013386E+02 0.  0.
         12    1    1    2    0    0  0.18796412524E+02  0.17437721891E+02  0.31556077879E+02  0.40659135746E+02  0.00000000000E+00 0. -1.
         11    1    3    3    0    0 -0.35361556820E+00 -0.98944557991E-01 -0.12085003292E+02  0.12090580582E+02  0.51100000000E-03 0. -1.
        -11    1    3    3    0    0  0.11558911175E+01 -0.45365084267E+01 -0.13486452144E+02  0.14275867213E+02  0.51100000000E-03 0.  1.
        -12    1    3    3    0    0 -0.19598688073E+02 -0.12802268906E+02 -0.59846224433E+01  0.24162416459E+02  0.00000000000E+00 0.  1.
</event>
<event>
 7    1  0.2744502E-011  0.5052885E+02  0.7816164E-02  0.1300439E+00
        -11   -1    0    0    0    0  0.00000000000E+00  0.00000000000E+00  0.45593999997E+02  0.45594000000E+02  0.51100000000E-03 0. -1.
         11   -1    0    0    0    0 -0.00000000000E+00 -0.00000000000E+00 -0.45593999997E+02  0.45594000000E+02  0.51100000000E-03 0.  1.
    9900012    2    1    2    0    0 -0.13629683623E+02 -0.32147643156E+02 -0.20830929047E+02  0.50528845544E+02  0.29999956515E+02 0.  0.
         12    1    1    2    0    0  0.13629683623E+02  0.32147643156E+02  0.20830929047E+02  0.40659154456E+02  0.00000000000E+00 0. -1.
         11    1    3    3    0    0 -0.61706049275E+01  0.14653610065E+01 -0.10920120053E+01  0.64355371595E+01  0.51100000000E-03 0. -1.
        -11    1    3    3    0    0 -0.85655916280E+01 -0.39500180400E+01 -0.24645472634E+01  0.97491536006E+01  0.51100000000E-03 0.  1.
        -12    1    3    3    0    0  0.11065129322E+01 -0.29662986122E+02 -0.17274369778E+02  0.34344154784E+02  0.00000000000E+00 0.  1.
</event>
<event>
 7    1  0.2744502E-011  0.5052886E+02  0.7816164E-02  0.1300439E+00
        -11   -1    0    0    0    0  0.00000000000E+00  0.00000000000E+00  0.45593999997E+02  0.45594000000E+02  0.51100000000E-03 0.  1.
         11   -1    0    0    0    0 -0.00000000000E+00 -0.00000000000E+00 -0.45593999997E+02  0.45594000000E+02  0.51100000000E-03 0. -1.
    9900012    2    1    2    0    0  0.26120066459E+02  0.28012646614E+02  0.13645490587E+02  0.50528860123E+02  0.30000000830E+02 0.  0.
         12    1    1    2    0    0 -0.26120066459E+02 -0.28012646614E+02 -0.13645490587E+02  0.40659139877E+02  0.00000000000E+00 0. -1.
         11    1    3    3    0    0  0.54982480022E+01  0.31871837039E+01  0.50757011871E+01  0.81333642398E+01  0.51100000000E-03 0. -1.
        -11    1    3    3    0    0  0.23367207439E+02  0.28411533187E+02  0.62340024474E+01  0.37310915136E+02  0.51100000000E-03 0.  1.
         12    1    3    3    0    0 -0.27453889823E+01 -0.35860702760E+01  0.23357869526E+01  0.50845807474E+01  0.00000000000E+00 0. -1.
</event>
<event>
 7    1  0.2744502E-011  0.5052886E+02  0.7816164E-02  0.1300439E+00
        -11   -1    0    0    0    0  0.00000000000E+00  0.00000000000E+00  0.45593999997E+02  0.45594000000E+02  0.51100000000E-03 0. -1.
         11   -1    0    0    0    0 -0.00000000000E+00 -0.00000000000E+00 -0.45593999997E+02  0.45594000000E+02  0.51100000000E-03 0.  1.
    9900012    2    1    2    0    0  0.20466842745E+02 -0.31452290148E+02  0.15653347988E+02  0.50528861904E+02  0.30000006242E+02 0.  0.
         12    1    1    2    0    0 -0.20466842745E+02  0.31452290148E+02 -0.15653347988E+02  0.40659138096E+02  0.00000000000E+00 0. -1.
         11    1    3    3    0    0  0.28583629029E+01 -0.82858563953E+01  0.33468695532E+01  0.93822806799E+01  0.51100000000E-03 0. -1.
        -11    1    3    3    0    0  0.79222173348E+01 -0.15302085898E+02  0.20069475466E+02  0.26451828029E+02  0.51100000000E-03 0.  1.
         12    1    3    3    0    0  0.96862625070E+01 -0.78643478553E+01 -0.77629970316E+01  0.14694753195E+02  0.00000000000E+00 0. -1.
</event>
<event>
 7    1  0.2744502E-011  0.5052887E+02  0.7816164E-02  0.1300439E+00
        -11   -1    0    0    0    0  0.00000000000E+00  0.00000000000E+00  0.45593999997E+02  0.45594000000E+02  0.51100000000E-03 0.  1.
         11   -1    0    0    0    0 -0.00000000000E+00 -0.00000000000E+00 -0.45593999997E+02  0.45594000000E+02  0.51100000000E-03 0. -1.
    9900012    2    1    2    0    0  0.37710980392E+02 -0.14992572236E+02  0.25038984499E+01  0.50528870991E+02  0.30000033863E+02 0.  0.
         12    1    1    2    0    0 -0.37710980392E+02  0.14992572236E+02 -0.25038984499E+01  0.40659129009E+02  0.00000000000E+00 0. -1.
         11    1    3    3    0    0  0.46778900567E+00 -0.10319709348E+00 -0.59491569849E+01  0.59684122919E+01  0.51100000000E-03 0. -1.
        -11    1    3    3    0    0  0.16234559767E+02 -0.88209921030E+01 -0.46702559364E+01  0.19057337780E+02  0.51100000000E-03 0.  1.
        -12    1    3    3    0    0  0.21008631619E+02 -0.60683830396E+01  0.13123311371E+02  0.25503120918E+02  0.00000000000E+00 0.  1.
</event>
<event>
 7    1  0.2744502E-011  0.5052886E+02  0.7816164E-02  0.1300439E+00
        -11   -1    0    0    0    0  0.00000000000E+00  0.00000000000E+00  0.45593999997E+02  0.45594000000E+02  0.51100000000E-03 0.  1.
         11   -1    0    0    0    0 -0.00000000000E+00 -0.00000000000E+00 -0.45593999997E+02  0.45594000000E+02  0.51100000000E-03 0. -1.
    9900012    2    1    2    0    0 -0.19816239122E+02  0.59430737802E+01  0.35002320747E+02  0.50528856913E+02  0.29999991073E+02 0.  0.
         12    1    1    2    0    0  0.19816239122E+02 -0.59430737802E+01 -0.35002320747E+02  0.40659143087E+02  0.00000000000E+00 0. -1.
         11    1    3    3    0    0 -0.36858553900E+01  0.63112305252E+01 -0.31598111132E+01  0.79625101086E+01  0.51100000000E-03 0. -1.
        -11    1    3    3    0    0 -0.42107378015E+01 -0.16710395805E+01  0.30447449344E+01  0.54583109191E+01  0.51100000000E-03 0.  1.
        -12    1    3    3    0    0 -0.11919645930E+02  0.13028828355E+01  0.35117386926E+02  0.37108035885E+02  0.00000000000E+00 0.  1.
</event>
<event>
 7    1  0.2744502E-011  0.5052888E+02  0.7816164E-02  0.1300439E+00
        -11   -1    0    0    0    0  0.00000000000E+00  0.00000000000E+00  0.45593999997E+02  0.45594000000E+02  0.51100000000E-03 0.  1.
         11   -1    0    0    0    0 -0.00000000000E+00 -0.00000000000E+00 -0.45593999997E+02  0.45594000000E+02  0.51100000000E-03 0. -1.
    9900012    2    1    2    0    0 -0.12926758435E+02 -0.38427675501E+02 -0.30621067566E+01  0.50528882623E+02  0.30000069221E+02 0.  0.
         12    1    1    2    0    0  0.12926758435E+02  0.38427675501E+02  0.30621067566E+01  0.40659117377E+02  0.00000000000E+00 0. -1.
         11    1    3    3    0    0 -0.12495138609E+01  0.13239348158E+00  0.17662534493E+01  0.21675941573E+01  0.51100000000E-03 0. -1.
        -11    1    3    3    0    0 -0.17593760625E+02 -0.24115801583E+02  0.44825267429E+01  0.30186178049E+02  0.51100000000E-03 0.  1.
         12    1    3    3    0    0  0.59165160504E+01 -0.14444267400E+02 -0.93108869489E+01  0.18175110417E+02  0.00000000000E+00 0. -1.
</event>
<event>
 7    1  0.2744502E-011  0.5052886E+02  0.7816164E-02  0.1300439E+00
        -11   -1    0    0    0    0  0.00000000000E+00  0.00000000000E+00  0.45593999997E+02  0.45594000000E+02  0.51100000000E-03 0.  1.
         11   -1    0    0    0    0 -0.00000000000E+00 -0.00000000000E+00 -0.45593999997E+02  0.45594000000E+02  0.51100000000E-03 0. -1.
    9900012    2    1    2    0    0 -0.23616701221E+02  0.88118459095E+01  0.31902485266E+02  0.50528858703E+02  0.29999996513E+02 0.  0.
         12    1    1    2    0    0  0.23616701221E+02 -0.88118459095E+01 -0.31902485266E+02  0.40659141297E+02  0.00000000000E+00 0. -1.
         11    1    3    3    0    0 -0.10417288247E+02  0.74781478527E+01  0.57277450832E+01  0.14044559577E+02  0.51100000000E-03 0. -1.
        -11    1    3    3    0    0 -0.64706677851E+01 -0.99181911870E+01  0.89822226178E+01  0.14863390644E+02  0.51100000000E-03 0.  1.
         12    1    3    3    0    0 -0.67287451891E+01  0.11251889244E+02  0.17192517565E+02  0.21620908482E+02  0.00000000000E+00 0. -1.
</event>
<event>
 7    1  0.2744502E-011  0.5052886E+02  0.7816164E-02  0.1300439E+00
        -11   -1    0    0    0    0  0.00000000000E+00  0.00000000000E+00  0.45593999997E+02  0.45594000000E+02  0.51100000000E-03 0.  1.
         11   -1    0    0    0    0 -0.00000000000E+00 -0.00000000000E+00 -0.45593999997E+02  0.45594000000E+02  0.51100000000E-03 0. -1.
    9900012    2    1    2    0    0  0.21215031481E+02  0.34409354537E+02  0.43685549653E+01  0.50528861877E+02  0.30000006163E+02 0.  0.
         12    1    1    2    0    0 -0.21215031481E+02 -0.34409354537E+02 -0.43685549653E+01  0.40659138123E+02  0.00000000000E+00 0. -1.
         11    1    3    3    0    0  0.14253979015E+02  0.17933552953E+02  0.58004694312E+01  0.23631201517E+02  0.51100000000E-03 0. -1.
        -11    1    3    3    0    0 -0.63855157956E+01  0.66555832712E+01 -0.41361232195E+01  0.10108368622E+02  0.51100000000E-03 0.  1.
         12    1    3    3    0    0  0.13346568262E+02  0.98202183128E+01  0.27042087536E+01  0.16789291738E+02  0.00000000000E+00 0. -1.
</event>
<event>
 7    1  0.2744502E-011  0.5052886E+02  0.7816164E-02  0.1300439E+00
        -11   -1    0    0    0    0  0.00000000000E+00  0.00000000000E+00  0.45593999997E+02  0.45594000000E+02  0.51100000000E-03 0.  1.
         11   -1    0    0    0    0 -0.00000000000E+00 -0.00000000000E+00 -0.45593999997E+02  0.45594000000E+02  0.51100000000E-03 0. -1.
    9900012    2    1    2    0    0 -0.24592386374E+02  0.28619542227E+02  0.15142710393E+02  0.50528863968E+02  0.30000012517E+02 0.  0.
         12    1    1    2    0    0  0.24592386374E+02 -0.28619542227E+02 -0.15142710393E+02  0.40659136032E+02  0.00000000000E+00 0. -1.
         11    1    3    3    0    0 -0.47824915420E+00  0.16788763711E+01 -0.81419794169E+00  0.19262052519E+01  0.51100000000E-03 0. -1.
        -11    1    3    3    0    0 -0.18755982459E+02  0.29443564542E+02  0.38412997930E+01  0.35120733980E+02  0.51100000000E-03 0.  1.
         12    1    3    3    0    0 -0.53581547612E+01 -0.25028986856E+01  0.12115608541E+02  0.13481924736E+02  0.00000000000E+00 0. -1.
</event>
<event>
 7    1  0.2744502E-011  0.5052886E+02  0.7816164E-02  0.1300439E+00
        -11   -1    0    0    0    0  0.00000000000E+00  0.00000000000E+00  0.45593999997E+02  0.45594000000E+02  0.51100000000E-03 0.  1.
         11   -1    0    0    0    0 -0.00000000000E+00 -0.00000000000E+00 -0.45593999997E+02  0.45594000000E+02  0.51100000000E-03 0. -1.
    9900012    2    1    2    0    0  0.29827884995E+02  0.25064188277E+02  0.11629692427E+02  0.50528855847E+02  0.29999987834E+02 0.  0.
         12    1    1    2    0    0 -0.29827884995E+02 -0.25064188277E+02 -0.11629692427E+02  0.40659144153E+02  0.00000000000E+00 0. -1.
         11    1    3    3    0    0  0.19256064596E+02  0.10616014899E+02  0.13611979770E+02  0.25860815718E+02  0.51100000000E-03 0. -1.
        -11    1    3    3    0    0  0.97599491578E+01  0.11531395464E+02  0.59044517673E+01  0.16220118367E+02  0.51100000000E-03 0.  1.
         12    1    3    3    0    0  0.81187124074E+00  0.29167779145E+01 -0.78867391103E+01  0.84479217627E+01  0.00000000000E+00 0. -1.
</event>
<event>
 7    1  0.2744502E-011  0.5052885E+02  0.7816164E-02  0.1300439E+00
        -11   -1    0    0    0    0  0.00000000000E+00  0.00000000000E+00  0.45593999997E+02  0.45594000000E+02  0.51100000000E-03 0.  1.
         11   -1    0    0    0    0 -0.00000000000E+00 -0.00000000000E+00 -0.45593999997E+02  0.45594000000E+02  0.51100000000E-03 0. -1.
    9900012    2    1    2    0    0  0.31001711246E+02 -0.25700948979E+02  0.56143757353E+01  0.50528854737E+02  0.29999984459E+02 0.  0.
         12    1    1    2    0    0 -0.31001711246E+02  0.25700948979E+02 -0.56143757353E+01  0.40659145263E+02  0.00000000000E+00 0. -1.
         11    1    3    3    0    0  0.38488082099E+01 -0.21846894051E+01  0.54098785152E+01  0.69894905568E+01  0.51100000000E-03 0. -1.
        -11    1    3    3    0    0 -0.14107821750E+00  0.44406117517E+01  0.46780302137E+00  0.44674126428E+01  0.51100000000E-03 0.  1.
         12    1    3    3    0    0  0.27293981254E+02 -0.27956871325E+02 -0.26330580123E+00  0.39071951537E+02  0.00000000000E+00 0. -1.
</event>
<event>
 7    1  0.2744502E-011  0.5052886E+02  0.7816164E-02  0.1300439E+00
        -11   -1    0    0    0    0  0.00000000000E+00  0.00000000000E+00  0.45593999997E+02  0.45594000000E+02  0.51100000000E-03 0.  1.
         11   -1    0    0    0    0 -0.00000000000E+00 -0.00000000000E+00 -0.45593999997E+02  0.45594000000E+02  0.51100000000E-03 0. -1.
    9900012    2    1    2    0    0  0.90903926225E+01  0.10687889826E+02  0.38161496041E+02  0.50528855800E+02  0.29999987689E+02 0.  0.
         12    1    1    2    0    0 -0.90903926225E+01 -0.10687889826E+02 -0.38161496041E+02  0.40659144200E+02  0.00000000000E+00 0. -1.
         11    1    3    3    0    0 -0.26464560360E+01 -0.62913272452E+01  0.73404299202E+01  0.10023294854E+02  0.51100000000E-03 0. -1.
        -11    1    3    3    0    0  0.24647320250E+01 -0.18212089456E+01  0.11827374663E+02  0.12217957999E+02  0.51100000000E-03 0.  1.
        -12    1    3    3    0    0  0.92721166335E+01  0.18800426017E+02  0.18993691458E+02  0.28287602947E+02  0.00000000000E+00 0.  1.
</event>
<event>
 7    1  0.2744502E-011  0.5052885E+02  0.7816164E-02  0.1300439E+00
        -11   -1    0    0    0    0  0.00000000000E+00  0.00000000000E+00  0.45593999997E+02  0.45594000000E+02  0.51100000000E-03 0.  1.
         11   -1    0    0    0    0 -0.00000000000E+00 -0.00000000000E+00 -0.45593999997E+02  0.45594000000E+02  0.51100000000E-03 0. -1.
    9900012    2    1    2    0    0 -0.39887985185E+02 -0.11318304050E+01 -0.77996137258E+01  0.50528851258E+02  0.29999973882E+02 0.  0.
         12    1    1    2    0    0  0.39887985185E+02  0.11318304050E+01  0.77996137258E+01  0.40659148742E+02  0.00000000000E+00 0. -1.
         11    1    3    3    0    0 -0.95339760040E+01 -0.13881258603E+01 -0.12578880924E+02  0.15844615407E+02  0.51100000000E-03 0. -1.
        -11    1    3    3    0    0 -0.13545875485E+02 -0.78271608061E+01  0.11788110620E+01  0.15689002030E+02  0.51100000000E-03 0.  1.
        -12    1    3    3    0    0 -0.16808133696E+02  0.80834562614E+01  0.36004561360E+01  0.18995233820E+02  0.00000000000E+00 0.  1.
</event>
<event>
 7    1  0.2744502E-011  0.5052885E+02  0.7816164E-02  0.1300439E+00
        -11   -1    0    0    0    0  0.00000000000E+00  0.00000000000E+00  0.45593999997E+02  0.45594000000E+02  0.51100000000E-03 0.  1.
         11   -1    0    0    0    0 -0.00000000000E+00 -0.00000000000E+00 -0.45593999997E+02  0.45594000000E+02  0.51100000000E-03 0. -1.
    9900012    2    1    2    0    0  0.55455894539E+01  0.12074974419E+01  0.40261079864E+02  0.50528853867E+02  0.29999981815E+02 0.  0.
         12    1    1    2    0    0 -0.55455894539E+01 -0.12074974419E+01 -0.40261079864E+02  0.40659146133E+02  0.00000000000E+00 0. -1.
         11    1    3    3    0    0  0.72467608046E+01 -0.15012189272E+01  0.21959252318E+01  0.77195393847E+01  0.51100000000E-03 0. -1.
        -11    1    3    3    0    0  0.68504351035E+01  0.54067556345E+01  0.28002740847E+02  0.29331126177E+02  0.51100000000E-03 0.  1.
         12    1    3    3    0    0 -0.85516064543E+01 -0.26980392655E+01  0.10062413785E+02  0.13478188306E+02  0.00000000000E+00 0. -1.
</event>
<event>
 7    1  0.2744502E-011  0.5052885E+02  0.7816164E-02  0.1300439E+00
        -11   -1    0    0    0    0  0.00000000000E+00  0.00000000000E+00  0.45593999997E+02  0.45594000000E+02  0.51100000000E-03 0.  1.
         11   -1    0    0    0    0 -0.00000000000E+00 -0.00000000000E+00 -0.45593999997E+02  0.45594000000E+02  0.51100000000E-03 0. -1.
    9900012    2    1    2    0    0 -0.24353399882E+02  0.25332042499E+01  0.32460147437E+02  0.50528851199E+02  0.29999973704E+02 0.  0.
         12    1    1    2    0    0  0.24353399882E+02 -0.25332042499E+01 -0.32460147437E+02  0.40659148801E+02  0.00000000000E+00 0. -1.
         11    1    3    3    0    0  0.30040588022E+01  0.58704729170E+01  0.65435845514E+01  0.92900656940E+01  0.51100000000E-03 0. -1.
        -11    1    3    3    0    0  0.16408426879E+01  0.70273212202E+00 -0.44693126450E+00  0.18400937417E+01  0.51100000000E-03 0.  1.
        -12    1    3    3    0    0 -0.28998301372E+02 -0.40400007891E+01  0.26363494150E+02  0.39398691763E+02  0.00000000000E+00 0.  1.
</event>
<event>
 7    1  0.2744502E-011  0.5052873E+02  0.7816164E-02  0.1300439E+00
        -11   -1    0    0    0    0  0.00000000000E+00  0.00000000000E+00  0.45593999997E+02  0.45594000000E+02  0.51100000000E-03 0. -1.
         11   -1    0    0    0    0 -0.00000000000E+00 -0.00000000000E+00 -0.45593999997E+02  0.45594000000E+02  0.51100000000E-03 0.  1.
    9900012    2    1    2    0    0  0.13409737162E+02 -0.20618766290E+02  0.32376245345E+02  0.50528734922E+02  0.29999620266E+02 0.  0.
         12    1    1    2    0    0 -0.13409737162E+02  0.20618766290E+02 -0.32376245345E+02  0.40659265078E+02  0.00000000000E+00 0. -1.
         11    1    3    3    0    0 -0.39172402847E+01 -0.27639418712E+01  0.38898296419E+00  0.48099328605E+01  0.51100000000E-03 0. -1.
        -11    1    3    3    0    0  0.80643267409E+01 -0.20145571513E+02  0.15490941312E+02  0.26661708129E+02  0.51100000000E-03 0.  1.
        -12    1    3    3    0    0  0.92626507060E+01  0.22907470941E+01  0.16496321068E+02  0.19057093932E+02  0.00000000000E+00 0.  1.
</event>
<event>
 7    1  0.2744502E-011  0.5052886E+02  0.7816164E-02  0.1300439E+00
        -11   -1    0    0    0    0  0.00000000000E+00  0.00000000000E+00  0.45593999997E+02  0.45594000000E+02  0.51100000000E-03 0.  1.
         11   -1    0    0    0    0 -0.00000000000E+00 -0.00000000000E+00 -0.45593999997E+02  0.45594000000E+02  0.51100000000E-03 0. -1.
    9900012    2    1    2    0    0 -0.26954269196E+02  0.30364012220E+02  0.21586552436E+01  0.50528860088E+02  0.30000000722E+02 0.  0.
         12    1    1    2    0    0  0.26954269196E+02 -0.30364012220E+02 -0.21586552436E+01  0.40659139912E+02  0.00000000000E+00 0. -1.
         11    1    3    3    0    0  0.89847716707E+00  0.24297436595E+01 -0.32633369823E+01  0.41665674112E+01  0.51100000000E-03 0. -1.
        -11    1    3    3    0    0  0.31855919993E+01  0.88601867826E+00  0.39698209856E+01  0.51664789173E+01  0.51100000000E-03 0.  1.
        -12    1    3    3    0    0 -0.31038338362E+02  0.27048249882E+02  0.14521712404E+01  0.41195813759E+02  0.00000000000E+00 0.  1.
</event>
<event>
 7    1  0.2744502E-011  0.5052885E+02  0.7816164E-02  0.1300439E+00
        -11   -1    0    0    0    0  0.00000000000E+00  0.00000000000E+00  0.45593999997E+02  0.45594000000E+02  0.51100000000E-03 0.  1.
         11   -1    0    0    0    0 -0.00000000000E+00 -0.00000000000E+00 -0.45593999997E+02  0.45594000000E+02  0.51100000000E-03 0. -1.
    9900012    2    1    2    0    0 -0.38795686415E+02 -0.12133350409E+02 -0.91836200750E+00  0.50528845245E+02  0.29999955608E+02 0.  0.
         12    1    1    2    0    0  0.38795686415E+02  0.12133350409E+02  0.91836200750E+00  0.40659154755E+02  0.00000000000E+00 0. -1.
         11    1    3    3    0    0 -0.12925507607E+02  0.36669995393E+01 -0.59744132826E+01  0.14704055456E+02  0.51100000000E-03 0.  1.
        -11    1    3    3    0    0 -0.87195081320E+01 -0.48463604816E+00 -0.57113518834E+01  0.10434760887E+02  0.51100000000E-03 0. -1.
        -12    1    3    3    0    0 -0.17150670677E+02 -0.15315713900E+02  0.10767403158E+02  0.25390028903E+02  0.00000000000E+00 0.  1.
</event>
<event>
 7    1  0.2744502E-011  0.5052886E+02  0.7816164E-02  0.1300439E+00
        -11   -1    0    0    0    0  0.00000000000E+00  0.00000000000E+00  0.45593999997E+02  0.45594000000E+02  0.51100000000E-03 0.  1.
         11   -1    0    0    0    0 -0.00000000000E+00 -0.00000000000E+00 -0.45593999997E+02  0.45594000000E+02  0.51100000000E-03 0. -1.
    9900012    2    1    2    0    0 -0.15701373083E+02 -0.34921673670E+02 -0.13678794891E+02  0.50528857876E+02  0.29999993999E+02 0.  0.
         12    1    1    2    0    0  0.15701373083E+02  0.34921673670E+02  0.13678794891E+02  0.40659142124E+02  0.00000000000E+00 0. -1.
         11    1    3    3    0    0 -0.25227665884E+01 -0.60586669491E+00 -0.58333643216E+01  0.63843218340E+01  0.51100000000E-03 0. -1.
        -11    1    3    3    0    0 -0.26490197925E+01 -0.18754338598E+02 -0.14875116155E+02  0.24083430050E+02  0.51100000000E-03 0.  1.
        -12    1    3    3    0    0 -0.10529586702E+02 -0.15561468377E+02  0.70296855853E+01  0.20061105991E+02  0.00000000000E+00 0.  1.
</event>
<event>
 7    1  0.2744502E-011  0.5052888E+02  0.7816164E-02  0.1300439E+00
        -11   -1    0    0    0    0  0.00000000000E+00  0.00000000000E+00  0.45593999997E+02  0.45594000000E+02  0.51100000000E-03 0.  1.
         11   -1    0    0    0    0 -0.00000000000E+00 -0.00000000000E+00 -0.45593999997E+02  0.45594000000E+02  0.51100000000E-03 0. -1.
    9900012    2    1    2    0    0 -0.10654287005E+02 -0.39335887335E+01  0.39040711586E+02  0.50528879091E+02  0.30000058486E+02 0.  0.
         12    1    1    2    0    0  0.10654287005E+02  0.39335887335E+01 -0.39040711586E+02  0.40659120909E+02  0.00000000000E+00 0. -1.
         11    1    3    3    0    0 -0.44230614589E+01  0.44910402321E+01  0.14479442246E+02  0.15791996804E+02  0.51100000000E-03 0.  1.
        -11    1    3    3    0    0 -0.90201001003E-01 -0.12199943577E+00  0.24408331054E+02  0.24408802616E+02  0.51100000000E-03 0. -1.
         12    1    3    3    0    0 -0.61410245448E+01 -0.83026295298E+01  0.15293828649E+00  0.10328079671E+02  0.00000000000E+00 0. -1.
</event>
<event>
 7    1  0.2744502E-011  0.5052886E+02  0.7816164E-02  0.1300439E+00
        -11   -1    0    0    0    0  0.00000000000E+00  0.00000000000E+00  0.45593999997E+02  0.45594000000E+02  0.51100000000E-03 0.  1.
         11   -1    0    0    0    0 -0.00000000000E+00 -0.00000000000E+00 -0.45593999997E+02  0.45594000000E+02  0.51100000000E-03 0. -1.
    9900012    2    1    2    0    0 -0.19025676700E+02  0.75718258920E+01  0.35126296784E+02  0.50528860228E+02  0.30000001149E+02 0.  0.
         12    1    1    2    0    0  0.19025676700E+02 -0.75718258920E+01 -0.35126296784E+02  0.40659139772E+02  0.00000000000E+00 0. -1.
         11    1    3    3    0    0 -0.72553308580E+01  0.99818490079E+00  0.11521984415E+02  0.13652557419E+02  0.51100000000E-03 0. -1.
        -11    1    3    3    0    0 -0.15152316614E+02 -0.43385405680E+01  0.84048390836E+01  0.17862165415E+02  0.51100000000E-03 0.  1.
        -12    1    3    3    0    0  0.33819707719E+01  0.10912181559E+02  0.15199473286E+02  0.19014137394E+02  0.00000000000E+00 0.  1.
</event>
<event>
 7    1  0.2744502E-011  0.5052886E+02  0.7816164E-02  0.1300439E+00
        -11   -1    0    0    0    0  0.00000000000E+00  0.00000000000E+00  0.45593999997E+02  0.45594000000E+02  0.51100000000E-03 0.  1.
         11   -1    0    0    0    0 -0.00000000000E+00 -0.00000000000E+00 -0.45593999997E+02  0.45594000000E+02  0.51100000000E-03 0. -1.
    9900012    2    1    2    0    0 -0.30686324054E+02 -0.21801257093E+02  0.15369453091E+02  0.50528863473E+02  0.30000011013E+02 0.  0.
         12    1    1    2    0    0  0.30686324054E+02  0.21801257093E+02 -0.15369453091E+02  0.40659136527E+02  0.00000000000E+00 0. -1.
         11    1    3    3    0    0 -0.63261027799E+01 -0.11565983841E+02  0.11675197517E+02  0.17609707434E+02  0.51100000000E-03 0. -1.
        -11    1    3    3    0    0 -0.14544431404E+02  0.79495306817E+00  0.91232168575E+01  0.17187365165E+02  0.51100000000E-03 0.  1.
         12    1    3    3    0    0 -0.98157898704E+01 -0.11030226321E+02 -0.54289612836E+01  0.15731790873E+02  0.00000000000E+00 0. -1.
</event>
<event>
 7    1  0.2744502E-011  0.5052886E+02  0.7816164E-02  0.1300439E+00
        -11   -1    0    0    0    0  0.00000000000E+00  0.00000000000E+00  0.45593999997E+02  0.45594000000E+02  0.51100000000E-03 0.  1.
         11   -1    0    0    0    0 -0.00000000000E+00 -0.00000000000E+00 -0.45593999997E+02  0.45594000000E+02  0.51100000000E-03 0. -1.
    9900012    2    1    2    0    0  0.22224712420E+02 -0.33215598834E+02  0.74801085654E+01  0.50528857459E+02  0.29999992732E+02 0.  0.
         12    1    1    2    0    0 -0.22224712420E+02  0.33215598834E+02 -0.74801085654E+01  0.40659142541E+02  0.00000000000E+00 0. -1.
         11    1    3    3    0    0 -0.87501825540E+00 -0.76833954118E+01  0.79705717020E+01  0.11105414694E+02  0.51100000000E-03 0. -1.
        -11    1    3    3    0    0  0.16698616640E+02 -0.14092610777E+02  0.85883968808E+01  0.23477777524E+02  0.51100000000E-03 0.  1.
         12    1    3    3    0    0  0.64011140352E+01 -0.11439592645E+02 -0.90788600174E+01  0.15945665242E+02  0.00000000000E+00 0. -1.
</event>
<event>
 7    1  0.2744502E-011  0.5052886E+02  0.7816164E-02  0.1300439E+00
        -11   -1    0    0    0    0  0.00000000000E+00  0.00000000000E+00  0.45593999997E+02  0.45594000000E+02  0.51100000000E-03 0.  1.
         11   -1    0    0    0    0 -0.00000000000E+00 -0.00000000000E+00 -0.45593999997E+02  0.45594000000E+02  0.51100000000E-03 0. -1.
    9900012    2    1    2    0    0  0.24103952562E+02  0.32641608687E+02  0.25865770506E+01  0.50528861696E+02  0.30000005611E+02 0.  0.
         12    1    1    2    0    0 -0.24103952562E+02 -0.32641608687E+02 -0.25865770506E+01  0.40659138304E+02  0.00000000000E+00 0. -1.
         11    1    3    3    0    0  0.10427928907E+02  0.19225920915E+01  0.52758195005E+01  0.11843662157E+02  0.51100000000E-03 0. -1.
        -11    1    3    3    0    0  0.40803061317E+01 -0.26574376659E+00  0.38270628844E+01  0.56005293018E+01  0.51100000000E-03 0.  1.
        -12    1    3    3    0    0  0.95957175237E+01  0.30984760362E+02 -0.65163053342E+01  0.33084670237E+02  0.00000000000E+00 0.  1.
</event>
<event>
 7    1  0.2744502E-011  0.5052885E+02  0.7816164E-02  0.1300439E+00
        -11   -1    0    0    0    0  0.00000000000E+00  0.00000000000E+00  0.45593999997E+02  0.45594000000E+02  0.51100000000E-03 0.  1.
         11   -1    0    0    0    0 -0.00000000000E+00 -0.00000000000E+00 -0.45593999997E+02  0.45594000000E+02  0.51100000000E-03 0. -1.
    9900012    2    1    2    0    0  0.20548010586E+02 -0.30240397674E+02  0.17789433222E+02  0.50528851892E+02  0.29999975810E+02 0.  0.
         12    1    1    2    0    0 -0.20548010586E+02  0.30240397674E+02 -0.17789433222E+02  0.40659148108E+02  0.00000000000E+00 0. -1.
         11    1    3    3    0    0  0.13248437041E+02 -0.13310359436E+02  0.21612114142E+02  0.28631629892E+02  0.51100000000E-03 0. -1.
        -11    1    3    3    0    0  0.61092856989E+01 -0.46685655186E+01  0.24543471479E+01  0.80711025230E+01  0.51100000000E-03 0.  1.
         12    1    3    3    0    0  0.11902878462E+01 -0.12261472720E+02 -0.62770280679E+01  0.13826119477E+02  0.00000000000E+00 0. -1.
</event>
<event>
 7    1  0.2744502E-011  0.5052886E+02  0.7816164E-02  0.1300439E+00
        -11   -1    0    0    0    0  0.00000000000E+00  0.00000000000E+00  0.45593999997E+02  0.45594000000E+02  0.51100000000E-03 0. -1.
         11   -1    0    0    0    0 -0.00000000000E+00 -0.00000000000E+00 -0.45593999997E+02  0.45594000000E+02  0.51100000000E-03 0.  1.
    9900012    2    1    2    0    0 -0.35887758501E+02  0.83497072623E+01  0.17190607585E+02  0.50528858215E+02  0.29999995029E+02 0.  0.
         12    1    1    2    0    0  0.35887758501E+02 -0.83497072623E+01 -0.17190607585E+02  0.40659141785E+02  0.00000000000E+00 0. -1.
         11    1    3    3    0    0 -0.21906422971E+02  0.26119341529E+01  0.91601275525E+01  0.23887685205E+02  0.51100000000E-03 0. -1.
        -11    1    3    3    0    0 -0.17383121821E+02  0.32011439487E+01  0.13306126359E+00  0.17675914471E+02  0.51100000000E-03 0.  1.
         12    1    3    3    0    0  0.34017862907E+01  0.25366291608E+01  0.78974187684E+01  0.89652585390E+01  0.00000000000E+00 0. -1.
</event>
<event>
 7    1  0.2744502E-011  0.5052887E+02  0.7816164E-02  0.1300439E+00
        -11   -1    0    0    0    0  0.00000000000E+00  0.00000000000E+00  0.45593999997E+02  0.45594000000E+02  0.51100000000E-03 0.  1.
         11   -1    0    0    0    0 -0.00000000000E+00 -0.00000000000E+00 -0.45593999997E+02  0.45594000000E+02  0.51100000000E-03 0. -1.
    9900012    2    1    2    0    0  0.40147066204E+02  0.19521458102E+01 -0.61291986700E+01  0.50528869729E+02  0.30000030029E+02 0.  0.
         12    1    1    2    0    0 -0.40147066204E+02 -0.19521458102E+01  0.61291986700E+01  0.40659130271E+02  0.00000000000E+00 0. -1.
         11    1    3    3    0    0  0.80143303131E+01 -0.12497320616E+01 -0.83649539084E+01  0.11651771314E+02  0.51100000000E-03 0. -1.
        -11    1    3    3    0    0  0.14839556120E+02  0.30802824784E+01 -0.95823745669E+01  0.17931047616E+02  0.51100000000E-03 0.  1.
        -12    1    3    3    0    0  0.17293179770E+02  0.12159539343E+00  0.11818129805E+02  0.20946050800E+02  0.00000000000E+00 0.  1.
</event>
<event>
 7    1  0.2744502E-011  0.5052887E+02  0.7816164E-02  0.1300439E+00
        -11   -1    0    0    0    0  0.00000000000E+00  0.00000000000E+00  0.45593999997E+02  0.45594000000E+02  0.51100000000E-03 0. -1.
         11   -1    0    0    0    0 -0.00000000000E+00 -0.00000000000E+00 -0.45593999997E+02  0.45594000000E+02  0.51100000000E-03 0.  1.
    9900012    2    1    2    0    0  0.15131614600E+02  0.37737497139E+02  0.28362350042E+00  0.50528869500E+02  0.30000029332E+02 0.  0.
         12    1    1    2    0    0 -0.15131614600E+02 -0.37737497139E+02 -0.28362350042E+00  0.40659130500E+02  0.00000000000E+00 0. -1.
         11    1    3    3    0    0  0.50606566756E+01  0.24936163164E+01 -0.38504859445E+01  0.68304180393E+01  0.51100000000E-03 0. -1.
        -11    1    3    3    0    0  0.92650247190E+01  0.11272585238E+02 -0.81897638209E+01  0.16732725202E+02  0.51100000000E-03 0.  1.
         12    1    3    3    0    0  0.80593320521E+00  0.23971295585E+02  0.12323873266E+02  0.26965726259E+02  0.00000000000E+00 0. -1.
</event>
<event>
 7    1  0.2744502E-011  0.5052886E+02  0.7816164E-02  0.1300439E+00
        -11   -1    0    0    0    0  0.00000000000E+00  0.00000000000E+00  0.45593999997E+02  0.45594000000E+02  0.51100000000E-03 0.  1.
         11   -1    0    0    0    0 -0.00000000000E+00 -0.00000000000E+00 -0.45593999997E+02  0.45594000000E+02  0.51100000000E-03 0. -1.
    9900012    2    1    2    0    0 -0.31350397431E+02  0.22060215548E+02 -0.13552303401E+02  0.50528862569E+02  0.30000008266E+02 0.  0.
         12    1    1    2    0    0  0.31350397431E+02 -0.22060215548E+02  0.13552303401E+02  0.40659137431E+02  0.00000000000E+00 0. -1.
         11    1    3    3    0    0 -0.66748464921E+01  0.11117463972E+02 -0.27629059442E+01  0.13258402256E+02  0.51100000000E-03 0. -1.
        -11    1    3    3    0    0 -0.14274096794E+02  0.67277313681E+01  0.61619686113E+01  0.16940545034E+02  0.51100000000E-03 0.  1.
         12    1    3    3    0    0 -0.10401454146E+02  0.42150202086E+01 -0.16951366068E+02  0.20329915279E+02  0.00000000000E+00 0. -1.
</event>
<event>
 7    1  0.2744502E-011  0.5052887E+02  0.7816164E-02  0.1300439E+00
        -11   -1    0    0    0    0  0.00000000000E+00  0.00000000000E+00  0.45593999997E+02  0.45594000000E+02  0.51100000000E-03 0. -1.
         11   -1    0    0    0    0 -0.00000000000E+00 -0.00000000000E+00 -0.45593999997E+02  0.45594000000E+02  0.51100000000E-03 0.  1.
    9900012    2    1    2    0    0 -0.25879407079E+02  0.30156239783E+02 -0.86036173906E+01  0.50528871372E+02  0.30000035021E+02 0.  0.
         12    1    1    2    0    0  0.25879407079E+02 -0.30156239783E+02  0.86036173906E+01  0.40659128628E+02  0.00000000000E+00 0. -1.
         11    1    3    3    0    0  0.28852589594E+01 -0.27057083714E+01  0.29468457503E+01  0.49324919859E+01  0.51100000000E-03 0. -1.
        -11    1    3    3    0    0 -0.80634497482E+01  0.80769146201E+01 -0.57753940583E+01  0.12791049543E+02  0.51100000000E-03 0.  1.
        -12    1    3    3    0    0 -0.20701216290E+02  0.24785033534E+02 -0.57750690826E+01  0.32805329843E+02  0.00000000000E+00 0.  1.
</event>
<event>
 7    1  0.2744502E-011  0.5052887E+02  0.7816164E-02  0.1300439E+00
        -11   -1    0    0    0    0  0.00000000000E+00  0.00000000000E+00  0.45593999997E+02  0.45594000000E+02  0.51100000000E-03 0.  1.
         11   -1    0    0    0    0 -0.00000000000E+00 -0.00000000000E+00 -0.45593999997E+02  0.45594000000E+02  0.51100000000E-03 0. -1.
    9900012    2    1    2    0    0  0.20090529567E+02 -0.12013563447E+02  0.33244701352E+02  0.50528865074E+02  0.30000015878E+02 0.  0.
         12    1    1    2    0    0 -0.20090529567E+02  0.12013563447E+02 -0.33244701352E+02  0.40659134926E+02  0.00000000000E+00 0. -1.
         11    1    3    3    0    0  0.47265238589E+01  0.35956763605E+01  0.97668183336E+01  0.11430645515E+02  0.51100000000E-03 0. -1.
        -11    1    3    3    0    0 -0.28629016032E+01 -0.49574663602E-02  0.12299043919E+02  0.12627854598E+02  0.51100000000E-03 0.  1.
         12    1    3    3    0    0  0.18226907311E+02 -0.15604282341E+02  0.11178839099E+02  0.26470364960E+02  0.00000000000E+00 0. -1.
</event>
<event>
 7    1  0.2744502E-011  0.5052886E+02  0.7816164E-02  0.1300439E+00
        -11   -1    0    0    0    0  0.00000000000E+00  0.00000000000E+00  0.45593999997E+02  0.45594000000E+02  0.51100000000E-03 0.  1.
         11   -1    0    0    0    0 -0.00000000000E+00 -0.00000000000E+00 -0.45593999997E+02  0.45594000000E+02  0.51100000000E-03 0. -1.
    9900012    2    1    2    0    0  0.31988770626E+02  0.14561177901E+02  0.20441541465E+02  0.50528856311E+02  0.29999989242E+02 0.  0.
         12    1    1    2    0    0 -0.31988770626E+02 -0.14561177901E+02 -0.20441541465E+02  0.40659143689E+02  0.00000000000E+00 0. -1.
         11    1    3    3    0    0  0.20535287551E+02  0.52230097816E+01  0.16680795847E+02  0.26967143274E+02  0.51100000000E-03 0. -1.
        -11    1    3    3    0    0  0.16226311773E+02  0.66695201698E+01  0.43122275729E+01  0.18065741057E+02  0.51100000000E-03 0.  1.
         12    1    3    3    0    0 -0.47728286975E+01  0.26686479500E+01 -0.55148195469E+00  0.54959719798E+01  0.00000000000E+00 0. -1.
</event>
<event>
 7    1  0.2744502E-011  0.5052886E+02  0.7816164E-02  0.1300439E+00
        -11   -1    0    0    0    0  0.00000000000E+00  0.00000000000E+00  0.45593999997E+02  0.45594000000E+02  0.51100000000E-03 0.  1.
         11   -1    0    0    0    0 -0.00000000000E+00 -0.00000000000E+00 -0.45593999997E+02  0.45594000000E+02  0.51100000000E-03 0. -1.
    9900012    2    1    2    0    0  0.27780776040E+02  0.91701219354E+01  0.28236551583E+02  0.50528862048E+02  0.30000006681E+02 0.  0.
         12    1    1    2    0    0 -0.27780776040E+02 -0.91701219354E+01 -0.28236551583E+02  0.40659137952E+02  0.00000000000E+00 0. -1.
         11    1    3    3    0    0  0.12672910289E+02 -0.61956067058E+01  0.67470834743E+01  0.15636858166E+02  0.51100000000E-03 0. -1.
        -11    1    3    3    0    0  0.88414873885E+01  0.42284120049E+00  0.12097526330E+01  0.89338790912E+01  0.51100000000E-03 0.  1.
        -12    1    3    3    0    0  0.62663783629E+01  0.14942887441E+02  0.20279715476E+02  0.25958124791E+02  0.00000000000E+00 0.  1.
</event>
<event>
 7    1  0.2744502E-011  0.5052900E+02  0.7816164E-02  0.1300438E+00
        -11   -1    0    0    0    0  0.00000000000E+00  0.00000000000E+00  0.45593999997E+02  0.45594000000E+02  0.51100000000E-03 0.  1.
         11   -1    0    0    0    0 -0.00000000000E+00 -0.00000000000E+00 -0.45593999997E+02  0.45594000000E+02  0.51100000000E-03 0. -1.
    9900012    2    1    2    0    0 -0.25714665836E+02 -0.43030639973E+01  0.31199267285E+02  0.50528995119E+02  0.30000411161E+02 0.  0.
         12    1    1    2    0    0  0.25714665836E+02  0.43030639973E+01 -0.31199267285E+02  0.40659004881E+02  0.00000000000E+00 0. -1.
         11    1    3    3    0    0 -0.69939083080E+01 -0.11933950518E+02  0.11077620096E+02  0.17721388085E+02  0.51100000000E-03 0. -1.
        -11    1    3    3    0    0  0.25465219458E+01  0.17295239753E+01  0.21536222552E+00  0.30858399749E+01  0.51100000000E-03 0.  1.
        -12    1    3    3    0    0 -0.21267279473E+02  0.59013625456E+01  0.19906284964E+02  0.29721767060E+02  0.00000000000E+00 0.  1.
</event>
<event>
 7    1  0.2744502E-011  0.5052886E+02  0.7816164E-02  0.1300439E+00
        -11   -1    0    0    0    0  0.00000000000E+00  0.00000000000E+00  0.45593999997E+02  0.45594000000E+02  0.51100000000E-03 0.  1.
         11   -1    0    0    0    0 -0.00000000000E+00 -0.00000000000E+00 -0.45593999997E+02  0.45594000000E+02  0.51100000000E-03 0. -1.
    9900012    2    1    2    0    0 -0.14505412168E+02  0.32714871409E+02  0.19300144438E+02  0.50528863649E+02  0.30000011549E+02 0.  0.
         12    1    1    2    0    0  0.14505412168E+02 -0.32714871409E+02 -0.19300144438E+02  0.40659136351E+02  0.00000000000E+00 0. -1.
         11    1    3    3    0    0 -0.10424129436E+02  0.75858055290E+01 -0.47603042639E+01  0.13742904240E+02  0.51100000000E-03 0. -1.
        -11    1    3    3    0    0 -0.34551931190E+01  0.10521812889E+01  0.20202117690E+01  0.41384418332E+01  0.51100000000E-03 0.  1.
         12    1    3    3    0    0 -0.62608961346E+00  0.24076884591E+02  0.22040236933E+02  0.32647517576E+02  0.00000000000E+00 0. -1.
</event>
<event>
 7    1  0.2744502E-011  0.5052886E+02  0.7816164E-02  0.1300439E+00
        -11   -1    0    0    0    0  0.00000000000E+00  0.00000000000E+00  0.45593999997E+02  0.45594000000E+02  0.51100000000E-03 0. -1.
         11   -1    0    0    0    0 -0.00000000000E+00 -0.00000000000E+00 -0.45593999997E+02  0.45594000000E+02  0.51100000000E-03 0.  1.
    9900012    2    1    2    0    0  0.92995285872E+01 -0.37751424288E+02 -0.11895985971E+02  0.50528858962E+02  0.29999997302E+02 0.  0.
         12    1    1    2    0    0 -0.92995285872E+01  0.37751424288E+02  0.11895985971E+02  0.40659141038E+02  0.00000000000E+00 0. -1.
         11    1    3    3    0    0 -0.34264340131E+00  0.48103518355E+01 -0.10161096715E+01  0.49284245361E+01  0.51100000000E-03 0. -1.
        -11    1    3    3    0    0  0.18620538653E+01 -0.39056824031E+01 -0.33133644575E+01  0.54497691621E+01  0.51100000000E-03 0.  1.
        -12    1    3    3    0    0  0.77801181232E+01 -0.38656093720E+02 -0.75665118421E+01  0.40150665264E+02  0.00000000000E+00 0.  1.
</event>
<event>
 7    1  0.2744502E-011  0.5052886E+02  0.7816164E-02  0.1300439E+00
        -11   -1    0    0    0    0  0.00000000000E+00  0.00000000000E+00  0.45593999997E+02  0.45594000000E+02  0.51100000000E-03 0.  1.
         11   -1    0    0    0    0 -0.00000000000E+00 -0.00000000000E+00 -0.45593999997E+02  0.45594000000E+02  0.51100000000E-03 0. -1.
    9900012    2    1    2    0    0 -0.13700066632E+02 -0.90333242256E+01  0.37200439623E+02  0.50528862276E+02  0.30000007374E+02 0.  0.
         12    1    1    2    0    0  0.13700066632E+02  0.90333242256E+01 -0.37200439623E+02  0.40659137724E+02  0.00000000000E+00 0. -1.
         11    1    3    3    0    0 -0.54873332440E+01 -0.10565940419E+02  0.13529668098E+02  0.18022259630E+02  0.51100000000E-03 0. -1.
        -11    1    3    3    0    0  0.23045263347E+01 -0.32302329920E-01 -0.30065461092E+01  0.37882984090E+01  0.51100000000E-03 0.  1.
        -12    1    3    3    0    0 -0.10517259723E+02  0.15649185232E+01  0.26677317635E+02  0.28718304237E+02  0.00000000000E+00 0.  1.
</event>
<event>
 7    1  0.2744502E-011  0.5052886E+02  0.7816164E-02  0.1300439E+00
        -11   -1    0    0    0    0  0.00000000000E+00  0.00000000000E+00  0.45593999997E+02  0.45594000000E+02  0.51100000000E-03 0.  1.
         11   -1    0    0    0    0 -0.00000000000E+00 -0.00000000000E+00 -0.45593999997E+02  0.45594000000E+02  0.51100000000E-03 0. -1.
    9900012    2    1    2    0    0 -0.34352268648E+01 -0.16729364717E+02  0.36898419616E+02  0.50528858376E+02  0.29999995521E+02 0.  0.
         12    1    1    2    0    0  0.34352268648E+01  0.16729364717E+02 -0.36898419616E+02  0.40659141624E+02  0.00000000000E+00 0. -1.
         11    1    3    3    0    0 -0.19683612905E+01  0.29904059792E+01 -0.21988710483E+01  0.42014293090E+01  0.51100000000E-03 0. -1.
        -11    1    3    3    0    0 -0.69194299489E-01 -0.11462743788E+02  0.76428215457E+01  0.13777227749E+02  0.51100000000E-03 0.  1.
        -12    1    3    3    0    0 -0.13976712748E+01 -0.82570269074E+01  0.31454469118E+02  0.32550201318E+02  0.00000000000E+00 0.  1.
</event>
<event>
 7    1  0.2744502E-011  0.5052886E+02  0.7816164E-02  0.1300439E+00
        -11   -1    0    0    0    0  0.00000000000E+00  0.00000000000E+00  0.45593999997E+02  0.45594000000E+02  0.51100000000E-03 0.  1.
         11   -1    0    0    0    0 -0.00000000000E+00 -0.00000000000E+00 -0.45593999997E+02  0.45594000000E+02  0.51100000000E-03 0. -1.
    9900012    2    1    2    0    0  0.13125221066E+02 -0.27270877342E+02  0.27151309484E+02  0.50528858522E+02  0.29999995962E+02 0.  0.
         12    1    1    2    0    0 -0.13125221066E+02  0.27270877342E+02 -0.27151309484E+02  0.40659141478E+02  0.00000000000E+00 0. -1.
         11    1    3    3    0    0  0.40073177576E+01 -0.10522722709E+02  0.18441182174E+01  0.11409954473E+02  0.51100000000E-03 0. -1.
        -11    1    3    3    0    0 -0.68894776707E+01 -0.10648644614E+02  0.10115440261E+02  0.16222843975E+02  0.51100000000E-03 0.  1.
        -12    1    3    3    0    0  0.16007380979E+02 -0.60995100195E+01  0.15191751006E+02  0.22896060074E+02  0.00000000000E+00 0.  1.
</event>
<event>
 7    1  0.2744502E-011  0.5052880E+02  0.7816164E-02  0.1300439E+00
        -11   -1    0    0    0    0  0.00000000000E+00  0.00000000000E+00  0.45593999997E+02  0.45594000000E+02  0.51100000000E-03 0. -1.
         11   -1    0    0    0    0 -0.00000000000E+00 -0.00000000000E+00 -0.45593999997E+02  0.45594000000E+02  0.51100000000E-03 0.  1.
    9900012    2    1    2    0    0  0.21247389865E+02  0.14585900235E+02 -0.31447896841E+02  0.50528803285E+02  0.29999828065E+02 0.  0.
         12    1    1    2    0    0 -0.21247389865E+02 -0.14585900235E+02  0.31447896841E+02  0.40659196715E+02  0.00000000000E+00 0. -1.
         11    1    3    3    0    0  0.34182690306E+01  0.54288641352E+01  0.37750855850E+01  0.74436819115E+01  0.51100000000E-03 0. -1.
        -11    1    3    3    0    0 -0.12070224536E+01  0.11375761332E+01 -0.11543845596E+02  0.11662390581E+02  0.51100000000E-03 0.  1.
         12    1    3    3    0    0  0.19036143288E+02  0.80194599670E+01 -0.23679136831E+02  0.31422730793E+02  0.00000000000E+00 0. -1.
</event>
<event>
 7    1  0.2744502E-011  0.5052886E+02  0.7816164E-02  0.1300439E+00
        -11   -1    0    0    0    0  0.00000000000E+00  0.00000000000E+00  0.45593999997E+02  0.45594000000E+02  0.51100000000E-03 0.  1.
         11   -1    0    0    0    0 -0.00000000000E+00 -0.00000000000E+00 -0.45593999997E+02  0.45594000000E+02  0.51100000000E-03 0. -1.
    9900012    2    1    2    0    0  0.37805402212E+02 -0.14009002533E+02  0.52597817839E+01  0.50528857206E+02  0.29999991963E+02 0.  0.
         12    1    1    2    0    0 -0.37805402212E+02  0.14009002533E+02 -0.52597817839E+01  0.40659142794E+02  0.00000000000E+00 0. -1.
         11    1    3    3    0    0  0.16138880555E+02 -0.17954561687E+01 -0.36327226256E+01  0.16639825791E+02  0.51100000000E-03 0. -1.
        -11    1    3    3    0    0  0.80698547528E+01 -0.22993537680E+01 -0.68605492054E+01  0.10838667775E+02  0.51100000000E-03 0.  1.
        -12    1    3    3    0    0  0.13596666904E+02 -0.99141925961E+01  0.15753053615E+02  0.23050363640E+02  0.00000000000E+00 0.  1.
</event>
<event>
 7    1  0.2744502E-011  0.5052886E+02  0.7816164E-02  0.1300439E+00
        -11   -1    0    0    0    0  0.00000000000E+00  0.00000000000E+00  0.45593999997E+02  0.45594000000E+02  0.51100000000E-03 0.  1.
         11   -1    0    0    0    0 -0.00000000000E+00 -0.00000000000E+00 -0.45593999997E+02  0.45594000000E+02  0.51100000000E-03 0. -1.
    9900012    2    1    2    0    0  0.25108839730E+02  0.29716200394E+02 -0.11817763576E+02  0.50528856694E+02  0.29999990407E+02 0.  0.
         12    1    1    2    0    0 -0.25108839730E+02 -0.29716200394E+02  0.11817763576E+02  0.40659143306E+02  0.00000000000E+00 0. -1.
         11    1    3    3    0    0 -0.45961730824E+01  0.99172273947E+01 -0.22796387602E+01  0.11165704606E+02  0.51100000000E-03 0. -1.
        -11    1    3    3    0    0  0.18668826384E+01  0.62570042264E+01  0.11153297509E+01  0.66241462386E+01  0.51100000000E-03 0.  1.
        -12    1    3    3    0    0  0.27838130174E+02  0.13541968773E+02 -0.10653454567E+02  0.32739005850E+02  0.00000000000E+00 0.  1.
</event>
<event>
 7    1  0.2744502E-011  0.5052886E+02  0.7816164E-02  0.1300439E+00
        -11   -1    0    0    0    0  0.00000000000E+00  0.00000000000E+00  0.45593999997E+02  0.45594000000E+02  0.51100000000E-03 0.  1.
         11   -1    0    0    0    0 -0.00000000000E+00 -0.00000000000E+00 -0.45593999997E+02  0.45594000000E+02  0.51100000000E-03 0. -1.
    9900012    2    1    2    0    0  0.70990441666E+01  0.27186339236E+02  0.29388306054E+02  0.50528855864E+02  0.29999987885E+02 0.  0.
         12    1    1    2    0    0 -0.70990441666E+01 -0.27186339236E+02 -0.29388306054E+02  0.40659144136E+02  0.00000000000E+00 0. -1.
         11    1    3    3    0    0  0.68438918412E+01  0.11542113868E+02  0.37488427440E+01  0.13932446671E+02  0.51100000000E-03 0. -1.
        -11    1    3    3    0    0 -0.17594449434E+01  0.20628228599E+02  0.21096782576E+02  0.29558310116E+02  0.51100000000E-03 0.  1.
         12    1    3    3    0    0  0.20145972688E+01 -0.49840032303E+01  0.45426807341E+01  0.70380990763E+01  0.00000000000E+00 0. -1.
</event>
<event>
 7    1  0.2744502E-011  0.5052886E+02  0.7816164E-02  0.1300439E+00
        -11   -1    0    0    0    0  0.00000000000E+00  0.00000000000E+00  0.45593999997E+02  0.45594000000E+02  0.51100000000E-03 0.  1.
         11   -1    0    0    0    0 -0.00000000000E+00 -0.00000000000E+00 -0.45593999997E+02  0.45594000000E+02  0.51100000000E-03 0. -1.
    9900012    2    1    2    0    0 -0.67305050297E+01  0.36929925393E+01  0.39927785205E+02  0.50528856831E+02  0.29999990824E+02 0.  0.
         12    1    1    2    0    0  0.67305050297E+01 -0.36929925393E+01 -0.39927785205E+02  0.40659143169E+02  0.00000000000E+00 0. -1.
         11    1    3    3    0    0 -0.49835788775E+01  0.10072720569E+02  0.55223869976E+01  0.12521681856E+02  0.51100000000E-03 0. -1.
        -11    1    3    3    0    0 -0.13613715575E+01  0.46174253247E+01  0.14284783311E+02  0.15074116347E+02  0.51100000000E-03 0.  1.
        -12    1    3    3    0    0 -0.38555459472E+00 -0.10997153354E+02  0.20120614896E+02  0.22933058628E+02  0.00000000000E+00 0.  1.
</event>
<event>
 7    1  0.2744502E-011  0.5052884E+02  0.7816164E-02  0.1300439E+00
        -11   -1    0    0    0    0  0.00000000000E+00  0.00000000000E+00  0.45593999997E+02  0.45594000000E+02  0.51100000000E-03 0.  1.
         11   -1    0    0    0    0 -0.00000000000E+00 -0.00000000000E+00 -0.45593999997E+02  0.45594000000E+02  0.51100000000E-03 0. -1.
    9900012    2    1    2    0    0 -0.23370441648E+02 -0.30267507199E+02 -0.13815484525E+02  0.50528841776E+02  0.29999945062E+02 0.  0.
         12    1    1    2    0    0  0.23370441648E+02  0.30267507199E+02  0.13815484525E+02  0.40659158224E+02  0.00000000000E+00 0. -1.
         11    1    3    3    0    0 -0.23668200407E+01 -0.65976568772E+00  0.17729014142E+01  0.30299022349E+01  0.51100000000E-03 0. -1.
        -11    1    3    3    0    0 -0.46174547182E+01  0.46281542751E+01 -0.45704378095E+01  0.79768165393E+01  0.51100000000E-03 0.  1.
        -12    1    3    3    0    0 -0.16386166889E+02 -0.34235895786E+02 -0.11017948129E+02  0.39522123002E+02  0.00000000000E+00 0.  1.
</event>
<event>
 7    1  0.2744502E-011  0.5052886E+02  0.7816164E-02  0.1300439E+00
        -11   -1    0    0    0    0  0.00000000000E+00  0.00000000000E+00  0.45593999997E+02  0.45594000000E+02  0.51100000000E-03 0.  1.
         11   -1    0    0    0    0 -0.00000000000E+00 -0.00000000000E+00 -0.45593999997E+02  0.45594000000E+02  0.51100000000E-03 0. -1.
    9900012    2    1    2    0    0  0.20939857282E+02  0.29210057445E+02  0.19012126912E+02  0.50528855289E+02  0.29999986136E+02 0.  0.
         12    1    1    2    0    0 -0.20939857282E+02 -0.29210057445E+02 -0.19012126912E+02  0.40659144711E+02  0.00000000000E+00 0. -1.
         11    1    3    3    0    0  0.29219201241E+01  0.20984915931E+01 -0.13537707462E+01  0.38436934936E+01  0.51100000000E-03 0.  1.
        -11    1    3    3    0    0  0.19057782509E+02  0.54984408047E+01  0.60396662813E+01  0.20734258957E+02  0.51100000000E-03 0. -1.
        -12    1    3    3    0    0 -0.10398453512E+01  0.21613125047E+02  0.14326231377E+02  0.25950902838E+02  0.00000000000E+00 0.  1.
</event>
<event>
 7    1  0.2744502E-011  0.5052886E+02  0.7816164E-02  0.1300439E+00
        -11   -1    0    0    0    0  0.00000000000E+00  0.00000000000E+00  0.45593999997E+02  0.45594000000E+02  0.51100000000E-03 0.  1.
         11   -1    0    0    0    0 -0.00000000000E+00 -0.00000000000E+00 -0.45593999997E+02  0.45594000000E+02  0.51100000000E-03 0. -1.
    9900012    2    1    2    0    0  0.16073687652E+02  0.35531800665E+02  0.11501871304E+02  0.50528864044E+02  0.30000012747E+02 0.  0.
         12    1    1    2    0    0 -0.16073687652E+02 -0.35531800665E+02 -0.11501871304E+02  0.40659135956E+02  0.00000000000E+00 0. -1.
         11    1    3    3    0    0 -0.89247564703E+00  0.85458544246E+01  0.69875884712E+01  0.11074950724E+02  0.51100000000E-03 0. -1.
        -11    1    3    3    0    0  0.20892126753E+01  0.17438327145E+02  0.10886428983E+02  0.20663358863E+02  0.51100000000E-03 0.  1.
        -12    1    3    3    0    0  0.14876950624E+02  0.95476190948E+01 -0.63721461505E+01  0.18790554457E+02  0.00000000000E+00 0.  1.
</event>
<event>
 7    1  0.2744502E-011  0.5052885E+02  0.7816164E-02  0.1300439E+00
        -11   -1    0    0    0    0  0.00000000000E+00  0.00000000000E+00  0.45593999997E+02  0.45594000000E+02  0.51100000000E-03 0.  1.
         11   -1    0    0    0    0 -0.00000000000E+00 -0.00000000000E+00 -0.45593999997E+02  0.45594000000E+02  0.51100000000E-03 0. -1.
    9900012    2    1    2    0    0 -0.39508377527E+01 -0.32957895492E+02  0.23480510817E+02  0.50528851184E+02  0.29999973657E+02 0.  0.
         12    1    1    2    0    0  0.39508377527E+01  0.32957895492E+02 -0.23480510817E+02  0.40659148816E+02  0.00000000000E+00 0. -1.
         11    1    3    3    0    0  0.46825385358E+01 -0.38563353798E+01  0.86104066387E+01  0.10532644134E+02  0.51100000000E-03 0. -1.
        -11    1    3    3    0    0 -0.44122181221E+01  0.11441883973E+01  0.71788456302E+01  0.85036851240E+01  0.51100000000E-03 0.  1.
         12    1    3    3    0    0 -0.42211581663E+01 -0.30245748510E+02  0.76912585484E+01  0.31492521926E+02  0.00000000000E+00 0. -1.
</event>
<event>
 7    1  0.2744502E-011  0.5052886E+02  0.7816164E-02  0.1300439E+00
        -11   -1    0    0    0    0  0.00000000000E+00  0.00000000000E+00  0.45593999997E+02  0.45594000000E+02  0.51100000000E-03 0.  1.
         11   -1    0    0    0    0 -0.00000000000E+00 -0.00000000000E+00 -0.45593999997E+02  0.45594000000E+02  0.51100000000E-03 0. -1.
    9900012    2    1    2    0    0 -0.37032840387E+02 -0.16439945049E+02  0.33856169438E+01  0.50528862498E+02  0.30000008048E+02 0.  0.
         12    1    1    2    0    0  0.37032840387E+02  0.16439945049E+02 -0.33856169438E+01  0.40659137502E+02  0.00000000000E+00 0. -1.
         11    1    3    3    0    0  0.12677762501E+01  0.34405984253E+00  0.80860435589E-01  0.13161202326E+01  0.51100000000E-03 0. -1.
        -11    1    3    3    0    0 -0.11674622260E+02 -0.22645673798E+01 -0.10524954152E+02  0.15880797540E+02  0.51100000000E-03 0.  1.
        -12    1    3    3    0    0 -0.26625994377E+02 -0.14519437511E+02  0.13829710660E+02  0.33331944725E+02  0.00000000000E+00 0.  1.
</event>
<event>
 7    1  0.2744502E-011  0.5052887E+02  0.7816164E-02  0.1300439E+00
        -11   -1    0    0    0    0  0.00000000000E+00  0.00000000000E+00  0.45593999997E+02  0.45594000000E+02  0.51100000000E-03 0.  1.
         11   -1    0    0    0    0 -0.00000000000E+00 -0.00000000000E+00 -0.45593999997E+02  0.45594000000E+02  0.51100000000E-03 0. -1.
    9900012    2    1    2    0    0 -0.23375978942E+01  0.33935064634E+02  0.22273561906E+02  0.50528873895E+02  0.30000042691E+02 0.  0.
         12    1    1    2    0    0  0.23375978942E+01 -0.33935064634E+02 -0.22273561906E+02  0.40659126105E+02  0.00000000000E+00 0. -1.
         11    1    3    3    0    0  0.24491921612E+01  0.16260819201E+02  0.39174450735E+01  0.16904412427E+02  0.51100000000E-03 0. -1.
        -11    1    3    3    0    0  0.67659868402E+01  0.14383989778E+02  0.12705353004E+02  0.20349538940E+02  0.51100000000E-03 0.  1.
         12    1    3    3    0    0 -0.11552776896E+02  0.32902556551E+01  0.56507638280E+01  0.13274922528E+02  0.00000000000E+00 0. -1.
</event>
<event>
 7    1  0.2744502E-011  0.5052887E+02  0.7816164E-02  0.1300439E+00
        -11   -1    0    0    0    0  0.00000000000E+00  0.00000000000E+00  0.45593999997E+02  0.45594000000E+02  0.51100000000E-03 0.  1.
         11   -1    0    0    0    0 -0.00000000000E+00 -0.00000000000E+00 -0.45593999997E+02  0.45594000000E+02  0.51100000000E-03 0. -1.
    9900012    2    1    2    0    0 -0.14803151641E+02 -0.24003385108E+01  0.37792457469E+02  0.50528871075E+02  0.30000034118E+02 0.  0.
         12    1    1    2    0    0  0.14803151641E+02  0.24003385108E+01 -0.37792457469E+02  0.40659128925E+02  0.00000000000E+00 0. -1.
         11    1    3    3    0    0 -0.12982650918E+01  0.48142536146E+01  0.57351695169E+01  0.75996512922E+01  0.51100000000E-03 0. -1.
        -11    1    3    3    0    0 -0.13257000026E+02  0.57132709191E+01  0.10723525897E+02  0.17982867463E+02  0.51100000000E-03 0.  1.
        -12    1    3    3    0    0 -0.24788652319E+00 -0.12927863045E+02  0.21333762055E+02  0.24946352319E+02  0.00000000000E+00 0.  1.
</event>
<event>
 7    1  0.2744502E-011  0.5052878E+02  0.7816164E-02  0.1300439E+00
        -11   -1    0    0    0    0  0.00000000000E+00  0.00000000000E+00  0.45593999997E+02  0.45594000000E+02  0.51100000000E-03 0. -1.
         11   -1    0    0    0    0 -0.00000000000E+00 -0.00000000000E+00 -0.45593999997E+02  0.45594000000E+02  0.51100000000E-03 0.  1.
    9900012    2    1    2    0    0 -0.31103170874E+02  0.23463306038E+02  0.11629207256E+02  0.50528776814E+02  0.29999747604E+02 0.  0.
         12    1    1    2    0    0  0.31103170874E+02 -0.23463306038E+02 -0.11629207256E+02  0.40659223186E+02  0.00000000000E+00 0. -1.
         11    1    3    3    0    0 -0.38497307336E+00 -0.35381547908E+01 -0.28411982695E+01  0.45540258517E+01  0.51100000000E-03 0. -1.
        -11    1    3    3    0    0 -0.47267108143E+01  0.41277997919E+01 -0.32645241580E+01  0.70737291779E+01  0.51100000000E-03 0.  1.
         12    1    3    3    0    0 -0.25991486987E+02  0.22873661037E+02  0.17734929684E+02  0.38901021785E+02  0.00000000000E+00 0. -1.
</event>
<event>
 7    1  0.2744502E-011  0.5052886E+02  0.7816164E-02  0.1300439E+00
        -11   -1    0    0    0    0  0.00000000000E+00  0.00000000000E+00  0.45593999997E+02  0.45594000000E+02  0.51100000000E-03 0. -1.
         11   -1    0    0    0    0 -0.00000000000E+00 -0.00000000000E+00 -0.45593999997E+02  0.45594000000E+02  0.51100000000E-03 0.  1.
    9900012    2    1    2    0    0  0.31496461096E+02  0.25698902362E+02 -0.83976398005E+00  0.50528857760E+02  0.29999993647E+02 0.  0.
         12    1    1    2    0    0 -0.31496461096E+02 -0.25698902362E+02  0.83976398005E+00  0.40659142240E+02  0.00000000000E+00 0. -1.
         11    1    3    3    0    0  0.19645671922E+01  0.55448567315E+01  0.28182397203E+01  0.65228395510E+01  0.51100000000E-03 0. -1.
        -11    1    3    3    0    0 -0.38603749320E+01 -0.74599307057E+00  0.16354455420E+01  0.42583661960E+01  0.51100000000E-03 0.  1.
        -12    1    3    3    0    0  0.33392268835E+02  0.20900038701E+02 -0.52934492424E+01  0.39747652013E+02  0.00000000000E+00 0.  1.
</event>
<event>
 7    1  0.2744502E-011  0.5052885E+02  0.7816164E-02  0.1300439E+00
        -11   -1    0    0    0    0  0.00000000000E+00  0.00000000000E+00  0.45593999997E+02  0.45594000000E+02  0.51100000000E-03 0.  1.
         11   -1    0    0    0    0 -0.00000000000E+00 -0.00000000000E+00 -0.45593999997E+02  0.45594000000E+02  0.51100000000E-03 0. -1.
    9900012    2    1    2    0    0  0.33807738077E+02 -0.12492267597E+02  0.18818775268E+02  0.50528853352E+02  0.29999980248E+02 0.  0.
         12    1    1    2    0    0 -0.33807738077E+02  0.12492267597E+02 -0.18818775268E+02  0.40659146648E+02  0.00000000000E+00 0. -1.
         11    1    3    3    0    0  0.95519540748E+01  0.43846610882E+01  0.10272894514E+02  0.14696851414E+02  0.51100000000E-03 0. -1.
        -11    1    3    3    0    0  0.25296401613E+01  0.74945221852E+00  0.73725115523E+01  0.78303693925E+01  0.51100000000E-03 0.  1.
        -12    1    3    3    0    0  0.21726143841E+02 -0.17626380903E+02  0.11733692009E+01  0.28001632546E+02  0.00000000000E+00 0.  1.
</event>
<event>
 7    1  0.2744502E-011  0.5052886E+02  0.7816164E-02  0.1300439E+00
        -11   -1    0    0    0    0  0.00000000000E+00  0.00000000000E+00  0.45593999997E+02  0.45594000000E+02  0.51100000000E-03 0. -1.
         11   -1    0    0    0    0 -0.00000000000E+00 -0.00000000000E+00 -0.45593999997E+02  0.45594000000E+02  0.51100000000E-03 0.  1.
    9900012    2    1    2    0    0  0.31240746054E+02  0.24814215672E+02 -0.78381172647E+01  0.50528860859E+02  0.30000003067E+02 0.  0.
         12    1    1    2    0    0 -0.31240746054E+02 -0.24814215672E+02  0.78381172647E+01  0.40659139141E+02  0.00000000000E+00 0. -1.
         11    1    3    3    0    0  0.21207773329E+01 -0.28122273465E+01 -0.95580495338E+00  0.36496414227E+01  0.51100000000E-03 0. -1.
        -11    1    3    3    0    0  0.12543103090E+02 -0.16713838959E+01 -0.86717168284E+00  0.12683648775E+02  0.51100000000E-03 0.  1.
        -12    1    3    3    0    0  0.16576865631E+02  0.29297826914E+02 -0.60151406284E+01  0.34195570661E+02  0.00000000000E+00 0.  1.
</event>
<event>
 7    1  0.2744502E-011  0.5052885E+02  0.7816164E-02  0.1300439E+00
        -11   -1    0    0    0    0  0.00000000000E+00  0.00000000000E+00  0.45593999997E+02  0.45594000000E+02  0.51100000000E-03 0.  1.
         11   -1    0    0    0    0 -0.00000000000E+00 -0.00000000000E+00 -0.45593999997E+02  0.45594000000E+02  0.51100000000E-03 0. -1.
    9900012    2    1    2    0    0  0.27823698244E+02  0.11275616166E+02  0.27420232186E+02  0.50528845594E+02  0.29999956668E+02 0.  0.
         12    1    1    2    0    0 -0.27823698244E+02 -0.11275616166E+02 -0.27420232186E+02  0.40659154406E+02  0.00000000000E+00 0. -1.
         11    1    3    3    0    0  0.97196720902E+01 -0.55823171242E+01  0.90215829732E+01  0.14388302527E+02  0.51100000000E-03 0. -1.
        -11    1    3    3    0    0  0.87686648370E+01  0.12116648071E+02  0.20584404094E+02  0.25444455893E+02  0.51100000000E-03 0.  1.
        -12    1    3    3    0    0  0.93353613163E+01  0.47412852191E+01 -0.21857548817E+01  0.10696087174E+02  0.00000000000E+00 0.  1.
</event>
<event>
 7    1  0.2744502E-011  0.5052886E+02  0.7816164E-02  0.1300439E+00
        -11   -1    0    0    0    0  0.00000000000E+00  0.00000000000E+00  0.45593999997E+02  0.45594000000E+02  0.51100000000E-03 0.  1.
         11   -1    0    0    0    0 -0.00000000000E+00 -0.00000000000E+00 -0.45593999997E+02  0.45594000000E+02  0.51100000000E-03 0. -1.
    9900012    2    1    2    0    0 -0.24033695458E+02  0.19893622947E+02  0.26072803287E+02  0.50528858069E+02  0.29999994587E+02 0.  0.
         12    1    1    2    0    0  0.24033695458E+02 -0.19893622947E+02 -0.26072803287E+02  0.40659141931E+02  0.00000000000E+00 0. -1.
         11    1    3    3    0    0  0.57093921942E+01  0.45514299487E+00  0.44122906841E+01  0.72299808931E+01  0.51100000000E-03 0. -1.
        -11    1    3    3    0    0 -0.28886785443E+01 -0.16659818524E+01  0.20538431646E+01  0.39164054017E+01  0.51100000000E-03 0.  1.
        -12    1    3    3    0    0 -0.26854409108E+02  0.21104461804E+02  0.19606669438E+02  0.39382471774E+02  0.00000000000E+00 0.  1.
</event>
<event>
 7    1  0.2744502E-011  0.5052886E+02  0.7816164E-02  0.1300439E+00
        -11   -1    0    0    0    0  0.00000000000E+00  0.00000000000E+00  0.45593999997E+02  0.45594000000E+02  0.51100000000E-03 0.  1.
         11   -1    0    0    0    0 -0.00000000000E+00 -0.00000000000E+00 -0.45593999997E+02  0.45594000000E+02  0.51100000000E-03 0. -1.
    9900012    2    1    2    0    0  0.27577555798E+02  0.27529987209E+02  0.11607908024E+02  0.50528864394E+02  0.30000013812E+02 0.  0.
         12    1    1    2    0    0 -0.27577555798E+02 -0.27529987209E+02 -0.11607908024E+02  0.40659135606E+02  0.00000000000E+00 0. -1.
         11    1    3    3    0    0  0.10337984509E+02  0.17663503673E+02 -0.49403304100E+01  0.21054219305E+02  0.51100000000E-03 0.  1.
        -11    1    3    3    0    0 -0.16080655746E+01  0.40928369682E+01  0.48756000079E+01  0.65657189278E+01  0.51100000000E-03 0. -1.
        -12    1    3    3    0    0  0.18847636864E+02  0.57736465676E+01  0.11672638426E+02  0.22908926161E+02  0.00000000000E+00 0.  1.
</event>
<event>
 7    1  0.2744502E-011  0.5052888E+02  0.7816164E-02  0.1300439E+00
        -11   -1    0    0    0    0  0.00000000000E+00  0.00000000000E+00  0.45593999997E+02  0.45594000000E+02  0.51100000000E-03 0.  1.
         11   -1    0    0    0    0 -0.00000000000E+00 -0.00000000000E+00 -0.45593999997E+02  0.45594000000E+02  0.51100000000E-03 0. -1.
    9900012    2    1    2    0    0  0.32030393168E+02 -0.10957088869E+02  0.22520221467E+02  0.50528877310E+02  0.30000053071E+02 0.  0.
         12    1    1    2    0    0 -0.32030393168E+02  0.10957088869E+02 -0.22520221467E+02  0.40659122690E+02  0.00000000000E+00 0. -1.
         11    1    3    3    0    0  0.87545966779E+00 -0.37446621222E+01  0.39476720299E+01  0.55111739907E+01  0.51100000000E-03 0. -1.
        -11    1    3    3    0    0  0.17019886387E+01  0.28888771623E+01  0.12950139431E+02  0.13377162933E+02  0.51100000000E-03 0.  1.
        -12    1    3    3    0    0  0.29452944862E+02 -0.10101303909E+02  0.56224100065E+01  0.31640540387E+02  0.00000000000E+00 0.  1.
</event>
<event>
 7    1  0.2744502E-011  0.5052888E+02  0.7816164E-02  0.1300439E+00
        -11   -1    0    0    0    0  0.00000000000E+00  0.00000000000E+00  0.45593999997E+02  0.45594000000E+02  0.51100000000E-03 0. -1.
         11   -1    0    0    0    0 -0.00000000000E+00 -0.00000000000E+00 -0.45593999997E+02  0.45594000000E+02  0.51100000000E-03 0.  1.
    9900012    2    1    2    0    0 -0.35800851612E+02 -0.78575259769E+01 -0.17598929707E+02  0.50528880267E+02  0.30000062060E+02 0.  0.
         12    1    1    2    0    0  0.35800851612E+02  0.78575259769E+01  0.17598929707E+02  0.40659119733E+02  0.00000000000E+00 0. -1.
         11    1    3    3    0    0 -0.35401556357E+01 -0.46871751779E+01 -0.10741284819E+01  0.59712699931E+01  0.51100000000E-03 0. -1.
        -11    1    3    3    0    0 -0.58035221529E+01 -0.10457229926E+02 -0.11630208615E+02  0.16682214475E+02  0.51100000000E-03 0.  1.
         12    1    3    3    0    0 -0.26457173823E+02  0.72868791273E+01 -0.48945926101E+01  0.27875395799E+02  0.00000000000E+00 0. -1.
</event>
<event>
 7    1  0.2744502E-011  0.5052889E+02  0.7816164E-02  0.1300439E+00
        -11   -1    0    0    0    0  0.00000000000E+00  0.00000000000E+00  0.45593999997E+02  0.45594000000E+02  0.51100000000E-03 0. -1.
         11   -1    0    0    0    0 -0.00000000000E+00 -0.00000000000E+00 -0.45593999997E+02  0.45594000000E+02  0.51100000000E-03 0.  1.
    9900012    2    1    2    0    0  0.12502474919E+02 -0.36017438255E+02 -0.14127825354E+02  0.50528890482E+02  0.30000093108E+02 0.  0.
         12    1    1    2    0    0 -0.12502474919E+02  0.36017438255E+02  0.14127825354E+02  0.40659109518E+02  0.00000000000E+00 0. -1.
         11    1    3    3    0    0 -0.38503102469E+01  0.14726446028E+01 -0.11580814914E+01  0.42819065993E+01  0.51100000000E-03 0. -1.
        -11    1    3    3    0    0  0.12894636846E+02 -0.92883349772E+01 -0.60431577691E+01  0.17001899368E+02  0.51100000000E-03 0.  1.
        -12    1    3    3    0    0  0.34581483203E+01 -0.28201747881E+02 -0.69265860934E+01  0.29245084514E+02  0.00000000000E+00 0.  1.
</event>
<event>
 7    1  0.2744502E-011  0.5052886E+02  0.7816164E-02  0.1300439E+00
        -11   -1    0    0    0    0  0.00000000000E+00  0.00000000000E+00  0.45593999997E+02  0.45594000000E+02  0.51100000000E-03 0.  1.
         11   -1    0    0    0    0 -0.00000000000E+00 -0.00000000000E+00 -0.45593999997E+02  0.45594000000E+02  0.51100000000E-03 0. -1.
    9900012    2    1    2    0    0 -0.21912943685E+02  0.16399934933E+02  0.30067099594E+02  0.50528862715E+02  0.30000008710E+02 0.  0.
         12    1    1    2    0    0  0.21912943685E+02 -0.16399934933E+02 -0.30067099594E+02  0.40659137285E+02  0.00000000000E+00 0. -1.
         11    1    3    3    0    0 -0.14212766319E+01 -0.39635499352E+00  0.37044291557E+01  0.39874703982E+01  0.51100000000E-03 0. -1.
        -11    1    3    3    0    0 -0.18149947321E+02  0.79648026927E+01  0.30609129430E+02  0.36466114057E+02  0.51100000000E-03 0.  1.
         12    1    3    3    0    0 -0.23417197323E+01  0.88314872336E+01 -0.42464589916E+01  0.10075278261E+02  0.00000000000E+00 0. -1.
</event>
<event>
 7    1  0.2744502E-011  0.5052886E+02  0.7816164E-02  0.1300439E+00
        -11   -1    0    0    0    0  0.00000000000E+00  0.00000000000E+00  0.45593999997E+02  0.45594000000E+02  0.51100000000E-03 0. -1.
         11   -1    0    0    0    0 -0.00000000000E+00 -0.00000000000E+00 -0.45593999997E+02  0.45594000000E+02  0.51100000000E-03 0.  1.
    9900012    2    1    2    0    0 -0.28633687581E+02 -0.24260647614E+02  0.15642834166E+02  0.50528863906E+02  0.30000012329E+02 0.  0.
         12    1    1    2    0    0  0.28633687581E+02  0.24260647614E+02 -0.15642834166E+02  0.40659136094E+02  0.00000000000E+00 0. -1.
         11    1    3    3    0    0 -0.65043055931E+01 -0.62981230240E+01  0.10232295988E+02  0.13662804482E+02  0.51100000000E-03 0. -1.
        -11    1    3    3    0    0 -0.17340215412E+02 -0.17285394072E+02  0.13110301648E+02  0.27773151213E+02  0.51100000000E-03 0.  1.
        -12    1    3    3    0    0 -0.47891665757E+01 -0.67713051872E+00 -0.76997634704E+01  0.90929082107E+01  0.00000000000E+00 0.  1.
</event>
<event>
 7    1  0.2744502E-011  0.5052885E+02  0.7816164E-02  0.1300439E+00
        -11   -1    0    0    0    0  0.00000000000E+00  0.00000000000E+00  0.45593999997E+02  0.45594000000E+02  0.51100000000E-03 0. -1.
         11   -1    0    0    0    0 -0.00000000000E+00 -0.00000000000E+00 -0.45593999997E+02  0.45594000000E+02  0.51100000000E-03 0.  1.
    9900012    2    1    2    0    0  0.39903307399E+01  0.40291523535E+02 -0.37198204243E+01  0.50528847621E+02  0.29999962828E+02 0.  0.
         12    1    1    2    0    0 -0.39903307399E+01 -0.40291523535E+02  0.37198204243E+01  0.40659152379E+02  0.00000000000E+00 0. -1.
         11    1    3    3    0    0 -0.43615810103E+01  0.10855551345E+02  0.65489967346E+00  0.11717306762E+02  0.51100000000E-03 0. -1.
        -11    1    3    3    0    0 -0.19068625315E+01  0.28053723841E+02 -0.19890906697E+01  0.28188721646E+02  0.51100000000E-03 0.  1.
        -12    1    3    3    0    0  0.10258774282E+02  0.13822483492E+01 -0.23856294281E+01  0.10622819213E+02  0.00000000000E+00 0.  1.
</event>
<event>
 7    1  0.2744502E-011  0.5052885E+02  0.7816164E-02  0.1300439E+00
        -11   -1    0    0    0    0  0.00000000000E+00  0.00000000000E+00  0.45593999997E+02  0.45594000000E+02  0.51100000000E-03 0. -1.
         11   -1    0    0    0    0 -0.00000000000E+00 -0.00000000000E+00 -0.45593999997E+02  0.45594000000E+02  0.51100000000E-03 0.  1.
    9900012    2    1    2    0    0 -0.88959666677E+01 -0.35293931372E+02  0.18120895070E+02  0.50528847859E+02  0.29999963552E+02 0.  0.
         12    1    1    2    0    0  0.88959666677E+01  0.35293931372E+02 -0.18120895070E+02  0.40659152141E+02  0.00000000000E+00 0. -1.
         11    1    3    3    0    0 -0.30743255437E+01 -0.26469376420E+02  0.20365381851E+02  0.33538457684E+02  0.51100000000E-03 0. -1.
        -11    1    3    3    0    0 -0.13697831766E+01 -0.40756045581E+01  0.54306205020E+01  0.69266512662E+01  0.51100000000E-03 0.  1.
        -12    1    3    3    0    0 -0.44518579474E+01 -0.47489503941E+01 -0.76751072824E+01  0.10063738909E+02  0.00000000000E+00 0.  1.
</event>
<event>
 7    1  0.2744502E-011  0.5052886E+02  0.7816164E-02  0.1300439E+00
        -11   -1    0    0    0    0  0.00000000000E+00  0.00000000000E+00  0.45593999997E+02  0.45594000000E+02  0.51100000000E-03 0.  1.
         11   -1    0    0    0    0 -0.00000000000E+00 -0.00000000000E+00 -0.45593999997E+02  0.45594000000E+02  0.51100000000E-03 0. -1.
    9900012    2    1    2    0    0 -0.48271196966E+01 -0.30758752423E+02  0.26148869836E+02  0.50528864140E+02  0.30000013040E+02 0.  0.
         12    1    1    2    0    0  0.48271196966E+01  0.30758752423E+02 -0.26148869836E+02  0.40659135860E+02  0.00000000000E+00 0. -1.
         11    1    3    3    0    0 -0.11794083353E+01 -0.18214597959E+02  0.14163669737E+02  0.23103508900E+02  0.51100000000E-03 0. -1.
        -11    1    3    3    0    0  0.88937206005E+00 -0.14726829827E+02  0.15411688740E+02  0.21335197433E+02  0.51100000000E-03 0.  1.
         12    1    3    3    0    0 -0.45370834213E+01  0.21826753624E+01 -0.34264886412E+01  0.60901578073E+01  0.00000000000E+00 0. -1.
</event>
<event>
 7    1  0.2744502E-011  0.5052887E+02  0.7816164E-02  0.1300439E+00
        -11   -1    0    0    0    0  0.00000000000E+00  0.00000000000E+00  0.45593999997E+02  0.45594000000E+02  0.51100000000E-03 0.  1.
         11   -1    0    0    0    0 -0.00000000000E+00 -0.00000000000E+00 -0.45593999997E+02  0.45594000000E+02  0.51100000000E-03 0. -1.
    9900012    2    1    2    0    0 -0.20075905176E+02 -0.65575625085E+01  0.34743654253E+02  0.50528866886E+02  0.30000021388E+02 0.  0.
         12    1    1    2    0    0  0.20075905176E+02  0.65575625085E+01 -0.34743654253E+02  0.40659133114E+02  0.00000000000E+00 0. -1.
         11    1    3    3    0    0 -0.15367224797E+02  0.42769320336E+01  0.45278227842E+01  0.16581463295E+02  0.51100000000E-03 0. -1.
        -11    1    3    3    0    0  0.10550635077E+01  0.12865291552E+01  0.14601251025E+01  0.22136580243E+01  0.51100000000E-03 0.  1.
        -12    1    3    3    0    0 -0.57637438860E+01 -0.12121023697E+02  0.28755706367E+02  0.31733745567E+02  0.00000000000E+00 0.  1.
</event>
<event>
 7    1  0.2744502E-011  0.5052885E+02  0.7816164E-02  0.1300439E+00
        -11   -1    0    0    0    0  0.00000000000E+00  0.00000000000E+00  0.45593999997E+02  0.45594000000E+02  0.51100000000E-03 0. -1.
         11   -1    0    0    0    0 -0.00000000000E+00 -0.00000000000E+00 -0.45593999997E+02  0.45594000000E+02  0.51100000000E-03 0.  1.
    9900012    2    1    2    0    0 -0.10199892793E+02 -0.38571571208E+02  0.78334090588E+01  0.50528853232E+02  0.29999979884E+02 0.  0.
         12    1    1    2    0    0  0.10199892793E+02  0.38571571208E+02 -0.78334090588E+01  0.40659146768E+02  0.00000000000E+00 0. -1.
         11    1    3    3    0    0 -0.15991132725E+01 -0.61467404421E+01 -0.45145354756E+01  0.77923431741E+01  0.51100000000E-03 0. -1.
        -11    1    3    3    0    0 -0.17314248601E-01 -0.23101671330E+02 -0.24760575216E+01  0.23233991890E+02  0.51100000000E-03 0.  1.
         12    1    3    3    0    0 -0.85834652718E+01 -0.93231594357E+01  0.14824002056E+02  0.19502518168E+02  0.00000000000E+00 0. -1.
</event>
<event>
 7    1  0.2744502E-011  0.5052887E+02  0.7816164E-02  0.1300439E+00
        -11   -1    0    0    0    0  0.00000000000E+00  0.00000000000E+00  0.45593999997E+02  0.45594000000E+02  0.51100000000E-03 0.  1.
         11   -1    0    0    0    0 -0.00000000000E+00 -0.00000000000E+00 -0.45593999997E+02  0.45594000000E+02  0.51100000000E-03 0. -1.
    9900012    2    1    2    0    0  0.39923033688E+02 -0.68718680248E+01  0.34776044547E+01  0.50528869146E+02  0.30000028257E+02 0.  0.
         12    1    1    2    0    0 -0.39923033688E+02  0.68718680248E+01 -0.34776044547E+01  0.40659130854E+02  0.00000000000E+00 0. -1.
         11    1    3    3    0    0  0.34041709267E+02 -0.27732953312E+01  0.84334595197E+01  0.35180283918E+02  0.51100000000E-03 0. -1.
        -11    1    3    3    0    0  0.71410336703E+01 -0.50624668234E+01  0.13405078931E+01  0.88555007702E+01  0.51100000000E-03 0.  1.
         12    1    3    3    0    0 -0.12597092486E+01  0.96389412976E+00 -0.62963629581E+01  0.64930844585E+01  0.00000000000E+00 0. -1.
</event>
<event>
 7    1  0.2744502E-011  0.5052886E+02  0.7816164E-02  0.1300439E+00
        -11   -1    0    0    0    0  0.00000000000E+00  0.00000000000E+00  0.45593999997E+02  0.45594000000E+02  0.51100000000E-03 0.  1.
         11   -1    0    0    0    0 -0.00000000000E+00 -0.00000000000E+00 -0.45593999997E+02  0.45594000000E+02  0.51100000000E-03 0. -1.
    9900012    2    1    2    0    0 -0.14226957137E+02  0.34930370505E+02  0.15186464959E+02  0.50528858212E+02  0.29999995021E+02 0.  0.
         12    1    1    2    0    0  0.14226957137E+02 -0.34930370505E+02 -0.15186464959E+02  0.40659141788E+02  0.00000000000E+00 0. -1.
         11    1    3    3    0    0  0.40972561662E+01  0.35099445870E+00 -0.27369598683E+01  0.49398031118E+01  0.51100000000E-03 0. -1.
        -11    1    3    3    0    0 -0.77552648600E+01  0.75248910729E+01  0.11618765174E+02  0.15867067251E+02  0.51100000000E-03 0.  1.
         12    1    3    3    0    0 -0.10568948444E+02  0.27054484973E+02  0.63046596531E+01  0.29721987849E+02  0.00000000000E+00 0. -1.
</event>
<event>
 7    1  0.2744502E-011  0.5052884E+02  0.7816164E-02  0.1300439E+00
        -11   -1    0    0    0    0  0.00000000000E+00  0.00000000000E+00  0.45593999997E+02  0.45594000000E+02  0.51100000000E-03 0.  1.
         11   -1    0    0    0    0 -0.00000000000E+00 -0.00000000000E+00 -0.45593999997E+02  0.45594000000E+02  0.51100000000E-03 0. -1.
    9900012    2    1    2    0    0  0.98372460300E+01  0.25035035396E+02  0.30490041521E+02  0.50528843114E+02  0.29999949130E+02 0.  0.
         12    1    1    2    0    0 -0.98372460300E+01 -0.25035035396E+02 -0.30490041521E+02  0.40659156886E+02  0.00000000000E+00 0. -1.
         11    1    3    3    0    0 -0.72781148309E+01  0.84634410515E-01  0.85391122129E+01  0.11220274334E+02  0.51100000000E-03 0. -1.
        -11    1    3    3    0    0  0.53367880556E+01  0.26123287666E+01  0.93696743874E+01  0.11094880203E+02  0.51100000000E-03 0.  1.
        -12    1    3    3    0    0  0.11778572805E+02  0.22338072219E+02  0.12581254921E+02  0.28213688577E+02  0.00000000000E+00 0.  1.
</event>
<event>
 7    1  0.2744502E-011  0.5052886E+02  0.7816164E-02  0.1300439E+00
        -11   -1    0    0    0    0  0.00000000000E+00  0.00000000000E+00  0.45593999997E+02  0.45594000000E+02  0.51100000000E-03 0.  1.
         11   -1    0    0    0    0 -0.00000000000E+00 -0.00000000000E+00 -0.45593999997E+02  0.45594000000E+02  0.51100000000E-03 0. -1.
    9900012    2    1    2    0    0 -0.26316700553E+01 -0.36229385452E+02  0.18266679557E+02  0.50528860319E+02  0.30000001426E+02 0.  0.
         12    1    1    2    0    0  0.26316700553E+01  0.36229385452E+02 -0.18266679557E+02  0.40659139681E+02  0.00000000000E+00 0. -1.
         11    1    3    3    0    0 -0.50122218545E+01 -0.93956713127E+01 -0.37763147921E+01  0.11298741567E+02  0.51100000000E-03 0. -1.
        -11    1    3    3    0    0 -0.43431001320E+01 -0.23408156883E+02  0.11979394075E+02  0.26651645541E+02  0.51100000000E-03 0.  1.
        -12    1    3    3    0    0  0.67236519312E+01 -0.34255572571E+01  0.10063600275E+02  0.12578473210E+02  0.00000000000E+00 0.  1.
</event>
<event>
 7    1  0.2744502E-011  0.5052886E+02  0.7816164E-02  0.1300439E+00
        -11   -1    0    0    0    0  0.00000000000E+00  0.00000000000E+00  0.45593999997E+02  0.45594000000E+02  0.51100000000E-03 0.  1.
         11   -1    0    0    0    0 -0.00000000000E+00 -0.00000000000E+00 -0.45593999997E+02  0.45594000000E+02  0.51100000000E-03 0. -1.
    9900012    2    1    2    0    0  0.22540578053E+02 -0.15617890825E+01  0.33803091403E+02  0.50528857947E+02  0.29999994215E+02 0.  0.
         12    1    1    2    0    0 -0.22540578053E+02  0.15617890825E+01 -0.33803091403E+02  0.40659142053E+02  0.00000000000E+00 0. -1.
         11    1    3    3    0    0  0.15040804263E+02 -0.59493467085E+01  0.82919803072E+01  0.18176288312E+02  0.51100000000E-03 0.  1.
        -11    1    3    3    0    0  0.88574072703E+01  0.32293520021E+01  0.31790317610E+01  0.99493025436E+01  0.51100000000E-03 0. -1.
        -12    1    3    3    0    0 -0.13576334802E+01  0.11582056239E+01  0.22332079335E+02  0.22403267091E+02  0.00000000000E+00 0.  1.
</event>
<event>
 7    1  0.2744502E-011  0.5052885E+02  0.7816164E-02  0.1300439E+00
        -11   -1    0    0    0    0  0.00000000000E+00  0.00000000000E+00  0.45593999997E+02  0.45594000000E+02  0.51100000000E-03 0. -1.
         11   -1    0    0    0    0 -0.00000000000E+00 -0.00000000000E+00 -0.45593999997E+02  0.45594000000E+02  0.51100000000E-03 0.  1.
    9900012    2    1    2    0    0 -0.31431584873E+02 -0.25790981200E+02 -0.21710062484E+00  0.50528851318E+02  0.29999974066E+02 0.  0.
         12    1    1    2    0    0  0.31431584873E+02  0.25790981200E+02  0.21710062484E+00  0.40659148682E+02  0.00000000000E+00 0. -1.
         11    1    3    3    0    0 -0.15417842735E+02 -0.16018684313E+02  0.59984599248E+01  0.23028018661E+02  0.51100000000E-03 0. -1.
        -11    1    3    3    0    0 -0.36770633607E+01  0.36401256228E+01  0.40630033314E+01  0.65787009235E+01  0.51100000000E-03 0.  1.
        -12    1    3    3    0    0 -0.12336678777E+02 -0.13412422509E+02 -0.10278563881E+02  0.20922131733E+02  0.00000000000E+00 0.  1.
</event>
<event>
 7    1  0.2744502E-011  0.5052885E+02  0.7816164E-02  0.1300439E+00
        -11   -1    0    0    0    0  0.00000000000E+00  0.00000000000E+00  0.45593999997E+02  0.45594000000E+02  0.51100000000E-03 0.  1.
         11   -1    0    0    0    0 -0.00000000000E+00 -0.00000000000E+00 -0.45593999997E+02  0.45594000000E+02  0.51100000000E-03 0. -1.
    9900012    2    1    2    0    0 -0.28754923913E+02  0.51095419628E+01  0.28288048294E+02  0.50528846730E+02  0.29999960122E+02 0.  0.
         12    1    1    2    0    0  0.28754923913E+02 -0.51095419628E+01 -0.28288048294E+02  0.40659153270E+02  0.00000000000E+00 0. -1.
         11    1    3    3    0    0 -0.15614110901E+02  0.61896134976E+01 -0.43971250909E+00  0.16801938038E+02  0.51100000000E-03 0. -1.
        -11    1    3    3    0    0 -0.40184408914E+01 -0.10483219201E+01  0.64887759012E+00  0.42033187404E+01  0.51100000000E-03 0.  1.
         12    1    3    3    0    0 -0.91223721200E+01 -0.31749614727E-01  0.28078883213E+02  0.29523589952E+02  0.00000000000E+00 0. -1.
</event>
<event>
 7    1  0.2744502E-011  0.5052886E+02  0.7816164E-02  0.1300439E+00
        -11   -1    0    0    0    0  0.00000000000E+00  0.00000000000E+00  0.45593999997E+02  0.45594000000E+02  0.51100000000E-03 0. -1.
         11   -1    0    0    0    0 -0.00000000000E+00 -0.00000000000E+00 -0.45593999997E+02  0.45594000000E+02  0.51100000000E-03 0.  1.
    9900012    2    1    2    0    0 -0.32549717353E+01  0.23782902457E+02 -0.32816835298E+02  0.50528856265E+02  0.29999989103E+02 0.  0.
         12    1    1    2    0    0  0.32549717353E+01 -0.23782902457E+02  0.32816835298E+02  0.40659143735E+02  0.00000000000E+00 0. -1.
         11    1    3    3    0    0 -0.51722868447E+01  0.99668745220E+01  0.21787851935E+00  0.11231144655E+02  0.51100000000E-03 0. -1.
        -11    1    3    3    0    0 -0.25610285226E+01  0.11138968151E+02 -0.85775226196E+01  0.14290184503E+02  0.51100000000E-03 0.  1.
         12    1    3    3    0    0  0.44783436320E+01  0.26770597838E+01 -0.24457191198E+02  0.25007527108E+02  0.00000000000E+00 0. -1.
</event>
<event>
 7    1  0.2744502E-011  0.5052885E+02  0.7816164E-02  0.1300439E+00
        -11   -1    0    0    0    0  0.00000000000E+00  0.00000000000E+00  0.45593999997E+02  0.45594000000E+02  0.51100000000E-03 0.  1.
         11   -1    0    0    0    0 -0.00000000000E+00 -0.00000000000E+00 -0.45593999997E+02  0.45594000000E+02  0.51100000000E-03 0. -1.
    9900012    2    1    2    0    0  0.10696155353E+02  0.21890882644E+02  0.32550702449E+02  0.50528847129E+02  0.29999961332E+02 0.  0.
         12    1    1    2    0    0 -0.10696155353E+02 -0.21890882644E+02 -0.32550702449E+02  0.40659152871E+02  0.00000000000E+00 0. -1.
         11    1    3    3    0    0  0.31602775162E+01  0.73373278343E+01 -0.31237660829E+01  0.85779746169E+01  0.51100000000E-03 0.  1.
        -11    1    3    3    0    0 -0.13521867696E+01  0.60335815869E+01  0.26892469951E+01  0.67427416892E+01  0.51100000000E-03 0. -1.
        -12    1    3    3    0    0  0.88880646066E+01  0.85199732229E+01  0.32985221537E+02  0.35208130822E+02  0.00000000000E+00 0.  1.
</event>
<event>
 7    1  0.2744502E-011  0.5052886E+02  0.7816164E-02  0.1300439E+00
        -11   -1    0    0    0    0  0.00000000000E+00  0.00000000000E+00  0.45593999997E+02  0.45594000000E+02  0.51100000000E-03 0.  1.
         11   -1    0    0    0    0 -0.00000000000E+00 -0.00000000000E+00 -0.45593999997E+02  0.45594000000E+02  0.51100000000E-03 0. -1.
    9900012    2    1    2    0    0  0.25527698708E+02 -0.29133755229E+01  0.31512130143E+02  0.50528861982E+02  0.30000006480E+02 0.  0.
         12    1    1    2    0    0 -0.25527698708E+02  0.29133755229E+01 -0.31512130143E+02  0.40659138018E+02  0.00000000000E+00 0. -1.
         11    1    3    3    0    0  0.17966807767E+02 -0.32520075675E+01  0.20633954897E+02  0.27552528551E+02  0.51100000000E-03 0. -1.
        -11    1    3    3    0    0  0.90028141783E+01 -0.71874438676E+01  0.10015437965E+02  0.15264960215E+02  0.51100000000E-03 0.  1.
         12    1    3    3    0    0 -0.14419232379E+01  0.75260759121E+01  0.86273727998E+00  0.77113732158E+01  0.00000000000E+00 0. -1.
</event>
<event>
 7    1  0.2744502E-011  0.5052886E+02  0.7816164E-02  0.1300439E+00
        -11   -1    0    0    0    0  0.00000000000E+00  0.00000000000E+00  0.45593999997E+02  0.45594000000E+02  0.51100000000E-03 0.  1.
         11   -1    0    0    0    0 -0.00000000000E+00 -0.00000000000E+00 -0.45593999997E+02  0.45594000000E+02  0.51100000000E-03 0. -1.
    9900012    2    1    2    0    0  0.31570278004E+02  0.25007889475E+02  0.55756869541E+01  0.50528864812E+02  0.30000015082E+02 0.  0.
         12    1    1    2    0    0 -0.31570278004E+02 -0.25007889475E+02 -0.55756869541E+01  0.40659135188E+02  0.00000000000E+00 0. -1.
         11    1    3    3    0    0  0.13926842633E+02  0.39738805013E+01 -0.94963314578E+01  0.17318457881E+02  0.51100000000E-03 0. -1.
        -11    1    3    3    0    0  0.71549787590E+01  0.14562180337E+02  0.41609863851E+01  0.16750063438E+02  0.51100000000E-03 0.  1.
         12    1    3    3    0    0  0.10488456612E+02  0.64718286362E+01  0.10911032027E+02  0.16460343492E+02  0.00000000000E+00 0. -1.
</event>
<event>
 7    1  0.2744502E-011  0.5052886E+02  0.7816164E-02  0.1300439E+00
        -11   -1    0    0    0    0  0.00000000000E+00  0.00000000000E+00  0.45593999997E+02  0.45594000000E+02  0.51100000000E-03 0. -1.
         11   -1    0    0    0    0 -0.00000000000E+00 -0.00000000000E+00 -0.45593999997E+02  0.45594000000E+02  0.51100000000E-03 0.  1.
    9900012    2    1    2    0    0  0.20183599524E+02  0.18726698075E+02 -0.29918195365E+02  0.50528864195E+02  0.30000013206E+02 0.  0.
         12    1    1    2    0    0 -0.20183599524E+02 -0.18726698075E+02  0.29918195365E+02  0.40659135805E+02  0.00000000000E+00 0. -1.
         11    1    3    3    0    0  0.12169181873E+02 -0.10281600771E+01 -0.72187319723E+01  0.14186479202E+02  0.51100000000E-03 0. -1.
        -11    1    3    3    0    0  0.71577476328E+01 -0.13064856323E+01 -0.51475936770E+01  0.89127984835E+01  0.51100000000E-03 0.  1.
        -12    1    3    3    0    0  0.85667001824E+00  0.21061343785E+02 -0.17551869716E+02  0.27429586509E+02  0.00000000000E+00 0.  1.
</event>
<event>
 7    1  0.2744502E-011  0.5052880E+02  0.7816164E-02  0.1300439E+00
        -11   -1    0    0    0    0  0.00000000000E+00  0.00000000000E+00  0.45593999997E+02  0.45594000000E+02  0.51100000000E-03 0.  1.
         11   -1    0    0    0    0 -0.00000000000E+00 -0.00000000000E+00 -0.45593999997E+02  0.45594000000E+02  0.51100000000E-03 0. -1.
    9900012    2    1    2    0    0 -0.93445838896E+01 -0.33744620330E+02  0.20667600603E+02  0.50528802222E+02  0.29999824832E+02 0.  0.
         12    1    1    2    0    0  0.93445838896E+01  0.33744620330E+02 -0.20667600603E+02  0.40659197778E+02  0.00000000000E+00 0. -1.
         11    1    3    3    0    0  0.68613846103E+01 -0.68929206820E+01  0.10198743202E+02  0.14092739885E+02  0.51100000000E-03 0. -1.
        -11    1    3    3    0    0  0.11635339381E+00 -0.13346618137E+02  0.66409401285E+01  0.14907979067E+02  0.51100000000E-03 0.  1.
         12    1    3    3    0    0 -0.16322321894E+02 -0.13505081511E+02  0.38279172728E+01  0.21528083270E+02  0.00000000000E+00 0. -1.
</event>
<event>
 7    1  0.2744502E-011  0.5052891E+02  0.7816164E-02  0.1300439E+00
        -11   -1    0    0    0    0  0.00000000000E+00  0.00000000000E+00  0.45593999997E+02  0.45594000000E+02  0.51100000000E-03 0. -1.
         11   -1    0    0    0    0 -0.00000000000E+00 -0.00000000000E+00 -0.45593999997E+02  0.45594000000E+02  0.51100000000E-03 0.  1.
    9900012    2    1    2    0    0  0.74397653877E+01  0.25791690328E+02 -0.30538507845E+02  0.50528906793E+02  0.30000142689E+02 0.  0.
         12    1    1    2    0    0 -0.74397653877E+01 -0.25791690328E+02  0.30538507845E+02  0.40659093207E+02  0.00000000000E+00 0. -1.
         11    1    3    3    0    0  0.90606420180E+00  0.34508247392E+01 -0.30765391720E+01  0.47110760190E+01  0.51100000000E-03 0. -1.
        -11    1    3    3    0    0  0.68418021833E+01  0.11794176142E+02 -0.31652933345E+02  0.34464779668E+02  0.51100000000E-03 0.  1.
         12    1    3    3    0    0 -0.30810099736E+00  0.10546689447E+02  0.41909646726E+01  0.11353051106E+02  0.00000000000E+00 0. -1.
</event>
<event>
 7    1  0.2744502E-011  0.5052873E+02  0.7816164E-02  0.1300439E+00
        -11   -1    0    0    0    0  0.00000000000E+00  0.00000000000E+00  0.45593999997E+02  0.45594000000E+02  0.51100000000E-03 0.  1.
         11   -1    0    0    0    0 -0.00000000000E+00 -0.00000000000E+00 -0.45593999997E+02  0.45594000000E+02  0.51100000000E-03 0. -1.
    9900012    2    1    2    0    0  0.46726498584E+01  0.25250043513E+02  0.31524239887E+02  0.50528732242E+02  0.29999612122E+02 0.  0.
         12    1    1    2    0    0 -0.46726498584E+01 -0.25250043513E+02 -0.31524239887E+02  0.40659267758E+02  0.00000000000E+00 0. -1.
         11    1    3    3    0    0  0.13002983033E+02  0.22697053779E+02  0.14268321020E+02  0.29796288410E+02  0.51100000000E-03 0. -1.
        -11    1    3    3    0    0  0.29602377151E+00  0.26268413468E+01  0.59535650398E+01  0.65140511573E+01  0.51100000000E-03 0.  1.
         12    1    3    3    0    0 -0.86263569462E+01 -0.73851613046E-01  0.11302353828E+02  0.14218392675E+02  0.00000000000E+00 0. -1.
</event>
<event>
 7    1  0.2744502E-011  0.5052886E+02  0.7816164E-02  0.1300439E+00
        -11   -1    0    0    0    0  0.00000000000E+00  0.00000000000E+00  0.45593999997E+02  0.45594000000E+02  0.51100000000E-03 0.  1.
         11   -1    0    0    0    0 -0.00000000000E+00 -0.00000000000E+00 -0.45593999997E+02  0.45594000000E+02  0.51100000000E-03 0. -1.
    9900012    2    1    2    0    0  0.23364340228E+01  0.29740783129E+01  0.40482852024E+02  0.50528863588E+02  0.30000011364E+02 0.  0.
         12    1    1    2    0    0 -0.23364340228E+01 -0.29740783129E+01 -0.40482852024E+02  0.40659136412E+02  0.00000000000E+00 0. -1.
         11    1    3    3    0    0  0.45517372097E+01 -0.44913722864E+01  0.32074808977E+01  0.71539269364E+01  0.51100000000E-03 0. -1.
        -11    1    3    3    0    0  0.57470687842E+01  0.10660446770E+02  0.13692859912E+02  0.18280271819E+02  0.51100000000E-03 0.  1.
        -12    1    3    3    0    0 -0.79623719711E+01 -0.31949961703E+01  0.23582511214E+02  0.25094664833E+02  0.00000000000E+00 0.  1.
</event>
<event>
 7    1  0.2744502E-011  0.5052886E+02  0.7816164E-02  0.1300439E+00
        -11   -1    0    0    0    0  0.00000000000E+00  0.00000000000E+00  0.45593999997E+02  0.45594000000E+02  0.51100000000E-03 0.  1.
         11   -1    0    0    0    0 -0.00000000000E+00 -0.00000000000E+00 -0.45593999997E+02  0.45594000000E+02  0.51100000000E-03 0. -1.
    9900012    2    1    2    0    0  0.33086271338E+02  0.16485894767E+02  0.16931613033E+02  0.50528860840E+02  0.30000003009E+02 0.  0.
         12    1    1    2    0    0 -0.33086271338E+02 -0.16485894767E+02 -0.16931613033E+02  0.40659139160E+02  0.00000000000E+00 0. -1.
         11    1    3    3    0    0  0.70581308738E+01  0.43077362902E+01  0.13148805792E+02  0.15532704123E+02  0.51100000000E-03 0. -1.
        -11    1    3    3    0    0  0.22978949625E+02  0.42037987593E+01  0.89507529219E+01  0.25016395184E+02  0.51100000000E-03 0.  1.
        -12    1    3    3    0    0  0.30491908387E+01  0.79743597179E+01 -0.51679456802E+01  0.99797615320E+01  0.00000000000E+00 0.  1.
</event>
<event>
 7    1  0.2744502E-011  0.5052885E+02  0.7816164E-02  0.1300439E+00
        -11   -1    0    0    0    0  0.00000000000E+00  0.00000000000E+00  0.45593999997E+02  0.45594000000E+02  0.51100000000E-03 0. -1.
         11   -1    0    0    0    0 -0.00000000000E+00 -0.00000000000E+00 -0.45593999997E+02  0.45594000000E+02  0.51100000000E-03 0.  1.
    9900012    2    1    2    0    0  0.22041689527E+02  0.32726619758E+02 -0.98131774132E+01  0.50528853809E+02  0.29999981639E+02 0.  0.
         12    1    1    2    0    0 -0.22041689527E+02 -0.32726619758E+02  0.98131774132E+01  0.40659146191E+02  0.00000000000E+00 0. -1.
         11    1    3    3    0    0  0.23300908192E+00  0.64070263012E+01  0.70584313276E+01  0.95354985357E+01  0.51100000000E-03 0. -1.
        -11    1    3    3    0    0 -0.20559437236E+01  0.45784665048E+01 -0.30732106863E+01  0.58850560162E+01  0.51100000000E-03 0.  1.
        -12    1    3    3    0    0  0.23864624169E+02  0.21741126952E+02 -0.13798398054E+02  0.35108299257E+02  0.00000000000E+00 0.  1.
</event>
<event>
 7    1  0.2744502E-011  0.5052885E+02  0.7816164E-02  0.1300439E+00
        -11   -1    0    0    0    0  0.00000000000E+00  0.00000000000E+00  0.45593999997E+02  0.45594000000E+02  0.51100000000E-03 0.  1.
         11   -1    0    0    0    0 -0.00000000000E+00 -0.00000000000E+00 -0.45593999997E+02  0.45594000000E+02  0.51100000000E-03 0. -1.
    9900012    2    1    2    0    0 -0.37086991220E+02  0.11622689511E+02  0.11942978618E+02  0.50528848908E+02  0.29999966741E+02 0.  0.
         12    1    1    2    0    0  0.37086991220E+02 -0.11622689511E+02 -0.11942978618E+02  0.40659151092E+02  0.00000000000E+00 0. -1.
         11    1    3    3    0    0 -0.72953636188E+01 -0.56583265461E+01  0.66651495980E+01  0.11386975413E+02  0.51100000000E-03 0. -1.
        -11    1    3    3    0    0 -0.17018310808E+02  0.15960697906E+01 -0.28741209392E+01  0.17332942997E+02  0.51100000000E-03 0.  1.
        -12    1    3    3    0    0 -0.12773316794E+02  0.15684946267E+02  0.81519499591E+01  0.21808930497E+02  0.00000000000E+00 0.  1.
</event>
<event>
 7    1  0.2744502E-011  0.5052887E+02  0.7816164E-02  0.1300439E+00
        -11   -1    0    0    0    0  0.00000000000E+00  0.00000000000E+00  0.45593999997E+02  0.45594000000E+02  0.51100000000E-03 0. -1.
         11   -1    0    0    0    0 -0.00000000000E+00 -0.00000000000E+00 -0.45593999997E+02  0.45594000000E+02  0.51100000000E-03 0.  1.
    9900012    2    1    2    0    0 -0.25840052606E+01 -0.40456206742E+02  0.31278303967E+01  0.50528867322E+02  0.30000022711E+02 0.  0.
         12    1    1    2    0    0  0.25840052606E+01  0.40456206742E+02 -0.31278303967E+01  0.40659132678E+02  0.00000000000E+00 0. -1.
         11    1    3    3    0    0 -0.55090360013E+01 -0.37498360853E+01 -0.38285430447E+01  0.76856028024E+01  0.51100000000E-03 0. -1.
        -11    1    3    3    0    0 -0.95932685507E+00 -0.65068440707E+01 -0.67745202682E+01  0.94421106169E+01  0.51100000000E-03 0.  1.
         12    1    3    3    0    0  0.38843575958E+01 -0.30199526586E+02  0.13730893710E+02  0.33401153903E+02  0.00000000000E+00 0. -1.
</event>
<event>
 7    1  0.2744502E-011  0.5052886E+02  0.7816164E-02  0.1300439E+00
        -11   -1    0    0    0    0  0.00000000000E+00  0.00000000000E+00  0.45593999997E+02  0.45594000000E+02  0.51100000000E-03 0.  1.
         11   -1    0    0    0    0 -0.00000000000E+00 -0.00000000000E+00 -0.45593999997E+02  0.45594000000E+02  0.51100000000E-03 0. -1.
    9900012    2    1    2    0    0 -0.38632583074E+02  0.12136923964E+02  0.36584604224E+01  0.50528859196E+02  0.29999998011E+02 0.  0.
         12    1    1    2    0    0  0.38632583074E+02 -0.12136923964E+02 -0.36584604224E+01  0.40659140804E+02  0.00000000000E+00 0. -1.
         11    1    3    3    0    0 -0.19900531491E+02  0.11294221066E+02  0.13382644159E+02  0.26508220387E+02  0.51100000000E-03 0. -1.
        -11    1    3    3    0    0 -0.18078106801E+01  0.39683744872E+01 -0.23393567758E+00  0.43670243516E+01  0.51100000000E-03 0.  1.
         12    1    3    3    0    0 -0.16924240903E+02 -0.31256715891E+01 -0.94902480590E+01  0.19653614457E+02  0.00000000000E+00 0. -1.
</event>
<event>
 7    1  0.2744502E-011  0.5052886E+02  0.7816164E-02  0.1300439E+00
        -11   -1    0    0    0    0  0.00000000000E+00  0.00000000000E+00  0.45593999997E+02  0.45594000000E+02  0.51100000000E-03 0.  1.
         11   -1    0    0    0    0 -0.00000000000E+00 -0.00000000000E+00 -0.45593999997E+02  0.45594000000E+02  0.51100000000E-03 0. -1.
    9900012    2    1    2    0    0 -0.34106100708E+02 -0.15046400050E+02  0.16234080891E+02  0.50528860285E+02  0.30000001323E+02 0.  0.
         12    1    1    2    0    0  0.34106100708E+02  0.15046400050E+02 -0.16234080891E+02  0.40659139715E+02  0.00000000000E+00 0. -1.
         11    1    3    3    0    0 -0.12986548326E+02 -0.19912016089E+01  0.18275747038E+02  0.22508181875E+02  0.51100000000E-03 0. -1.
        -11    1    3    3    0    0 -0.58494810627E+01 -0.63326374268E+01  0.49383485609E+01  0.99350899469E+01  0.51100000000E-03 0.  1.
         12    1    3    3    0    0 -0.15270071320E+02 -0.67225610142E+01 -0.69800147089E+01  0.18085588463E+02  0.00000000000E+00 0. -1.
</event>
<event>
 7    1  0.2744502E-011  0.5052886E+02  0.7816164E-02  0.1300439E+00
        -11   -1    0    0    0    0  0.00000000000E+00  0.00000000000E+00  0.45593999997E+02  0.45594000000E+02  0.51100000000E-03 0. -1.
         11   -1    0    0    0    0 -0.00000000000E+00 -0.00000000000E+00 -0.45593999997E+02  0.45594000000E+02  0.51100000000E-03 0.  1.
    9900012    2    1    2    0    0 -0.36284774866E+02 -0.14041136927E+01 -0.18292330715E+02  0.50528858528E+02  0.29999995980E+02 0.  0.
         12    1    1    2    0    0  0.36284774866E+02  0.14041136927E+01  0.18292330715E+02  0.40659141472E+02  0.00000000000E+00 0. -1.
         11    1    3    3    0    0  0.36646297751E+01  0.21390886599E+01 -0.41339595719E+01  0.59240892706E+01  0.51100000000E-03 0. -1.
        -11    1    3    3    0    0 -0.87280131560E+01 -0.42098313784E+01  0.12697434075E+01  0.97730825468E+01  0.51100000000E-03 0.  1.
        -12    1    3    3    0    0 -0.31221391485E+02  0.66662902581E+00 -0.15428114550E+02  0.34831686710E+02  0.00000000000E+00 0.  1.
</event>
<event>
 7    1  0.2744502E-011  0.5052886E+02  0.7816164E-02  0.1300439E+00
        -11   -1    0    0    0    0  0.00000000000E+00  0.00000000000E+00  0.45593999997E+02  0.45594000000E+02  0.51100000000E-03 0.  1.
         11   -1    0    0    0    0 -0.00000000000E+00 -0.00000000000E+00 -0.45593999997E+02  0.45594000000E+02  0.51100000000E-03 0. -1.
    9900012    2    1    2    0    0 -0.37199293742E+02  0.66413760522E+01  0.15009010764E+02  0.50528859147E+02  0.29999997865E+02 0.  0.
         12    1    1    2    0    0  0.37199293742E+02 -0.66413760522E+01 -0.15009010764E+02  0.40659140853E+02  0.00000000000E+00 0. -1.
         11    1    3    3    0    0  0.32388952397E+00 -0.23537801669E+01  0.35902472724E+00  0.24029324822E+01  0.51100000000E-03 0. -1.
        -11    1    3    3    0    0  0.28385359596E+01 -0.24303476985E+01  0.23409849205E+01  0.44095449866E+01  0.51100000000E-03 0.  1.
        -12    1    3    3    0    0 -0.40361719225E+02  0.11425503918E+02  0.12309001116E+02  0.43716381679E+02  0.00000000000E+00 0.  1.
</event>
<event>
 7    1  0.2744502E-011  0.5052886E+02  0.7816164E-02  0.1300439E+00
        -11   -1    0    0    0    0  0.00000000000E+00  0.00000000000E+00  0.45593999997E+02  0.45594000000E+02  0.51100000000E-03 0.  1.
         11   -1    0    0    0    0 -0.00000000000E+00 -0.00000000000E+00 -0.45593999997E+02  0.45594000000E+02  0.51100000000E-03 0. -1.
    9900012    2    1    2    0    0 -0.37984257623E+02  0.10522848829E+02  0.99815454340E+01  0.50528862972E+02  0.30000009489E+02 0.  0.
         12    1    1    2    0    0  0.37984257623E+02 -0.10522848829E+02 -0.99815454340E+01  0.40659137028E+02  0.00000000000E+00 0. -1.
         11    1    3    3    0    0  0.30371669956E+01 -0.79716810740E+00  0.68921173295E+01  0.75737138773E+01  0.51100000000E-03 0. -1.
        -11    1    3    3    0    0 -0.14546295614E+02  0.26108392874E+01  0.30204996910E+01  0.15084250612E+02  0.51100000000E-03 0.  1.
        -12    1    3    3    0    0 -0.26475129004E+02  0.87091776490E+01  0.68928413547E-01  0.27870898483E+02  0.00000000000E+00 0.  1.
</event>
<event>
 7    1  0.2744502E-011  0.5052886E+02  0.7816164E-02  0.1300439E+00
        -11   -1    0    0    0    0  0.00000000000E+00  0.00000000000E+00  0.45593999997E+02  0.45594000000E+02  0.51100000000E-03 0. -1.
         11   -1    0    0    0    0 -0.00000000000E+00 -0.00000000000E+00 -0.45593999997E+02  0.45594000000E+02  0.51100000000E-03 0.  1.
    9900012    2    1    2    0    0  0.40323176604E+02  0.31147247995E+01 -0.41839586442E+01  0.50528860905E+02  0.30000003206E+02 0.  0.
         12    1    1    2    0    0 -0.40323176604E+02 -0.31147247995E+01  0.41839586442E+01  0.40659139095E+02  0.00000000000E+00 0. -1.
         11    1    3    3    0    0  0.29740986888E+01  0.36837928936E+00  0.70767583918E+01  0.76851464468E+01  0.51100000000E-03 0. -1.
        -11    1    3    3    0    0  0.12069986094E+01  0.49348530586E+01 -0.71088784192E+00  0.51298130705E+01  0.51100000000E-03 0.  1.
         12    1    3    3    0    0  0.36142079306E+02 -0.21885075485E+01 -0.10549829194E+02  0.37713901388E+02  0.00000000000E+00 0. -1.
</event>
<event>
 7    1  0.2744502E-011  0.5052897E+02  0.7816164E-02  0.1300438E+00
        -11   -1    0    0    0    0  0.00000000000E+00  0.00000000000E+00  0.45593999997E+02  0.45594000000E+02  0.51100000000E-03 0.  1.
         11   -1    0    0    0    0 -0.00000000000E+00 -0.00000000000E+00 -0.45593999997E+02  0.45594000000E+02  0.51100000000E-03 0. -1.
    9900012    2    1    2    0    0  0.30405722803E+02 -0.22727968841E+02  0.14563240651E+02  0.50528972404E+02  0.30000342116E+02 0.  0.
         12    1    1    2    0    0 -0.30405722803E+02  0.22727968841E+02 -0.14563240651E+02  0.40659027596E+02  0.00000000000E+00 0. -1.
         11    1    3    3    0    0  0.61334233724E+01  0.41026388048E+01  0.55316343562E+01  0.92222289247E+01  0.51100000000E-03 0. -1.
        -11    1    3    3    0    0  0.20884231681E+02 -0.11309386415E+02  0.90622093412E+01  0.25420011652E+02  0.51100000000E-03 0.  1.
        -12    1    3    3    0    0  0.33880677496E+01 -0.15521221231E+02 -0.30603046687E-01  0.15886731827E+02  0.00000000000E+00 0.  1.
</event>
<event>
 7    1  0.2744502E-011  0.5052887E+02  0.7816164E-02  0.1300439E+00
        -11   -1    0    0    0    0  0.00000000000E+00  0.00000000000E+00  0.45593999997E+02  0.45594000000E+02  0.51100000000E-03 0.  1.
         11   -1    0    0    0    0 -0.00000000000E+00 -0.00000000000E+00 -0.45593999997E+02  0.45594000000E+02  0.51100000000E-03 0. -1.
    9900012    2    1    2    0    0 -0.17268374882E+02  0.20229401071E+02  0.30752880208E+02  0.50528867203E+02  0.30000022349E+02 0.  0.
         12    1    1    2    0    0  0.17268374882E+02 -0.20229401071E+02 -0.30752880208E+02  0.40659132797E+02  0.00000000000E+00 0. -1.
         11    1    3    3    0    0 -0.21671181270E+01  0.21268571679E+01 -0.12028447180E+01  0.32660003163E+01  0.51100000000E-03 0. -1.
        -11    1    3    3    0    0  0.49709001703E+01  0.37959714446E+01 -0.76031578158E+00  0.63005815652E+01  0.51100000000E-03 0.  1.
        -12    1    3    3    0    0 -0.20072156926E+02  0.14306572458E+02  0.32716040707E+02  0.40962285321E+02  0.00000000000E+00 0.  1.
</event>
<event>
 7    1  0.2744502E-011  0.5052886E+02  0.7816164E-02  0.1300439E+00
        -11   -1    0    0    0    0  0.00000000000E+00  0.00000000000E+00  0.45593999997E+02  0.45594000000E+02  0.51100000000E-03 0.  1.
         11   -1    0    0    0    0 -0.00000000000E+00 -0.00000000000E+00 -0.45593999997E+02  0.45594000000E+02  0.51100000000E-03 0. -1.
    9900012    2    1    2    0    0 -0.53914408831E+01  0.28844182086E+01  0.40196743740E+02  0.50528859447E+02  0.29999998775E+02 0.  0.
         12    1    1    2    0    0  0.53914408831E+01 -0.28844182086E+01 -0.40196743740E+02  0.40659140553E+02  0.00000000000E+00 0. -1.
         11    1    3    3    0    0 -0.24370649026E+01 -0.71358742420E+01  0.50450997522E+01  0.90726522201E+01  0.51100000000E-03 0. -1.
        -11    1    3    3    0    0  0.24014937160E+00 -0.11784182622E+01  0.27490341202E+02  0.27516634987E+02  0.51100000000E-03 0.  1.
        -12    1    3    3    0    0 -0.31945253521E+01  0.11198710713E+02  0.76613027856E+01  0.13939572240E+02  0.00000000000E+00 0.  1.
</event>
<event>
 7    1  0.2744502E-011  0.5052888E+02  0.7816164E-02  0.1300439E+00
        -11   -1    0    0    0    0  0.00000000000E+00  0.00000000000E+00  0.45593999997E+02  0.45594000000E+02  0.51100000000E-03 0.  1.
         11   -1    0    0    0    0 -0.00000000000E+00 -0.00000000000E+00 -0.45593999997E+02  0.45594000000E+02  0.51100000000E-03 0. -1.
    9900012    2    1    2    0    0  0.23754748360E+01  0.17956805995E+02  0.36401570699E+02  0.50528879109E+02  0.30000058541E+02 0.  0.
         12    1    1    2    0    0 -0.23754748360E+01 -0.17956805995E+02 -0.36401570699E+02  0.40659120891E+02  0.00000000000E+00 0. -1.
         11    1    3    3    0    0 -0.60116167818E+00  0.11233457010E+02  0.14435866278E+01  0.11341776508E+02  0.51100000000E-03 0. -1.
        -11    1    3    3    0    0 -0.61570878771E+01 -0.28538417816E+00  0.11099120967E+02  0.12695733998E+02  0.51100000000E-03 0.  1.
        -12    1    3    3    0    0  0.91337243913E+01  0.70087331632E+01  0.23858863104E+02  0.26491368603E+02  0.00000000000E+00 0.  1.
</event>
<event>
 7    1  0.2744502E-011  0.5052886E+02  0.7816164E-02  0.1300439E+00
        -11   -1    0    0    0    0  0.00000000000E+00  0.00000000000E+00  0.45593999997E+02  0.45594000000E+02  0.51100000000E-03 0.  1.
         11   -1    0    0    0    0 -0.00000000000E+00 -0.00000000000E+00 -0.45593999997E+02  0.45594000000E+02  0.51100000000E-03 0. -1.
    9900012    2    1    2    0    0 -0.35716313654E+01 -0.29122020368E+02  0.28148119732E+02  0.50528864921E+02  0.30000015415E+02 0.  0.
         12    1    1    2    0    0  0.35716313654E+01  0.29122020368E+02 -0.28148119732E+02  0.40659135079E+02  0.00000000000E+00 0. -1.
         11    1    3    3    0    0  0.64645136671E+01 -0.62882585990E+01 -0.54233661523E+00  0.90347253652E+01  0.51100000000E-03 0. -1.
        -11    1    3    3    0    0 -0.39440034884E+01 -0.21652514230E+01  0.15703614473E+02  0.16335451785E+02  0.51100000000E-03 0.  1.
         12    1    3    3    0    0 -0.60921415442E+01 -0.20668510346E+02  0.12986841874E+02  0.25158687771E+02  0.00000000000E+00 0. -1.
</event>
<event>
 7    1  0.2744502E-011  0.5052886E+02  0.7816164E-02  0.1300439E+00
        -11   -1    0    0    0    0  0.00000000000E+00  0.00000000000E+00  0.45593999997E+02  0.45594000000E+02  0.51100000000E-03 0.  1.
         11   -1    0    0    0    0 -0.00000000000E+00 -0.00000000000E+00 -0.45593999997E+02  0.45594000000E+02  0.51100000000E-03 0. -1.
    9900012    2    1    2    0    0  0.26440735647E+00  0.33322591090E+02  0.23295935974E+02  0.50528860546E+02  0.30000002115E+02 0.  0.
         12    1    1    2    0    0 -0.26440735647E+00 -0.33322591090E+02 -0.23295935974E+02  0.40659139454E+02  0.00000000000E+00 0. -1.
         11    1    3    3    0    0 -0.89822572705E+01  0.14353115158E+02  0.30253190600E+01  0.17200157444E+02  0.51100000000E-03 0. -1.
        -11    1    3    3    0    0  0.13271255275E+01  0.13889675518E+02  0.39685183333E+01  0.14506325730E+02  0.51100000000E-03 0.  1.
        -12    1    3    3    0    0  0.79195390995E+01  0.50798004144E+01  0.16302098581E+02  0.18822377372E+02  0.00000000000E+00 0.  1.
</event>
<event>
 7    1  0.2744502E-011  0.5052883E+02  0.7816164E-02  0.1300439E+00
        -11   -1    0    0    0    0  0.00000000000E+00  0.00000000000E+00  0.45593999997E+02  0.45594000000E+02  0.51100000000E-03 0. -1.
         11   -1    0    0    0    0 -0.00000000000E+00 -0.00000000000E+00 -0.45593999997E+02  0.45594000000E+02  0.51100000000E-03 0.  1.
    9900012    2    1    2    0    0  0.25657608922E+02 -0.29333004661E+02 -0.11594387451E+02  0.50528832788E+02  0.29999917741E+02 0.  0.
         12    1    1    2    0    0 -0.25657608922E+02  0.29333004661E+02  0.11594387451E+02  0.40659167212E+02  0.00000000000E+00 0. -1.
         11    1    3    3    0    0  0.22504543854E+01 -0.74276019164E+01 -0.99860851772E+01  0.12647359906E+02  0.51100000000E-03 0. -1.
        -11    1    3    3    0    0  0.86528689728E+01 -0.11218889395E+02 -0.10475527711E+02  0.17620224227E+02  0.51100000000E-03 0.  1.
         12    1    3    3    0    0  0.14754285564E+02 -0.10686513350E+02  0.88672254377E+01  0.20261248654E+02  0.00000000000E+00 0. -1.
</event>
<event>
 7    1  0.2744502E-011  0.5052886E+02  0.7816164E-02  0.1300439E+00
        -11   -1    0    0    0    0  0.00000000000E+00  0.00000000000E+00  0.45593999997E+02  0.45594000000E+02  0.51100000000E-03 0.  1.
         11   -1    0    0    0    0 -0.00000000000E+00 -0.00000000000E+00 -0.45593999997E+02  0.45594000000E+02  0.51100000000E-03 0. -1.
    9900012    2    1    2    0    0 -0.82467281057E+01  0.39731912305E+02  0.25558207083E+01  0.50528860814E+02  0.30000002929E+02 0.  0.
         12    1    1    2    0    0  0.82467281057E+01 -0.39731912305E+02 -0.25558207083E+01  0.40659139186E+02  0.00000000000E+00 0. -1.
         11    1    3    3    0    0 -0.14049612917E+02  0.19795907484E+02  0.17229878110E+01  0.24335945913E+02  0.51100000000E-03 0. -1.
        -11    1    3    3    0    0 -0.23601517838E+01  0.14913397567E+02  0.47652441106E+01  0.15833107564E+02  0.51100000000E-03 0.  1.
         12    1    3    3    0    0  0.81630365954E+01  0.50226072539E+01 -0.39324112132E+01  0.10359807336E+02  0.00000000000E+00 0. -1.
</event>
<event>
 7    1  0.2744502E-011  0.5052892E+02  0.7816164E-02  0.1300439E+00
        -11   -1    0    0    0    0  0.00000000000E+00  0.00000000000E+00  0.45593999997E+02  0.45594000000E+02  0.51100000000E-03 0. -1.
         11   -1    0    0    0    0 -0.00000000000E+00 -0.00000000000E+00 -0.45593999997E+02  0.45594000000E+02  0.51100000000E-03 0.  1.
    9900012    2    1    2    0    0 -0.21227388264E+01 -0.25634330980E+02  0.31488660629E+02  0.50528921148E+02  0.30000186321E+02 0.  0.
         12    1    1    2    0    0  0.21227388264E+01  0.25634330980E+02 -0.31488660629E+02  0.40659078852E+02  0.00000000000E+00 0. -1.
         11    1    3    3    0    0 -0.66210071389E+01 -0.48824754251E+01  0.19301685121E+02  0.20981690842E+02  0.51100000000E-03 0. -1.
        -11    1    3    3    0    0  0.81632155028E+01 -0.33385247437E+01  0.20022167081E+01  0.90439320440E+01  0.51100000000E-03 0.  1.
        -12    1    3    3    0    0 -0.36649471903E+01 -0.17413330811E+02  0.10184758800E+02  0.20503298262E+02  0.00000000000E+00 0.  1.
</event>
<event>
 7    1  0.2744502E-011  0.5052884E+02  0.7816164E-02  0.1300439E+00
        -11   -1    0    0    0    0  0.00000000000E+00  0.00000000000E+00  0.45593999997E+02  0.45594000000E+02  0.51100000000E-03 0. -1.
         11   -1    0    0    0    0 -0.00000000000E+00 -0.00000000000E+00 -0.45593999997E+02  0.45594000000E+02  0.51100000000E-03 0.  1.
    9900012    2    1    2    0    0 -0.18067979915E+02 -0.33591677163E+02 -0.14082417621E+02  0.50528841636E+02  0.29999944638E+02 0.  0.
         12    1    1    2    0    0  0.18067979915E+02  0.33591677163E+02  0.14082417621E+02  0.40659158364E+02  0.00000000000E+00 0. -1.
         11    1    3    3    0    0 -0.11149419406E+02 -0.12320511945E+02 -0.95723978330E+00  0.16643944122E+02  0.51100000000E-03 0. -1.
        -11    1    3    3    0    0 -0.14458717396E+02 -0.15157275302E+02 -0.11923871225E+02  0.24103448064E+02  0.51100000000E-03 0.  1.
        -12    1    3    3    0    0  0.75401568868E+01 -0.61138899162E+01 -0.12013066120E+01  0.97814494509E+01  0.00000000000E+00 0.  1.
</event>
<event>
 7    1  0.2744502E-011  0.5052886E+02  0.7816164E-02  0.1300439E+00
        -11   -1    0    0    0    0  0.00000000000E+00  0.00000000000E+00  0.45593999997E+02  0.45594000000E+02  0.51100000000E-03 0.  1.
         11   -1    0    0    0    0 -0.00000000000E+00 -0.00000000000E+00 -0.45593999997E+02  0.45594000000E+02  0.51100000000E-03 0. -1.
    9900012    2    1    2    0    0 -0.28976507851E+02 -0.18751350473E+01  0.28460701017E+02  0.50528860301E+02  0.30000001372E+02 0.  0.
         12    1    1    2    0    0  0.28976507851E+02  0.18751350473E+01 -0.28460701017E+02  0.40659139699E+02  0.00000000000E+00 0. -1.
         11    1    3    3    0    0  0.33457059458E+01 -0.17289894982E+01  0.53049505121E+01  0.65058168709E+01  0.51100000000E-03 0. -1.
        -11    1    3    3    0    0 -0.54532478888E+01 -0.63565645341E+01  0.11151365790E+02  0.13946210397E+02  0.51100000000E-03 0.  1.
         12    1    3    3    0    0 -0.26868965908E+02  0.62104189850E+01  0.12004384715E+02  0.30076833033E+02  0.00000000000E+00 0. -1.
</event>
<event>
 7    1  0.2744502E-011  0.5052885E+02  0.7816164E-02  0.1300439E+00
        -11   -1    0    0    0    0  0.00000000000E+00  0.00000000000E+00  0.45593999997E+02  0.45594000000E+02  0.51100000000E-03 0.  1.
         11   -1    0    0    0    0 -0.00000000000E+00 -0.00000000000E+00 -0.45593999997E+02  0.45594000000E+02  0.51100000000E-03 0. -1.
    9900012    2    1    2    0    0  0.79636894564E+01  0.10447118571E+02  0.38478614899E+02  0.50528850467E+02  0.29999971478E+02 0.  0.
         12    1    1    2    0    0 -0.79636894564E+01 -0.10447118571E+02 -0.38478614899E+02  0.40659149533E+02  0.00000000000E+00 0. -1.
         11    1    3    3    0    0  0.21303210557E+00 -0.21376056026E+01 -0.20861204367E+01  0.29944346925E+01  0.51100000000E-03 0. -1.
        -11    1    3    3    0    0 -0.46727297124E+01 -0.40699600442E+00  0.22282207109E+01  0.51927850438E+01  0.51100000000E-03 0.  1.
        -12    1    3    3    0    0  0.12423387063E+02  0.12991720178E+02  0.38336514625E+02  0.42341630730E+02  0.00000000000E+00 0.  1.
</event>
<event>
 7    1  0.2744502E-011  0.5052888E+02  0.7816164E-02  0.1300439E+00
        -11   -1    0    0    0    0  0.00000000000E+00  0.00000000000E+00  0.45593999997E+02  0.45594000000E+02  0.51100000000E-03 0.  1.
         11   -1    0    0    0    0 -0.00000000000E+00 -0.00000000000E+00 -0.45593999997E+02  0.45594000000E+02  0.51100000000E-03 0. -1.
    9900012    2    1    2    0    0  0.39022282867E+02 -0.17443715735E+01 -0.11286402881E+02  0.50528877010E+02  0.30000052158E+02 0.  0.
         12    1    1    2    0    0 -0.39022282867E+02  0.17443715735E+01  0.11286402881E+02  0.40659122990E+02  0.00000000000E+00 0. -1.
         11    1    3    3    0    0  0.80392229734E+01 -0.86400835410E+00  0.24538311500E+01  0.84496688708E+01  0.51100000000E-03 0. -1.
        -11    1    3    3    0    0  0.26697383711E+02  0.43975054726E+01 -0.34721534522E+00  0.27059359012E+02  0.51100000000E-03 0.  1.
         12    1    3    3    0    0  0.42856761830E+01 -0.52778686921E+01 -0.13393018686E+02  0.15019849127E+02  0.00000000000E+00 0. -1.
</event>
<event>
 7    1  0.2744502E-011  0.5052887E+02  0.7816164E-02  0.1300439E+00
        -11   -1    0    0    0    0  0.00000000000E+00  0.00000000000E+00  0.45593999997E+02  0.45594000000E+02  0.51100000000E-03 0. -1.
         11   -1    0    0    0    0 -0.00000000000E+00 -0.00000000000E+00 -0.45593999997E+02  0.45594000000E+02  0.51100000000E-03 0.  1.
    9900012    2    1    2    0    0  0.24747963948E+02  0.29416198855E+02 -0.13243492179E+02  0.50528873599E+02  0.30000041791E+02 0.  0.
         12    1    1    2    0    0 -0.24747963948E+02 -0.29416198855E+02  0.13243492179E+02  0.40659126401E+02  0.00000000000E+00 0. -1.
         11    1    3    3    0    0  0.78330368674E+01  0.18256398418E+02  0.30267776647E+01  0.20095122121E+02  0.51100000000E-03 0. -1.
        -11    1    3    3    0    0  0.69871897460E+01  0.90779786751E+01 -0.23323144723E+00  0.11457962932E+02  0.51100000000E-03 0.  1.
        -12    1    3    3    0    0  0.99277373346E+01  0.20818217619E+01 -0.16037038397E+02  0.18975788547E+02  0.00000000000E+00 0.  1.
</event>
<event>
 7    1  0.2744502E-011  0.5052884E+02  0.7816164E-02  0.1300439E+00
        -11   -1    0    0    0    0  0.00000000000E+00  0.00000000000E+00  0.45593999997E+02  0.45594000000E+02  0.51100000000E-03 0.  1.
         11   -1    0    0    0    0 -0.00000000000E+00 -0.00000000000E+00 -0.45593999997E+02  0.45594000000E+02  0.51100000000E-03 0. -1.
    9900012    2    1    2    0    0 -0.37505026027E+02 -0.10280573132E+02  0.11868025392E+02  0.50528841279E+02  0.29999943552E+02 0.  0.
         12    1    1    2    0    0  0.37505026027E+02  0.10280573132E+02 -0.11868025392E+02  0.40659158721E+02  0.00000000000E+00 0. -1.
         11    1    3    3    0    0 -0.21328639342E+02  0.44951044437E+01  0.62165891652E+01  0.22666336300E+02  0.51100000000E-03 0. -1.
        -11    1    3    3    0    0 -0.18668938764E+02 -0.12111728201E+02  0.78564170833E+01  0.23599714494E+02  0.51100000000E-03 0.  1.
         12    1    3    3    0    0  0.24925520792E+01 -0.26639493751E+01 -0.22049808564E+01  0.42627904848E+01  0.00000000000E+00 0. -1.
</event>
<event>
 7    1  0.2744502E-011  0.5052885E+02  0.7816164E-02  0.1300439E+00
        -11   -1    0    0    0    0  0.00000000000E+00  0.00000000000E+00  0.45593999997E+02  0.45594000000E+02  0.51100000000E-03 0. -1.
         11   -1    0    0    0    0 -0.00000000000E+00 -0.00000000000E+00 -0.45593999997E+02  0.45594000000E+02  0.51100000000E-03 0.  1.
    9900012    2    1    2    0    0  0.39562943523E+02  0.78547282700E+01  0.51228268122E+01  0.50528848374E+02  0.29999965119E+02 0.  0.
         12    1    1    2    0    0 -0.39562943523E+02 -0.78547282700E+01 -0.51228268122E+01  0.40659151626E+02  0.00000000000E+00 0. -1.
         11    1    3    3    0    0  0.21250305976E+01  0.47048934449E+01 -0.65989092510E+01  0.83783877287E+01  0.51100000000E-03 0. -1.
        -11    1    3    3    0    0  0.26057939276E+01 -0.38278318280E+01 -0.31807014088E+00  0.46415113241E+01  0.51100000000E-03 0.  1.
         12    1    3    3    0    0  0.34832118997E+02  0.69776666531E+01  0.12039806204E+02  0.37508949322E+02  0.00000000000E+00 0. -1.
</event>
<event>
 7    1  0.2744502E-011  0.5052886E+02  0.7816164E-02  0.1300439E+00
        -11   -1    0    0    0    0  0.00000000000E+00  0.00000000000E+00  0.45593999997E+02  0.45594000000E+02  0.51100000000E-03 0. -1.
         11   -1    0    0    0    0 -0.00000000000E+00 -0.00000000000E+00 -0.45593999997E+02  0.45594000000E+02  0.51100000000E-03 0.  1.
    9900012    2    1    2    0    0 -0.58599182117E+01  0.37557173708E+02 -0.14432108922E+02  0.50528859499E+02  0.29999998932E+02 0.  0.
         12    1    1    2    0    0  0.58599182117E+01 -0.37557173708E+02  0.14432108922E+02  0.40659140501E+02  0.00000000000E+00 0. -1.
         11    1    3    3    0    0 -0.13466686462E+02  0.17723395363E+02 -0.35816677427E+01  0.22545481399E+02  0.51100000000E-03 0. -1.
        -11    1    3    3    0    0 -0.32224394329E+01  0.34688552417E+01 -0.62269792778E+01  0.78225535328E+01  0.51100000000E-03 0.  1.
        -12    1    3    3    0    0  0.10829207683E+02  0.16364923104E+02 -0.46234619011E+01  0.20160824566E+02  0.00000000000E+00 0.  1.
</event>
<event>
 7    1  0.2744502E-011  0.5052887E+02  0.7816164E-02  0.1300439E+00
        -11   -1    0    0    0    0  0.00000000000E+00  0.00000000000E+00  0.45593999997E+02  0.45594000000E+02  0.51100000000E-03 0.  1.
         11   -1    0    0    0    0 -0.00000000000E+00 -0.00000000000E+00 -0.45593999997E+02  0.45594000000E+02  0.51100000000E-03 0. -1.
    9900012    2    1    2    0    0 -0.24570585236E+02  0.28533724538E+02  0.15338778159E+02  0.50528865598E+02  0.30000017472E+02 0.  0.
         12    1    1    2    0    0  0.24570585236E+02 -0.28533724538E+02 -0.15338778159E+02  0.40659134402E+02  0.00000000000E+00 0. -1.
         11    1    3    3    0    0  0.16889261977E+01 -0.14294863008E+01  0.58807211100E+01  0.62832144497E+01  0.51100000000E-03 0. -1.
        -11    1    3    3    0    0  0.21410882267E+01  0.45634878016E+01  0.24957546637E+00  0.50469761129E+01  0.51100000000E-03 0.  1.
        -12    1    3    3    0    0 -0.28400599661E+02  0.25399723038E+02  0.92084815826E+01  0.39198675036E+02  0.00000000000E+00 0.  1.
</event>
<event>
 7    1  0.2744502E-011  0.5052886E+02  0.7816164E-02  0.1300439E+00
        -11   -1    0    0    0    0  0.00000000000E+00  0.00000000000E+00  0.45593999997E+02  0.45594000000E+02  0.51100000000E-03 0.  1.
         11   -1    0    0    0    0 -0.00000000000E+00 -0.00000000000E+00 -0.45593999997E+02  0.45594000000E+02  0.51100000000E-03 0. -1.
    9900012    2    1    2    0    0  0.81943971969E+01 -0.27361382264E+02  0.28937382207E+02  0.50528862358E+02  0.30000007622E+02 0.  0.
         12    1    1    2    0    0 -0.81943971969E+01  0.27361382264E+02 -0.28937382207E+02  0.40659137642E+02  0.00000000000E+00 0. -1.
         11    1    3    3    0    0  0.10534130174E+02 -0.23523079844E+02  0.23760912582E+02  0.35055443955E+02  0.51100000000E-03 0. -1.
        -11    1    3    3    0    0 -0.38274413327E+01 -0.73900112629E+01  0.73049856637E+01  0.11073589726E+02  0.51100000000E-03 0.  1.
        -12    1    3    3    0    0  0.14877083557E+01  0.35517088426E+01 -0.21285160388E+01  0.43998286765E+01  0.00000000000E+00 0.  1.
</event>
<event>
 7    1  0.2744502E-011  0.5052886E+02  0.7816164E-02  0.1300439E+00
        -11   -1    0    0    0    0  0.00000000000E+00  0.00000000000E+00  0.45593999997E+02  0.45594000000E+02  0.51100000000E-03 0.  1.
         11   -1    0    0    0    0 -0.00000000000E+00 -0.00000000000E+00 -0.45593999997E+02  0.45594000000E+02  0.51100000000E-03 0. -1.
    9900012    2    1    2    0    0  0.22864643552E+01  0.38916480529E+02  0.11551848257E+02  0.50528861124E+02  0.30000003873E+02 0.  0.
         12    1    1    2    0    0 -0.22864643552E+01 -0.38916480529E+02 -0.11551848257E+02  0.40659138876E+02  0.00000000000E+00 0. -1.
         11    1    3    3    0    0  0.23675770124E+01  0.38990470802E+01 -0.72482501506E+01  0.85641765249E+01  0.51100000000E-03 0. -1.
        -11    1    3    3    0    0  0.34897113441E+01  0.58618649875E+01 -0.46395380933E+00  0.68377481524E+01  0.51100000000E-03 0.  1.
         12    1    3    3    0    0 -0.35708240013E+01  0.29155568461E+02  0.19264052217E+02  0.35126936447E+02  0.00000000000E+00 0. -1.
</event>
<event>
 7    1  0.2744502E-011  0.5052888E+02  0.7816164E-02  0.1300439E+00
        -11   -1    0    0    0    0  0.00000000000E+00  0.00000000000E+00  0.45593999997E+02  0.45594000000E+02  0.51100000000E-03 0.  1.
         11   -1    0    0    0    0 -0.00000000000E+00 -0.00000000000E+00 -0.45593999997E+02  0.45594000000E+02  0.51100000000E-03 0. -1.
    9900012    2    1    2    0    0 -0.33519256602E+02 -0.22733111786E+02 -0.35818256673E+01  0.50528875443E+02  0.30000047397E+02 0.  0.
         12    1    1    2    0    0  0.33519256602E+02  0.22733111786E+02  0.35818256673E+01  0.40659124557E+02  0.00000000000E+00 0. -1.
         11    1    3    3    0    0 -0.37523106003E+02 -0.19551211456E+02  0.14202805829E+01  0.42334980226E+02  0.51100000000E-03 0.  1.
        -11    1    3    3    0    0  0.17056668574E+01 -0.34713717677E+01 -0.42774936966E+01  0.57668599744E+01  0.51100000000E-03 0. -1.
        -12    1    3    3    0    0  0.22981825437E+01  0.28947143825E+00 -0.72461255361E+00  0.24270352430E+01  0.00000000000E+00 0.  1.
</event>
<event>
 7    1  0.2744502E-011  0.5052886E+02  0.7816164E-02  0.1300439E+00
        -11   -1    0    0    0    0  0.00000000000E+00  0.00000000000E+00  0.45593999997E+02  0.45594000000E+02  0.51100000000E-03 0. -1.
         11   -1    0    0    0    0 -0.00000000000E+00 -0.00000000000E+00 -0.45593999997E+02  0.45594000000E+02  0.51100000000E-03 0.  1.
    9900012    2    1    2    0    0 -0.38444563632E+02 -0.92953230590E+01 -0.94222062976E+01  0.50528862341E+02  0.30000007572E+02 0.  0.
         12    1    1    2    0    0  0.38444563632E+02  0.92953230590E+01  0.94222062976E+01  0.40659137659E+02  0.00000000000E+00 0. -1.
         11    1    3    3    0    0 -0.87992190152E+01 -0.44981400058E+01 -0.13344870844E+02  0.16605574271E+02  0.51100000000E-03 0.  1.
        -11    1    3    3    0    0 -0.81965506166E+01  0.49380117012E+01 -0.16700330103E+01  0.97137228748E+01  0.51100000000E-03 0. -1.
        -12    1    3    3    0    0 -0.21448794000E+02 -0.97351947545E+01  0.55926975562E+01  0.24209565195E+02  0.00000000000E+00 0.  1.
</event>
<event>
 7    1  0.2744502E-011  0.5052886E+02  0.7816164E-02  0.1300439E+00
        -11   -1    0    0    0    0  0.00000000000E+00  0.00000000000E+00  0.45593999997E+02  0.45594000000E+02  0.51100000000E-03 0. -1.
         11   -1    0    0    0    0 -0.00000000000E+00 -0.00000000000E+00 -0.45593999997E+02  0.45594000000E+02  0.51100000000E-03 0.  1.
    9900012    2    1    2    0    0  0.64692491778E+01 -0.40015695394E+02  0.31715176839E+01  0.50528860963E+02  0.30000003384E+02 0.  0.
         12    1    1    2    0    0 -0.64692491778E+01  0.40015695394E+02 -0.31715176839E+01  0.40659139037E+02  0.00000000000E+00 0. -1.
         11    1    3    3    0    0 -0.79202247951E+00 -0.58864672911E+01  0.87106581185E+00  0.60030452844E+01  0.51100000000E-03 0. -1.
        -11    1    3    3    0    0 -0.76974159496E+01 -0.80868596852E+01 -0.68886170489E+01  0.13118710187E+02  0.51100000000E-03 0.  1.
         12    1    3    3    0    0  0.14958687607E+02 -0.26042368418E+02  0.91890689210E+01  0.31407105492E+02  0.00000000000E+00 0. -1.
</event>
<event>
 7    1  0.2744502E-011  0.5052885E+02  0.7816164E-02  0.1300439E+00
        -11   -1    0    0    0    0  0.00000000000E+00  0.00000000000E+00  0.45593999997E+02  0.45594000000E+02  0.51100000000E-03 0. -1.
         11   -1    0    0    0    0 -0.00000000000E+00 -0.00000000000E+00 -0.45593999997E+02  0.45594000000E+02  0.51100000000E-03 0.  1.
    9900012    2    1    2    0    0  0.19802150842E+02 -0.25496764133E+02 -0.24717531671E+02  0.50528849356E+02  0.29999968102E+02 0.  0.
         12    1    1    2    0    0 -0.19802150842E+02  0.25496764133E+02  0.24717531671E+02  0.40659150644E+02  0.00000000000E+00 0. -1.
         11    1    3    3    0    0  0.11325019253E+01  0.22945727042E+01 -0.13787417069E+00  0.25625444491E+01  0.51100000000E-03 0. -1.
        -11    1    3    3    0    0  0.79825098498E+01  0.24386549443E+01 -0.15502169077E+01  0.84894448677E+01  0.51100000000E-03 0.  1.
        -12    1    3    3    0    0  0.10687139067E+02 -0.30229991781E+02 -0.23029440592E+02  0.39476860039E+02  0.00000000000E+00 0.  1.
</event>
<event>
 7    1  0.2744502E-011  0.5052886E+02  0.7816164E-02  0.1300439E+00
        -11   -1    0    0    0    0  0.00000000000E+00  0.00000000000E+00  0.45593999997E+02  0.45594000000E+02  0.51100000000E-03 0.  1.
         11   -1    0    0    0    0 -0.00000000000E+00 -0.00000000000E+00 -0.45593999997E+02  0.45594000000E+02  0.51100000000E-03 0. -1.
    9900012    2    1    2    0    0 -0.18616346278E+02 -0.33292539665E+02  0.14078509984E+02  0.50528856017E+02  0.29999988348E+02 0.  0.
         12    1    1    2    0    0  0.18616346278E+02  0.33292539665E+02 -0.14078509984E+02  0.40659143983E+02  0.00000000000E+00 0. -1.
         11    1    3    3    0    0 -0.23319897473E+01 -0.14158729196E+02 -0.33099600202E+01  0.14726290240E+02  0.51100000000E-03 0. -1.
        -11    1    3    3    0    0 -0.80273100039E+01 -0.20969286664E+02  0.15036581380E+02  0.27023091402E+02  0.51100000000E-03 0.  1.
        -12    1    3    3    0    0 -0.82570465264E+01  0.18354761944E+01  0.23518886249E+01  0.87794743751E+01  0.00000000000E+00 0.  1.
</event>
<event>
 7    1  0.2744502E-011  0.5052886E+02  0.7816164E-02  0.1300439E+00
        -11   -1    0    0    0    0  0.00000000000E+00  0.00000000000E+00  0.45593999997E+02  0.45594000000E+02  0.51100000000E-03 0.  1.
         11   -1    0    0    0    0 -0.00000000000E+00 -0.00000000000E+00 -0.45593999997E+02  0.45594000000E+02  0.51100000000E-03 0. -1.
    9900012    2    1    2    0    0 -0.67705356706E+01  0.12573442839E+02  0.38068804470E+02  0.50528862136E+02  0.30000006948E+02 0.  0.
         12    1    1    2    0    0  0.67705356706E+01 -0.12573442839E+02 -0.38068804470E+02  0.40659137864E+02  0.00000000000E+00 0. -1.
         11    1    3    3    0    0 -0.91506771671E+01  0.60023430526E+01  0.11724545856E+02  0.16038328795E+02  0.51100000000E-03 0. -1.
        -11    1    3    3    0    0  0.12651244942E+01 -0.62705315083E+01  0.18081321398E+02  0.19179527866E+02  0.51100000000E-03 0.  1.
         12    1    3    3    0    0  0.11150170023E+01  0.12841631295E+02  0.82629372150E+01  0.15311005475E+02  0.00000000000E+00 0. -1.
</event>
<event>
 7    1  0.2744502E-011  0.5052886E+02  0.7816164E-02  0.1300439E+00
        -11   -1    0    0    0    0  0.00000000000E+00  0.00000000000E+00  0.45593999997E+02  0.45594000000E+02  0.51100000000E-03 0. -1.
         11   -1    0    0    0    0 -0.00000000000E+00 -0.00000000000E+00 -0.45593999997E+02  0.45594000000E+02  0.51100000000E-03 0.  1.
    9900012    2    1    2    0    0 -0.31598911433E+02 -0.13854149934E+02 -0.21511330295E+02  0.50528855823E+02  0.29999987760E+02 0.  0.
         12    1    1    2    0    0  0.31598911433E+02  0.13854149934E+02  0.21511330295E+02  0.40659144177E+02  0.00000000000E+00 0. -1.
         11    1    3    3    0    0  0.34031671500E+01 -0.40230772701E+01 -0.16619528002E+01  0.55252859422E+01  0.51100000000E-03 0. -1.
        -11    1    3    3    0    0 -0.92245894658E+01  0.50621348161E+01 -0.65750835509E+01  0.12407658267E+02  0.51100000000E-03 0.  1.
        -12    1    3    3    0    0 -0.25777489117E+02 -0.14893207480E+02 -0.13274293944E+02  0.32595911614E+02  0.00000000000E+00 0.  1.
</event>
<event>
 7    1  0.2744502E-011  0.5052886E+02  0.7816164E-02  0.1300439E+00
        -11   -1    0    0    0    0  0.00000000000E+00  0.00000000000E+00  0.45593999997E+02  0.45594000000E+02  0.51100000000E-03 0.  1.
         11   -1    0    0    0    0 -0.00000000000E+00 -0.00000000000E+00 -0.45593999997E+02  0.45594000000E+02  0.51100000000E-03 0. -1.
    9900012    2    1    2    0    0  0.39066788331E+01 -0.91354028576E+01  0.39426491685E+02  0.50528856238E+02  0.29999989020E+02 0.  0.
         12    1    1    2    0    0 -0.39066788331E+01  0.91354028576E+01 -0.39426491685E+02  0.40659143762E+02  0.00000000000E+00 0. -1.
         11    1    3    3    0    0  0.18725118989E+01 -0.49393040497E+01  0.54785757721E+01  0.76103756845E+01  0.51100000000E-03 0. -1.
        -11    1    3    3    0    0 -0.11922957826E+02 -0.16899041979E+01  0.14466019555E+02  0.18822285237E+02  0.51100000000E-03 0.  1.
         12    1    3    3    0    0  0.13957124760E+02 -0.25061946100E+01  0.19481896359E+02  0.24096195316E+02  0.00000000000E+00 0. -1.
</event>
<event>
 7    1  0.2744502E-011  0.5052886E+02  0.7816164E-02  0.1300439E+00
        -11   -1    0    0    0    0  0.00000000000E+00  0.00000000000E+00  0.45593999997E+02  0.45594000000E+02  0.51100000000E-03 0. -1.
         11   -1    0    0    0    0 -0.00000000000E+00 -0.00000000000E+00 -0.45593999997E+02  0.45594000000E+02  0.51100000000E-03 0.  1.
    9900012    2    1    2    0    0 -0.32097768103E+02  0.16263421757E+02 -0.18931456940E+02  0.50528859990E+02  0.30000000425E+02 0.  0.
         12    1    1    2    0    0  0.32097768103E+02 -0.16263421757E+02  0.18931456940E+02  0.40659140010E+02  0.00000000000E+00 0. -1.
         11    1    3    3    0    0 -0.47201787102E+01 -0.29251350065E+01  0.38419451005E+01  0.67525583506E+01  0.51100000000E-03 0. -1.
        -11    1    3    3    0    0 -0.17068889205E+02  0.19213665603E+01 -0.12084940902E+02  0.21002010023E+02  0.51100000000E-03 0.  1.
         12    1    3    3    0    0 -0.10308700189E+02  0.17267190204E+02 -0.10688461139E+02  0.22774291616E+02  0.00000000000E+00 0. -1.
</event>
<event>
 7    1  0.2744502E-011  0.5052886E+02  0.7816164E-02  0.1300439E+00
        -11   -1    0    0    0    0  0.00000000000E+00  0.00000000000E+00  0.45593999997E+02  0.45594000000E+02  0.51100000000E-03 0.  1.
         11   -1    0    0    0    0 -0.00000000000E+00 -0.00000000000E+00 -0.45593999997E+02  0.45594000000E+02  0.51100000000E-03 0. -1.
    9900012    2    1    2    0    0  0.19576161707E+02 -0.34376630493E+02  0.93907853901E+01  0.50528859804E+02  0.29999999861E+02 0.  0.
         12    1    1    2    0    0 -0.19576161707E+02  0.34376630493E+02 -0.93907853901E+01  0.40659140196E+02  0.00000000000E+00 0. -1.
         11    1    3    3    0    0  0.17871295389E+02 -0.20958456657E+02  0.69343477235E+01  0.28402909762E+02  0.51100000000E-03 0. -1.
        -11    1    3    3    0    0  0.61093500253E+01 -0.70982100528E+01  0.82549894605E+01  0.12484133728E+02  0.51100000000E-03 0.  1.
        -12    1    3    3    0    0 -0.44044837067E+01 -0.63199637829E+01 -0.57985517938E+01  0.96418163146E+01  0.00000000000E+00 0.  1.
</event>
<event>
 7    1  0.2744502E-011  0.5052886E+02  0.7816164E-02  0.1300439E+00
        -11   -1    0    0    0    0  0.00000000000E+00  0.00000000000E+00  0.45593999997E+02  0.45594000000E+02  0.51100000000E-03 0. -1.
         11   -1    0    0    0    0 -0.00000000000E+00 -0.00000000000E+00 -0.45593999997E+02  0.45594000000E+02  0.51100000000E-03 0.  1.
    9900012    2    1    2    0    0 -0.24157347037E+02  0.28300762936E+02 -0.16390708464E+02  0.50528856839E+02  0.29999990847E+02 0.  0.
         12    1    1    2    0    0  0.24157347037E+02 -0.28300762936E+02  0.16390708464E+02  0.40659143161E+02  0.00000000000E+00 0. -1.
         11    1    3    3    0    0 -0.44081537043E+01  0.13269267805E+02  0.81676535977E+00  0.14006155542E+02  0.51100000000E-03 0. -1.
        -11    1    3    3    0    0  0.11148112894E+01  0.42388933654E+01  0.31831836722E+01  0.54169806836E+01  0.51100000000E-03 0.  1.
        -12    1    3    3    0    0 -0.20864004622E+02  0.10792601766E+02 -0.20390657496E+02  0.31105720613E+02  0.00000000000E+00 0.  1.
</event>
<event>
 7    1  0.2744502E-011  0.5052895E+02  0.7816164E-02  0.1300438E+00
        -11   -1    0    0    0    0  0.00000000000E+00  0.00000000000E+00  0.45593999997E+02  0.45594000000E+02  0.51100000000E-03 0. -1.
         11   -1    0    0    0    0 -0.00000000000E+00 -0.00000000000E+00 -0.45593999997E+02  0.45594000000E+02  0.51100000000E-03 0.  1.
    9900012    2    1    2    0    0 -0.10801663929E+02  0.12487585084E+02 -0.37155657891E+02  0.50528946418E+02  0.30000263132E+02 0.  0.
         12    1    1    2    0    0  0.10801663929E+02 -0.12487585084E+02  0.37155657891E+02  0.40659053582E+02  0.00000000000E+00 0. -1.
         11    1    3    3    0    0 -0.32445821066E+01 -0.40086830913E+01 -0.60918135692E+01  0.79816693740E+01  0.51100000000E-03 0. -1.
        -11    1    3    3    0    0  0.46865820106E+01 -0.13028483300E+01 -0.19311824832E+00  0.48681371830E+01  0.51100000000E-03 0.  1.
        -12    1    3    3    0    0 -0.12243663833E+02  0.17799116505E+02 -0.30870726073E+02  0.37679139861E+02  0.00000000000E+00 0.  1.
</event>
<event>
 7    1  0.2744502E-011  0.5052885E+02  0.7816164E-02  0.1300439E+00
        -11   -1    0    0    0    0  0.00000000000E+00  0.00000000000E+00  0.45593999997E+02  0.45594000000E+02  0.51100000000E-03 0.  1.
         11   -1    0    0    0    0 -0.00000000000E+00 -0.00000000000E+00 -0.45593999997E+02  0.45594000000E+02  0.51100000000E-03 0. -1.
    9900012    2    1    2    0    0 -0.62543690188E+00  0.32911460928E+02  0.23866523955E+02  0.50528850999E+02  0.29999973097E+02 0.  0.
         12    1    1    2    0    0  0.62543690188E+00 -0.32911460928E+02 -0.23866523955E+02  0.40659149001E+02  0.00000000000E+00 0. -1.
         11    1    3    3    0    0  0.39942220203E+01  0.13871349535E+02  0.65231041252E+01  0.15840424084E+02  0.51100000000E-03 0. -1.
        -11    1    3    3    0    0  0.27385774591E+01  0.21806595147E+02  0.10944426118E+02  0.24552145766E+02  0.51100000000E-03 0.  1.
         12    1    3    3    0    0 -0.73582363813E+01 -0.27664837537E+01  0.63989937117E+01  0.10136281149E+02  0.00000000000E+00 0. -1.
</event>
<event>
 7    1  0.2744502E-011  0.5052886E+02  0.7816164E-02  0.1300439E+00
        -11   -1    0    0    0    0  0.00000000000E+00  0.00000000000E+00  0.45593999997E+02  0.45594000000E+02  0.51100000000E-03 0.  1.
         11   -1    0    0    0    0 -0.00000000000E+00 -0.00000000000E+00 -0.45593999997E+02  0.45594000000E+02  0.51100000000E-03 0. -1.
    9900012    2    1    2    0    0 -0.28897712467E+02 -0.19477400087E+02  0.20945623174E+02  0.50528855517E+02  0.29999986829E+02 0.  0.
         12    1    1    2    0    0  0.28897712467E+02  0.19477400087E+02 -0.20945623174E+02  0.40659144483E+02  0.00000000000E+00 0. -1.
         11    1    3    3    0    0 -0.25317748283E+01  0.61848280658E+01  0.30003100780E+01  0.73255609212E+01  0.51100000000E-03 0. -1.
        -11    1    3    3    0    0 -0.10212161696E+02 -0.19646969858E+01  0.68476841998E+01  0.12451468183E+02  0.51100000000E-03 0.  1.
         12    1    3    3    0    0 -0.16153775943E+02 -0.23697531166E+02  0.11097628897E+02  0.30751826413E+02  0.00000000000E+00 0. -1.
</event>
<event>
 7    1  0.2744502E-011  0.5052885E+02  0.7816164E-02  0.1300439E+00
        -11   -1    0    0    0    0  0.00000000000E+00  0.00000000000E+00  0.45593999997E+02  0.45594000000E+02  0.51100000000E-03 0.  1.
         11   -1    0    0    0    0 -0.00000000000E+00 -0.00000000000E+00 -0.45593999997E+02  0.45594000000E+02  0.51100000000E-03 0. -1.
    9900012    2    1    2    0    0  0.26895347919E+02  0.30160687290E+02  0.44877084627E+01  0.50528851894E+02  0.29999975816E+02 0.  0.
         12    1    1    2    0    0 -0.26895347919E+02 -0.30160687290E+02 -0.44877084627E+01  0.40659148106E+02  0.00000000000E+00 0. -1.
         11    1    3    3    0    0  0.19020985441E+02  0.10701487470E+02  0.34756980878E+01  0.22099778250E+02  0.51100000000E-03 0. -1.
        -11    1    3    3    0    0  0.39717203739E+01  0.85249716893E+01  0.10014172504E+02  0.13738025922E+02  0.51100000000E-03 0.  1.
         12    1    3    3    0    0  0.39026421044E+01  0.10934228130E+02 -0.90021621287E+01  0.14691047723E+02  0.00000000000E+00 0. -1.
</event>
<event>
 7    1  0.2744502E-011  0.5052887E+02  0.7816164E-02  0.1300439E+00
        -11   -1    0    0    0    0  0.00000000000E+00  0.00000000000E+00  0.45593999997E+02  0.45594000000E+02  0.51100000000E-03 0. -1.
         11   -1    0    0    0    0 -0.00000000000E+00 -0.00000000000E+00 -0.45593999997E+02  0.45594000000E+02  0.51100000000E-03 0.  1.
    9900012    2    1    2    0    0  0.39286532783E+02  0.82711207273E+01 -0.64282230273E+01  0.50528866371E+02  0.30000019822E+02 0.  0.
         12    1    1    2    0    0 -0.39286532783E+02 -0.82711207273E+01  0.64282230273E+01  0.40659133629E+02  0.00000000000E+00 0. -1.
         11    1    3    3    0    0  0.68995396374E+01  0.18282234211E+01  0.26144263274E+01  0.76013994348E+01  0.51100000000E-03 0. -1.
        -11    1    3    3    0    0  0.10110548877E+02 -0.12790733899E+01  0.87165806436E+01  0.13410369335E+02  0.51100000000E-03 0.  1.
        -12    1    3    3    0    0  0.22276444268E+02  0.77219706961E+01 -0.17759229998E+02  0.29517097601E+02  0.00000000000E+00 0.  1.
</event>
<event>
 7    1  0.2744502E-011  0.5052886E+02  0.7816164E-02  0.1300439E+00
        -11   -1    0    0    0    0  0.00000000000E+00  0.00000000000E+00  0.45593999997E+02  0.45594000000E+02  0.51100000000E-03 0. -1.
         11   -1    0    0    0    0 -0.00000000000E+00 -0.00000000000E+00 -0.45593999997E+02  0.45594000000E+02  0.51100000000E-03 0.  1.
    9900012    2    1    2    0    0 -0.35318258281E+02  0.34649350263E+01 -0.19843905731E+02  0.50528859117E+02  0.29999997771E+02 0.  0.
         12    1    1    2    0    0  0.35318258281E+02 -0.34649350263E+01  0.19843905731E+02  0.40659140883E+02  0.00000000000E+00 0. -1.
         11    1    3    3    0    0 -0.90719311341E+01  0.73500006628E+01 -0.17034094878E+01  0.11799324065E+02  0.51100000000E-03 0. -1.
        -11    1    3    3    0    0  0.21147459724E+01  0.40641143595E+01 -0.38860254287E+01  0.60075261089E+01  0.51100000000E-03 0.  1.
        -12    1    3    3    0    0 -0.28361073119E+02 -0.79491799961E+01 -0.14254470814E+02  0.32722008943E+02  0.00000000000E+00 0.  1.
</event>
<event>
 7    1  0.2744502E-011  0.5052894E+02  0.7816164E-02  0.1300438E+00
        -11   -1    0    0    0    0  0.00000000000E+00  0.00000000000E+00  0.45593999997E+02  0.45594000000E+02  0.51100000000E-03 0. -1.
         11   -1    0    0    0    0 -0.00000000000E+00 -0.00000000000E+00 -0.45593999997E+02  0.45594000000E+02  0.51100000000E-03 0.  1.
    9900012    2    1    2    0    0  0.18712109415E+02  0.15756333936E+02 -0.32476971208E+02  0.50528944961E+02  0.30000258701E+02 0.  0.
         12    1    1    2    0    0 -0.18712109415E+02 -0.15756333936E+02  0.32476971208E+02  0.40659055039E+02  0.00000000000E+00 0. -1.
         11    1    3    3    0    0  0.17171672940E+02  0.62335400558E+01 -0.20243951109E+02  0.27267946934E+02  0.51100000000E-03 0. -1.
        -11    1    3    3    0    0  0.48870246082E+01  0.32490096530E-01 -0.12259695009E+02  0.13197885706E+02  0.51100000000E-03 0.  1.
         12    1    3    3    0    0 -0.33465881334E+01  0.94903037838E+01  0.26674910324E-01  0.10063112321E+02  0.00000000000E+00 0. -1.
</event>
<event>
 7    1  0.2744502E-011  0.5052884E+02  0.7816164E-02  0.1300439E+00
        -11   -1    0    0    0    0  0.00000000000E+00  0.00000000000E+00  0.45593999997E+02  0.45594000000E+02  0.51100000000E-03 0. -1.
         11   -1    0    0    0    0 -0.00000000000E+00 -0.00000000000E+00 -0.45593999997E+02  0.45594000000E+02  0.51100000000E-03 0.  1.
    9900012    2    1    2    0    0  0.12537772780E+02 -0.37554222357E+02 -0.92548175019E+01  0.50528843465E+02  0.29999950197E+02 0.  0.
         12    1    1    2    0    0 -0.12537772780E+02  0.37554222357E+02  0.92548175019E+01  0.40659156535E+02  0.00000000000E+00 0. -1.
         11    1    3    3    0    0  0.49410346811E+01  0.15586115387E+01 -0.52015531713E+01  0.73416108112E+01  0.51100000000E-03 0. -1.
        -11    1    3    3    0    0  0.18695121071E+01 -0.41542703772E+01 -0.62045526092E+01  0.76973704099E+01  0.51100000000E-03 0.  1.
         12    1    3    3    0    0  0.57272259918E+01 -0.34958563519E+02  0.21512882786E+01  0.35489862244E+02  0.00000000000E+00 0. -1.
</event>
<event>
 7    1  0.2744502E-011  0.5052886E+02  0.7816164E-02  0.1300439E+00
        -11   -1    0    0    0    0  0.00000000000E+00  0.00000000000E+00  0.45593999997E+02  0.45594000000E+02  0.51100000000E-03 0.  1.
         11   -1    0    0    0    0 -0.00000000000E+00 -0.00000000000E+00 -0.45593999997E+02  0.45594000000E+02  0.51100000000E-03 0. -1.
    9900012    2    1    2    0    0 -0.73624889230E+01  0.11032736141E+02  0.38434858760E+02  0.50528857389E+02  0.29999992521E+02 0.  0.
         12    1    1    2    0    0  0.73624889230E+01 -0.11032736141E+02 -0.38434858760E+02  0.40659142611E+02  0.00000000000E+00 0. -1.
         11    1    3    3    0    0  0.22381946780E+01  0.23793017068E+00  0.73898185448E+00  0.23690125844E+01  0.51100000000E-03 0. -1.
        -11    1    3    3    0    0  0.71838758213E+01  0.84994599010E+01  0.71407573625E+01  0.13222681513E+02  0.51100000000E-03 0.  1.
         12    1    3    3    0    0 -0.16784559422E+02  0.22953460694E+01  0.30555119543E+02  0.34937163292E+02  0.00000000000E+00 0. -1.
</event>
<event>
 7    1  0.2744502E-011  0.5052878E+02  0.7816164E-02  0.1300439E+00
        -11   -1    0    0    0    0  0.00000000000E+00  0.00000000000E+00  0.45593999997E+02  0.45594000000E+02  0.51100000000E-03 0.  1.
         11   -1    0    0    0    0 -0.00000000000E+00 -0.00000000000E+00 -0.45593999997E+02  0.45594000000E+02  0.51100000000E-03 0. -1.
    9900012    2    1    2    0    0  0.36020568808E+02  0.18656536721E+02 -0.27613070592E+01  0.50528775262E+02  0.29999742885E+02 0.  0.
         12    1    1    2    0    0 -0.36020568808E+02 -0.18656536721E+02  0.27613070592E+01  0.40659224738E+02  0.00000000000E+00 0. -1.
         11    1    3    3    0    0  0.13228789512E+01  0.97612834528E+01  0.47128972677E+01  0.10919893053E+02  0.51100000000E-03 0. -1.
        -11    1    3    3    0    0 -0.10969683618E+01 -0.75152256613E+00  0.89663013286E+00  0.16037679416E+01  0.51100000000E-03 0.  1.
        -12    1    3    3    0    0  0.35794658218E+02  0.96467758340E+01 -0.83708344597E+01  0.38005114268E+02  0.00000000000E+00 0.  1.
</event>
<event>
 7    1  0.2744502E-011  0.5052886E+02  0.7816164E-02  0.1300439E+00
        -11   -1    0    0    0    0  0.00000000000E+00  0.00000000000E+00  0.45593999997E+02  0.45594000000E+02  0.51100000000E-03 0. -1.
         11   -1    0    0    0    0 -0.00000000000E+00 -0.00000000000E+00 -0.45593999997E+02  0.45594000000E+02  0.51100000000E-03 0.  1.
    9900012    2    1    2    0    0 -0.39664170980E+02  0.78242380608E+01  0.43244454640E+01  0.50528856018E+02  0.29999988353E+02 0.  0.
         12    1    1    2    0    0  0.39664170980E+02 -0.78242380608E+01 -0.43244454640E+01  0.40659143982E+02  0.00000000000E+00 0. -1.
         11    1    3    3    0    0 -0.52293586373E+01  0.11942903672E+02 -0.19155553094E+01  0.13177575357E+02  0.51100000000E-03 0. -1.
        -11    1    3    3    0    0 -0.49159149646E+01  0.32844372394E+01 -0.11752576714E+01  0.60278502614E+01  0.51100000000E-03 0.  1.
         12    1    3    3    0    0 -0.29518897378E+02 -0.74031028504E+01  0.74152584448E+01  0.31323430400E+02  0.00000000000E+00 0. -1.
</event>
<event>
 7    1  0.2744502E-011  0.5052885E+02  0.7816164E-02  0.1300439E+00
        -11   -1    0    0    0    0  0.00000000000E+00  0.00000000000E+00  0.45593999997E+02  0.45594000000E+02  0.51100000000E-03 0.  1.
         11   -1    0    0    0    0 -0.00000000000E+00 -0.00000000000E+00 -0.45593999997E+02  0.45594000000E+02  0.51100000000E-03 0. -1.
    9900012    2    1    2    0    0  0.23204817434E+02  0.27036444308E+02  0.19589129380E+02  0.50528845276E+02  0.29999955702E+02 0.  0.
         12    1    1    2    0    0 -0.23204817434E+02 -0.27036444308E+02 -0.19589129380E+02  0.40659154724E+02  0.00000000000E+00 0. -1.
         11    1    3    3    0    0  0.11558243050E+02  0.17076560859E+01  0.18434031814E+02  0.21824816171E+02  0.51100000000E-03 0. -1.
        -11    1    3    3    0    0 -0.33281492205E+00  0.52885124581E+01  0.75773257692E+00  0.53528766762E+01  0.51100000000E-03 0.  1.
        -12    1    3    3    0    0  0.11979389306E+02  0.20040275764E+02  0.39736498964E+00  0.23351152429E+02  0.00000000000E+00 0.  1.
</event>
<event>
 7    1  0.2744502E-011  0.5052886E+02  0.7816164E-02  0.1300439E+00
        -11   -1    0    0    0    0  0.00000000000E+00  0.00000000000E+00  0.45593999997E+02  0.45594000000E+02  0.51100000000E-03 0.  1.
         11   -1    0    0    0    0 -0.00000000000E+00 -0.00000000000E+00 -0.45593999997E+02  0.45594000000E+02  0.51100000000E-03 0. -1.
    9900012    2    1    2    0    0 -0.14743097368E+02 -0.54929120926E+01  0.37491796101E+02  0.50528858615E+02  0.29999996248E+02 0.  0.
         12    1    1    2    0    0  0.14743097368E+02  0.54929120926E+01 -0.37491796101E+02  0.40659141385E+02  0.00000000000E+00 0. -1.
         11    1    3    3    0    0 -0.39555796230E+01 -0.29207515369E+01  0.17607150070E+02  0.18280840614E+02  0.51100000000E-03 0. -1.
        -11    1    3    3    0    0 -0.14974526832E+02  0.36091266504E+00  0.22082537776E+02  0.26683425318E+02  0.51100000000E-03 0.  1.
         12    1    3    3    0    0  0.41870090872E+01 -0.29330732208E+01 -0.21978917452E+01  0.55645926840E+01  0.00000000000E+00 0. -1.
</event>
<event>
 7    1  0.2744502E-011  0.5052886E+02  0.7816164E-02  0.1300439E+00
        -11   -1    0    0    0    0  0.00000000000E+00  0.00000000000E+00  0.45593999997E+02  0.45594000000E+02  0.51100000000E-03 0.  1.
         11   -1    0    0    0    0 -0.00000000000E+00 -0.00000000000E+00 -0.45593999997E+02  0.45594000000E+02  0.51100000000E-03 0. -1.
    9900012    2    1    2    0    0  0.14263522253E+02 -0.36728198810E+02  0.10037767648E+02  0.50528862844E+02  0.30000009100E+02 0.  0.
         12    1    1    2    0    0 -0.14263522253E+02  0.36728198810E+02 -0.10037767648E+02  0.40659137156E+02  0.00000000000E+00 0. -1.
         11    1    3    3    0    0  0.16350605324E+02 -0.15079905768E+02 -0.21157956987E+01  0.22343286333E+02  0.51100000000E-03 0. -1.
        -11    1    3    3    0    0  0.33027720047E+00 -0.71692479257E+01 -0.23479198336E+01  0.75511539949E+01  0.51100000000E-03 0.  1.
        -12    1    3    3    0    0 -0.24173602713E+01 -0.14479045116E+02  0.14501483180E+02  0.20634422516E+02  0.00000000000E+00 0.  1.
</event>
<event>
 7    1  0.2744502E-011  0.5052884E+02  0.7816164E-02  0.1300439E+00
        -11   -1    0    0    0    0  0.00000000000E+00  0.00000000000E+00  0.45593999997E+02  0.45594000000E+02  0.51100000000E-03 0.  1.
         11   -1    0    0    0    0 -0.00000000000E+00 -0.00000000000E+00 -0.45593999997E+02  0.45594000000E+02  0.51100000000E-03 0. -1.
    9900012    2    1    2    0    0 -0.38656616803E+02  0.10212213356E+02  0.73854048142E+01  0.50528837090E+02  0.29999930818E+02 0.  0.
         12    1    1    2    0    0  0.38656616803E+02 -0.10212213356E+02 -0.73854048142E+01  0.40659162910E+02  0.00000000000E+00 0. -1.
         11    1    3    3    0    0 -0.32339394866E+01 -0.55710060423E+01  0.16630024534E+01  0.66528227353E+01  0.51100000000E-03 0. -1.
        -11    1    3    3    0    0 -0.92839714173E+01  0.47836775696E+01 -0.72269610333E+01  0.12700577247E+02  0.51100000000E-03 0.  1.
         12    1    3    3    0    0 -0.26138705899E+02  0.10999541829E+02  0.12949363394E+02  0.31175437107E+02  0.00000000000E+00 0. -1.
</event>
<event>
 7    1  0.2744502E-011  0.5052889E+02  0.7816164E-02  0.1300439E+00
        -11   -1    0    0    0    0  0.00000000000E+00  0.00000000000E+00  0.45593999997E+02  0.45594000000E+02  0.51100000000E-03 0.  1.
         11   -1    0    0    0    0 -0.00000000000E+00 -0.00000000000E+00 -0.45593999997E+02  0.45594000000E+02  0.51100000000E-03 0. -1.
    9900012    2    1    2    0    0 -0.37802804571E+02  0.12363174086E+01  0.14919202362E+02  0.50528891386E+02  0.30000095856E+02 0.  0.
         12    1    1    2    0    0  0.37802804571E+02 -0.12363174086E+01 -0.14919202362E+02  0.40659108614E+02  0.00000000000E+00 0. -1.
         11    1    3    3    0    0  0.57447868080E+00 -0.63981222796E+01  0.56962966196E+01  0.85856735263E+01  0.51100000000E-03 0. -1.
        -11    1    3    3    0    0 -0.10278163552E+02  0.11866107321E+01  0.80163540664E+01  0.13088568440E+02  0.51100000000E-03 0.  1.
        -12    1    3    3    0    0 -0.28099119700E+02  0.64478289561E+01  0.12065516762E+01  0.28854649420E+02  0.00000000000E+00 0.  1.
</event>
<event>
 7    1  0.2744502E-011  0.5052886E+02  0.7816164E-02  0.1300439E+00
        -11   -1    0    0    0    0  0.00000000000E+00  0.00000000000E+00  0.45593999997E+02  0.45594000000E+02  0.51100000000E-03 0.  1.
         11   -1    0    0    0    0 -0.00000000000E+00 -0.00000000000E+00 -0.45593999997E+02  0.45594000000E+02  0.51100000000E-03 0. -1.
    9900012    2    1    2    0    0 -0.27826453735E+02 -0.40021964866E+00  0.29642774855E+02  0.50528858293E+02  0.29999995268E+02 0.  0.
         12    1    1    2    0    0  0.27826453735E+02  0.40021964866E+00 -0.29642774855E+02  0.40659141707E+02  0.00000000000E+00 0. -1.
         11    1    3    3    0    0 -0.77197236284E+01  0.10165182158E+01  0.71778038115E+01  0.10590009915E+02  0.51100000000E-03 0. -1.
        -11    1    3    3    0    0 -0.24578569536E+02  0.50477336126E+01  0.15974614359E+02  0.29745150852E+02  0.51100000000E-03 0.  1.
         12    1    3    3    0    0  0.44718394292E+01 -0.64644714771E+01  0.64903566847E+01  0.10193697526E+02  0.00000000000E+00 0. -1.
</event>
<event>
 7    1  0.2744502E-011  0.5052886E+02  0.7816164E-02  0.1300439E+00
        -11   -1    0    0    0    0  0.00000000000E+00  0.00000000000E+00  0.45593999997E+02  0.45594000000E+02  0.51100000000E-03 0.  1.
         11   -1    0    0    0    0 -0.00000000000E+00 -0.00000000000E+00 -0.45593999997E+02  0.45594000000E+02  0.51100000000E-03 0. -1.
    9900012    2    1    2    0    0  0.32808513478E+02  0.94647208050E+01  0.22072289535E+02  0.50528862505E+02  0.30000008069E+02 0.  0.
         12    1    1    2    0    0 -0.32808513478E+02 -0.94647208050E+01 -0.22072289535E+02  0.40659137495E+02  0.00000000000E+00 0. -1.
         11    1    3    3    0    0  0.21130191976E+01  0.14141630866E+01  0.60009281267E+01  0.65173496153E+01  0.51100000000E-03 0. -1.
        -11    1    3    3    0    0  0.28340472162E+02  0.67782280828E+01  0.22651202926E+02  0.36908044280E+02  0.51100000000E-03 0.  1.
         12    1    3    3    0    0  0.23550221183E+01  0.12723296356E+01 -0.65798415179E+01  0.71034686091E+01  0.00000000000E+00 0. -1.
</event>
<event>
 7    1  0.2744502E-011  0.5052886E+02  0.7816164E-02  0.1300439E+00
        -11   -1    0    0    0    0  0.00000000000E+00  0.00000000000E+00  0.45593999997E+02  0.45594000000E+02  0.51100000000E-03 0.  1.
         11   -1    0    0    0    0 -0.00000000000E+00 -0.00000000000E+00 -0.45593999997E+02  0.45594000000E+02  0.51100000000E-03 0. -1.
    9900012    2    1    2    0    0 -0.81298372958E+01 -0.38162315718E+02  0.11432813123E+02  0.50528858207E+02  0.29999995005E+02 0.  0.
         12    1    1    2    0    0  0.81298372958E+01  0.38162315718E+02 -0.11432813123E+02  0.40659141793E+02  0.00000000000E+00 0. -1.
         11    1    3    3    0    0  0.59246094278E+01 -0.11276759863E+02  0.40683299213E+00  0.12744874390E+02  0.51100000000E-03 0.  1.
        -11    1    3    3    0    0  0.23454463871E+01 -0.11203656751E+01 -0.31740063404E+01  0.41025180695E+01  0.51100000000E-03 0. -1.
        -12    1    3    3    0    0 -0.16399893111E+02 -0.25765190180E+02  0.14199986472E+02  0.33681465747E+02  0.00000000000E+00 0.  1.
</event>
<event>
 7    1  0.2744502E-011  0.5052886E+02  0.7816164E-02  0.1300439E+00
        -11   -1    0    0    0    0  0.00000000000E+00  0.00000000000E+00  0.45593999997E+02  0.45594000000E+02  0.51100000000E-03 0.  1.
         11   -1    0    0    0    0 -0.00000000000E+00 -0.00000000000E+00 -0.45593999997E+02  0.45594000000E+02  0.51100000000E-03 0. -1.
    9900012    2    1    2    0    0 -0.72588733882E+00 -0.33803270406E+02 -0.22582679942E+02  0.50528862824E+02  0.30000009040E+02 0.  0.
         12    1    1    2    0    0  0.72588733882E+00  0.33803270406E+02  0.22582679942E+02  0.40659137176E+02  0.00000000000E+00 0. -1.
         11    1    3    3    0    0  0.17645929299E+01 -0.38945593642E+01  0.12971013282E-01  0.42756928512E+01  0.51100000000E-03 0. -1.
        -11    1    3    3    0    0 -0.29947790898E+01 -0.12124961030E+02  0.49725087969E+01  0.13442813165E+02  0.51100000000E-03 0.  1.
         12    1    3    3    0    0  0.50429882108E+00 -0.17783750011E+02 -0.27568159752E+02  0.32810356808E+02  0.00000000000E+00 0. -1.
</event>
<event>
 7    1  0.2744502E-011  0.5052881E+02  0.7816164E-02  0.1300439E+00
        -11   -1    0    0    0    0  0.00000000000E+00  0.00000000000E+00  0.45593999997E+02  0.45594000000E+02  0.51100000000E-03 0.  1.
         11   -1    0    0    0    0 -0.00000000000E+00 -0.00000000000E+00 -0.45593999997E+02  0.45594000000E+02  0.51100000000E-03 0. -1.
    9900012    2    1    2    0    0  0.22232959973E+01 -0.77805632697E+01  0.39845818687E+02  0.50528813132E+02  0.29999857996E+02 0.  0.
         12    1    1    2    0    0 -0.22232959973E+01  0.77805632697E+01 -0.39845818687E+02  0.40659186868E+02  0.00000000000E+00 0. -1.
         11    1    3    3    0    0 -0.39939149249E+01 -0.20771213467E+01  0.81312690046E+01  0.92942630371E+01  0.51100000000E-03 0. -1.
        -11    1    3    3    0    0 -0.60736393460E+01  0.49857137845E+01  0.19032932177E+02  0.20591234649E+02  0.51100000000E-03 0.  1.
         12    1    3    3    0    0  0.12290850268E+02 -0.10689155708E+02  0.12681617505E+02  0.20643315446E+02  0.00000000000E+00 0. -1.
</event>
<event>
 7    1  0.2744502E-011  0.5052886E+02  0.7816164E-02  0.1300439E+00
        -11   -1    0    0    0    0  0.00000000000E+00  0.00000000000E+00  0.45593999997E+02  0.45594000000E+02  0.51100000000E-03 0. -1.
         11   -1    0    0    0    0 -0.00000000000E+00 -0.00000000000E+00 -0.45593999997E+02  0.45594000000E+02  0.51100000000E-03 0.  1.
    9900012    2    1    2    0    0 -0.21863208613E+02 -0.34174805759E+02  0.26923477832E+01  0.50528856181E+02  0.29999988849E+02 0.  0.
         12    1    1    2    0    0  0.21863208613E+02  0.34174805759E+02 -0.26923477832E+01  0.40659143819E+02  0.00000000000E+00 0. -1.
         11    1    3    3    0    0 -0.24148735610E+01  0.14640304901E+01 -0.11386899132E+01  0.30449326054E+01  0.51100000000E-03 0. -1.
        -11    1    3    3    0    0  0.36908158821E+01 -0.45559415822E+01 -0.50395896918E+01  0.77315063280E+01  0.51100000000E-03 0.  1.
        -12    1    3    3    0    0 -0.23139150934E+02 -0.31082894667E+02  0.88706273883E+01  0.39752417248E+02  0.00000000000E+00 0.  1.
</event>
<event>
 7    1  0.2744502E-011  0.5052880E+02  0.7816164E-02  0.1300439E+00
        -11   -1    0    0    0    0  0.00000000000E+00  0.00000000000E+00  0.45593999997E+02  0.45594000000E+02  0.51100000000E-03 0.  1.
         11   -1    0    0    0    0 -0.00000000000E+00 -0.00000000000E+00 -0.45593999997E+02  0.45594000000E+02  0.51100000000E-03 0. -1.
    9900012    2    1    2    0    0  0.27725082749E+02 -0.18251079111E+02  0.23481666565E+02  0.50528797268E+02  0.29999809776E+02 0.  0.
         12    1    1    2    0    0 -0.27725082749E+02  0.18251079111E+02 -0.23481666565E+02  0.40659202732E+02  0.00000000000E+00 0. -1.
         11    1    3    3    0    0  0.21402104297E+02 -0.16795862416E+02  0.25038306797E+02  0.36973880919E+02  0.51100000000E-03 0.  1.
        -11    1    3    3    0    0 -0.26230217348E+01 -0.33862653170E+01 -0.76993234326E-01  0.42840359519E+01  0.51100000000E-03 0. -1.
        -12    1    3    3    0    0  0.89460001859E+01  0.19310486229E+01 -0.14796469974E+01  0.92708803976E+01  0.00000000000E+00 0.  1.
</event>
<event>
 7    1  0.2744502E-011  0.5052886E+02  0.7816164E-02  0.1300439E+00
        -11   -1    0    0    0    0  0.00000000000E+00  0.00000000000E+00  0.45593999997E+02  0.45594000000E+02  0.51100000000E-03 0.  1.
         11   -1    0    0    0    0 -0.00000000000E+00 -0.00000000000E+00 -0.45593999997E+02  0.45594000000E+02  0.51100000000E-03 0. -1.
    9900012    2    1    2    0    0 -0.38353284367E+02 -0.37112420245E+01  0.12977583229E+02  0.50528863197E+02  0.30000010175E+02 0.  0.
         12    1    1    2    0    0  0.38353284367E+02  0.37112420245E+01 -0.12977583229E+02  0.40659136803E+02  0.00000000000E+00 0. -1.
         11    1    3    3    0    0  0.34071361999E+00 -0.13050890574E+01  0.19210691027E+01  0.23473069627E+01  0.51100000000E-03 0.  1.
        -11    1    3    3    0    0 -0.18811398933E+02  0.88905446599E+01 -0.34644649499E+01  0.21092961666E+02  0.51100000000E-03 0. -1.
        -12    1    3    3    0    0 -0.19882599053E+02 -0.11296697627E+02  0.14520979076E+02  0.27088594569E+02  0.00000000000E+00 0.  1.
</event>
<event>
 7    1  0.2744502E-011  0.5052887E+02  0.7816164E-02  0.1300439E+00
        -11   -1    0    0    0    0  0.00000000000E+00  0.00000000000E+00  0.45593999997E+02  0.45594000000E+02  0.51100000000E-03 0.  1.
         11   -1    0    0    0    0 -0.00000000000E+00 -0.00000000000E+00 -0.45593999997E+02  0.45594000000E+02  0.51100000000E-03 0. -1.
    9900012    2    1    2    0    0 -0.21712365758E+01 -0.19226344828E+02  0.35760292333E+02  0.50528866814E+02  0.30000021168E+02 0.  0.
         12    1    1    2    0    0  0.21712365758E+01  0.19226344828E+02 -0.35760292333E+02  0.40659133186E+02  0.00000000000E+00 0. -1.
         11    1    3    3    0    0  0.67254703169E+01 -0.38839068023E+01  0.50799993227E+01  0.92802519584E+01  0.51100000000E-03 0. -1.
        -11    1    3    3    0    0  0.35093591035E+01 -0.93775268028E+01  0.31970405136E+01  0.10510693534E+02  0.51100000000E-03 0.  1.
         12    1    3    3    0    0 -0.12406065996E+02 -0.59649112231E+01  0.27483252496E+02  0.30737921322E+02  0.00000000000E+00 0. -1.
</event>
<event>
 7    1  0.2744502E-011  0.5052885E+02  0.7816164E-02  0.1300439E+00
        -11   -1    0    0    0    0  0.00000000000E+00  0.00000000000E+00  0.45593999997E+02  0.45594000000E+02  0.51100000000E-03 0.  1.
         11   -1    0    0    0    0 -0.00000000000E+00 -0.00000000000E+00 -0.45593999997E+02  0.45594000000E+02  0.51100000000E-03 0. -1.
    9900012    2    1    2    0    0  0.30211461884E+02  0.22327189250E+02  0.15554123806E+02  0.50528848800E+02  0.29999966412E+02 0.  0.
         12    1    1    2    0    0 -0.30211461884E+02 -0.22327189250E+02 -0.15554123806E+02  0.40659151200E+02  0.00000000000E+00 0. -1.
         11    1    3    3    0    0  0.11946622689E+02  0.32457194808E+01  0.22770420655E+01  0.12587351169E+02  0.51100000000E-03 0. -1.
        -11    1    3    3    0    0  0.17396790228E+02  0.67412211231E+01  0.16770783288E+02  0.25086879934E+02  0.51100000000E-03 0.  1.
         12    1    3    3    0    0  0.86804896711E+00  0.12340248646E+02 -0.34937015472E+01  0.12854617697E+02  0.00000000000E+00 0. -1.
</event>
<event>
 7    1  0.2744502E-011  0.5052886E+02  0.7816164E-02  0.1300439E+00
        -11   -1    0    0    0    0  0.00000000000E+00  0.00000000000E+00  0.45593999997E+02  0.45594000000E+02  0.51100000000E-03 0. -1.
         11   -1    0    0    0    0 -0.00000000000E+00 -0.00000000000E+00 -0.45593999997E+02  0.45594000000E+02  0.51100000000E-03 0.  1.
    9900012    2    1    2    0    0  0.28073961518E+02 -0.86011257995E+01 -0.28125419070E+02  0.50528857385E+02  0.29999992507E+02 0.  0.
         12    1    1    2    0    0 -0.28073961518E+02  0.86011257995E+01  0.28125419070E+02  0.40659142615E+02  0.00000000000E+00 0. -1.
         11    1    3    3    0    0  0.47142714632E+01  0.21537301735E+01  0.29424193276E+01  0.59599279232E+01  0.51100000000E-03 0. -1.
        -11    1    3    3    0    0  0.78394867841E+01 -0.12688420542E+02 -0.86728618569E+01  0.17253176575E+02  0.51100000000E-03 0.  1.
        -12    1    3    3    0    0  0.15520203271E+02  0.19335645687E+01 -0.22394976541E+02  0.27315752887E+02  0.00000000000E+00 0.  1.
</event>
<event>
 7    1  0.2744502E-011  0.5052887E+02  0.7816164E-02  0.1300439E+00
        -11   -1    0    0    0    0  0.00000000000E+00  0.00000000000E+00  0.45593999997E+02  0.45594000000E+02  0.51100000000E-03 0.  1.
         11   -1    0    0    0    0 -0.00000000000E+00 -0.00000000000E+00 -0.45593999997E+02  0.45594000000E+02  0.51100000000E-03 0. -1.
    9900012    2    1    2    0    0  0.39988072679E+02 -0.37082556944E+01  0.63535420278E+01  0.50528872941E+02  0.30000039793E+02 0.  0.
         12    1    1    2    0    0 -0.39988072679E+02  0.37082556944E+01 -0.63535420278E+01  0.40659127059E+02  0.00000000000E+00 0. -1.
         11    1    3    3    0    0 -0.20997358732E+01 -0.37187237014E+00  0.10457247975E+01  0.23750200863E+01  0.51100000000E-03 0. -1.
        -11    1    3    3    0    0  0.16554770129E+02  0.84757984112E+01  0.72324126205E+01  0.19955133808E+02  0.51100000000E-03 0.  1.
        -12    1    3    3    0    0  0.25533038423E+02 -0.11812181735E+02 -0.19245953902E+01  0.28198719047E+02  0.00000000000E+00 0.  1.
</event>
<event>
 7    1  0.2744502E-011  0.5052886E+02  0.7816164E-02  0.1300439E+00
        -11   -1    0    0    0    0  0.00000000000E+00  0.00000000000E+00  0.45593999997E+02  0.45594000000E+02  0.51100000000E-03 0. -1.
         11   -1    0    0    0    0 -0.00000000000E+00 -0.00000000000E+00 -0.45593999997E+02  0.45594000000E+02  0.51100000000E-03 0.  1.
    9900012    2    1    2    0    0 -0.18622782771E+00  0.35706419157E+02 -0.19446914479E+02  0.50528861636E+02  0.30000005428E+02 0.  0.
         12    1    1    2    0    0  0.18622782771E+00 -0.35706419157E+02  0.19446914479E+02  0.40659138364E+02  0.00000000000E+00 0. -1.
         11    1    3    3    0    0  0.35218023608E+01  0.54975865006E+01 -0.85950371899E+01  0.10793572798E+02  0.51100000000E-03 0.  1.
        -11    1    3    3    0    0 -0.11300458877E+02  0.19467113148E+02  0.26792646680E+00  0.22510900693E+02  0.51100000000E-03 0. -1.
         12    1    3    3    0    0  0.75924286886E+01  0.10741719508E+02 -0.11119803755E+02  0.17224388144E+02  0.00000000000E+00 0. -1.
</event>
<event>
 7    1  0.2744502E-011  0.5052886E+02  0.7816164E-02  0.1300439E+00
        -11   -1    0    0    0    0  0.00000000000E+00  0.00000000000E+00  0.45593999997E+02  0.45594000000E+02  0.51100000000E-03 0.  1.
         11   -1    0    0    0    0 -0.00000000000E+00 -0.00000000000E+00 -0.45593999997E+02  0.45594000000E+02  0.51100000000E-03 0. -1.
    9900012    2    1    2    0    0 -0.25100210862E+02  0.31072346775E+02 -0.75930720571E+01  0.50528855116E+02  0.29999985611E+02 0.  0.
         12    1    1    2    0    0  0.25100210862E+02 -0.31072346775E+02  0.75930720571E+01  0.40659144884E+02  0.00000000000E+00 0. -1.
         11    1    3    3    0    0  0.20771679549E+01 -0.97730330219E+00 -0.22518926453E+01  0.32157066415E+01  0.51100000000E-03 0. -1.
        -11    1    3    3    0    0  0.30092440514E+01  0.74130968992E+01 -0.12506128651E+00  0.80015745941E+01  0.51100000000E-03 0.  1.
        -12    1    3    3    0    0 -0.30186622868E+02  0.24636553178E+02 -0.52161181253E+01  0.39311573881E+02  0.00000000000E+00 0.  1.
</event>
<event>
 7    1  0.2744502E-011  0.5052887E+02  0.7816164E-02  0.1300439E+00
        -11   -1    0    0    0    0  0.00000000000E+00  0.00000000000E+00  0.45593999997E+02  0.45594000000E+02  0.51100000000E-03 0.  1.
         11   -1    0    0    0    0 -0.00000000000E+00 -0.00000000000E+00 -0.45593999997E+02  0.45594000000E+02  0.51100000000E-03 0. -1.
    9900012    2    1    2    0    0 -0.37886904040E+01 -0.11017382719E+02  0.38954182542E+02  0.50528865301E+02  0.30000016568E+02 0.  0.
         12    1    1    2    0    0  0.37886904040E+01  0.11017382719E+02 -0.38954182542E+02  0.40659134699E+02  0.00000000000E+00 0. -1.
         11    1    3    3    0    0  0.15931215870E+01 -0.10443088451E+01 -0.83219078181E+00  0.20787397897E+01  0.51100000000E-03 0. -1.
        -11    1    3    3    0    0 -0.54720544160E+01 -0.15765097033E+02  0.13304920427E+02  0.21342506222E+02  0.51100000000E-03 0.  1.
        -12    1    3    3    0    0  0.90242424979E-01  0.57920231592E+01  0.26481452897E+02  0.27107619289E+02  0.00000000000E+00 0.  1.
</event>
<event>
 7    1  0.2744502E-011  0.5052884E+02  0.7816164E-02  0.1300439E+00
        -11   -1    0    0    0    0  0.00000000000E+00  0.00000000000E+00  0.45593999997E+02  0.45594000000E+02  0.51100000000E-03 0. -1.
         11   -1    0    0    0    0 -0.00000000000E+00 -0.00000000000E+00 -0.45593999997E+02  0.45594000000E+02  0.51100000000E-03 0.  1.
    9900012    2    1    2    0    0  0.26207406450E+02 -0.30464004629E+02 -0.61873665460E+01  0.50528840692E+02  0.29999941767E+02 0.  0.
         12    1    1    2    0    0 -0.26207406450E+02  0.30464004629E+02  0.61873665460E+01  0.40659159308E+02  0.00000000000E+00 0. -1.
         11    1    3    3    0    0  0.93774661938E+01  0.69228886600E+00  0.42132080158E+01  0.10303749712E+02  0.51100000000E-03 0.  1.
        -11    1    3    3    0    0  0.11586054649E+01 -0.98769681520E+01  0.32736761567E+01  0.10469661997E+02  0.51100000000E-03 0. -1.
        -12    1    3    3    0    0  0.15671334791E+02 -0.21279325343E+02 -0.13674250719E+02  0.29755428982E+02  0.00000000000E+00 0.  1.
</event>
<event>
 7    1  0.2744502E-011  0.5052885E+02  0.7816164E-02  0.1300439E+00
        -11   -1    0    0    0    0  0.00000000000E+00  0.00000000000E+00  0.45593999997E+02  0.45594000000E+02  0.51100000000E-03 0.  1.
         11   -1    0    0    0    0 -0.00000000000E+00 -0.00000000000E+00 -0.45593999997E+02  0.45594000000E+02  0.51100000000E-03 0. -1.
    9900012    2    1    2    0    0 -0.10923478779E+02 -0.25276807771E+02  0.29915328268E+02  0.50528852627E+02  0.29999978044E+02 0.  0.
         12    1    1    2    0    0  0.10923478779E+02  0.25276807771E+02 -0.29915328268E+02  0.40659147373E+02  0.00000000000E+00 0. -1.
         11    1    3    3    0    0  0.32268937237E+01  0.43967366714E+01  0.10511757298E+01  0.55541972541E+01  0.51100000000E-03 0. -1.
        -11    1    3    3    0    0 -0.18177307299E+01 -0.17994235078E+01 -0.54979909215E+00  0.26161707264E+01  0.51100000000E-03 0.  1.
        -12    1    3    3    0    0 -0.12332641773E+02 -0.27874120935E+02  0.29413951630E+02  0.42358484646E+02  0.00000000000E+00 0.  1.
</event>
<event>
 7    1  0.2744502E-011  0.5052886E+02  0.7816164E-02  0.1300439E+00
        -11   -1    0    0    0    0  0.00000000000E+00  0.00000000000E+00  0.45593999997E+02  0.45594000000E+02  0.51100000000E-03 0. -1.
         11   -1    0    0    0    0 -0.00000000000E+00 -0.00000000000E+00 -0.45593999997E+02  0.45594000000E+02  0.51100000000E-03 0.  1.
    9900012    2    1    2    0    0 -0.38192424543E+02 -0.97555815925E+01 -0.99666041056E+01  0.50528857583E+02  0.29999993109E+02 0.  0.
         12    1    1    2    0    0  0.38192424543E+02  0.97555815925E+01  0.99666041056E+01  0.40659142417E+02  0.00000000000E+00 0. -1.
         11    1    3    3    0    0 -0.14387452409E+01 -0.33348337526E+01  0.30421154329E+01  0.47376756531E+01  0.51100000000E-03 0. -1.
        -11    1    3    3    0    0  0.83238577643E+00 -0.44431081837E+01 -0.59900276349E+01  0.75042992838E+01  0.51100000000E-03 0.  1.
        -12    1    3    3    0    0 -0.37586065079E+02 -0.19776396561E+01 -0.70186919036E+01  0.38286882646E+02  0.00000000000E+00 0.  1.
</event>
<event>
 7    1  0.2744502E-011  0.5052886E+02  0.7816164E-02  0.1300439E+00
        -11   -1    0    0    0    0  0.00000000000E+00  0.00000000000E+00  0.45593999997E+02  0.45594000000E+02  0.51100000000E-03 0. -1.
         11   -1    0    0    0    0 -0.00000000000E+00 -0.00000000000E+00 -0.45593999997E+02  0.45594000000E+02  0.51100000000E-03 0.  1.
    9900012    2    1    2    0    0  0.21127505976E+02 -0.27688845000E+02 -0.20979090906E+02  0.50528857099E+02  0.29999991638E+02 0.  0.
         12    1    1    2    0    0 -0.21127505976E+02  0.27688845000E+02  0.20979090906E+02  0.40659142901E+02  0.00000000000E+00 0. -1.
         11    1    3    3    0    0 -0.31248222322E+00 -0.56901952821E+01 -0.10749520007E+02  0.12166681886E+02  0.51100000000E-03 0. -1.
        -11    1    3    3    0    0  0.24000704617E+01 -0.99741934725E+01 -0.11983508428E+02  0.15774959530E+02  0.51100000000E-03 0.  1.
         12    1    3    3    0    0  0.19039917738E+02 -0.12024456245E+02  0.17539375287E+01  0.22587215683E+02  0.00000000000E+00 0. -1.
</event>
<event>
 7    1  0.2744502E-011  0.5052887E+02  0.7816164E-02  0.1300439E+00
        -11   -1    0    0    0    0  0.00000000000E+00  0.00000000000E+00  0.45593999997E+02  0.45594000000E+02  0.51100000000E-03 0.  1.
         11   -1    0    0    0    0 -0.00000000000E+00 -0.00000000000E+00 -0.45593999997E+02  0.45594000000E+02  0.51100000000E-03 0. -1.
    9900012    2    1    2    0    0 -0.53016904162E+00 -0.25896639604E+02  0.31340836608E+02  0.50528867431E+02  0.30000023042E+02 0.  0.
         12    1    1    2    0    0  0.53016904162E+00  0.25896639604E+02 -0.31340836608E+02  0.40659132569E+02  0.00000000000E+00 0. -1.
         11    1    3    3    0    0  0.58609904268E+01 -0.91808479115E+01  0.11063100410E+02  0.15525184962E+02  0.51100000000E-03 0. -1.
        -11    1    3    3    0    0  0.12659574990E+01 -0.17341580553E+02  0.21026595491E+02  0.27284625390E+02  0.51100000000E-03 0.  1.
         12    1    3    3    0    0 -0.76571169675E+01  0.62578886047E+00 -0.74885929253E+00  0.77190570792E+01  0.00000000000E+00 0. -1.
</event>
<event>
 7    1  0.2744502E-011  0.5052886E+02  0.7816164E-02  0.1300439E+00
        -11   -1    0    0    0    0  0.00000000000E+00  0.00000000000E+00  0.45593999997E+02  0.45594000000E+02  0.51100000000E-03 0. -1.
         11   -1    0    0    0    0 -0.00000000000E+00 -0.00000000000E+00 -0.45593999997E+02  0.45594000000E+02  0.51100000000E-03 0.  1.
    9900012    2    1    2    0    0  0.36871149901E+02  0.15562044247E+02  0.71768224200E+01  0.50528859622E+02  0.29999999308E+02 0.  0.
         12    1    1    2    0    0 -0.36871149901E+02 -0.15562044247E+02 -0.71768224200E+01  0.40659140378E+02  0.00000000000E+00 0. -1.
         11    1    3    3    0    0  0.10206496817E+02  0.71045603987E+01 -0.20834558519E+00  0.12437474176E+02  0.51100000000E-03 0. -1.
        -11    1    3    3    0    0  0.11425825602E+02 -0.72367107879E+01 -0.30348780412E+01  0.13861095148E+02  0.51100000000E-03 0.  1.
         12    1    3    3    0    0  0.15238827482E+02  0.15694194637E+02  0.10420046046E+02  0.24230290298E+02  0.00000000000E+00 0. -1.
</event>
<event>
 7    1  0.2744502E-011  0.5052885E+02  0.7816164E-02  0.1300439E+00
        -11   -1    0    0    0    0  0.00000000000E+00  0.00000000000E+00  0.45593999997E+02  0.45594000000E+02  0.51100000000E-03 0.  1.
         11   -1    0    0    0    0 -0.00000000000E+00 -0.00000000000E+00 -0.45593999997E+02  0.45594000000E+02  0.51100000000E-03 0. -1.
    9900012    2    1    2    0    0  0.49266018013E+00 -0.31376475845E+02  0.25854214924E+02  0.50528851216E+02  0.29999973757E+02 0.  0.
         12    1    1    2    0    0 -0.49266018013E+00  0.31376475845E+02 -0.25854214924E+02  0.40659148784E+02  0.00000000000E+00 0. -1.
         11    1    3    3    0    0  0.16036435198E+01  0.66405238305E+00 -0.27923939108E+01  0.32878719745E+01  0.51100000000E-03 0. -1.
        -11    1    3    3    0    0 -0.59276777840E+01 -0.61472147346E+01  0.15748423473E+02  0.17914755233E+02  0.51100000000E-03 0.  1.
        -12    1    3    3    0    0  0.48166944443E+01 -0.25893313493E+02  0.12898185362E+02  0.29326224009E+02  0.00000000000E+00 0.  1.
</event>
<event>
 7    1  0.2744502E-011  0.5052886E+02  0.7816164E-02  0.1300439E+00
        -11   -1    0    0    0    0  0.00000000000E+00  0.00000000000E+00  0.45593999997E+02  0.45594000000E+02  0.51100000000E-03 0.  1.
         11   -1    0    0    0    0 -0.00000000000E+00 -0.00000000000E+00 -0.45593999997E+02  0.45594000000E+02  0.51100000000E-03 0. -1.
    9900012    2    1    2    0    0 -0.30679791429E+02 -0.92381782914E+01  0.25031417883E+02  0.50528863002E+02  0.30000009579E+02 0.  0.
         12    1    1    2    0    0  0.30679791429E+02  0.92381782914E+01 -0.25031417883E+02  0.40659136998E+02  0.00000000000E+00 0. -1.
         11    1    3    3    0    0 -0.95829405845E+00  0.46417522509E+01  0.21506449095E+01  0.52047541007E+01  0.51100000000E-03 0. -1.
        -11    1    3    3    0    0 -0.27504205390E+02 -0.17972615067E+02  0.14880696868E+02  0.36068425888E+02  0.51100000000E-03 0.  1.
         12    1    3    3    0    0 -0.22172919799E+01  0.40926845250E+01  0.80000761049E+01  0.92556830126E+01  0.00000000000E+00 0. -1.
</event>
<event>
 7    1  0.2744502E-011  0.5052889E+02  0.7816164E-02  0.1300439E+00
        -11   -1    0    0    0    0  0.00000000000E+00  0.00000000000E+00  0.45593999997E+02  0.45594000000E+02  0.51100000000E-03 0.  1.
         11   -1    0    0    0    0 -0.00000000000E+00 -0.00000000000E+00 -0.45593999997E+02  0.45594000000E+02  0.51100000000E-03 0. -1.
    9900012    2    1    2    0    0 -0.13695202744E+02  0.75033305480E+01  0.37540706521E+02  0.50528890399E+02  0.30000092855E+02 0.  0.
         12    1    1    2    0    0  0.13695202744E+02 -0.75033305480E+01 -0.37540706521E+02  0.40659109601E+02  0.00000000000E+00 0. -1.
         11    1    3    3    0    0 -0.61102683955E+01 -0.65414476531E+01  0.26682224852E+01  0.93405207968E+01  0.51100000000E-03 0. -1.
        -11    1    3    3    0    0 -0.50819768681E+01 -0.17859811812E+01  0.53278724161E+01  0.75764399562E+01  0.51100000000E-03 0.  1.
        -12    1    3    3    0    0 -0.25029574806E+01  0.15830759382E+02  0.29544611619E+02  0.33611929646E+02  0.00000000000E+00 0.  1.
</event>
<event>
 7    1  0.2744502E-011  0.5052887E+02  0.7816164E-02  0.1300439E+00
        -11   -1    0    0    0    0  0.00000000000E+00  0.00000000000E+00  0.45593999997E+02  0.45594000000E+02  0.51100000000E-03 0. -1.
         11   -1    0    0    0    0 -0.00000000000E+00 -0.00000000000E+00 -0.45593999997E+02  0.45594000000E+02  0.51100000000E-03 0.  1.
    9900012    2    1    2    0    0  0.39884329857E+02  0.25979031159E+01  0.74603103764E+01  0.50528866959E+02  0.30000021608E+02 0.  0.
         12    1    1    2    0    0 -0.39884329857E+02 -0.25979031159E+01 -0.74603103764E+01  0.40659133041E+02  0.00000000000E+00 0. -1.
         11    1    3    3    0    0  0.11390526554E+02  0.39206405212E+01  0.14503167533E+02  0.18853577539E+02  0.51100000000E-03 0. -1.
        -11    1    3    3    0    0  0.76392006327E+01  0.11154600417E+01  0.31465843731E+01  0.83368237890E+01  0.51100000000E-03 0.  1.
        -12    1    3    3    0    0  0.20854602671E+02 -0.24381974470E+01 -0.10189441529E+02  0.23338465631E+02  0.00000000000E+00 0.  1.
</event>
<event>
 7    1  0.2744502E-011  0.5052885E+02  0.7816164E-02  0.1300439E+00
        -11   -1    0    0    0    0  0.00000000000E+00  0.00000000000E+00  0.45593999997E+02  0.45594000000E+02  0.51100000000E-03 0.  1.
         11   -1    0    0    0    0 -0.00000000000E+00 -0.00000000000E+00 -0.45593999997E+02  0.45594000000E+02  0.51100000000E-03 0. -1.
    9900012    2    1    2    0    0  0.21156776981E+02 -0.28066062828E+02  0.20441457233E+02  0.50528852584E+02  0.29999977913E+02 0.  0.
         12    1    1    2    0    0 -0.21156776981E+02  0.28066062828E+02 -0.20441457233E+02  0.40659147416E+02  0.00000000000E+00 0. -1.
         11    1    3    3    0    0  0.54781650598E+00 -0.18718474701E+02  0.81318892632E+01  0.20415901188E+02  0.51100000000E-03 0. -1.
        -11    1    3    3    0    0  0.59978347099E+01 -0.44895066796E+01 -0.33004554692E+01  0.81867391554E+01  0.51100000000E-03 0.  1.
        -12    1    3    3    0    0  0.14611125765E+02 -0.48580814469E+01  0.15610023439E+02  0.21926212240E+02  0.00000000000E+00 0.  1.
</event>
<event>
 7    1  0.2744502E-011  0.5052885E+02  0.7816164E-02  0.1300439E+00
        -11   -1    0    0    0    0  0.00000000000E+00  0.00000000000E+00  0.45593999997E+02  0.45594000000E+02  0.51100000000E-03 0. -1.
         11   -1    0    0    0    0 -0.00000000000E+00 -0.00000000000E+00 -0.45593999997E+02  0.45594000000E+02  0.51100000000E-03 0.  1.
    9900012    2    1    2    0    0 -0.13248222945E+02  0.17223810190E+02 -0.34365554271E+02  0.50528851349E+02  0.29999974160E+02 0.  0.
         12    1    1    2    0    0  0.13248222945E+02 -0.17223810190E+02  0.34365554271E+02  0.40659148651E+02  0.00000000000E+00 0. -1.
         11    1    3    3    0    0 -0.23383333470E+01  0.58975400022E+01 -0.20691034477E+01  0.66730780197E+01  0.51100000000E-03 0. -1.
        -11    1    3    3    0    0 -0.59059304379E+01  0.17419732167E+02 -0.11694485030E+02  0.21796514938E+02  0.51100000000E-03 0.  1.
         12    1    3    3    0    0 -0.50039591605E+01 -0.60934619792E+01 -0.20601965794E+02  0.22059258391E+02  0.00000000000E+00 0. -1.
</event>
<event>
 7    1  0.2744502E-011  0.5052885E+02  0.7816164E-02  0.1300439E+00
        -11   -1    0    0    0    0  0.00000000000E+00  0.00000000000E+00  0.45593999997E+02  0.45594000000E+02  0.51100000000E-03 0. -1.
         11   -1    0    0    0    0 -0.00000000000E+00 -0.00000000000E+00 -0.45593999997E+02  0.45594000000E+02  0.51100000000E-03 0.  1.
    9900012    2    1    2    0    0  0.33062052345E+02 -0.23638420040E+02 -0.11366266071E+01  0.50528854321E+02  0.29999983195E+02 0.  0.
         12    1    1    2    0    0 -0.33062052345E+02  0.23638420040E+02  0.11366266071E+01  0.40659145679E+02  0.00000000000E+00 0. -1.
         11    1    3    3    0    0  0.17405209874E+02 -0.56448340356E+01  0.12570756242E+01  0.18340821177E+02  0.51100000000E-03 0. -1.
        -11    1    3    3    0    0  0.15282041442E+02 -0.22927399233E+01 -0.50549384596E+01  0.16258839137E+02  0.51100000000E-03 0.  1.
         12    1    3    3    0    0  0.37480102922E+00 -0.15700846081E+02  0.26612362283E+01  0.15929194008E+02  0.00000000000E+00 0. -1.
</event>
<event>
 7    1  0.2744502E-011  0.5052885E+02  0.7816164E-02  0.1300439E+00
        -11   -1    0    0    0    0  0.00000000000E+00  0.00000000000E+00  0.45593999997E+02  0.45594000000E+02  0.51100000000E-03 0.  1.
         11   -1    0    0    0    0 -0.00000000000E+00 -0.00000000000E+00 -0.45593999997E+02  0.45594000000E+02  0.51100000000E-03 0. -1.
    9900012    2    1    2    0    0 -0.25856734392E+02  0.22796105827E+02  0.21562306504E+02  0.50528853230E+02  0.29999979879E+02 0.  0.
         12    1    1    2    0    0  0.25856734392E+02 -0.22796105827E+02 -0.21562306504E+02  0.40659146770E+02  0.00000000000E+00 0. -1.
         11    1    3    3    0    0 -0.78940662609E+01 -0.21146747778E+01  0.14330578984E+02  0.16497079312E+02  0.51100000000E-03 0. -1.
        -11    1    3    3    0    0 -0.14683882640E+02  0.12879964498E+02  0.88756031040E+01  0.21454282220E+02  0.51100000000E-03 0.  1.
        -12    1    3    3    0    0 -0.32787854906E+01  0.12030816107E+02 -0.16438755840E+01  0.12577491698E+02  0.00000000000E+00 0.  1.
</event>
<event>
 7    1  0.2744502E-011  0.5052886E+02  0.7816164E-02  0.1300439E+00
        -11   -1    0    0    0    0  0.00000000000E+00  0.00000000000E+00  0.45593999997E+02  0.45594000000E+02  0.51100000000E-03 0. -1.
         11   -1    0    0    0    0 -0.00000000000E+00 -0.00000000000E+00 -0.45593999997E+02  0.45594000000E+02  0.51100000000E-03 0.  1.
    9900012    2    1    2    0    0  0.32822830271E+02  0.21055239458E+02 -0.11511044262E+02  0.50528862828E+02  0.30000009051E+02 0.  0.
         12    1    1    2    0    0 -0.32822830271E+02 -0.21055239458E+02  0.11511044262E+02  0.40659137172E+02  0.00000000000E+00 0. -1.
         11    1    3    3    0    0  0.13983824785E+02 -0.14708680255E+01  0.10770315701E+01  0.14102156063E+02  0.51100000000E-03 0. -1.
        -11    1    3    3    0    0  0.18422494121E+02  0.10595026536E+02 -0.12150925812E+02  0.24480356927E+02  0.51100000000E-03 0.  1.
        -12    1    3    3    0    0  0.41651136482E+00  0.11931080948E+02 -0.43715002005E+00  0.11946349837E+02  0.00000000000E+00 0.  1.
</event>
<event>
 7    1  0.2744502E-011  0.5052886E+02  0.7816164E-02  0.1300439E+00
        -11   -1    0    0    0    0  0.00000000000E+00  0.00000000000E+00  0.45593999997E+02  0.45594000000E+02  0.51100000000E-03 0. -1.
         11   -1    0    0    0    0 -0.00000000000E+00 -0.00000000000E+00 -0.45593999997E+02  0.45594000000E+02  0.51100000000E-03 0.  1.
    9900012    2    1    2    0    0 -0.36119117787E+02 -0.17430467986E+02  0.66898416310E+01  0.50528857547E+02  0.29999993001E+02 0.  0.
         12    1    1    2    0    0  0.36119117787E+02  0.17430467986E+02 -0.66898416310E+01  0.40659142453E+02  0.00000000000E+00 0. -1.
         11    1    3    3    0    0 -0.76229445280E+01 -0.12166442160E+02  0.11454303252E+02  0.18366618126E+02  0.51100000000E-03 0. -1.
        -11    1    3    3    0    0 -0.16767423152E+02 -0.86745227287E+01  0.44388176582E+00  0.18883613399E+02  0.51100000000E-03 0.  1.
         12    1    3    3    0    0 -0.11728750108E+02  0.34104969032E+01 -0.52083433871E+01  0.13278626023E+02  0.00000000000E+00 0. -1.
</event>
<event>
 7    1  0.2744502E-011  0.5052893E+02  0.7816164E-02  0.1300439E+00
        -11   -1    0    0    0    0  0.00000000000E+00  0.00000000000E+00  0.45593999997E+02  0.45594000000E+02  0.51100000000E-03 0.  1.
         11   -1    0    0    0    0 -0.00000000000E+00 -0.00000000000E+00 -0.45593999997E+02  0.45594000000E+02  0.51100000000E-03 0. -1.
    9900012    2    1    2    0    0 -0.34682617299E+02  0.27596071252E+00  0.21217919336E+02  0.50528927236E+02  0.30000204827E+02 0.  0.
         12    1    1    2    0    0  0.34682617299E+02 -0.27596071252E+00 -0.21217919336E+02  0.40659072764E+02  0.00000000000E+00 0. -1.
         11    1    3    3    0    0 -0.21120769841E+02  0.46789794430E+01  0.15212213330E+01  0.21686260211E+02  0.51100000000E-03 0. -1.
        -11    1    3    3    0    0 -0.79626474599E+01 -0.67237303036E+01  0.26541210402E+01  0.10754378760E+02  0.51100000000E-03 0.  1.
        -12    1    3    3    0    0 -0.55991999982E+01  0.23207115732E+01  0.17042576963E+02  0.18088288265E+02  0.00000000000E+00 0.  1.
</event>
<event>
 7    1  0.2744502E-011  0.5052887E+02  0.7816164E-02  0.1300439E+00
        -11   -1    0    0    0    0  0.00000000000E+00  0.00000000000E+00  0.45593999997E+02  0.45594000000E+02  0.51100000000E-03 0.  1.
         11   -1    0    0    0    0 -0.00000000000E+00 -0.00000000000E+00 -0.45593999997E+02  0.45594000000E+02  0.51100000000E-03 0. -1.
    9900012    2    1    2    0    0  0.26284695622E+02 -0.23729657221E+02  0.19979571281E+02  0.50528866655E+02  0.30000020685E+02 0.  0.
         12    1    1    2    0    0 -0.26284695622E+02  0.23729657221E+02 -0.19979571281E+02  0.40659133345E+02  0.00000000000E+00 0. -1.
         11    1    3    3    0    0  0.22148561804E+02 -0.16060399028E+02  0.17188992887E+02  0.32310318532E+02  0.51100000000E-03 0. -1.
        -11    1    3    3    0    0  0.70011740240E+01 -0.67480145237E+01  0.77385041414E+01  0.12427251681E+02  0.51100000000E-03 0.  1.
         12    1    3    3    0    0 -0.28650402059E+01 -0.92124366926E+00 -0.49479257476E+01  0.57912964423E+01  0.00000000000E+00 0. -1.
</event>
<event>
 7    1  0.2744502E-011  0.5052881E+02  0.7816164E-02  0.1300439E+00
        -11   -1    0    0    0    0  0.00000000000E+00  0.00000000000E+00  0.45593999997E+02  0.45594000000E+02  0.51100000000E-03 0.  1.
         11   -1    0    0    0    0 -0.00000000000E+00 -0.00000000000E+00 -0.45593999997E+02  0.45594000000E+02  0.51100000000E-03 0. -1.
    9900012    2    1    2    0    0 -0.71993867622E+01  0.18567077397E+02  0.35448589694E+02  0.50528806155E+02  0.29999836789E+02 0.  0.
         12    1    1    2    0    0  0.71993867622E+01 -0.18567077397E+02 -0.35448589694E+02  0.40659193845E+02  0.00000000000E+00 0. -1.
         11    1    3    3    0    0 -0.15868889716E+02  0.10048868040E+02  0.13214775399E+02  0.22965881190E+02  0.51100000000E-03 0. -1.
        -11    1    3    3    0    0  0.55713995433E+01  0.73501915905E+01  0.60186318671E+01  0.11013162085E+02  0.51100000000E-03 0.  1.
        -12    1    3    3    0    0  0.30981034105E+01  0.11680177660E+01  0.16215182428E+02  0.16549762881E+02  0.00000000000E+00 0.  1.
</event>
<event>
 7    1  0.2744502E-011  0.5052886E+02  0.7816164E-02  0.1300439E+00
        -11   -1    0    0    0    0  0.00000000000E+00  0.00000000000E+00  0.45593999997E+02  0.45594000000E+02  0.51100000000E-03 0. -1.
         11   -1    0    0    0    0 -0.00000000000E+00 -0.00000000000E+00 -0.45593999997E+02  0.45594000000E+02  0.51100000000E-03 0.  1.
    9900012    2    1    2    0    0 -0.31792361038E+02 -0.66436989956E+01 -0.24459606116E+02  0.50528864642E+02  0.30000014566E+02 0.  0.
         12    1    1    2    0    0  0.31792361038E+02  0.66436989956E+01  0.24459606116E+02  0.40659135358E+02  0.00000000000E+00 0. -1.
         11    1    3    3    0    0 -0.19383138300E+02 -0.54236335239E+01 -0.13697534863E+02  0.24346340845E+02  0.51100000000E-03 0. -1.
        -11    1    3    3    0    0 -0.17195531326E+02 -0.27558985170E+01 -0.11817791950E+02  0.21046174974E+02  0.51100000000E-03 0.  1.
         12    1    3    3    0    0  0.47863085877E+01  0.15358330453E+01  0.10557206971E+01  0.51363488228E+01  0.00000000000E+00 0. -1.
</event>
<event>
 7    1  0.2744502E-011  0.5052890E+02  0.7816164E-02  0.1300439E+00
        -11   -1    0    0    0    0  0.00000000000E+00  0.00000000000E+00  0.45593999997E+02  0.45594000000E+02  0.51100000000E-03 0.  1.
         11   -1    0    0    0    0 -0.00000000000E+00 -0.00000000000E+00 -0.45593999997E+02  0.45594000000E+02  0.51100000000E-03 0. -1.
    9900012    2    1    2    0    0  0.29409906900E+02  0.28029531195E+02 -0.16016843692E+01  0.50528897259E+02  0.30000113708E+02 0.  0.
         12    1    1    2    0    0 -0.29409906900E+02 -0.28029531195E+02  0.16016843692E+01  0.40659102741E+02  0.00000000000E+00 0. -1.
         11    1    3    3    0    0 -0.15768155852E+01 -0.11162258827E+01 -0.31280850658E+01  0.36765777634E+01  0.51100000000E-03 0. -1.
        -11    1    3    3    0    0  0.76524933385E+00  0.91111328967E+00  0.51967204746E+01  0.53311947931E+01  0.51100000000E-03 0.  1.
         12    1    3    3    0    0  0.30221473152E+02  0.28234643788E+02 -0.36703197780E+01  0.41521124702E+02  0.00000000000E+00 0. -1.
</event>
<event>
 7    1  0.2744502E-011  0.5052887E+02  0.7816164E-02  0.1300439E+00
        -11   -1    0    0    0    0  0.00000000000E+00  0.00000000000E+00  0.45593999997E+02  0.45594000000E+02  0.51100000000E-03 0. -1.
         11   -1    0    0    0    0 -0.00000000000E+00 -0.00000000000E+00 -0.45593999997E+02  0.45594000000E+02  0.51100000000E-03 0.  1.
    9900012    2    1    2    0    0 -0.92125664332E+01 -0.38370562445E+02 -0.97976318895E+01  0.50528867775E+02  0.30000024089E+02 0.  0.
         12    1    1    2    0    0  0.92125664332E+01  0.38370562445E+02  0.97976318895E+01  0.40659132225E+02  0.00000000000E+00 0. -1.
         11    1    3    3    0    0 -0.53712583385E+01 -0.60108541260E+01 -0.72749682465E+00  0.80938269906E+01  0.51100000000E-03 0. -1.
        -11    1    3    3    0    0 -0.38465591947E+01 -0.34245560761E+02 -0.13493981019E+01  0.34487321221E+02  0.51100000000E-03 0.  1.
        -12    1    3    3    0    0  0.52510999849E-02  0.18858524423E+01 -0.77207369629E+01  0.79477195634E+01  0.00000000000E+00 0.  1.
</event>
<event>
 7    1  0.2744502E-011  0.5052887E+02  0.7816164E-02  0.1300439E+00
        -11   -1    0    0    0    0  0.00000000000E+00  0.00000000000E+00  0.45593999997E+02  0.45594000000E+02  0.51100000000E-03 0.  1.
         11   -1    0    0    0    0 -0.00000000000E+00 -0.00000000000E+00 -0.45593999997E+02  0.45594000000E+02  0.51100000000E-03 0. -1.
    9900012    2    1    2    0    0  0.45102607743E+01 -0.16673058635E+02  0.36808037871E+02  0.50528868327E+02  0.30000025765E+02 0.  0.
         12    1    1    2    0    0 -0.45102607743E+01  0.16673058635E+02 -0.36808037871E+02  0.40659131673E+02  0.00000000000E+00 0. -1.
         11    1    3    3    0    0  0.30353538520E+01 -0.93094390139E+01  0.62055495471E+01  0.11592578367E+02  0.51100000000E-03 0. -1.
        -11    1    3    3    0    0  0.37513757244E+01 -0.14198758656E+02  0.11925833868E+02  0.18918326588E+02  0.51100000000E-03 0.  1.
        -12    1    3    3    0    0 -0.22764688021E+01  0.68351390350E+01  0.18676654456E+02  0.20017963371E+02  0.00000000000E+00 0.  1.
</event>
<event>
 7    1  0.2744502E-011  0.5052886E+02  0.7816164E-02  0.1300439E+00
        -11   -1    0    0    0    0  0.00000000000E+00  0.00000000000E+00  0.45593999997E+02  0.45594000000E+02  0.51100000000E-03 0.  1.
         11   -1    0    0    0    0 -0.00000000000E+00 -0.00000000000E+00 -0.45593999997E+02  0.45594000000E+02  0.51100000000E-03 0. -1.
    9900012    2    1    2    0    0 -0.26654015897E+01 -0.16926693844E+01  0.40536358471E+02  0.50528857691E+02  0.29999993436E+02 0.  0.
         12    1    1    2    0    0  0.26654015897E+01  0.16926693844E+01 -0.40536358471E+02  0.40659142309E+02  0.00000000000E+00 0. -1.
         11    1    3    3    0    0 -0.11735215207E+02 -0.93770212940E+01  0.17989869817E+02  0.23436706693E+02  0.51100000000E-03 0.  1.
        -11    1    3    3    0    0  0.44147911681E+01  0.57198890309E+01  0.20328093745E+02  0.21574033169E+02  0.51100000000E-03 0. -1.
        -12    1    3    3    0    0  0.46550224495E+01  0.19644628787E+01  0.22183949083E+01  0.55181178292E+01  0.00000000000E+00 0.  1.
</event>
<event>
 7    1  0.2744502E-011  0.5052886E+02  0.7816164E-02  0.1300439E+00
        -11   -1    0    0    0    0  0.00000000000E+00  0.00000000000E+00  0.45593999997E+02  0.45594000000E+02  0.51100000000E-03 0. -1.
         11   -1    0    0    0    0 -0.00000000000E+00 -0.00000000000E+00 -0.45593999997E+02  0.45594000000E+02  0.51100000000E-03 0.  1.
    9900012    2    1    2    0    0 -0.19316878507E+01  0.47914799515E+00 -0.40610401535E+02  0.50528859409E+02  0.29999998659E+02 0.  0.
         12    1    1    2    0    0  0.19316878507E+01 -0.47914799515E+00  0.40610401535E+02  0.40659140591E+02  0.00000000000E+00 0. -1.
         11    1    3    3    0    0  0.35553111750E+00  0.17996552892E+01 -0.17574141758E+02  0.17669624227E+02  0.51100000000E-03 0. -1.
        -11    1    3    3    0    0 -0.83209701754E+01 -0.20071292016E+01 -0.25041519313E+02  0.26464028455E+02  0.51100000000E-03 0.  1.
         12    1    3    3    0    0  0.60337512071E+01  0.68662190760E+00  0.20052595357E+01  0.63952067268E+01  0.00000000000E+00 0. -1.
</event>
<event>
 7    1  0.2744502E-011  0.5052886E+02  0.7816164E-02  0.1300439E+00
        -11   -1    0    0    0    0  0.00000000000E+00  0.00000000000E+00  0.45593999997E+02  0.45594000000E+02  0.51100000000E-03 0.  1.
         11   -1    0    0    0    0 -0.00000000000E+00 -0.00000000000E+00 -0.45593999997E+02  0.45594000000E+02  0.51100000000E-03 0. -1.
    9900012    2    1    2    0    0  0.13513120275E+02  0.18579439709E+01  0.38302859684E+02  0.50528862831E+02  0.30000009061E+02 0.  0.
         12    1    1    2    0    0 -0.13513120275E+02 -0.18579439709E+01 -0.38302859684E+02  0.40659137169E+02  0.00000000000E+00 0. -1.
         11    1    3    3    0    0  0.32992197239E+01 -0.27940014902E+01  0.42674504078E+01  0.60747368962E+01  0.51100000000E-03 0. -1.
        -11    1    3    3    0    0  0.62380674643E+01 -0.10515094973E+02  0.10191906263E+02  0.15917149918E+02  0.51100000000E-03 0.  1.
         12    1    3    3    0    0  0.39758330870E+01  0.15167040434E+02  0.23843503013E+02  0.28536976017E+02  0.00000000000E+00 0. -1.
</event>
<event>
 7    1  0.2744502E-011  0.5052886E+02  0.7816164E-02  0.1300439E+00
        -11   -1    0    0    0    0  0.00000000000E+00  0.00000000000E+00  0.45593999997E+02  0.45594000000E+02  0.51100000000E-03 0. -1.
         11   -1    0    0    0    0 -0.00000000000E+00 -0.00000000000E+00 -0.45593999997E+02  0.45594000000E+02  0.51100000000E-03 0.  1.
    9900012    2    1    2    0    0  0.15104190179E+02 -0.35554290242E+02 -0.12685477348E+02  0.50528862637E+02  0.30000008471E+02 0.  0.
         12    1    1    2    0    0 -0.15104190179E+02  0.35554290242E+02  0.12685477348E+02  0.40659137363E+02  0.00000000000E+00 0. -1.
         11    1    3    3    0    0  0.33279645102E+01 -0.13795112565E+02 -0.30110831932E+00  0.14194053154E+02  0.51100000000E-03 0. -1.
        -11    1    3    3    0    0  0.49610469725E+01 -0.21693477705E+02 -0.62462198870E-01  0.22253603388E+02  0.51100000000E-03 0.  1.
         12    1    3    3    0    0  0.68151786965E+01 -0.65699972256E-01 -0.12321906829E+02  0.14081206094E+02  0.00000000000E+00 0. -1.
</event>
<event>
 7    1  0.2744502E-011  0.5052886E+02  0.7816164E-02  0.1300439E+00
        -11   -1    0    0    0    0  0.00000000000E+00  0.00000000000E+00  0.45593999997E+02  0.45594000000E+02  0.51100000000E-03 0.  1.
         11   -1    0    0    0    0 -0.00000000000E+00 -0.00000000000E+00 -0.45593999997E+02  0.45594000000E+02  0.51100000000E-03 0. -1.
    9900012    2    1    2    0    0  0.36448346112E+02  0.73428415556E+01  0.16454993218E+02  0.50528855171E+02  0.29999985778E+02 0.  0.
         12    1    1    2    0    0 -0.36448346112E+02 -0.73428415556E+01 -0.16454993218E+02  0.40659144829E+02  0.00000000000E+00 0. -1.
         11    1    3    3    0    0  0.74351979994E+01  0.69134088212E+01  0.12130037588E+01  0.10224909251E+02  0.51100000000E-03 0. -1.
        -11    1    3    3    0    0  0.22769198836E+02  0.69771232954E+01  0.15135579037E+01  0.23862261480E+02  0.51100000000E-03 0.  1.
        -12    1    3    3    0    0  0.62439492762E+01 -0.65476905610E+01  0.13728431556E+02  0.16441684440E+02  0.00000000000E+00 0.  1.
</event>
<event>
 7    1  0.2744502E-011  0.5052886E+02  0.7816164E-02  0.1300439E+00
        -11   -1    0    0    0    0  0.00000000000E+00  0.00000000000E+00  0.45593999997E+02  0.45594000000E+02  0.51100000000E-03 0.  1.
         11   -1    0    0    0    0 -0.00000000000E+00 -0.00000000000E+00 -0.45593999997E+02  0.45594000000E+02  0.51100000000E-03 0. -1.
    9900012    2    1    2    0    0  0.12635711101E+02 -0.34902454834E+02 -0.16592863004E+02  0.50528860177E+02  0.30000000994E+02 0.  0.
         12    1    1    2    0    0 -0.12635711101E+02  0.34902454834E+02  0.16592863004E+02  0.40659139823E+02  0.00000000000E+00 0. -1.
         11    1    3    3    0    0  0.25185273694E+01 -0.21593922298E+02 -0.67696710373E+01  0.22769912309E+02  0.51100000000E-03 0. -1.
        -11    1    3    3    0    0  0.10758481371E+02 -0.12459587416E+02 -0.15122772839E+02  0.22353623835E+02  0.51100000000E-03 0.  1.
        -12    1    3    3    0    0 -0.64129763962E+00 -0.84894512041E+00  0.52995808723E+01  0.54053240330E+01  0.00000000000E+00 0.  1.
</event>
<event>
 7    1  0.2744502E-011  0.5052885E+02  0.7816164E-02  0.1300439E+00
        -11   -1    0    0    0    0  0.00000000000E+00  0.00000000000E+00  0.45593999997E+02  0.45594000000E+02  0.51100000000E-03 0.  1.
         11   -1    0    0    0    0 -0.00000000000E+00 -0.00000000000E+00 -0.45593999997E+02  0.45594000000E+02  0.51100000000E-03 0. -1.
    9900012    2    1    2    0    0  0.34076839731E+02 -0.21879214524E+02 -0.36379998461E+01  0.50528854939E+02  0.29999985071E+02 0.  0.
         12    1    1    2    0    0 -0.34076839731E+02  0.21879214524E+02  0.36379998461E+01  0.40659145061E+02  0.00000000000E+00 0. -1.
         11    1    3    3    0    0  0.21574614096E+02 -0.16869550142E+02 -0.96343625247E+01  0.29032165557E+02  0.51100000000E-03 0. -1.
        -11    1    3    3    0    0  0.62106296619E+01  0.20091760199E+01 -0.40808562820E+01  0.76981879251E+01  0.51100000000E-03 0.  1.
        -12    1    3    3    0    0  0.62915959732E+01 -0.70188404019E+01  0.10077218961E+02  0.13798501457E+02  0.00000000000E+00 0.  1.
</event>
<event>
 7    1  0.2744502E-011  0.5052886E+02  0.7816164E-02  0.1300439E+00
        -11   -1    0    0    0    0  0.00000000000E+00  0.00000000000E+00  0.45593999997E+02  0.45594000000E+02  0.51100000000E-03 0. -1.
         11   -1    0    0    0    0 -0.00000000000E+00 -0.00000000000E+00 -0.45593999997E+02  0.45594000000E+02  0.51100000000E-03 0.  1.
    9900012    2    1    2    0    0 -0.27896617950E+02  0.13946305172E+02 -0.26085333343E+02  0.50528864045E+02  0.30000012752E+02 0.  0.
         12    1    1    2    0    0  0.27896617950E+02 -0.13946305172E+02  0.26085333343E+02  0.40659135955E+02  0.00000000000E+00 0. -1.
         11    1    3    3    0    0 -0.33835573473E+01 -0.31532660958E+01 -0.34948143151E+01  0.57970056712E+01  0.51100000000E-03 0. -1.
        -11    1    3    3    0    0 -0.20328824625E+02  0.89893498427E+00 -0.18512842416E+02  0.27509898751E+02  0.51100000000E-03 0.  1.
         12    1    3    3    0    0 -0.41842359776E+01  0.16200636283E+02 -0.40776766121E+01  0.17221959623E+02  0.00000000000E+00 0. -1.
</event>
<event>
 7    1  0.2744502E-011  0.5052878E+02  0.7816164E-02  0.1300439E+00
        -11   -1    0    0    0    0  0.00000000000E+00  0.00000000000E+00  0.45593999997E+02  0.45594000000E+02  0.51100000000E-03 0.  1.
         11   -1    0    0    0    0 -0.00000000000E+00 -0.00000000000E+00 -0.45593999997E+02  0.45594000000E+02  0.51100000000E-03 0. -1.
    9900012    2    1    2    0    0  0.26994508834E+02  0.30323643343E+02  0.22237390173E+01  0.50528783726E+02  0.29999768613E+02 0.  0.
         12    1    1    2    0    0 -0.26994508834E+02 -0.30323643343E+02 -0.22237390173E+01  0.40659216274E+02  0.00000000000E+00 0. -1.
         11    1    3    3    0    0  0.48062872486E+01  0.10561286546E+02 -0.75888519518E+01  0.13864769916E+02  0.51100000000E-03 0. -1.
        -11    1    3    3    0    0  0.10108109248E+02  0.18261634216E+02 -0.24451942718E+00  0.20873929836E+02  0.51100000000E-03 0.  1.
         12    1    3    3    0    0  0.12080112338E+02  0.15007225809E+01  0.10057110396E+02  0.15790083973E+02  0.00000000000E+00 0. -1.
</event>
<event>
 7    1  0.2744502E-011  0.5052886E+02  0.7816164E-02  0.1300439E+00
        -11   -1    0    0    0    0  0.00000000000E+00  0.00000000000E+00  0.45593999997E+02  0.45594000000E+02  0.51100000000E-03 0.  1.
         11   -1    0    0    0    0 -0.00000000000E+00 -0.00000000000E+00 -0.45593999997E+02  0.45594000000E+02  0.51100000000E-03 0. -1.
    9900012    2    1    2    0    0 -0.36941865579E+02  0.16886442347E+02  0.18198655492E+01  0.50528864763E+02  0.30000014934E+02 0.  0.
         12    1    1    2    0    0  0.36941865579E+02 -0.16886442347E+02 -0.18198655492E+01  0.40659135237E+02  0.00000000000E+00 0. -1.
         11    1    3    3    0    0 -0.96677153188E+01  0.79090704849E+00  0.90296580110E+01  0.13252357432E+02  0.51100000000E-03 0. -1.
        -11    1    3    3    0    0 -0.54117658264E+01  0.76407157928E+01  0.52457151200E+01  0.10732440290E+02  0.51100000000E-03 0.  1.
         12    1    3    3    0    0 -0.21862384434E+02  0.84548195059E+01 -0.12455507582E+02  0.26544067042E+02  0.00000000000E+00 0. -1.
</event>
<event>
 7    1  0.2744502E-011  0.5052886E+02  0.7816164E-02  0.1300439E+00
        -11   -1    0    0    0    0  0.00000000000E+00  0.00000000000E+00  0.45593999997E+02  0.45594000000E+02  0.51100000000E-03 0.  1.
         11   -1    0    0    0    0 -0.00000000000E+00 -0.00000000000E+00 -0.45593999997E+02  0.45594000000E+02  0.51100000000E-03 0. -1.
    9900012    2    1    2    0    0  0.28789595467E+02 -0.24146125300E+02  0.15533504682E+02  0.50528856602E+02  0.29999990128E+02 0.  0.
         12    1    1    2    0    0 -0.28789595467E+02  0.24146125300E+02 -0.15533504682E+02  0.40659143398E+02  0.00000000000E+00 0. -1.
         11    1    3    3    0    0  0.15777027770E+02 -0.11416430909E+02 -0.93401843814E+00  0.19496714868E+02  0.51100000000E-03 0. -1.
        -11    1    3    3    0    0  0.46525766531E+01 -0.16160699365E+02  0.13353605314E+02  0.21474017990E+02  0.51100000000E-03 0.  1.
         12    1    3    3    0    0  0.83599910447E+01  0.34310049749E+01  0.31139178061E+01  0.95581237441E+01  0.00000000000E+00 0. -1.
</event>
<event>
 7    1  0.2744502E-011  0.5052884E+02  0.7816164E-02  0.1300439E+00
        -11   -1    0    0    0    0  0.00000000000E+00  0.00000000000E+00  0.45593999997E+02  0.45594000000E+02  0.51100000000E-03 0.  1.
         11   -1    0    0    0    0 -0.00000000000E+00 -0.00000000000E+00 -0.45593999997E+02  0.45594000000E+02  0.51100000000E-03 0. -1.
    9900012    2    1    2    0    0  0.37551427732E+02  0.94420327991E+01  0.12405882483E+02  0.50528835864E+02  0.29999927091E+02 0.  0.
         12    1    1    2    0    0 -0.37551427732E+02 -0.94420327991E+01 -0.12405882483E+02  0.40659164136E+02  0.00000000000E+00 0. -1.
         11    1    3    3    0    0 -0.16365130257E+01  0.62753374055E+00 -0.49396901906E+00  0.18209830124E+01  0.51100000000E-03 0. -1.
        -11    1    3    3    0    0  0.78122987680E+01  0.13115853574E+02  0.50576380663E+01  0.16082205386E+02  0.51100000000E-03 0.  1.
        -12    1    3    3    0    0  0.31375641990E+02 -0.43013545157E+01  0.78422134357E+01  0.32625647465E+02  0.00000000000E+00 0.  1.
</event>
<event>
 7    1  0.2744502E-011  0.5052886E+02  0.7816164E-02  0.1300439E+00
        -11   -1    0    0    0    0  0.00000000000E+00  0.00000000000E+00  0.45593999997E+02  0.45594000000E+02  0.51100000000E-03 0.  1.
         11   -1    0    0    0    0 -0.00000000000E+00 -0.00000000000E+00 -0.45593999997E+02  0.45594000000E+02  0.51100000000E-03 0. -1.
    9900012    2    1    2    0    0 -0.14976739196E+02  0.10206755653E+02  0.36396219187E+02  0.50528863893E+02  0.30000012289E+02 0.  0.
         12    1    1    2    0    0  0.14976739196E+02 -0.10206755653E+02 -0.36396219187E+02  0.40659136107E+02  0.00000000000E+00 0. -1.
         11    1    3    3    0    0 -0.52567712275E+01 -0.40759890573E+01  0.78282814620E+01  0.10272746538E+02  0.51100000000E-03 0. -1.
        -11    1    3    3    0    0 -0.11020237380E+02  0.15690697149E+02  0.31426841373E+02  0.36814263104E+02  0.51100000000E-03 0.  1.
         12    1    3    3    0    0  0.13002694119E+01 -0.14079524389E+01 -0.28589036480E+01  0.34418542506E+01  0.00000000000E+00 0. -1.
</event>
<event>
 7    1  0.2744502E-011  0.5052888E+02  0.7816164E-02  0.1300439E+00
        -11   -1    0    0    0    0  0.00000000000E+00  0.00000000000E+00  0.45593999997E+02  0.45594000000E+02  0.51100000000E-03 0. -1.
         11   -1    0    0    0    0 -0.00000000000E+00 -0.00000000000E+00 -0.45593999997E+02  0.45594000000E+02  0.51100000000E-03 0.  1.
    9900012    2    1    2    0    0  0.34424600105E+02 -0.20077231876E+02 -0.80632144614E+01  0.50528883438E+02  0.30000071698E+02 0.  0.
         12    1    1    2    0    0 -0.34424600105E+02  0.20077231876E+02  0.80632144614E+01  0.40659116562E+02  0.00000000000E+00 0. -1.
         11    1    3    3    0    0  0.11425896333E+01  0.16101078643E+00  0.19844673012E+01  0.22955492315E+01  0.51100000000E-03 0. -1.
        -11    1    3    3    0    0  0.18505161591E+02 -0.21958618064E+02  0.24269611508E+01  0.28818606030E+02  0.51100000000E-03 0.  1.
        -12    1    3    3    0    0  0.14776848881E+02  0.17203754024E+01 -0.12474642913E+02  0.19414728177E+02  0.00000000000E+00 0.  1.
</event>
<event>
 7    1  0.2744502E-011  0.5052884E+02  0.7816164E-02  0.1300439E+00
        -11   -1    0    0    0    0  0.00000000000E+00  0.00000000000E+00  0.45593999997E+02  0.45594000000E+02  0.51100000000E-03 0.  1.
         11   -1    0    0    0    0 -0.00000000000E+00 -0.00000000000E+00 -0.45593999997E+02  0.45594000000E+02  0.51100000000E-03 0. -1.
    9900012    2    1    2    0    0 -0.40231260387E+01 -0.15451957820E+02  0.37392764150E+02  0.50528839232E+02  0.29999937330E+02 0.  0.
         12    1    1    2    0    0  0.40231260387E+01  0.15451957820E+02 -0.37392764150E+02  0.40659160768E+02  0.00000000000E+00 0. -1.
         11    1    3    3    0    0 -0.92522563460E+01 -0.18564385099E+01  0.88984624525E+01  0.12970475925E+02  0.51100000000E-03 0. -1.
        -11    1    3    3    0    0 -0.29971358679E+01 -0.14975796660E+02  0.22859975258E+02  0.27492467661E+02  0.51100000000E-03 0.  1.
        -12    1    3    3    0    0  0.82262661752E+01  0.13802773503E+01  0.56343264389E+01  0.10065895647E+02  0.00000000000E+00 0.  1.
</event>
<event>
 7    1  0.2744502E-011  0.5052887E+02  0.7816164E-02  0.1300439E+00
        -11   -1    0    0    0    0  0.00000000000E+00  0.00000000000E+00  0.45593999997E+02  0.45594000000E+02  0.51100000000E-03 0. -1.
         11   -1    0    0    0    0 -0.00000000000E+00 -0.00000000000E+00 -0.45593999997E+02  0.45594000000E+02  0.51100000000E-03 0.  1.
    9900012    2    1    2    0    0 -0.13450147699E+02 -0.28874513333E+02  0.25268976728E+02  0.50528865993E+02  0.30000018671E+02 0.  0.
         12    1    1    2    0    0  0.13450147699E+02  0.28874513333E+02 -0.25268976728E+02  0.40659134007E+02  0.00000000000E+00 0. -1.
         11    1    3    3    0    0  0.74085534547E+01 -0.79859777514E+00  0.34628054446E+01  0.82167782315E+01  0.51100000000E-03 0. -1.
        -11    1    3    3    0    0 -0.77266022433E+01 -0.16818950040E+02  0.14601427980E+02  0.23574968971E+02  0.51100000000E-03 0.  1.
        -12    1    3    3    0    0 -0.13132098911E+02 -0.11256965518E+02  0.72047433027E+01  0.18737118790E+02  0.00000000000E+00 0.  1.
</event>
<event>
 7    1  0.2744502E-011  0.5052888E+02  0.7816164E-02  0.1300439E+00
        -11   -1    0    0    0    0  0.00000000000E+00  0.00000000000E+00  0.45593999997E+02  0.45594000000E+02  0.51100000000E-03 0.  1.
         11   -1    0    0    0    0 -0.00000000000E+00 -0.00000000000E+00 -0.45593999997E+02  0.45594000000E+02  0.51100000000E-03 0. -1.
    9900012    2    1    2    0    0  0.18165526375E+01 -0.39900002865E+02  0.76061678380E+01  0.50528881941E+02  0.30000067149E+02 0.  0.
         12    1    1    2    0    0 -0.18165526375E+01  0.39900002865E+02 -0.76061678380E+01  0.40659118059E+02  0.00000000000E+00 0. -1.
         11    1    3    3    0    0 -0.65145909143E+01 -0.84337946782E+01  0.63266709449E+00  0.10675629039E+02  0.51100000000E-03 0. -1.
        -11    1    3    3    0    0 -0.68971201090E+01 -0.48957930792E+01  0.29866053393E+01  0.89698866987E+01  0.51100000000E-03 0.  1.
         12    1    3    3    0    0  0.15228263661E+02 -0.26570415108E+02  0.39868954042E+01  0.30883366204E+02  0.00000000000E+00 0. -1.
</event>
<event>
 7    1  0.2744502E-011  0.5052886E+02  0.7816164E-02  0.1300439E+00
        -11   -1    0    0    0    0  0.00000000000E+00  0.00000000000E+00  0.45593999997E+02  0.45594000000E+02  0.51100000000E-03 0.  1.
         11   -1    0    0    0    0 -0.00000000000E+00 -0.00000000000E+00 -0.45593999997E+02  0.45594000000E+02  0.51100000000E-03 0. -1.
    9900012    2    1    2    0    0 -0.29021788825E+02  0.28424955911E+02 -0.17096776304E+01  0.50528863970E+02  0.30000012522E+02 0.  0.
         12    1    1    2    0    0  0.29021788825E+02 -0.28424955911E+02  0.17096776304E+01  0.40659136030E+02  0.00000000000E+00 0. -1.
         11    1    3    3    0    0 -0.22479590570E+02  0.18942554466E+02  0.71380845869E+00  0.29405133645E+02  0.51100000000E-03 0. -1.
        -11    1    3    3    0    0 -0.68182897574E+01  0.85774135221E+01  0.61048040179E+01  0.12543114857E+02  0.51100000000E-03 0.  1.
         12    1    3    3    0    0  0.27609150302E+00  0.90498792284E+00 -0.85282901071E+01  0.85806154680E+01  0.00000000000E+00 0. -1.
</event>
<event>
 7    1  0.2744502E-011  0.5052887E+02  0.7816164E-02  0.1300439E+00
        -11   -1    0    0    0    0  0.00000000000E+00  0.00000000000E+00  0.45593999997E+02  0.45594000000E+02  0.51100000000E-03 0. -1.
         11   -1    0    0    0    0 -0.00000000000E+00 -0.00000000000E+00 -0.45593999997E+02  0.45594000000E+02  0.51100000000E-03 0.  1.
    9900012    2    1    2    0    0 -0.82120636617E+01  0.30110780317E+02 -0.26058928315E+02  0.50528870327E+02  0.30000031845E+02 0.  0.
         12    1    1    2    0    0  0.82120636617E+01 -0.30110780317E+02  0.26058928315E+02  0.40659129673E+02  0.00000000000E+00 0. -1.
         11    1    3    3    0    0 -0.44139866633E+00  0.18295309824E+02 -0.16539916882E+02  0.24667428829E+02  0.51100000000E-03 0. -1.
        -11    1    3    3    0    0 -0.38416194852E+01  0.10895975547E+02 -0.15076041223E+02  0.18993876451E+02  0.51100000000E-03 0.  1.
         12    1    3    3    0    0 -0.39290455101E+01  0.91949494612E+00  0.55570297905E+01  0.68675650466E+01  0.00000000000E+00 0. -1.
</event>
<event>
 7    1  0.2744502E-011  0.5052886E+02  0.7816164E-02  0.1300439E+00
        -11   -1    0    0    0    0  0.00000000000E+00  0.00000000000E+00  0.45593999997E+02  0.45594000000E+02  0.51100000000E-03 0. -1.
         11   -1    0    0    0    0 -0.00000000000E+00 -0.00000000000E+00 -0.45593999997E+02  0.45594000000E+02  0.51100000000E-03 0.  1.
    9900012    2    1    2    0    0 -0.50041619015E+01  0.92724586033E+01 -0.39270157567E+02  0.50528863263E+02  0.30000010374E+02 0.  0.
         12    1    1    2    0    0  0.50041619015E+01 -0.92724586033E+01  0.39270157567E+02  0.40659136737E+02  0.00000000000E+00 0. -1.
         11    1    3    3    0    0 -0.12519606491E+02  0.57820744234E+01 -0.27234078106E+02  0.30526512115E+02  0.51100000000E-03 0. -1.
        -11    1    3    3    0    0 -0.28002599008E+01  0.45600402158E+01 -0.24720892423E+01  0.58946287215E+01  0.51100000000E-03 0.  1.
        -12    1    3    3    0    0  0.10315704491E+02 -0.10696560359E+01 -0.95639902179E+01  0.14107722426E+02  0.00000000000E+00 0.  1.
</event>
<event>
 7    1  0.2744502E-011  0.5052885E+02  0.7816164E-02  0.1300439E+00
        -11   -1    0    0    0    0  0.00000000000E+00  0.00000000000E+00  0.45593999997E+02  0.45594000000E+02  0.51100000000E-03 0.  1.
         11   -1    0    0    0    0 -0.00000000000E+00 -0.00000000000E+00 -0.45593999997E+02  0.45594000000E+02  0.51100000000E-03 0. -1.
    9900012    2    1    2    0    0  0.38901221104E+02 -0.17600811558E+01  0.11694580733E+02  0.50528854564E+02  0.29999983934E+02 0.  0.
         12    1    1    2    0    0 -0.38901221104E+02  0.17600811558E+01 -0.11694580733E+02  0.40659145436E+02  0.00000000000E+00 0. -1.
         11    1    3    3    0    0  0.65599609449E+01 -0.45241362346E+01 -0.41502297009E+01  0.89847261004E+01  0.51100000000E-03 0. -1.
        -11    1    3    3    0    0 -0.76905436815E+00 -0.44482570016E+01  0.16995273883E+01  0.48235701071E+01  0.51100000000E-03 0.  1.
        -12    1    3    3    0    0  0.33110314527E+02  0.72123120804E+01  0.14145283045E+02  0.36720558357E+02  0.00000000000E+00 0.  1.
</event>
<event>
 7    1  0.2744502E-011  0.5052886E+02  0.7816164E-02  0.1300439E+00
        -11   -1    0    0    0    0  0.00000000000E+00  0.00000000000E+00  0.45593999997E+02  0.45594000000E+02  0.51100000000E-03 0.  1.
         11   -1    0    0    0    0 -0.00000000000E+00 -0.00000000000E+00 -0.45593999997E+02  0.45594000000E+02  0.51100000000E-03 0. -1.
    9900012    2    1    2    0    0  0.29340264529E+00  0.40602895736E+02 -0.21176535784E+01  0.50528859773E+02  0.29999999767E+02 0.  0.
         12    1    1    2    0    0 -0.29340264529E+00 -0.40602895736E+02  0.21176535784E+01  0.40659140227E+02  0.00000000000E+00 0. -1.
         11    1    3    3    0    0 -0.82093044084E+01  0.25981195635E+02 -0.35138424627E+01  0.27472937496E+02  0.51100000000E-03 0. -1.
        -11    1    3    3    0    0  0.84331804676E+00  0.15299679824E+02  0.81103317157E+00  0.15344352809E+02  0.51100000000E-03 0.  1.
         12    1    3    3    0    0  0.76593890070E+01 -0.67797972359E+00  0.58515571275E+00  0.77115694689E+01  0.00000000000E+00 0. -1.
</event>
<event>
 7    1  0.2744502E-011  0.5052892E+02  0.7816164E-02  0.1300439E+00
        -11   -1    0    0    0    0  0.00000000000E+00  0.00000000000E+00  0.45593999997E+02  0.45594000000E+02  0.51100000000E-03 0. -1.
         11   -1    0    0    0    0 -0.00000000000E+00 -0.00000000000E+00 -0.45593999997E+02  0.45594000000E+02  0.51100000000E-03 0.  1.
    9900012    2    1    2    0    0  0.31512728174E+02  0.13095470598E+02 -0.22104683760E+02  0.50528924368E+02  0.30000196108E+02 0.  0.
         12    1    1    2    0    0 -0.31512728174E+02 -0.13095470598E+02  0.22104683760E+02  0.40659075632E+02  0.00000000000E+00 0. -1.
         11    1    3    3    0    0  0.12964721344E+02  0.10322492144E+02 -0.25801711496E-01  0.16572221021E+02  0.51100000000E-03 0. -1.
        -11    1    3    3    0    0  0.20090098852E+02  0.62315071081E+01 -0.14696921179E+02  0.25660148969E+02  0.51100000000E-03 0.  1.
         12    1    3    3    0    0 -0.15420920218E+01 -0.34585286546E+01 -0.73819608698E+01  0.82965543776E+01  0.00000000000E+00 0. -1.
</event>
<event>
 7    1  0.2744502E-011  0.5052896E+02  0.7816164E-02  0.1300438E+00
        -11   -1    0    0    0    0  0.00000000000E+00  0.00000000000E+00  0.45593999997E+02  0.45594000000E+02  0.51100000000E-03 0. -1.
         11   -1    0    0    0    0 -0.00000000000E+00 -0.00000000000E+00 -0.45593999997E+02  0.45594000000E+02  0.51100000000E-03 0.  1.
    9900012    2    1    2    0    0  0.28730938637E+00 -0.10371525384E+02 -0.39312931562E+02  0.50528958281E+02  0.30000299190E+02 0.  0.
         12    1    1    2    0    0 -0.28730938637E+00  0.10371525384E+02  0.39312931562E+02  0.40659041719E+02  0.00000000000E+00 0. -1.
         11    1    3    3    0    0 -0.47146564174E+01 -0.51457081952E+00 -0.22831482085E+01  0.52636046836E+01  0.51100000000E-03 0. -1.
        -11    1    3    3    0    0 -0.66877217407E+01 -0.11501124633E+02 -0.25511815478E+02  0.28772455911E+02  0.51100000000E-03 0.  1.
        -12    1    3    3    0    0  0.11689687544E+02  0.16441700692E+01 -0.11517967876E+02  0.16492897686E+02  0.00000000000E+00 0.  1.
</event>
<event>
 7    1  0.2744502E-011  0.5052886E+02  0.7816164E-02  0.1300439E+00
        -11   -1    0    0    0    0  0.00000000000E+00  0.00000000000E+00  0.45593999997E+02  0.45594000000E+02  0.51100000000E-03 0. -1.
         11   -1    0    0    0    0 -0.00000000000E+00 -0.00000000000E+00 -0.45593999997E+02  0.45594000000E+02  0.51100000000E-03 0.  1.
    9900012    2    1    2    0    0  0.30049336804E+02 -0.27368040727E+02  0.10924402007E+01  0.50528859316E+02  0.29999998377E+02 0.  0.
         12    1    1    2    0    0 -0.30049336804E+02  0.27368040727E+02 -0.10924402007E+01  0.40659140684E+02  0.00000000000E+00 0. -1.
         11    1    3    3    0    0  0.53146342512E+01 -0.17531345303E+01  0.17376277985E+01  0.58598778598E+01  0.51100000000E-03 0. -1.
        -11    1    3    3    0    0  0.26133886850E+02 -0.86596225095E+01  0.11928188316E+01  0.27557066624E+02  0.51100000000E-03 0.  1.
         12    1    3    3    0    0 -0.13991842972E+01 -0.16955283687E+02 -0.18380064295E+01  0.17111914833E+02  0.00000000000E+00 0. -1.
</event>
<event>
 7    1  0.2744502E-011  0.5052886E+02  0.7816164E-02  0.1300439E+00
        -11   -1    0    0    0    0  0.00000000000E+00  0.00000000000E+00  0.45593999997E+02  0.45594000000E+02  0.51100000000E-03 0.  1.
         11   -1    0    0    0    0 -0.00000000000E+00 -0.00000000000E+00 -0.45593999997E+02  0.45594000000E+02  0.51100000000E-03 0. -1.
    9900012    2    1    2    0    0 -0.17150777906E+02 -0.12196831675E+02  0.34788700110E+02  0.50528861531E+02  0.30000005110E+02 0.  0.
         12    1    1    2    0    0  0.17150777906E+02  0.12196831675E+02 -0.34788700110E+02  0.40659138469E+02  0.00000000000E+00 0. -1.
         11    1    3    3    0    0 -0.43194257074E+01  0.98997487600E-01  0.17486717359E+02  0.18012565703E+02  0.51100000000E-03 0. -1.
        -11    1    3    3    0    0 -0.92526003767E+01 -0.72796294339E+01  0.21875634215E+02  0.24842443338E+02  0.51100000000E-03 0.  1.
         12    1    3    3    0    0 -0.35787518221E+01 -0.50161997292E+01 -0.45736514643E+01  0.76738524904E+01  0.00000000000E+00 0. -1.
</event>
<event>
 7    1  0.2744502E-011  0.5052886E+02  0.7816164E-02  0.1300439E+00
        -11   -1    0    0    0    0  0.00000000000E+00  0.00000000000E+00  0.45593999997E+02  0.45594000000E+02  0.51100000000E-03 0. -1.
         11   -1    0    0    0    0 -0.00000000000E+00 -0.00000000000E+00 -0.45593999997E+02  0.45594000000E+02  0.51100000000E-03 0.  1.
    9900012    2    1    2    0    0 -0.32453261687E+02 -0.17290432325E+02 -0.17349136267E+02  0.50528858675E+02  0.29999996428E+02 0.  0.
         12    1    1    2    0    0  0.32453261687E+02  0.17290432325E+02  0.17349136267E+02  0.40659141325E+02  0.00000000000E+00 0. -1.
         11    1    3    3    0    0 -0.14638977745E+01 -0.58917886818E+01 -0.12292167774E+02  0.13709615582E+02  0.51100000000E-03 0. -1.
        -11    1    3    3    0    0 -0.19996868187E+02 -0.74538703441E+01 -0.10672113558E+02  0.23860614587E+02  0.51100000000E-03 0.  1.
        -12    1    3    3    0    0 -0.10992495725E+02 -0.39447732993E+01  0.56151450656E+01  0.12958628506E+02  0.00000000000E+00 0.  1.
</event>
<event>
 7    1  0.2744502E-011  0.5052886E+02  0.7816164E-02  0.1300439E+00
        -11   -1    0    0    0    0  0.00000000000E+00  0.00000000000E+00  0.45593999997E+02  0.45594000000E+02  0.51100000000E-03 0.  1.
         11   -1    0    0    0    0 -0.00000000000E+00 -0.00000000000E+00 -0.45593999997E+02  0.45594000000E+02  0.51100000000E-03 0. -1.
    9900012    2    1    2    0    0  0.15451787032E+02 -0.14127688186E+02  0.34854220195E+02  0.50528856362E+02  0.29999989398E+02 0.  0.
         12    1    1    2    0    0 -0.15451787032E+02  0.14127688186E+02 -0.34854220195E+02  0.40659143638E+02  0.00000000000E+00 0. -1.
         11    1    3    3    0    0  0.44550236801E+01 -0.26044325912E+01 -0.10217978919E+01  0.52606440960E+01  0.51100000000E-03 0. -1.
        -11    1    3    3    0    0  0.21508184322E+01  0.60871704838E+01  0.34416371663E+01  0.73160461366E+01  0.51100000000E-03 0.  1.
        -12    1    3    3    0    0  0.88459449193E+01 -0.17610426079E+02  0.32434380921E+02  0.37952166129E+02  0.00000000000E+00 0.  1.
</event>
<event>
 7    1  0.2744502E-011  0.5052886E+02  0.7816164E-02  0.1300439E+00
        -11   -1    0    0    0    0  0.00000000000E+00  0.00000000000E+00  0.45593999997E+02  0.45594000000E+02  0.51100000000E-03 0.  1.
         11   -1    0    0    0    0 -0.00000000000E+00 -0.00000000000E+00 -0.45593999997E+02  0.45594000000E+02  0.51100000000E-03 0. -1.
    9900012    2    1    2    0    0  0.13615638168E+02  0.37851476106E+02 -0.59199492124E+01  0.50528860255E+02  0.30000001230E+02 0.  0.
         12    1    1    2    0    0 -0.13615638168E+02 -0.37851476106E+02  0.59199492124E+01  0.40659139745E+02  0.00000000000E+00 0. -1.
         11    1    3    3    0    0  0.12024141433E+02  0.73134172328E+01 -0.89394148800E+01  0.16672707862E+02  0.51100000000E-03 0. -1.
        -11    1    3    3    0    0  0.64210102214E+01  0.63120778413E+01  0.36673425832E+00  0.90114478978E+01  0.51100000000E-03 0.  1.
         12    1    3    3    0    0 -0.48295134861E+01  0.24225981032E+02  0.26527314093E+01  0.24844704494E+02  0.00000000000E+00 0. -1.
</event>
<event>
 7    1  0.2744502E-011  0.5052888E+02  0.7816164E-02  0.1300439E+00
        -11   -1    0    0    0    0  0.00000000000E+00  0.00000000000E+00  0.45593999997E+02  0.45594000000E+02  0.51100000000E-03 0.  1.
         11   -1    0    0    0    0 -0.00000000000E+00 -0.00000000000E+00 -0.45593999997E+02  0.45594000000E+02  0.51100000000E-03 0. -1.
    9900012    2    1    2    0    0  0.24709462322E+02  0.27693384309E+02  0.16603712645E+02  0.50528876346E+02  0.30000050140E+02 0.  0.
         12    1    1    2    0    0 -0.24709462322E+02 -0.27693384309E+02 -0.16603712645E+02  0.40659123654E+02  0.00000000000E+00 0. -1.
         11    1    3    3    0    0  0.88408521720E+01  0.61642056723E+01  0.17012062105E+02  0.20138727765E+02  0.51100000000E-03 0. -1.
        -11    1    3    3    0    0  0.10961556383E+02  0.20093188157E+02  0.44725802021E+01  0.23321575903E+02  0.51100000000E-03 0.  1.
         12    1    3    3    0    0  0.49070537673E+01  0.14359904794E+01 -0.48809296617E+01  0.70685726774E+01  0.00000000000E+00 0. -1.
</event>
<event>
 7    1  0.2744502E-011  0.5052885E+02  0.7816164E-02  0.1300439E+00
        -11   -1    0    0    0    0  0.00000000000E+00  0.00000000000E+00  0.45593999997E+02  0.45594000000E+02  0.51100000000E-03 0.  1.
         11   -1    0    0    0    0 -0.00000000000E+00 -0.00000000000E+00 -0.45593999997E+02  0.45594000000E+02  0.51100000000E-03 0. -1.
    9900012    2    1    2    0    0  0.29289173770E+02  0.27995504362E+02 -0.34003256911E+01  0.50528853681E+02  0.29999981249E+02 0.  0.
         12    1    1    2    0    0 -0.29289173770E+02 -0.27995504362E+02  0.34003256911E+01  0.40659146319E+02  0.00000000000E+00 0. -1.
         11    1    3    3    0    0 -0.33681999148E+01  0.22791638775E+01  0.19556432981E+01  0.45126377671E+01  0.51100000000E-03 0. -1.
        -11    1    3    3    0    0 -0.20713351085E+00  0.86782788435E+01 -0.77366309517E+00  0.87151582213E+01  0.51100000000E-03 0.  1.
        -12    1    3    3    0    0  0.32864507195E+02  0.17038061641E+02 -0.45823058940E+01  0.37301057693E+02  0.00000000000E+00 0.  1.
</event>
<event>
 7    1  0.2744502E-011  0.5052886E+02  0.7816164E-02  0.1300439E+00
        -11   -1    0    0    0    0  0.00000000000E+00  0.00000000000E+00  0.45593999997E+02  0.45594000000E+02  0.51100000000E-03 0. -1.
         11   -1    0    0    0    0 -0.00000000000E+00 -0.00000000000E+00 -0.45593999997E+02  0.45594000000E+02  0.51100000000E-03 0.  1.
    9900012    2    1    2    0    0 -0.14248800222E+02 -0.36335511618E+02 -0.11395970219E+02  0.50528857737E+02  0.29999993577E+02 0.  0.
         12    1    1    2    0    0  0.14248800222E+02  0.36335511618E+02  0.11395970219E+02  0.40659142263E+02  0.00000000000E+00 0. -1.
         11    1    3    3    0    0 -0.13754346930E+01 -0.15638891337E+02  0.70273645019E+00  0.15714979530E+02  0.51100000000E-03 0. -1.
        -11    1    3    3    0    0 -0.16979223385E+02 -0.19527600765E+02 -0.47415576818E+01  0.26307861713E+02  0.51100000000E-03 0.  1.
        -12    1    3    3    0    0  0.41058578559E+01 -0.11690195157E+01 -0.73571489877E+01  0.85060164935E+01  0.00000000000E+00 0.  1.
</event>
<event>
 7    1  0.2744502E-011  0.5052887E+02  0.7816164E-02  0.1300439E+00
        -11   -1    0    0    0    0  0.00000000000E+00  0.00000000000E+00  0.45593999997E+02  0.45594000000E+02  0.51100000000E-03 0.  1.
         11   -1    0    0    0    0 -0.00000000000E+00 -0.00000000000E+00 -0.45593999997E+02  0.45594000000E+02  0.51100000000E-03 0. -1.
    9900012    2    1    2    0    0 -0.33781624085E+02 -0.73825183966E+01  0.21388439353E+02  0.50528867672E+02  0.30000023777E+02 0.  0.
         12    1    1    2    0    0  0.33781624085E+02  0.73825183966E+01 -0.21388439353E+02  0.40659132328E+02  0.00000000000E+00 0. -1.
         11    1    3    3    0    0 -0.42304953520E+01 -0.61415800832E+01  0.10916053331E+01  0.75370882512E+01  0.51100000000E-03 0. -1.
        -11    1    3    3    0    0 -0.22412930121E+02 -0.76519530662E+01  0.23010548882E+02  0.33020859808E+02  0.51100000000E-03 0.  1.
         12    1    3    3    0    0 -0.71381986115E+01  0.64110147529E+01 -0.27137148621E+01  0.99709196131E+01  0.00000000000E+00 0. -1.
</event>
<event>
 7    1  0.2744502E-011  0.5052887E+02  0.7816164E-02  0.1300439E+00
        -11   -1    0    0    0    0  0.00000000000E+00  0.00000000000E+00  0.45593999997E+02  0.45594000000E+02  0.51100000000E-03 0.  1.
         11   -1    0    0    0    0 -0.00000000000E+00 -0.00000000000E+00 -0.45593999997E+02  0.45594000000E+02  0.51100000000E-03 0. -1.
    9900012    2    1    2    0    0 -0.17409696755E+02  0.22175376472E+02  0.29297103330E+02  0.50528866631E+02  0.30000020612E+02 0.  0.
         12    1    1    2    0    0  0.17409696755E+02 -0.22175376472E+02 -0.29297103330E+02  0.40659133369E+02  0.00000000000E+00 0. -1.
         11    1    3    3    0    0 -0.17597227774E+02  0.19342284884E+02  0.10321845010E+02  0.28112753237E+02  0.51100000000E-03 0. -1.
        -11    1    3    3    0    0 -0.25883231728E+01 -0.36224543472E+01  0.45259054132E+01  0.63486543783E+01  0.51100000000E-03 0.  1.
        -12    1    3    3    0    0  0.27758541919E+01  0.64555459349E+01  0.14449352906E+02  0.16067459016E+02  0.00000000000E+00 0.  1.
</event>
<event>
 7    1  0.2744502E-011  0.5052886E+02  0.7816164E-02  0.1300439E+00
        -11   -1    0    0    0    0  0.00000000000E+00  0.00000000000E+00  0.45593999997E+02  0.45594000000E+02  0.51100000000E-03 0.  1.
         11   -1    0    0    0    0 -0.00000000000E+00 -0.00000000000E+00 -0.45593999997E+02  0.45594000000E+02  0.51100000000E-03 0. -1.
    9900012    2    1    2    0    0 -0.11661993387E+02 -0.63349907618E+01  0.38432167735E+02  0.50528859398E+02  0.29999998625E+02 0.  0.
         12    1    1    2    0    0  0.11661993387E+02  0.63349907618E+01 -0.38432167735E+02  0.40659140602E+02  0.00000000000E+00 0. -1.
         11    1    3    3    0    0  0.78043238267E+01 -0.27336345668E+01  0.16357902082E+02  0.18329244096E+02  0.51100000000E-03 0. -1.
        -11    1    3    3    0    0  0.35015111058E+00  0.25145231116E+01  0.37293843585E+01  0.45115119676E+01  0.51100000000E-03 0.  1.
        -12    1    3    3    0    0 -0.19816468325E+02 -0.61158793065E+01  0.18344881294E+02  0.27688103334E+02  0.00000000000E+00 0.  1.
</event>
<event>
 7    1  0.2744502E-011  0.5052886E+02  0.7816164E-02  0.1300439E+00
        -11   -1    0    0    0    0  0.00000000000E+00  0.00000000000E+00  0.45593999997E+02  0.45594000000E+02  0.51100000000E-03 0.  1.
         11   -1    0    0    0    0 -0.00000000000E+00 -0.00000000000E+00 -0.45593999997E+02  0.45594000000E+02  0.51100000000E-03 0. -1.
    9900012    2    1    2    0    0  0.29791165321E+01  0.10699503068E+02  0.39112803703E+02  0.50528856936E+02  0.29999991142E+02 0.  0.
         12    1    1    2    0    0 -0.29791165321E+01 -0.10699503068E+02 -0.39112803703E+02  0.40659143064E+02  0.00000000000E+00 0. -1.
         11    1    3    3    0    0  0.30905261040E+01  0.46679778853E+00  0.73632051583E+01  0.79991275923E+01  0.51100000000E-03 0. -1.
        -11    1    3    3    0    0 -0.67952807429E+01  0.92938225376E+01  0.33611088065E+02  0.35528245367E+02  0.51100000000E-03 0.  1.
         12    1    3    3    0    0  0.66838711711E+01  0.93888274166E+00 -0.18614895200E+01  0.70014839761E+01  0.00000000000E+00 0. -1.
</event>
<event>
 7    1  0.2744502E-011  0.5052886E+02  0.7816164E-02  0.1300439E+00
        -11   -1    0    0    0    0  0.00000000000E+00  0.00000000000E+00  0.45593999997E+02  0.45594000000E+02  0.51100000000E-03 0.  1.
         11   -1    0    0    0    0 -0.00000000000E+00 -0.00000000000E+00 -0.45593999997E+02  0.45594000000E+02  0.51100000000E-03 0. -1.
    9900012    2    1    2    0    0 -0.32013423882E+02 -0.21071032170E+02  0.13576372207E+02  0.50528860957E+02  0.30000003366E+02 0.  0.
         12    1    1    2    0    0  0.32013423882E+02  0.21071032170E+02 -0.13576372207E+02  0.40659139043E+02  0.00000000000E+00 0. -1.
         11    1    3    3    0    0 -0.13049702147E+02  0.26533330242E+01 -0.14979910374E+01  0.13400704447E+02  0.51100000000E-03 0. -1.
        -11    1    3    3    0    0 -0.37626668810E+01  0.15924800049E+01  0.26899194352E+00  0.40946320409E+01  0.51100000000E-03 0.  1.
        -12    1    3    3    0    0 -0.15201054854E+02 -0.25316845199E+02  0.14805371301E+02  0.33033524469E+02  0.00000000000E+00 0.  1.
</event>
<event>
 7    1  0.2744502E-011  0.5052887E+02  0.7816164E-02  0.1300439E+00
        -11   -1    0    0    0    0  0.00000000000E+00  0.00000000000E+00  0.45593999997E+02  0.45594000000E+02  0.51100000000E-03 0.  1.
         11   -1    0    0    0    0 -0.00000000000E+00 -0.00000000000E+00 -0.45593999997E+02  0.45594000000E+02  0.51100000000E-03 0. -1.
    9900012    2    1    2    0    0 -0.24013661654E+02 -0.18512840585E+02  0.27088438645E+02  0.50528871618E+02  0.30000035770E+02 0.  0.
         12    1    1    2    0    0  0.24013661654E+02  0.18512840585E+02 -0.27088438645E+02  0.40659128382E+02  0.00000000000E+00 0. -1.
         11    1    3    3    0    0 -0.18205376923E+02 -0.11610674558E+02  0.19712930905E+01  0.21682470093E+02  0.51100000000E-03 0.  1.
        -11    1    3    3    0    0  0.14025002043E+01  0.15426115251E+01  0.10355866817E+01  0.23278954394E+01  0.51100000000E-03 0. -1.
        -12    1    3    3    0    0 -0.72107849348E+01 -0.84447775519E+01  0.24081558873E+02  0.26518506086E+02  0.00000000000E+00 0.  1.
</event>
<event>
 7    1  0.2744502E-011  0.5052886E+02  0.7816164E-02  0.1300439E+00
        -11   -1    0    0    0    0  0.00000000000E+00  0.00000000000E+00  0.45593999997E+02  0.45594000000E+02  0.51100000000E-03 0.  1.
         11   -1    0    0    0    0 -0.00000000000E+00 -0.00000000000E+00 -0.45593999997E+02  0.45594000000E+02  0.51100000000E-03 0. -1.
    9900012    2    1    2    0    0 -0.27425822512E+02 -0.20220957261E+02  0.22183399146E+02  0.50528855264E+02  0.29999986060E+02 0.  0.
         12    1    1    2    0    0  0.27425822512E+02  0.20220957261E+02 -0.22183399146E+02  0.40659144736E+02  0.00000000000E+00 0. -1.
         11    1    3    3    0    0 -0.39934751107E+00 -0.28858806091E+01  0.55013231046E+01  0.62251378689E+01  0.51100000000E-03 0. -1.
        -11    1    3    3    0    0 -0.24188901239E+01 -0.15040522176E+02  0.11410727303E+02  0.19033471428E+02  0.51100000000E-03 0.  1.
         12    1    3    3    0    0 -0.24607584877E+02 -0.22945544767E+01  0.52713487384E+01  0.25270245967E+02  0.00000000000E+00 0. -1.
</event>
<event>
 7    1  0.2744502E-011  0.5052886E+02  0.7816164E-02  0.1300439E+00
        -11   -1    0    0    0    0  0.00000000000E+00  0.00000000000E+00  0.45593999997E+02  0.45594000000E+02  0.51100000000E-03 0. -1.
         11   -1    0    0    0    0 -0.00000000000E+00 -0.00000000000E+00 -0.45593999997E+02  0.45594000000E+02  0.51100000000E-03 0.  1.
    9900012    2    1    2    0    0  0.31606157050E+02 -0.24188851314E+00 -0.25576505341E+02  0.50528864507E+02  0.30000014157E+02 0.  0.
         12    1    1    2    0    0 -0.31606157050E+02  0.24188851314E+00  0.25576505341E+02  0.40659135493E+02  0.00000000000E+00 0. -1.
         11    1    3    3    0    0  0.17562998777E+02 -0.32747112615E+01 -0.44624306034E+01  0.18414558019E+02  0.51100000000E-03 0. -1.
        -11    1    3    3    0    0  0.51553728523E+01 -0.53838885478E+01  0.28726719209E+00  0.74596680785E+01  0.51100000000E-03 0.  1.
        -12    1    3    3    0    0  0.88877854211E+01  0.84167112961E+01 -0.21401341929E+02  0.24654638410E+02  0.00000000000E+00 0.  1.
</event>
<event>
 7    1  0.2744502E-011  0.5052887E+02  0.7816164E-02  0.1300439E+00
        -11   -1    0    0    0    0  0.00000000000E+00  0.00000000000E+00  0.45593999997E+02  0.45594000000E+02  0.51100000000E-03 0.  1.
         11   -1    0    0    0    0 -0.00000000000E+00 -0.00000000000E+00 -0.45593999997E+02  0.45594000000E+02  0.51100000000E-03 0. -1.
    9900012    2    1    2    0    0  0.26974377964E+02 -0.18731857120E+02  0.23972182665E+02  0.50528867207E+02  0.30000022363E+02 0.  0.
         12    1    1    2    0    0 -0.26974377964E+02  0.18731857120E+02 -0.23972182665E+02  0.40659132793E+02  0.00000000000E+00 0. -1.
         11    1    3    3    0    0  0.66476648525E+01 -0.23148474610E+01  0.86924765322E+00  0.70926411514E+01  0.51100000000E-03 0. -1.
        -11    1    3    3    0    0  0.16947602020E+02 -0.15340406378E+02  0.30380535322E+01  0.23060335028E+02  0.51100000000E-03 0.  1.
        -12    1    3    3    0    0  0.33791110922E+01 -0.10766032808E+01  0.20064881480E+02  0.20375891028E+02  0.00000000000E+00 0.  1.
</event>
<event>
 7    1  0.2744502E-011  0.5052886E+02  0.7816164E-02  0.1300439E+00
        -11   -1    0    0    0    0  0.00000000000E+00  0.00000000000E+00  0.45593999997E+02  0.45594000000E+02  0.51100000000E-03 0.  1.
         11   -1    0    0    0    0 -0.00000000000E+00 -0.00000000000E+00 -0.45593999997E+02  0.45594000000E+02  0.51100000000E-03 0. -1.
    9900012    2    1    2    0    0 -0.21905419431E+01  0.29988912804E+02  0.27368451846E+02  0.50528861770E+02  0.30000005835E+02 0.  0.
         12    1    1    2    0    0  0.21905419431E+01 -0.29988912804E+02 -0.27368451846E+02  0.40659138230E+02  0.00000000000E+00 0. -1.
         11    1    3    3    0    0 -0.25248912185E+01  0.64519403785E+01  0.10520478215E+00  0.69291903293E+01  0.51100000000E-03 0. -1.
        -11    1    3    3    0    0  0.64988322898E+01  0.49943639399E+01 -0.19768970171E+01  0.84312878241E+01  0.51100000000E-03 0.  1.
        -12    1    3    3    0    0 -0.61644830144E+01  0.18542608486E+02  0.29240144081E+02  0.35168383616E+02  0.00000000000E+00 0.  1.
</event>
<event>
 7    1  0.2744502E-011  0.5052887E+02  0.7816164E-02  0.1300439E+00
        -11   -1    0    0    0    0  0.00000000000E+00  0.00000000000E+00  0.45593999997E+02  0.45594000000E+02  0.51100000000E-03 0.  1.
         11   -1    0    0    0    0 -0.00000000000E+00 -0.00000000000E+00 -0.45593999997E+02  0.45594000000E+02  0.51100000000E-03 0. -1.
    9900012    2    1    2    0    0 -0.41104192180E+01  0.23230556045E+02  0.33115114728E+02  0.50528866908E+02  0.30000021455E+02 0.  0.
         12    1    1    2    0    0  0.41104192180E+01 -0.23230556045E+02 -0.33115114728E+02  0.40659133092E+02  0.00000000000E+00 0. -1.
         11    1    3    3    0    0 -0.61734499756E+01  0.55084867153E+01  0.19428853045E+02  0.21117178822E+02  0.51100000000E-03 0. -1.
        -11    1    3    3    0    0  0.22968399044E+01  0.55210812727E+01  0.15919732985E+02  0.17005755218E+02  0.51100000000E-03 0.  1.
         12    1    3    3    0    0 -0.23380914675E+00  0.12200988057E+02 -0.22334713016E+01  0.12405932868E+02  0.00000000000E+00 0. -1.
</event>
<event>
 7    1  0.2744502E-011  0.5052885E+02  0.7816164E-02  0.1300439E+00
        -11   -1    0    0    0    0  0.00000000000E+00  0.00000000000E+00  0.45593999997E+02  0.45594000000E+02  0.51100000000E-03 0.  1.
         11   -1    0    0    0    0 -0.00000000000E+00 -0.00000000000E+00 -0.45593999997E+02  0.45594000000E+02  0.51100000000E-03 0. -1.
    9900012    2    1    2    0    0  0.19780518041E+02  0.34444172258E+02  0.86888705053E+01  0.50528851372E+02  0.29999974230E+02 0.  0.
         12    1    1    2    0    0 -0.19780518041E+02 -0.34444172258E+02 -0.86888705053E+01  0.40659148628E+02  0.00000000000E+00 0. -1.
         11    1    3    3    0    0  0.36151245207E+01  0.15546153340E+02  0.24640490209E+01  0.16150032409E+02  0.51100000000E-03 0.  1.
        -11    1    3    3    0    0  0.68926774562E+01  0.17934844691E+02 -0.49350233577E+01  0.19837391774E+02  0.51100000000E-03 0. -1.
         12    1    3    3    0    0  0.92727160641E+01  0.96317422707E+00  0.11159844842E+02  0.14541427189E+02  0.00000000000E+00 0. -1.
</event>
<event>
 7    1  0.2744502E-011  0.5052885E+02  0.7816164E-02  0.1300439E+00
        -11   -1    0    0    0    0  0.00000000000E+00  0.00000000000E+00  0.45593999997E+02  0.45594000000E+02  0.51100000000E-03 0.  1.
         11   -1    0    0    0    0 -0.00000000000E+00 -0.00000000000E+00 -0.45593999997E+02  0.45594000000E+02  0.51100000000E-03 0. -1.
    9900012    2    1    2    0    0  0.36253909876E+02  0.10464145962E+02  0.15143385072E+02  0.50528850433E+02  0.29999971377E+02 0.  0.
         12    1    1    2    0    0 -0.36253909876E+02 -0.10464145962E+02 -0.15143385072E+02  0.40659149567E+02  0.00000000000E+00 0. -1.
         11    1    3    3    0    0  0.91546114909E+01 -0.35504076594E+01 -0.94433958333E+00  0.98642832282E+01  0.51100000000E-03 0.  1.
        -11    1    3    3    0    0  0.75106166785E+01 -0.53794824832E+01  0.71645910716E+01  0.11691003386E+02  0.51100000000E-03 0. -1.
        -12    1    3    3    0    0  0.19588681707E+02  0.19394036105E+02  0.89231335841E+01  0.28973563820E+02  0.00000000000E+00 0.  1.
</event>
<event>
 7    1  0.2744502E-011  0.5052886E+02  0.7816164E-02  0.1300439E+00
        -11   -1    0    0    0    0  0.00000000000E+00  0.00000000000E+00  0.45593999997E+02  0.45594000000E+02  0.51100000000E-03 0.  1.
         11   -1    0    0    0    0 -0.00000000000E+00 -0.00000000000E+00 -0.45593999997E+02  0.45594000000E+02  0.51100000000E-03 0. -1.
    9900012    2    1    2    0    0  0.17319429974E+02 -0.29086304155E+02  0.22520879271E+02  0.50528858996E+02  0.29999997405E+02 0.  0.
         12    1    1    2    0    0 -0.17319429974E+02  0.29086304155E+02 -0.22520879271E+02  0.40659141004E+02  0.00000000000E+00 0. -1.
         11    1    3    3    0    0  0.11742829117E+02 -0.10631556692E+02 -0.54024935917E+00  0.15849791891E+02  0.51100000000E-03 0. -1.
        -11    1    3    3    0    0 -0.38519991273E+01  0.37009673543E-01  0.84762561205E+01  0.93105416101E+01  0.51100000000E-03 0.  1.
        -12    1    3    3    0    0  0.94285999838E+01 -0.18491757137E+02  0.14584872510E+02  0.25368525495E+02  0.00000000000E+00 0.  1.
</event>
<event>
 7    1  0.2744502E-011  0.5052884E+02  0.7816164E-02  0.1300439E+00
        -11   -1    0    0    0    0  0.00000000000E+00  0.00000000000E+00  0.45593999997E+02  0.45594000000E+02  0.51100000000E-03 0.  1.
         11   -1    0    0    0    0 -0.00000000000E+00 -0.00000000000E+00 -0.45593999997E+02  0.45594000000E+02  0.51100000000E-03 0. -1.
    9900012    2    1    2    0    0 -0.19903355002E+02 -0.35386374205E+02  0.21972779469E+01  0.50528842974E+02  0.29999948703E+02 0.  0.
         12    1    1    2    0    0  0.19903355002E+02  0.35386374205E+02 -0.21972779469E+01  0.40659157026E+02  0.00000000000E+00 0. -1.
         11    1    3    3    0    0 -0.15668841006E+02 -0.18384955468E+02 -0.37115959582E+01  0.24439621741E+02  0.51100000000E-03 0. -1.
        -11    1    3    3    0    0 -0.42036531479E+01 -0.38557503788E+01 -0.60519492862E+01  0.83164656673E+01  0.51100000000E-03 0.  1.
        -12    1    3    3    0    0 -0.30860848081E-01 -0.13145668358E+02  0.11960823191E+02  0.17772755565E+02  0.00000000000E+00 0.  1.
</event>
<event>
 7    1  0.2744502E-011  0.5052887E+02  0.7816164E-02  0.1300439E+00
        -11   -1    0    0    0    0  0.00000000000E+00  0.00000000000E+00  0.45593999997E+02  0.45594000000E+02  0.51100000000E-03 0.  1.
         11   -1    0    0    0    0 -0.00000000000E+00 -0.00000000000E+00 -0.45593999997E+02  0.45594000000E+02  0.51100000000E-03 0. -1.
    9900012    2    1    2    0    0 -0.40221066208E+02  0.23548704652E+01  0.54667662633E+01  0.50528866768E+02  0.30000021028E+02 0.  0.
         12    1    1    2    0    0  0.40221066208E+02 -0.23548704652E+01 -0.54667662633E+01  0.40659133232E+02  0.00000000000E+00 0. -1.
         11    1    3    3    0    0 -0.26546218675E+02  0.11109827927E+02  0.21656741668E+01  0.28858623449E+02  0.51100000000E-03 0.  1.
        -11    1    3    3    0    0 -0.30896889670E+01  0.28622837594E+01 -0.25227418436E+01  0.49094880489E+01  0.51100000000E-03 0. -1.
         12    1    3    3    0    0 -0.10585158566E+02 -0.11617241221E+02  0.58238339401E+01  0.16760755270E+02  0.00000000000E+00 0. -1.
</event>
<event>
 7    1  0.2744502E-011  0.5052885E+02  0.7816164E-02  0.1300439E+00
        -11   -1    0    0    0    0  0.00000000000E+00  0.00000000000E+00  0.45593999997E+02  0.45594000000E+02  0.51100000000E-03 0. -1.
         11   -1    0    0    0    0 -0.00000000000E+00 -0.00000000000E+00 -0.45593999997E+02  0.45594000000E+02  0.51100000000E-03 0.  1.
    9900012    2    1    2    0    0 -0.37547663441E+02 -0.77882827434E+01 -0.13515983404E+02  0.50528853607E+02  0.29999981025E+02 0.  0.
         12    1    1    2    0    0  0.37547663441E+02  0.77882827434E+01  0.13515983404E+02  0.40659146393E+02  0.00000000000E+00 0. -1.
         11    1    3    3    0    0 -0.21189076773E+02 -0.29475042853E+01 -0.19196472494E+02  0.28743161143E+02  0.51100000000E-03 0. -1.
        -11    1    3    3    0    0 -0.11834873741E+02 -0.29024849985E+01 -0.23086312181E+01  0.12402355986E+02  0.51100000000E-03 0.  1.
         12    1    3    3    0    0 -0.45237129277E+01 -0.19382934596E+01  0.79891203077E+01  0.93833364790E+01  0.00000000000E+00 0. -1.
</event>
<event>
 7    1  0.2744502E-011  0.5052886E+02  0.7816164E-02  0.1300439E+00
        -11   -1    0    0    0    0  0.00000000000E+00  0.00000000000E+00  0.45593999997E+02  0.45594000000E+02  0.51100000000E-03 0.  1.
         11   -1    0    0    0    0 -0.00000000000E+00 -0.00000000000E+00 -0.45593999997E+02  0.45594000000E+02  0.51100000000E-03 0. -1.
    9900012    2    1    2    0    0 -0.48219488140E+01 -0.10148311430E+02  0.39075901902E+02  0.50528861732E+02  0.30000005720E+02 0.  0.
         12    1    1    2    0    0  0.48219488140E+01  0.10148311430E+02 -0.39075901902E+02  0.40659138268E+02  0.00000000000E+00 0. -1.
         11    1    3    3    0    0 -0.10385787282E+02  0.77181684141E+00  0.13438429107E+02  0.17001519221E+02  0.51100000000E-03 0. -1.
        -11    1    3    3    0    0 -0.13123519664E+01 -0.11522459714E+02  0.23656561719E+02  0.26346200071E+02  0.51100000000E-03 0.  1.
         12    1    3    3    0    0  0.68761904340E+01  0.60233144329E+00  0.19809110765E+01  0.71811424401E+01  0.00000000000E+00 0. -1.
</event>
<event>
 7    1  0.2744502E-011  0.5052887E+02  0.7816164E-02  0.1300439E+00
        -11   -1    0    0    0    0  0.00000000000E+00  0.00000000000E+00  0.45593999997E+02  0.45594000000E+02  0.51100000000E-03 0.  1.
         11   -1    0    0    0    0 -0.00000000000E+00 -0.00000000000E+00 -0.45593999997E+02  0.45594000000E+02  0.51100000000E-03 0. -1.
    9900012    2    1    2    0    0  0.16879374722E+02  0.18489126111E+02  0.32037536026E+02  0.50528870767E+02  0.30000033185E+02 0.  0.
         12    1    1    2    0    0 -0.16879374722E+02 -0.18489126111E+02 -0.32037536026E+02  0.40659129233E+02  0.00000000000E+00 0. -1.
         11    1    3    3    0    0 -0.43505452715E+01 -0.13469278250E+01  0.19992174553E+01  0.49737641098E+01  0.51100000000E-03 0. -1.
        -11    1    3    3    0    0  0.13089167239E+02  0.45005261535E+01  0.42730778747E+01  0.14485863090E+02  0.51100000000E-03 0.  1.
        -12    1    3    3    0    0  0.81407527544E+01  0.15335527782E+02  0.25765240696E+02  0.31069243568E+02  0.00000000000E+00 0.  1.
</event>
<event>
 7    1  0.2744502E-011  0.5052887E+02  0.7816164E-02  0.1300439E+00
        -11   -1    0    0    0    0  0.00000000000E+00  0.00000000000E+00  0.45593999997E+02  0.45594000000E+02  0.51100000000E-03 0.  1.
         11   -1    0    0    0    0 -0.00000000000E+00 -0.00000000000E+00 -0.45593999997E+02  0.45594000000E+02  0.51100000000E-03 0. -1.
    9900012    2    1    2    0    0 -0.91403903561E+01  0.39162979889E+02 -0.59899395807E+01  0.50528866883E+02  0.30000021379E+02 0.  0.
         12    1    1    2    0    0  0.91403903561E+01 -0.39162979889E+02  0.59899395807E+01  0.40659133117E+02  0.00000000000E+00 0. -1.
         11    1    3    3    0    0 -0.17261296563E+02  0.15670642924E+02 -0.38540678238E+01  0.23629965039E+02  0.51100000000E-03 0. -1.
        -11    1    3    3    0    0 -0.13615123977E+01  0.58956687401E+00 -0.14894283039E+01  0.21023087408E+01  0.51100000000E-03 0.  1.
        -12    1    3    3    0    0  0.94824186046E+01  0.22902770091E+02 -0.64644345298E+00  0.24796593104E+02  0.00000000000E+00 0.  1.
</event>
<event>
 7    1  0.2744502E-011  0.5052899E+02  0.7816164E-02  0.1300438E+00
        -11   -1    0    0    0    0  0.00000000000E+00  0.00000000000E+00  0.45593999997E+02  0.45594000000E+02  0.51100000000E-03 0. -1.
         11   -1    0    0    0    0 -0.00000000000E+00 -0.00000000000E+00 -0.45593999997E+02  0.45594000000E+02  0.51100000000E-03 0.  1.
    9900012    2    1    2    0    0 -0.28015495306E+02  0.29466541287E+02  0.10008886623E+00  0.50528990538E+02  0.30000397237E+02 0.  0.
         12    1    1    2    0    0  0.28015495306E+02 -0.29466541287E+02 -0.10008886623E+00  0.40659009462E+02  0.00000000000E+00 0. -1.
         11    1    3    3    0    0 -0.97939849956E+01  0.57452769420E+01 -0.10943911499E+01  0.11407367860E+02  0.51100000000E-03 0.  1.
        -11    1    3    3    0    0 -0.16177953274E+02  0.28433933587E+02 -0.24769391980E+01  0.32807773156E+02  0.51100000000E-03 0. -1.
        -12    1    3    3    0    0 -0.20435570367E+01 -0.47126692426E+01  0.36714192142E+01  0.63138495230E+01  0.00000000000E+00 0.  1.
</event>
<event>
 7    1  0.2744502E-011  0.5052887E+02  0.7816164E-02  0.1300439E+00
        -11   -1    0    0    0    0  0.00000000000E+00  0.00000000000E+00  0.45593999997E+02  0.45594000000E+02  0.51100000000E-03 0. -1.
         11   -1    0    0    0    0 -0.00000000000E+00 -0.00000000000E+00 -0.45593999997E+02  0.45594000000E+02  0.51100000000E-03 0.  1.
    9900012    2    1    2    0    0  0.37311581090E+02 -0.14246940574E+02 -0.76181197033E+01  0.50528866377E+02  0.30000019840E+02 0.  0.
         12    1    1    2    0    0 -0.37311581090E+02  0.14246940574E+02  0.76181197033E+01  0.40659133623E+02  0.00000000000E+00 0. -1.
         11    1    3    3    0    0  0.44694255640E+01 -0.25635374463E+01 -0.10016964464E+02  0.11264415939E+02  0.51100000000E-03 0. -1.
        -11    1    3    3    0    0  0.81585406181E+01 -0.70632379098E+01 -0.65286754320E+01  0.12612482624E+02  0.51100000000E-03 0.  1.
         12    1    3    3    0    0  0.24683614908E+02 -0.46201652184E+01  0.89275201928E+01  0.26651967814E+02  0.00000000000E+00 0. -1.
</event>
<event>
 7    1  0.2744502E-011  0.5052886E+02  0.7816164E-02  0.1300439E+00
        -11   -1    0    0    0    0  0.00000000000E+00  0.00000000000E+00  0.45593999997E+02  0.45594000000E+02  0.51100000000E-03 0. -1.
         11   -1    0    0    0    0 -0.00000000000E+00 -0.00000000000E+00 -0.45593999997E+02  0.45594000000E+02  0.51100000000E-03 0.  1.
    9900012    2    1    2    0    0  0.38827614993E+02  0.90222204842E+01  0.80113390991E+01  0.50528859543E+02  0.29999999068E+02 0.  0.
         12    1    1    2    0    0 -0.38827614993E+02 -0.90222204842E+01 -0.80113390991E+01  0.40659140457E+02  0.00000000000E+00 0. -1.
         11    1    3    3    0    0 -0.36315077335E+01  0.25782159971E+01 -0.35788241107E-02  0.44536568363E+01  0.51100000000E-03 0.  1.
        -11    1    3    3    0    0  0.73315705045E+01  0.71461420463E+01  0.17825368072E+01  0.10392146551E+02  0.51100000000E-03 0. -1.
        -12    1    3    3    0    0  0.35127552222E+02 -0.70213755930E+00  0.62323811160E+01  0.35683056156E+02  0.00000000000E+00 0.  1.
</event>
<event>
 7    1  0.2744502E-011  0.5052884E+02  0.7816164E-02  0.1300439E+00
        -11   -1    0    0    0    0  0.00000000000E+00  0.00000000000E+00  0.45593999997E+02  0.45594000000E+02  0.51100000000E-03 0.  1.
         11   -1    0    0    0    0 -0.00000000000E+00 -0.00000000000E+00 -0.45593999997E+02  0.45594000000E+02  0.51100000000E-03 0. -1.
    9900012    2    1    2    0    0  0.28269276471E+02 -0.29193387813E+02  0.13272574440E+01  0.50528837484E+02  0.29999932017E+02 0.  0.
         12    1    1    2    0    0 -0.28269276471E+02  0.29193387813E+02 -0.13272574440E+01  0.40659162516E+02  0.00000000000E+00 0. -1.
         11    1    3    3    0    0  0.15078642987E+01 -0.90775594832E+01 -0.25846404967E+01  0.95580389031E+01  0.51100000000E-03 0. -1.
        -11    1    3    3    0    0 -0.38737824156E+01 -0.56852545900E+01  0.13454637072E+01  0.70098917827E+01  0.51100000000E-03 0.  1.
        -12    1    3    3    0    0  0.30635194588E+02 -0.14430573739E+02  0.25664342336E+01  0.33960906798E+02  0.00000000000E+00 0.  1.
</event>
<event>
 7    1  0.2744502E-011  0.5052886E+02  0.7816164E-02  0.1300439E+00
        -11   -1    0    0    0    0  0.00000000000E+00  0.00000000000E+00  0.45593999997E+02  0.45594000000E+02  0.51100000000E-03 0.  1.
         11   -1    0    0    0    0 -0.00000000000E+00 -0.00000000000E+00 -0.45593999997E+02  0.45594000000E+02  0.51100000000E-03 0. -1.
    9900012    2    1    2    0    0  0.11364522129E+02  0.36938234813E+02  0.12632494818E+02  0.50528862285E+02  0.30000007403E+02 0.  0.
         12    1    1    2    0    0 -0.11364522129E+02 -0.36938234813E+02 -0.12632494818E+02  0.40659137715E+02  0.00000000000E+00 0. -1.
         11    1    3    3    0    0  0.29488939205E+01 -0.23312115143E+01  0.64169086173E+01  0.74368836849E+01  0.51100000000E-03 0. -1.
        -11    1    3    3    0    0  0.65854687564E+01  0.80996469444E+01  0.56356647770E+01  0.11863110768E+02  0.51100000000E-03 0.  1.
        -12    1    3    3    0    0  0.18301594523E+01  0.31169799383E+02  0.57992142399E+00  0.31228867832E+02  0.00000000000E+00 0.  1.
</event>
<event>
 7    1  0.2744502E-011  0.5052887E+02  0.7816164E-02  0.1300439E+00
        -11   -1    0    0    0    0  0.00000000000E+00  0.00000000000E+00  0.45593999997E+02  0.45594000000E+02  0.51100000000E-03 0.  1.
         11   -1    0    0    0    0 -0.00000000000E+00 -0.00000000000E+00 -0.45593999997E+02  0.45594000000E+02  0.51100000000E-03 0. -1.
    9900012    2    1    2    0    0  0.25862207915E+02  0.18746151661E+02  0.25157368919E+02  0.50528865586E+02  0.30000017434E+02 0.  0.
         12    1    1    2    0    0 -0.25862207915E+02 -0.18746151661E+02 -0.25157368919E+02  0.40659134414E+02  0.00000000000E+00 0. -1.
         11    1    3    3    0    0  0.83806741920E+01 -0.50519637946E+01  0.12920186301E+01  0.98705293929E+01  0.51100000000E-03 0. -1.
        -11    1    3    3    0    0 -0.13975553054E+01  0.77373529838E+01  0.80691452137E+01  0.11266361292E+02  0.51100000000E-03 0.  1.
        -12    1    3    3    0    0  0.18879089029E+02  0.16060762472E+02  0.15796205076E+02  0.29391974900E+02  0.00000000000E+00 0.  1.
</event>
<event>
 7    1  0.2744502E-011  0.5052886E+02  0.7816164E-02  0.1300439E+00
        -11   -1    0    0    0    0  0.00000000000E+00  0.00000000000E+00  0.45593999997E+02  0.45594000000E+02  0.51100000000E-03 0.  1.
         11   -1    0    0    0    0 -0.00000000000E+00 -0.00000000000E+00 -0.45593999997E+02  0.45594000000E+02  0.51100000000E-03 0. -1.
    9900012    2    1    2    0    0  0.18628914358E+02  0.19771491541E+02  0.30252562888E+02  0.50528857249E+02  0.29999992095E+02 0.  0.
         12    1    1    2    0    0 -0.18628914358E+02 -0.19771491541E+02 -0.30252562888E+02  0.40659142751E+02  0.00000000000E+00 0. -1.
         11    1    3    3    0    0  0.10995199291E+02  0.78533167222E+01  0.27683120640E+02  0.30804612636E+02  0.51100000000E-03 0. -1.
        -11    1    3    3    0    0 -0.38172289332E+01  0.42907129055E+01  0.88452635751E-01  0.57436293487E+01  0.51100000000E-03 0.  1.
        -12    1    3    3    0    0  0.11450944000E+02  0.76274619134E+01  0.24809896124E+01  0.13980615265E+02  0.00000000000E+00 0.  1.
</event>
<event>
 7    1  0.2744502E-011  0.5052886E+02  0.7816164E-02  0.1300439E+00
        -11   -1    0    0    0    0  0.00000000000E+00  0.00000000000E+00  0.45593999997E+02  0.45594000000E+02  0.51100000000E-03 0.  1.
         11   -1    0    0    0    0 -0.00000000000E+00 -0.00000000000E+00 -0.45593999997E+02  0.45594000000E+02  0.51100000000E-03 0. -1.
    9900012    2    1    2    0    0  0.15316781238E+02 -0.15859616291E+02  0.34161880697E+02  0.50528864382E+02  0.30000013777E+02 0.  0.
         12    1    1    2    0    0 -0.15316781238E+02  0.15859616291E+02 -0.34161880697E+02  0.40659135618E+02  0.00000000000E+00 0. -1.
         11    1    3    3    0    0  0.20387415281E+00 -0.27747787127E+00 -0.12033433311E+01  0.12516365578E+01  0.51100000000E-03 0. -1.
        -11    1    3    3    0    0  0.14002472999E+02 -0.14325883712E+02  0.75445633655E+01  0.21406088640E+02  0.51100000000E-03 0.  1.
        -12    1    3    3    0    0  0.11104340869E+01 -0.12562547078E+01  0.27820660663E+02  0.27871139185E+02  0.00000000000E+00 0.  1.
</event>
<event>
 7    1  0.2744502E-011  0.5052886E+02  0.7816164E-02  0.1300439E+00
        -11   -1    0    0    0    0  0.00000000000E+00  0.00000000000E+00  0.45593999997E+02  0.45594000000E+02  0.51100000000E-03 0. -1.
         11   -1    0    0    0    0 -0.00000000000E+00 -0.00000000000E+00 -0.45593999997E+02  0.45594000000E+02  0.51100000000E-03 0.  1.
    9900012    2    1    2    0    0  0.24548767470E+02  0.26980680013E+02  0.17960135880E+02  0.50528861309E+02  0.30000004434E+02 0.  0.
         12    1    1    2    0    0 -0.24548767470E+02 -0.26980680013E+02 -0.17960135880E+02  0.40659138691E+02  0.00000000000E+00 0. -1.
         11    1    3    3    0    0  0.70905741604E+01  0.14802013558E+02  0.38789473145E+00  0.16417256466E+02  0.51100000000E-03 0. -1.
        -11    1    3    3    0    0  0.88339825595E+01  0.79693532141E+01 -0.22317108475E+01  0.12104973031E+02  0.51100000000E-03 0.  1.
         12    1    3    3    0    0  0.86242107504E+01  0.42093132414E+01  0.19803951996E+02  0.22006631812E+02  0.00000000000E+00 0. -1.
</event>
<event>
 7    1  0.2744502E-011  0.5052886E+02  0.7816164E-02  0.1300439E+00
        -11   -1    0    0    0    0  0.00000000000E+00  0.00000000000E+00  0.45593999997E+02  0.45594000000E+02  0.51100000000E-03 0. -1.
         11   -1    0    0    0    0 -0.00000000000E+00 -0.00000000000E+00 -0.45593999997E+02  0.45594000000E+02  0.51100000000E-03 0.  1.
    9900012    2    1    2    0    0 -0.22083589646E+02 -0.31435515094E+02 -0.13314990231E+02  0.50528861965E+02  0.30000006430E+02 0.  0.
         12    1    1    2    0    0  0.22083589646E+02  0.31435515094E+02  0.13314990231E+02  0.40659138035E+02  0.00000000000E+00 0. -1.
         11    1    3    3    0    0 -0.15891832581E+02 -0.31650596918E+02 -0.56632176433E+01  0.35866177136E+02  0.51100000000E-03 0. -1.
        -11    1    3    3    0    0 -0.47182905501E+01 -0.48809087001E+01 -0.24064181071E+01  0.72025262111E+01  0.51100000000E-03 0.  1.
         12    1    3    3    0    0 -0.14734665142E+01  0.50959905234E+01 -0.52453544802E+01  0.74601586180E+01  0.00000000000E+00 0. -1.
</event>
<event>
 7    1  0.2744502E-011  0.5052886E+02  0.7816164E-02  0.1300439E+00
        -11   -1    0    0    0    0  0.00000000000E+00  0.00000000000E+00  0.45593999997E+02  0.45594000000E+02  0.51100000000E-03 0.  1.
         11   -1    0    0    0    0 -0.00000000000E+00 -0.00000000000E+00 -0.45593999997E+02  0.45594000000E+02  0.51100000000E-03 0. -1.
    9900012    2    1    2    0    0 -0.19596229249E+02  0.14578089895E+02  0.32505886670E+02  0.50528861126E+02  0.30000003880E+02 0.  0.
         12    1    1    2    0    0  0.19596229249E+02 -0.14578089895E+02 -0.32505886670E+02  0.40659138874E+02  0.00000000000E+00 0. -1.
         11    1    3    3    0    0 -0.36331951850E+01 -0.60361242080E+01  0.93543623795E+01  0.11710636127E+02  0.51100000000E-03 0. -1.
        -11    1    3    3    0    0 -0.15434122428E+02  0.90111460093E+01  0.76318987363E+01  0.19433444525E+02  0.51100000000E-03 0.  1.
        -12    1    3    3    0    0 -0.52891163554E+00  0.11603068094E+02  0.15519625554E+02  0.19384780474E+02  0.00000000000E+00 0.  1.
</event>
<event>
 7    1  0.2744502E-011  0.5052888E+02  0.7816164E-02  0.1300439E+00
        -11   -1    0    0    0    0  0.00000000000E+00  0.00000000000E+00  0.45593999997E+02  0.45594000000E+02  0.51100000000E-03 0. -1.
         11   -1    0    0    0    0 -0.00000000000E+00 -0.00000000000E+00 -0.45593999997E+02  0.45594000000E+02  0.51100000000E-03 0.  1.
    9900012    2    1    2    0    0 -0.16909043243E+02 -0.28483640438E+02 -0.23578175396E+02  0.50528882068E+02  0.30000067533E+02 0.  0.
         12    1    1    2    0    0  0.16909043243E+02  0.28483640438E+02  0.23578175396E+02  0.40659117932E+02  0.00000000000E+00 0. -1.
         11    1    3    3    0    0 -0.13016723531E+02 -0.38403159413E+01 -0.19909716230E+01  0.13716671837E+02  0.51100000000E-03 0. -1.
        -11    1    3    3    0    0 -0.46251481379E+01 -0.18866179629E+01  0.58778207095E+00  0.50295934885E+01  0.51100000000E-03 0.  1.
        -12    1    3    3    0    0  0.73282842614E+00 -0.22756706534E+02 -0.22174985844E+02  0.31782616742E+02  0.00000000000E+00 0.  1.
</event>
<event>
 7    1  0.2744502E-011  0.5052887E+02  0.7816164E-02  0.1300439E+00
        -11   -1    0    0    0    0  0.00000000000E+00  0.00000000000E+00  0.45593999997E+02  0.45594000000E+02  0.51100000000E-03 0.  1.
         11   -1    0    0    0    0 -0.00000000000E+00 -0.00000000000E+00 -0.45593999997E+02  0.45594000000E+02  0.51100000000E-03 0. -1.
    9900012    2    1    2    0    0  0.46452997639E+01  0.16064415063E+02  0.37061036709E+02  0.50528872080E+02  0.30000037175E+02 0.  0.
         12    1    1    2    0    0 -0.46452997639E+01 -0.16064415063E+02 -0.37061036709E+02  0.40659127920E+02  0.00000000000E+00 0. -1.
         11    1    3    3    0    0 -0.32169272626E+01  0.12410620220E+02  0.13996578791E+02  0.18980946587E+02  0.51100000000E-03 0. -1.
        -11    1    3    3    0    0 -0.48352821467E+01  0.66717116338E+01  0.11241223966E+02  0.13937604029E+02  0.51100000000E-03 0.  1.
         12    1    3    3    0    0  0.12697509173E+02 -0.30179167902E+01  0.11823233953E+02  0.17610321464E+02  0.00000000000E+00 0. -1.
</event>
<event>
 7    1  0.2744502E-011  0.5052886E+02  0.7816164E-02  0.1300439E+00
        -11   -1    0    0    0    0  0.00000000000E+00  0.00000000000E+00  0.45593999997E+02  0.45594000000E+02  0.51100000000E-03 0. -1.
         11   -1    0    0    0    0 -0.00000000000E+00 -0.00000000000E+00 -0.45593999997E+02  0.45594000000E+02  0.51100000000E-03 0.  1.
    9900012    2    1    2    0    0 -0.12548336686E+02  0.31889474237E+02 -0.21880730681E+02  0.50528859627E+02  0.29999999324E+02 0.  0.
         12    1    1    2    0    0  0.12548336686E+02 -0.31889474237E+02  0.21880730681E+02  0.40659140373E+02  0.00000000000E+00 0. -1.
         11    1    3    3    0    0  0.37102164925E+01  0.89166748943E+01 -0.16284310454E+01  0.97941097361E+01  0.51100000000E-03 0. -1.
        -11    1    3    3    0    0  0.45295064151E+01  0.56595383907E+01 -0.86834196753E+01  0.11311435836E+02  0.51100000000E-03 0.  1.
         12    1    3    3    0    0 -0.20788059593E+02  0.17313260952E+02 -0.11568879960E+02  0.29423314055E+02  0.00000000000E+00 0. -1.
</event>
<event>
 7    1  0.2744502E-011  0.5052885E+02  0.7816164E-02  0.1300439E+00
        -11   -1    0    0    0    0  0.00000000000E+00  0.00000000000E+00  0.45593999997E+02  0.45594000000E+02  0.51100000000E-03 0. -1.
         11   -1    0    0    0    0 -0.00000000000E+00 -0.00000000000E+00 -0.45593999997E+02  0.45594000000E+02  0.51100000000E-03 0.  1.
    9900012    2    1    2    0    0 -0.10210455888E+02 -0.11624704198E+02 -0.37600261262E+02  0.50528845999E+02  0.29999957899E+02 0.  0.
         12    1    1    2    0    0  0.10210455888E+02  0.11624704198E+02  0.37600261262E+02  0.40659154001E+02  0.00000000000E+00 0. -1.
         11    1    3    3    0    0  0.61809869291E+01  0.78884384951E+00 -0.20750298178E+01  0.65675431511E+01  0.51100000000E-03 0. -1.
        -11    1    3    3    0    0 -0.25685291821E+01  0.29352935467E+01 -0.15444539127E+01  0.41950719319E+01  0.51100000000E-03 0.  1.
        -12    1    3    3    0    0 -0.13822913635E+02 -0.15348841595E+02 -0.33980777531E+02  0.39766230916E+02  0.00000000000E+00 0.  1.
</event>
<event>
 7    1  0.2744502E-011  0.5052886E+02  0.7816164E-02  0.1300439E+00
        -11   -1    0    0    0    0  0.00000000000E+00  0.00000000000E+00  0.45593999997E+02  0.45594000000E+02  0.51100000000E-03 0.  1.
         11   -1    0    0    0    0 -0.00000000000E+00 -0.00000000000E+00 -0.45593999997E+02  0.45594000000E+02  0.51100000000E-03 0. -1.
    9900012    2    1    2    0    0 -0.33094190685E+02  0.21463071201E+02  0.98628914325E+01  0.50528861915E+02  0.30000006276E+02 0.  0.
         12    1    1    2    0    0  0.33094190685E+02 -0.21463071201E+02 -0.98628914325E+01  0.40659138085E+02  0.00000000000E+00 0. -1.
         11    1    3    3    0    0 -0.89716966310E+00 -0.14881421259E+01  0.36580751737E+01  0.40498141475E+01  0.51100000000E-03 0. -1.
        -11    1    3    3    0    0  0.23959622911E+01 -0.17238030883E+01 -0.14740547384E+01  0.32992377939E+01  0.51100000000E-03 0.  1.
        -12    1    3    3    0    0 -0.34592983313E+02  0.24675016415E+02  0.76788709971E+01  0.43179809973E+02  0.00000000000E+00 0.  1.
</event>
<event>
 7    1  0.2744502E-011  0.5052886E+02  0.7816164E-02  0.1300439E+00
        -11   -1    0    0    0    0  0.00000000000E+00  0.00000000000E+00  0.45593999997E+02  0.45594000000E+02  0.51100000000E-03 0.  1.
         11   -1    0    0    0    0 -0.00000000000E+00 -0.00000000000E+00 -0.45593999997E+02  0.45594000000E+02  0.51100000000E-03 0. -1.
    9900012    2    1    2    0    0 -0.28769238837E+00 -0.17513913963E+01  0.40620382650E+02  0.50528860494E+02  0.30000001956E+02 0.  0.
         12    1    1    2    0    0  0.28769238837E+00  0.17513913963E+01 -0.40620382650E+02  0.40659139506E+02  0.00000000000E+00 0. -1.
         11    1    3    3    0    0  0.26888078435E+01  0.53286133431E+01  0.23351737254E+01  0.64091219655E+01  0.51100000000E-03 0. -1.
        -11    1    3    3    0    0  0.36347338298E+01 -0.70373269173E+00  0.33610002396E+02  0.33813293111E+02  0.51100000000E-03 0.  1.
         12    1    3    3    0    0 -0.66112340617E+01 -0.63762720477E+01  0.46752065296E+01  0.10306445417E+02  0.00000000000E+00 0. -1.
</event>
<event>
 7    1  0.2744502E-011  0.5052888E+02  0.7816164E-02  0.1300439E+00
        -11   -1    0    0    0    0  0.00000000000E+00  0.00000000000E+00  0.45593999997E+02  0.45594000000E+02  0.51100000000E-03 0. -1.
         11   -1    0    0    0    0 -0.00000000000E+00 -0.00000000000E+00 -0.45593999997E+02  0.45594000000E+02  0.51100000000E-03 0.  1.
    9900012    2    1    2    0    0 -0.66308828124E+01  0.31072387031E+02  0.25371287983E+02  0.50528879294E+02  0.30000059101E+02 0.  0.
         12    1    1    2    0    0  0.66308828124E+01 -0.31072387031E+02 -0.25371287983E+02  0.40659120706E+02  0.00000000000E+00 0. -1.
         11    1    3    3    0    0 -0.29319837366E+01 -0.34672266806E+00  0.10907596444E+00  0.29544277056E+01  0.51100000000E-03 0. -1.
        -11    1    3    3    0    0 -0.11529596392E+02  0.15152468260E+02  0.36033132224E+01  0.19378151454E+02  0.51100000000E-03 0.  1.
        -12    1    3    3    0    0  0.78306973166E+01  0.16266641439E+02  0.21658898796E+02  0.28196300134E+02  0.00000000000E+00 0.  1.
</event>
<event>
 7    1  0.2744502E-011  0.5052886E+02  0.7816164E-02  0.1300439E+00
        -11   -1    0    0    0    0  0.00000000000E+00  0.00000000000E+00  0.45593999997E+02  0.45594000000E+02  0.51100000000E-03 0.  1.
         11   -1    0    0    0    0 -0.00000000000E+00 -0.00000000000E+00 -0.45593999997E+02  0.45594000000E+02  0.51100000000E-03 0. -1.
    9900012    2    1    2    0    0 -0.12160121458E+02  0.30095270949E+02  0.24486154491E+02  0.50528860202E+02  0.30000001069E+02 0.  0.
         12    1    1    2    0    0  0.12160121458E+02 -0.30095270949E+02 -0.24486154491E+02  0.40659139798E+02  0.00000000000E+00 0. -1.
         11    1    3    3    0    0 -0.13785111891E+02  0.82862388525E+01  0.52573493184E+01  0.16921311601E+02  0.51100000000E-03 0. -1.
        -11    1    3    3    0    0 -0.47738290055E+01  0.19327358739E+02  0.17556174387E+02  0.26543464329E+02  0.51100000000E-03 0.  1.
        -12    1    3    3    0    0  0.63988194386E+01  0.24816733572E+01  0.16726307860E+01  0.70640842722E+01  0.00000000000E+00 0.  1.
</event>
<event>
 7    1  0.2744502E-011  0.5052887E+02  0.7816164E-02  0.1300439E+00
        -11   -1    0    0    0    0  0.00000000000E+00  0.00000000000E+00  0.45593999997E+02  0.45594000000E+02  0.51100000000E-03 0.  1.
         11   -1    0    0    0    0 -0.00000000000E+00 -0.00000000000E+00 -0.45593999997E+02  0.45594000000E+02  0.51100000000E-03 0. -1.
    9900012    2    1    2    0    0  0.28655962513E+02  0.64426452107E+01  0.28115713902E+02  0.50528865319E+02  0.30000016622E+02 0.  0.
         12    1    1    2    0    0 -0.28655962513E+02 -0.64426452107E+01 -0.28115713902E+02  0.40659134681E+02  0.00000000000E+00 0. -1.
         11    1    3    3    0    0 -0.24948367653E+01  0.35796680971E+01  0.19384923316E+01  0.47745143158E+01  0.51100000000E-03 0. -1.
        -11    1    3    3    0    0  0.14815206115E+02  0.96366087874E+01  0.20748953445E+02  0.27255708218E+02  0.51100000000E-03 0.  1.
        -12    1    3    3    0    0  0.16335593163E+02 -0.67736316739E+01  0.54282681255E+01  0.18498642785E+02  0.00000000000E+00 0.  1.
</event>
<event>
 7    1  0.2744502E-011  0.5052886E+02  0.7816164E-02  0.1300439E+00
        -11   -1    0    0    0    0  0.00000000000E+00  0.00000000000E+00  0.45593999997E+02  0.45594000000E+02  0.51100000000E-03 0. -1.
         11   -1    0    0    0    0 -0.00000000000E+00 -0.00000000000E+00 -0.45593999997E+02  0.45594000000E+02  0.51100000000E-03 0.  1.
    9900012    2    1    2    0    0  0.29337832942E+02  0.79948172498E+01 -0.26991484441E+02  0.50528858631E+02  0.29999996294E+02 0.  0.
         12    1    1    2    0    0 -0.29337832942E+02 -0.79948172498E+01  0.26991484441E+02  0.40659141369E+02  0.00000000000E+00 0. -1.
         11    1    3    3    0    0  0.66191320153E+01  0.32087740276E-01  0.49706393360E+01  0.82777529516E+01  0.51100000000E-03 0. -1.
        -11    1    3    3    0    0  0.50176244858E+00 -0.28474866164E+01 -0.27346856453E+01  0.39797551967E+01  0.51100000000E-03 0.  1.
         12    1    3    3    0    0  0.22216938478E+02  0.10810216126E+02 -0.29227438132E+02  0.38271350482E+02  0.00000000000E+00 0. -1.
</event>
<event>
 7    1  0.2744502E-011  0.5052887E+02  0.7816164E-02  0.1300439E+00
        -11   -1    0    0    0    0  0.00000000000E+00  0.00000000000E+00  0.45593999997E+02  0.45594000000E+02  0.51100000000E-03 0.  1.
         11   -1    0    0    0    0 -0.00000000000E+00 -0.00000000000E+00 -0.45593999997E+02  0.45594000000E+02  0.51100000000E-03 0. -1.
    9900012    2    1    2    0    0  0.26783021300E+02 -0.67574428482E+01  0.29835737180E+02  0.50528874617E+02  0.30000044887E+02 0.  0.
         12    1    1    2    0    0 -0.26783021300E+02  0.67574428482E+01 -0.29835737180E+02  0.40659125383E+02  0.00000000000E+00 0. -1.
         11    1    3    3    0    0  0.27536034234E+01 -0.93447246556E+01  0.55457174956E+01  0.11209870361E+02  0.51100000000E-03 0. -1.
        -11    1    3    3    0    0  0.25129034931E+02 -0.15988254009E+01  0.24296846184E+02  0.34990875582E+02  0.51100000000E-03 0.  1.
         12    1    3    3    0    0 -0.10996170542E+01  0.41861072083E+01 -0.68264999060E-02  0.43281286749E+01  0.00000000000E+00 0. -1.
</event>
<event>
 7    1  0.2744502E-011  0.5052885E+02  0.7816164E-02  0.1300439E+00
        -11   -1    0    0    0    0  0.00000000000E+00  0.00000000000E+00  0.45593999997E+02  0.45594000000E+02  0.51100000000E-03 0.  1.
         11   -1    0    0    0    0 -0.00000000000E+00 -0.00000000000E+00 -0.45593999997E+02  0.45594000000E+02  0.51100000000E-03 0. -1.
    9900012    2    1    2    0    0 -0.28754109511E+02  0.10380735347E+02  0.26806871711E+02  0.50528845421E+02  0.29999956143E+02 0.  0.
         12    1    1    2    0    0  0.28754109511E+02 -0.10380735347E+02 -0.26806871711E+02  0.40659154579E+02  0.00000000000E+00 0. -1.
         11    1    3    3    0    0 -0.68518926830E+01 -0.14314132145E+01  0.36178171877E+01  0.78794656287E+01  0.51100000000E-03 0. -1.
        -11    1    3    3    0    0 -0.18312805874E+02 -0.45373365352E+01  0.10095601205E+02  0.21397837408E+02  0.51100000000E-03 0.  1.
         12    1    3    3    0    0 -0.35894109545E+01  0.16349485096E+02  0.13093453318E+02  0.21251542385E+02  0.00000000000E+00 0. -1.
</event>
<event>
 7    1  0.2744502E-011  0.5052886E+02  0.7816164E-02  0.1300439E+00
        -11   -1    0    0    0    0  0.00000000000E+00  0.00000000000E+00  0.45593999997E+02  0.45594000000E+02  0.51100000000E-03 0. -1.
         11   -1    0    0    0    0 -0.00000000000E+00 -0.00000000000E+00 -0.45593999997E+02  0.45594000000E+02  0.51100000000E-03 0.  1.
    9900012    2    1    2    0    0  0.39401174373E+01 -0.25490856527E+02 -0.31430194701E+02  0.50528862886E+02  0.30000009229E+02 0.  0.
         12    1    1    2    0    0 -0.39401174373E+01  0.25490856527E+02  0.31430194701E+02  0.40659137114E+02  0.00000000000E+00 0. -1.
         11    1    3    3    0    0  0.34847710840E+01 -0.75951471551E+01  0.13782571185E+01  0.84693259921E+01  0.51100000000E-03 0. -1.
        -11    1    3    3    0    0  0.67907233993E+01 -0.97933885542E+01 -0.59933093643E+01  0.13339570498E+02  0.51100000000E-03 0.  1.
         12    1    3    3    0    0 -0.63353770460E+01 -0.81023208174E+01 -0.26815142455E+02  0.28719966397E+02  0.00000000000E+00 0. -1.
</event>
<event>
 7    1  0.2744502E-011  0.5052887E+02  0.7816164E-02  0.1300439E+00
        -11   -1    0    0    0    0  0.00000000000E+00  0.00000000000E+00  0.45593999997E+02  0.45594000000E+02  0.51100000000E-03 0.  1.
         11   -1    0    0    0    0 -0.00000000000E+00 -0.00000000000E+00 -0.45593999997E+02  0.45594000000E+02  0.51100000000E-03 0. -1.
    9900012    2    1    2    0    0 -0.31320624083E+02 -0.22738284184E+02 -0.12456086561E+02  0.50528866303E+02  0.30000019616E+02 0.  0.
         12    1    1    2    0    0  0.31320624083E+02  0.22738284184E+02  0.12456086561E+02  0.40659133697E+02  0.00000000000E+00 0. -1.
         11    1    3    3    0    0 -0.11837557675E+02 -0.65300401888E+01  0.90553123706E+00  0.13549508613E+02  0.51100000000E-03 0. -1.
        -11    1    3    3    0    0 -0.18031439333E+02 -0.18578403606E+02 -0.27799663118E+01  0.26038780653E+02  0.51100000000E-03 0.  1.
         12    1    3    3    0    0 -0.14516270753E+01  0.23701596108E+01 -0.10581651486E+02  0.10940577037E+02  0.00000000000E+00 0. -1.
</event>
<event>
 7    1  0.2744502E-011  0.5052887E+02  0.7816164E-02  0.1300439E+00
        -11   -1    0    0    0    0  0.00000000000E+00  0.00000000000E+00  0.45593999997E+02  0.45594000000E+02  0.51100000000E-03 0. -1.
         11   -1    0    0    0    0 -0.00000000000E+00 -0.00000000000E+00 -0.45593999997E+02  0.45594000000E+02  0.51100000000E-03 0.  1.
    9900012    2    1    2    0    0 -0.23544688320E+02 -0.61284594997E+01 -0.32576900455E+02  0.50528870556E+02  0.30000032541E+02 0.  0.
         12    1    1    2    0    0  0.23544688320E+02  0.61284594997E+01  0.32576900455E+02  0.40659129444E+02  0.00000000000E+00 0. -1.
         11    1    3    3    0    0  0.27531219397E+01 -0.79610334589E+00 -0.72032897091E+01  0.77524734018E+01  0.51100000000E-03 0. -1.
        -11    1    3    3    0    0  0.25291859806E+01 -0.24178294958E+01 -0.86301676162E+01  0.93124902438E+01  0.51100000000E-03 0.  1.
        -12    1    3    3    0    0 -0.28826996240E+02 -0.29145266580E+01 -0.16743443130E+02  0.33463906910E+02  0.00000000000E+00 0.  1.
</event>
<event>
 7    1  0.2744502E-011  0.5052886E+02  0.7816164E-02  0.1300439E+00
        -11   -1    0    0    0    0  0.00000000000E+00  0.00000000000E+00  0.45593999997E+02  0.45594000000E+02  0.51100000000E-03 0.  1.
         11   -1    0    0    0    0 -0.00000000000E+00 -0.00000000000E+00 -0.45593999997E+02  0.45594000000E+02  0.51100000000E-03 0. -1.
    9900012    2    1    2    0    0 -0.61407214113E+00  0.36120979255E+02  0.18656451346E+02  0.50528863219E+02  0.30000010240E+02 0.  0.
         12    1    1    2    0    0  0.61407214113E+00 -0.36120979255E+02 -0.18656451346E+02  0.40659136781E+02  0.00000000000E+00 0. -1.
         11    1    3    3    0    0  0.23010472891E+01  0.17833071014E+01 -0.13411085622E+01  0.32052418444E+01  0.51100000000E-03 0. -1.
        -11    1    3    3    0    0  0.19432970236E+01  0.28297693872E+02  0.28521382565E+01  0.28507377549E+02  0.51100000000E-03 0.  1.
        -12    1    3    3    0    0 -0.48584164538E+01  0.60399782813E+01  0.17145421652E+02  0.18816243826E+02  0.00000000000E+00 0.  1.
</event>
<event>
 7    1  0.2744502E-011  0.5052886E+02  0.7816164E-02  0.1300439E+00
        -11   -1    0    0    0    0  0.00000000000E+00  0.00000000000E+00  0.45593999997E+02  0.45594000000E+02  0.51100000000E-03 0.  1.
         11   -1    0    0    0    0 -0.00000000000E+00 -0.00000000000E+00 -0.45593999997E+02  0.45594000000E+02  0.51100000000E-03 0. -1.
    9900012    2    1    2    0    0  0.23513488913E+02  0.87313180525E+01  0.32000715506E+02  0.50528857501E+02  0.29999992861E+02 0.  0.
         12    1    1    2    0    0 -0.23513488913E+02 -0.87313180525E+01 -0.32000715506E+02  0.40659142499E+02  0.00000000000E+00 0. -1.
         11    1    3    3    0    0  0.15448295879E+01  0.93400552072E+01  0.26149328131E+01  0.98214562875E+01  0.51100000000E-03 0. -1.
        -11    1    3    3    0    0  0.96941953644E+00 -0.16838489706E+01 -0.20904976843E+01  0.28539976214E+01  0.51100000000E-03 0.  1.
        -12    1    3    3    0    0  0.20999239789E+02  0.10751118160E+01  0.31476280378E+02  0.37853403593E+02  0.00000000000E+00 0.  1.
</event>
<event>
 7    1  0.2744502E-011  0.5052886E+02  0.7816164E-02  0.1300439E+00
        -11   -1    0    0    0    0  0.00000000000E+00  0.00000000000E+00  0.45593999997E+02  0.45594000000E+02  0.51100000000E-03 0.  1.
         11   -1    0    0    0    0 -0.00000000000E+00 -0.00000000000E+00 -0.45593999997E+02  0.45594000000E+02  0.51100000000E-03 0. -1.
    9900012    2    1    2    0    0 -0.58805996626E+01  0.36570587088E+02  0.16768307198E+02  0.50528863036E+02  0.30000009685E+02 0.  0.
         12    1    1    2    0    0  0.58805996626E+01 -0.36570587088E+02 -0.16768307198E+02  0.40659136964E+02  0.00000000000E+00 0. -1.
         11    1    3    3    0    0 -0.13620599819E+02  0.76821608230E+01  0.18165418132E+01  0.15742812924E+02  0.51100000000E-03 0. -1.
        -11    1    3    3    0    0  0.42938834514E+01  0.10846711203E+02  0.97739597425E+00  0.11706574314E+02  0.51100000000E-03 0.  1.
        -12    1    3    3    0    0  0.34461167045E+01  0.18041715063E+02  0.13974369410E+02  0.23079475799E+02  0.00000000000E+00 0.  1.
</event>
<event>
 7    1  0.2744502E-011  0.5052886E+02  0.7816164E-02  0.1300439E+00
        -11   -1    0    0    0    0  0.00000000000E+00  0.00000000000E+00  0.45593999997E+02  0.45594000000E+02  0.51100000000E-03 0. -1.
         11   -1    0    0    0    0 -0.00000000000E+00 -0.00000000000E+00 -0.45593999997E+02  0.45594000000E+02  0.51100000000E-03 0.  1.
    9900012    2    1    2    0    0  0.28086739121E+02 -0.17987615292E+01 -0.29343916888E+02  0.50528856922E+02  0.29999991101E+02 0.  0.
         12    1    1    2    0    0 -0.28086739121E+02  0.17987615292E+01  0.29343916888E+02  0.40659143078E+02  0.00000000000E+00 0. -1.
         11    1    3    3    0    0  0.50245981155E+01  0.23221344406E+01  0.11931927133E+01  0.56623849829E+01  0.51100000000E-03 0. -1.
        -11    1    3    3    0    0  0.64676029950E+01  0.81467524458E+01 -0.37616717975E+01  0.11061177102E+02  0.51100000000E-03 0.  1.
         12    1    3    3    0    0  0.16594538010E+02 -0.12267648416E+02 -0.26775437804E+02  0.33805294837E+02  0.00000000000E+00 0. -1.
</event>
<event>
 7    1  0.2744502E-011  0.5052884E+02  0.7816164E-02  0.1300439E+00
        -11   -1    0    0    0    0  0.00000000000E+00  0.00000000000E+00  0.45593999997E+02  0.45594000000E+02  0.51100000000E-03 0. -1.
         11   -1    0    0    0    0 -0.00000000000E+00 -0.00000000000E+00 -0.45593999997E+02  0.45594000000E+02  0.51100000000E-03 0.  1.
    9900012    2    1    2    0    0 -0.13381507947E+02 -0.20638127353E+02 -0.32375452790E+02  0.50528843603E+02  0.29999950614E+02 0.  0.
         12    1    1    2    0    0  0.13381507947E+02  0.20638127353E+02  0.32375452790E+02  0.40659156397E+02  0.00000000000E+00 0. -1.
         11    1    3    3    0    0 -0.37414063875E+01 -0.12053939750E+02 -0.94965560788E+01  0.15794941053E+02  0.51100000000E-03 0. -1.
        -11    1    3    3    0    0 -0.44604811605E+00 -0.10637622824E+02 -0.22964902509E+02  0.25312935937E+02  0.51100000000E-03 0.  1.
        -12    1    3    3    0    0 -0.91940534431E+01  0.20534352202E+01  0.86005797237E-01  0.94209666126E+01  0.00000000000E+00 0.  1.
</event>
<event>
 7    1  0.2744502E-011  0.5052886E+02  0.7816164E-02  0.1300439E+00
        -11   -1    0    0    0    0  0.00000000000E+00  0.00000000000E+00  0.45593999997E+02  0.45594000000E+02  0.51100000000E-03 0.  1.
         11   -1    0    0    0    0 -0.00000000000E+00 -0.00000000000E+00 -0.45593999997E+02  0.45594000000E+02  0.51100000000E-03 0. -1.
    9900012    2    1    2    0    0 -0.11324238545E+02  0.39040017112E+02  0.89695321947E+00  0.50528857857E+02  0.29999993941E+02 0.  0.
         12    1    1    2    0    0  0.11324238545E+02 -0.39040017112E+02 -0.89695321947E+00  0.40659142143E+02  0.00000000000E+00 0. -1.
         11    1    3    3    0    0 -0.19486319732E+01 -0.35420651092E+00 -0.96074313961E+00  0.22012851838E+01  0.51100000000E-03 0. -1.
        -11    1    3    3    0    0  0.43382601795E+01 -0.48502943756E+00  0.42445886964E+01  0.60887017010E+01  0.51100000000E-03 0.  1.
        -12    1    3    3    0    0 -0.13713866751E+02  0.39879253061E+02 -0.23868923373E+01  0.42238870972E+02  0.00000000000E+00 0.  1.
</event>
<event>
 7    1  0.2744502E-011  0.5052887E+02  0.7816164E-02  0.1300439E+00
        -11   -1    0    0    0    0  0.00000000000E+00  0.00000000000E+00  0.45593999997E+02  0.45594000000E+02  0.51100000000E-03 0. -1.
         11   -1    0    0    0    0 -0.00000000000E+00 -0.00000000000E+00 -0.45593999997E+02  0.45594000000E+02  0.51100000000E-03 0.  1.
    9900012    2    1    2    0    0 -0.31887281229E+02  0.21630827224E+02 -0.12979718820E+02  0.50528874441E+02  0.30000044350E+02 0.  0.
         12    1    1    2    0    0  0.31887281229E+02 -0.21630827224E+02  0.12979718820E+02  0.40659125559E+02  0.00000000000E+00 0. -1.
         11    1    3    3    0    0 -0.14491505829E+02  0.22743017305E+01 -0.68057827689E+01  0.16170802977E+02  0.51100000000E-03 0.  1.
        -11    1    3    3    0    0  0.43457653704E+01  0.22411023284E+01 -0.44874327335E+01  0.66366609903E+01  0.51100000000E-03 0. -1.
         12    1    3    3    0    0 -0.21741540770E+02  0.17115423165E+02 -0.16865033179E+01  0.27721410474E+02  0.00000000000E+00 0. -1.
</event>
<event>
 7    1  0.2744502E-011  0.5052887E+02  0.7816164E-02  0.1300439E+00
        -11   -1    0    0    0    0  0.00000000000E+00  0.00000000000E+00  0.45593999997E+02  0.45594000000E+02  0.51100000000E-03 0.  1.
         11   -1    0    0    0    0 -0.00000000000E+00 -0.00000000000E+00 -0.45593999997E+02  0.45594000000E+02  0.51100000000E-03 0. -1.
    9900012    2    1    2    0    0  0.11283492147E+02  0.27290048741E+01  0.38966653481E+02  0.50528871306E+02  0.30000034820E+02 0.  0.
         12    1    1    2    0    0 -0.11283492147E+02 -0.27290048741E+01 -0.38966653481E+02  0.40659128694E+02  0.00000000000E+00 0. -1.
         11    1    3    3    0    0 -0.14569132567E+01 -0.19845589368E+01 -0.11924760744E+01  0.27355200347E+01  0.51100000000E-03 0. -1.
        -11    1    3    3    0    0  0.11308651456E+02 -0.67402089609E+01  0.28464887809E+02  0.31361853466E+02  0.51100000000E-03 0.  1.
         12    1    3    3    0    0  0.14317539482E+01  0.11453772772E+02  0.11694241747E+02  0.16431497805E+02  0.00000000000E+00 0. -1.
</event>
<event>
 7    1  0.2744502E-011  0.5052886E+02  0.7816164E-02  0.1300439E+00
        -11   -1    0    0    0    0  0.00000000000E+00  0.00000000000E+00  0.45593999997E+02  0.45594000000E+02  0.51100000000E-03 0.  1.
         11   -1    0    0    0    0 -0.00000000000E+00 -0.00000000000E+00 -0.45593999997E+02  0.45594000000E+02  0.51100000000E-03 0. -1.
    9900012    2    1    2    0    0  0.16309765120E+02  0.36709619407E+02  0.62897754147E+01  0.50528857485E+02  0.29999992812E+02 0.  0.
         12    1    1    2    0    0 -0.16309765120E+02 -0.36709619407E+02 -0.62897754147E+01  0.40659142515E+02  0.00000000000E+00 0. -1.
         11    1    3    3    0    0 -0.10552218383E+00 -0.14588647656E+01  0.16209494394E+01  0.21833228533E+01  0.51100000000E-03 0. -1.
        -11    1    3    3    0    0 -0.43777828086E+01  0.13831271824E+02  0.72749938464E+01  0.16229436168E+02  0.51100000000E-03 0.  1.
         12    1    3    3    0    0  0.20793070112E+02  0.24337212349E+02 -0.26061678711E+01  0.32116098464E+02  0.00000000000E+00 0. -1.
</event>
<event>
 7    1  0.2744502E-011  0.5052887E+02  0.7816164E-02  0.1300439E+00
        -11   -1    0    0    0    0  0.00000000000E+00  0.00000000000E+00  0.45593999997E+02  0.45594000000E+02  0.51100000000E-03 0.  1.
         11   -1    0    0    0    0 -0.00000000000E+00 -0.00000000000E+00 -0.45593999997E+02  0.45594000000E+02  0.51100000000E-03 0. -1.
    9900012    2    1    2    0    0 -0.36591628178E+02 -0.11520415842E+01 -0.17688713512E+02  0.50528867715E+02  0.30000023906E+02 0.  0.
         12    1    1    2    0    0  0.36591628178E+02  0.11520415842E+01  0.17688713512E+02  0.40659132285E+02  0.00000000000E+00 0. -1.
         11    1    3    3    0    0 -0.11942052959E+02  0.50641949149E+01 -0.42844569650E+01  0.13660719994E+02  0.51100000000E-03 0. -1.
        -11    1    3    3    0    0 -0.97960146389E+01  0.83744352948E+01 -0.86192537475E+01  0.15504341480E+02  0.51100000000E-03 0.  1.
         12    1    3    3    0    0 -0.14853560580E+02 -0.14590671794E+02 -0.47850027991E+01  0.21363806240E+02  0.00000000000E+00 0. -1.
</event>
<event>
 7    1  0.2744502E-011  0.5052887E+02  0.7816164E-02  0.1300439E+00
        -11   -1    0    0    0    0  0.00000000000E+00  0.00000000000E+00  0.45593999997E+02  0.45594000000E+02  0.51100000000E-03 0.  1.
         11   -1    0    0    0    0 -0.00000000000E+00 -0.00000000000E+00 -0.45593999997E+02  0.45594000000E+02  0.51100000000E-03 0. -1.
    9900012    2    1    2    0    0 -0.18829238050E+02  0.15681388943E+01  0.36002299633E+02  0.50528870103E+02  0.30000031164E+02 0.  0.
         12    1    1    2    0    0  0.18829238050E+02 -0.15681388943E+01 -0.36002299633E+02  0.40659129897E+02  0.00000000000E+00 0. -1.
         11    1    3    3    0    0 -0.30122491565E+01 -0.51566069012E+01 -0.16463877616E+01  0.61947423382E+01  0.51100000000E-03 0. -1.
        -11    1    3    3    0    0  0.16427632109E+01 -0.29000369454E+01  0.72696981527E+01  0.79973368533E+01  0.51100000000E-03 0.  1.
        -12    1    3    3    0    0 -0.17459752104E+02  0.96247827410E+01  0.30378989242E+02  0.36336790911E+02  0.00000000000E+00 0.  1.
</event>
<event>
 7    1  0.2744502E-011  0.5052886E+02  0.7816164E-02  0.1300439E+00
        -11   -1    0    0    0    0  0.00000000000E+00  0.00000000000E+00  0.45593999997E+02  0.45594000000E+02  0.51100000000E-03 0.  1.
         11   -1    0    0    0    0 -0.00000000000E+00 -0.00000000000E+00 -0.45593999997E+02  0.45594000000E+02  0.51100000000E-03 0. -1.
    9900012    2    1    2    0    0 -0.45576771826E+01  0.39445116599E+02  0.87450559946E+01  0.50528860202E+02  0.30000001070E+02 0.  0.
         12    1    1    2    0    0  0.45576771826E+01 -0.39445116599E+02 -0.87450559946E+01  0.40659139798E+02  0.00000000000E+00 0. -1.
         11    1    3    3    0    0  0.58930131843E+01  0.32161013425E+02 -0.16874076126E+00  0.32696893776E+02  0.51100000000E-03 0. -1.
        -11    1    3    3    0    0  0.15333264000E+01  0.47043308414E+00  0.49295336172E+00  0.16779154965E+01  0.51100000000E-03 0.  1.
        -12    1    3    3    0    0 -0.11984016767E+02  0.68136700899E+01  0.84208433941E+01  0.16154050929E+02  0.00000000000E+00 0.  1.
</event>
<event>
 7    1  0.2744502E-011  0.5052885E+02  0.7816164E-02  0.1300439E+00
        -11   -1    0    0    0    0  0.00000000000E+00  0.00000000000E+00  0.45593999997E+02  0.45594000000E+02  0.51100000000E-03 0.  1.
         11   -1    0    0    0    0 -0.00000000000E+00 -0.00000000000E+00 -0.45593999997E+02  0.45594000000E+02  0.51100000000E-03 0. -1.
    9900012    2    1    2    0    0 -0.32150256381E+02 -0.62661343077E+01  0.24088652692E+02  0.50528848348E+02  0.29999965039E+02 0.  0.
         12    1    1    2    0    0  0.32150256381E+02  0.62661343077E+01 -0.24088652692E+02  0.40659151652E+02  0.00000000000E+00 0. -1.
         11    1    3    3    0    0 -0.22508441955E+02 -0.19277069851E+01  0.84131812923E+01  0.24106589000E+02  0.51100000000E-03 0. -1.
        -11    1    3    3    0    0 -0.93624897154E+01 -0.90211302464E+01  0.17135214324E+02  0.21509360167E+02  0.51100000000E-03 0.  1.
         12    1    3    3    0    0 -0.27932471032E+00  0.46827029239E+01 -0.14597429244E+01  0.49128991820E+01  0.00000000000E+00 0. -1.
</event>
<event>
 7    1  0.2744502E-011  0.5052885E+02  0.7816164E-02  0.1300439E+00
        -11   -1    0    0    0    0  0.00000000000E+00  0.00000000000E+00  0.45593999997E+02  0.45594000000E+02  0.51100000000E-03 0.  1.
         11   -1    0    0    0    0 -0.00000000000E+00 -0.00000000000E+00 -0.45593999997E+02  0.45594000000E+02  0.51100000000E-03 0. -1.
    9900012    2    1    2    0    0 -0.87568808402E+01  0.29098424269E+02  0.27014160582E+02  0.50528854302E+02  0.29999983135E+02 0.  0.
         12    1    1    2    0    0  0.87568808402E+01 -0.29098424269E+02 -0.27014160582E+02  0.40659145698E+02  0.00000000000E+00 0. -1.
         11    1    3    3    0    0  0.24232916224E+01  0.16551944458E+02  0.17476915873E+01  0.16819442136E+02  0.51100000000E-03 0. -1.
        -11    1    3    3    0    0 -0.19206658297E+01  0.81780312051E+01  0.25286182242E+01  0.87728593974E+01  0.51100000000E-03 0.  1.
         12    1    3    3    0    0 -0.92595066329E+01  0.43684486060E+01  0.22737850770E+02  0.24936552768E+02  0.00000000000E+00 0. -1.
</event>
<event>
 7    1  0.2744502E-011  0.5052888E+02  0.7816164E-02  0.1300439E+00
        -11   -1    0    0    0    0  0.00000000000E+00  0.00000000000E+00  0.45593999997E+02  0.45594000000E+02  0.51100000000E-03 0. -1.
         11   -1    0    0    0    0 -0.00000000000E+00 -0.00000000000E+00 -0.45593999997E+02  0.45594000000E+02  0.51100000000E-03 0.  1.
    9900012    2    1    2    0    0 -0.29463068894E+02 -0.17176970644E+02 -0.22136925926E+02  0.50528877547E+02  0.30000053792E+02 0.  0.
         12    1    1    2    0    0  0.29463068894E+02  0.17176970644E+02  0.22136925926E+02  0.40659122453E+02  0.00000000000E+00 0. -1.
         11    1    3    3    0    0  0.29776244766E+01 -0.24305880081E+01 -0.42064493716E+01  0.56980893434E+01  0.51100000000E-03 0. -1.
        -11    1    3    3    0    0 -0.25054648213E+01 -0.49717989025E+01  0.36481602410E+01  0.66562160199E+01  0.51100000000E-03 0.  1.
        -12    1    3    3    0    0 -0.29935228550E+02 -0.97745837333E+01 -0.21578636795E+02  0.38174572184E+02  0.00000000000E+00 0.  1.
</event>
<event>
 7    1  0.2744502E-011  0.5052886E+02  0.7816164E-02  0.1300439E+00
        -11   -1    0    0    0    0  0.00000000000E+00  0.00000000000E+00  0.45593999997E+02  0.45594000000E+02  0.51100000000E-03 0.  1.
         11   -1    0    0    0    0 -0.00000000000E+00 -0.00000000000E+00 -0.45593999997E+02  0.45594000000E+02  0.51100000000E-03 0. -1.
    9900012    2    1    2    0    0  0.25993433572E+02 -0.27525599993E+02 -0.14827279452E+02  0.50528862530E+02  0.30000008146E+02 0.  0.
         12    1    1    2    0    0 -0.25993433572E+02  0.27525599993E+02  0.14827279452E+02  0.40659137470E+02  0.00000000000E+00 0. -1.
         11    1    3    3    0    0  0.14294856591E+02 -0.72984583770E+01 -0.10839219234E+02  0.19367475146E+02  0.51100000000E-03 0. -1.
        -11    1    3    3    0    0  0.12989705335E+02 -0.58217882196E+01 -0.77628469869E+01  0.16213804500E+02  0.51100000000E-03 0.  1.
         12    1    3    3    0    0 -0.12911283544E+01 -0.14405353397E+02  0.37747867692E+01  0.14947582884E+02  0.00000000000E+00 0. -1.
</event>
<event>
 7    1  0.2744502E-011  0.5052886E+02  0.7816164E-02  0.1300439E+00
        -11   -1    0    0    0    0  0.00000000000E+00  0.00000000000E+00  0.45593999997E+02  0.45594000000E+02  0.51100000000E-03 0.  1.
         11   -1    0    0    0    0 -0.00000000000E+00 -0.00000000000E+00 -0.45593999997E+02  0.45594000000E+02  0.51100000000E-03 0. -1.
    9900012    2    1    2    0    0 -0.36159751423E+02  0.18382516623E+02 -0.27787609215E+01  0.50528855239E+02  0.29999985986E+02 0.  0.
         12    1    1    2    0    0  0.36159751423E+02 -0.18382516623E+02  0.27787609215E+01  0.40659144761E+02  0.00000000000E+00 0. -1.
         11    1    3    3    0    0 -0.12357626975E+02  0.91923998031E+01  0.61527142539E+01  0.16585145509E+02  0.51100000000E-03 0.  1.
        -11    1    3    3    0    0 -0.31240568573E+01 -0.43694276224E+01  0.33540108058E+01  0.63325364382E+01  0.51100000000E-03 0. -1.
        -12    1    3    3    0    0 -0.20678067591E+02  0.13559544443E+02 -0.12285485981E+02  0.27611173292E+02  0.00000000000E+00 0.  1.
</event>
<event>
 7    1  0.2744502E-011  0.5052882E+02  0.7816164E-02  0.1300439E+00
        -11   -1    0    0    0    0  0.00000000000E+00  0.00000000000E+00  0.45593999997E+02  0.45594000000E+02  0.51100000000E-03 0.  1.
         11   -1    0    0    0    0 -0.00000000000E+00 -0.00000000000E+00 -0.45593999997E+02  0.45594000000E+02  0.51100000000E-03 0. -1.
    9900012    2    1    2    0    0  0.34108062801E+02 -0.62704227516E+01  0.21224769081E+02  0.50528819339E+02  0.29999876861E+02 0.  0.
         12    1    1    2    0    0 -0.34108062801E+02  0.62704227516E+01 -0.21224769081E+02  0.40659180661E+02  0.00000000000E+00 0. -1.
         11    1    3    3    0    0 -0.10575415994E+01 -0.26376532774E+00  0.35662335149E+01  0.37290733603E+01  0.51100000000E-03 0. -1.
        -11    1    3    3    0    0 -0.24387300329E+01 -0.36125755552E+01  0.58838161831E+01  0.73223902827E+01  0.51100000000E-03 0.  1.
        -12    1    3    3    0    0  0.37604334433E+02 -0.23940818686E+01  0.11774719383E+02  0.39477355696E+02  0.00000000000E+00 0.  1.
</event>
<event>
 7    1  0.2744502E-011  0.5052886E+02  0.7816164E-02  0.1300439E+00
        -11   -1    0    0    0    0  0.00000000000E+00  0.00000000000E+00  0.45593999997E+02  0.45594000000E+02  0.51100000000E-03 0. -1.
         11   -1    0    0    0    0 -0.00000000000E+00 -0.00000000000E+00 -0.45593999997E+02  0.45594000000E+02  0.51100000000E-03 0.  1.
    9900012    2    1    2    0    0 -0.49406069719E+01  0.33973370635E+02 -0.21784544655E+02  0.50528857174E+02  0.29999991865E+02 0.  0.
         12    1    1    2    0    0  0.49406069719E+01 -0.33973370635E+02  0.21784544655E+02  0.40659142826E+02  0.00000000000E+00 0. -1.
         11    1    3    3    0    0 -0.85009407874E+00 -0.43196956178E+00  0.36416404386E+01  0.37644127019E+01  0.51100000000E-03 0.  1.
        -11    1    3    3    0    0  0.22068744816E+01  0.13495109728E+02 -0.58187622535E+00  0.13686740363E+02  0.51100000000E-03 0. -1.
        -12    1    3    3    0    0 -0.62973873748E+01  0.20910230468E+02 -0.24844308868E+02  0.33077704109E+02  0.00000000000E+00 0.  1.
</event>
<event>
 7    1  0.2744502E-011  0.5052886E+02  0.7816164E-02  0.1300439E+00
        -11   -1    0    0    0    0  0.00000000000E+00  0.00000000000E+00  0.45593999997E+02  0.45594000000E+02  0.51100000000E-03 0.  1.
         11   -1    0    0    0    0 -0.00000000000E+00 -0.00000000000E+00 -0.45593999997E+02  0.45594000000E+02  0.51100000000E-03 0. -1.
    9900012    2    1    2    0    0  0.40357090106E+02 -0.36052911810E+01  0.33871011632E+01  0.50528864488E+02  0.30000014097E+02 0.  0.
         12    1    1    2    0    0 -0.40357090106E+02  0.36052911810E+01 -0.33871011632E+01  0.40659135512E+02  0.00000000000E+00 0. -1.
         11    1    3    3    0    0  0.38606951601E+01 -0.31884730135E+01 -0.13555799420E+01  0.51873812774E+01  0.51100000000E-03 0. -1.
        -11    1    3    3    0    0  0.33931980004E+02  0.91705301600E+01  0.31517499051E+01  0.35290387050E+02  0.51100000000E-03 0.  1.
         12    1    3    3    0    0  0.25644149418E+01 -0.95873483275E+01  0.15909312001E+01  0.10051096161E+02  0.00000000000E+00 0. -1.
</event>
<event>
 7    1  0.2744502E-011  0.5052886E+02  0.7816164E-02  0.1300439E+00
        -11   -1    0    0    0    0  0.00000000000E+00  0.00000000000E+00  0.45593999997E+02  0.45594000000E+02  0.51100000000E-03 0. -1.
         11   -1    0    0    0    0 -0.00000000000E+00 -0.00000000000E+00 -0.45593999997E+02  0.45594000000E+02  0.51100000000E-03 0.  1.
    9900012    2    1    2    0    0 -0.40789981070E+01  0.34353971914E+02 -0.21361934648E+02  0.50528857562E+02  0.29999993047E+02 0.  0.
         12    1    1    2    0    0  0.40789981070E+01 -0.34353971914E+02  0.21361934648E+02  0.40659142438E+02  0.00000000000E+00 0. -1.
         11    1    3    3    0    0 -0.14516922613E+01  0.17995725677E+02  0.32549552211E+01  0.18345252433E+02  0.51100000000E-03 0. -1.
        -11    1    3    3    0    0  0.44781269760E+01  0.39534866295E+01 -0.10572632498E+02  0.12143485329E+02  0.51100000000E-03 0.  1.
        -12    1    3    3    0    0 -0.71054328217E+01  0.12404759608E+02 -0.14044257371E+02  0.20040119800E+02  0.00000000000E+00 0.  1.
</event>
<event>
 7    1  0.2744502E-011  0.5052885E+02  0.7816164E-02  0.1300439E+00
        -11   -1    0    0    0    0  0.00000000000E+00  0.00000000000E+00  0.45593999997E+02  0.45594000000E+02  0.51100000000E-03 0. -1.
         11   -1    0    0    0    0 -0.00000000000E+00 -0.00000000000E+00 -0.45593999997E+02  0.45594000000E+02  0.51100000000E-03 0.  1.
    9900012    2    1    2    0    0 -0.11301599083E+02 -0.34126450084E+02 -0.18995405361E+02  0.50528853895E+02  0.29999981898E+02 0.  0.
         12    1    1    2    0    0  0.11301599083E+02  0.34126450084E+02  0.18995405361E+02  0.40659146105E+02  0.00000000000E+00 0. -1.
         11    1    3    3    0    0  0.66255280326E+01 -0.11012020027E+02 -0.18264749129E+01  0.12980686332E+02  0.51100000000E-03 0. -1.
        -11    1    3    3    0    0 -0.28542902593E+01 -0.87482343266E+01 -0.13601998354E+02  0.16422330414E+02  0.51100000000E-03 0.  1.
        -12    1    3    3    0    0 -0.15072836856E+02 -0.14366195730E+02 -0.35669320940E+01  0.21125837148E+02  0.00000000000E+00 0.  1.
</event>
<event>
 7    1  0.2744502E-011  0.5052886E+02  0.7816164E-02  0.1300439E+00
        -11   -1    0    0    0    0  0.00000000000E+00  0.00000000000E+00  0.45593999997E+02  0.45594000000E+02  0.51100000000E-03 0.  1.
         11   -1    0    0    0    0 -0.00000000000E+00 -0.00000000000E+00 -0.45593999997E+02  0.45594000000E+02  0.51100000000E-03 0. -1.
    9900012    2    1    2    0    0 -0.56318835548E+01 -0.28779713961E+02  0.28163379492E+02  0.50528855980E+02  0.29999988236E+02 0.  0.
         12    1    1    2    0    0  0.56318835548E+01  0.28779713961E+02 -0.28163379492E+02  0.40659144020E+02  0.00000000000E+00 0. -1.
         11    1    3    3    0    0 -0.83989182024E+01 -0.22888028751E+01  0.46456043206E+01  0.98672227773E+01  0.51100000000E-03 0. -1.
        -11    1    3    3    0    0 -0.71216355655E+01 -0.12921370377E+02  0.47966696197E+01  0.15514107943E+02  0.51100000000E-03 0.  1.
        -12    1    3    3    0    0  0.98886702131E+01 -0.13569540709E+02  0.18721105551E+02  0.25147525260E+02  0.00000000000E+00 0.  1.
</event>
<event>
 7    1  0.2744502E-011  0.5052886E+02  0.7816164E-02  0.1300439E+00
        -11   -1    0    0    0    0  0.00000000000E+00  0.00000000000E+00  0.45593999997E+02  0.45594000000E+02  0.51100000000E-03 0.  1.
         11   -1    0    0    0    0 -0.00000000000E+00 -0.00000000000E+00 -0.45593999997E+02  0.45594000000E+02  0.51100000000E-03 0. -1.
    9900012    2    1    2    0    0  0.33963200809E+02 -0.21246802675E+02  0.69455064188E+01  0.50528859668E+02  0.29999999448E+02 0.  0.
         12    1    1    2    0    0 -0.33963200809E+02  0.21246802675E+02 -0.69455064188E+01  0.40659140332E+02  0.00000000000E+00 0. -1.
         11    1    3    3    0    0  0.11287210802E+02 -0.52701318658E+01 -0.88433341850E+00  0.12488293055E+02  0.51100000000E-03 0. -1.
        -11    1    3    3    0    0  0.13308967074E+02 -0.16487590546E+01 -0.72346923082E+01  0.15237709278E+02  0.51100000000E-03 0.  1.
        -12    1    3    3    0    0  0.93670229332E+01 -0.14327911754E+02  0.15064532145E+02  0.22802857335E+02  0.00000000000E+00 0.  1.
</event>
<event>
 7    1  0.2744502E-011  0.5052886E+02  0.7816164E-02  0.1300439E+00
        -11   -1    0    0    0    0  0.00000000000E+00  0.00000000000E+00  0.45593999997E+02  0.45594000000E+02  0.51100000000E-03 0.  1.
         11   -1    0    0    0    0 -0.00000000000E+00 -0.00000000000E+00 -0.45593999997E+02  0.45594000000E+02  0.51100000000E-03 0. -1.
    9900012    2    1    2    0    0 -0.10896524677E+02  0.15632488248E+02  0.35917360681E+02  0.50528859120E+02  0.29999997780E+02 0.  0.
         12    1    1    2    0    0  0.10896524677E+02 -0.15632488248E+02 -0.35917360681E+02  0.40659140880E+02  0.00000000000E+00 0. -1.
         11    1    3    3    0    0 -0.40365945771E+01  0.94832766193E+01  0.35808018770E+01  0.10910947418E+02  0.51100000000E-03 0. -1.
        -11    1    3    3    0    0 -0.12327277163E+02  0.10071272951E+02  0.25224623628E+02  0.29827402477E+02  0.51100000000E-03 0.  1.
        -12    1    3    3    0    0  0.54673470633E+01 -0.39220613224E+01  0.71119351757E+01  0.97905092243E+01  0.00000000000E+00 0.  1.
</event>
<event>
 7    1  0.2744502E-011  0.5052886E+02  0.7816164E-02  0.1300439E+00
        -11   -1    0    0    0    0  0.00000000000E+00  0.00000000000E+00  0.45593999997E+02  0.45594000000E+02  0.51100000000E-03 0.  1.
         11   -1    0    0    0    0 -0.00000000000E+00 -0.00000000000E+00 -0.45593999997E+02  0.45594000000E+02  0.51100000000E-03 0. -1.
    9900012    2    1    2    0    0  0.39593123170E+01 -0.21409440202E+02  0.34338390609E+02  0.50528863838E+02  0.30000012123E+02 0.  0.
         12    1    1    2    0    0 -0.39593123170E+01  0.21409440202E+02 -0.34338390609E+02  0.40659136162E+02  0.00000000000E+00 0. -1.
         11    1    3    3    0    0  0.44365785295E+01  0.33629093635E+01  0.10671259218E+02  0.12036119059E+02  0.51100000000E-03 0. -1.
        -11    1    3    3    0    0  0.47849186276E+01 -0.28048853152E+01  0.11657558352E+02  0.12909744184E+02  0.51100000000E-03 0.  1.
        -12    1    3    3    0    0 -0.52621848401E+01 -0.21967464250E+02  0.12009573039E+02  0.25583000595E+02  0.00000000000E+00 0.  1.
</event>
<event>
 7    1  0.2744502E-011  0.5052894E+02  0.7816164E-02  0.1300439E+00
        -11   -1    0    0    0    0  0.00000000000E+00  0.00000000000E+00  0.45593999997E+02  0.45594000000E+02  0.51100000000E-03 0.  1.
         11   -1    0    0    0    0 -0.00000000000E+00 -0.00000000000E+00 -0.45593999997E+02  0.45594000000E+02  0.51100000000E-03 0. -1.
    9900012    2    1    2    0    0 -0.12193597687E+02 -0.28498806707E+02  0.26311472279E+02  0.50528937274E+02  0.30000235337E+02 0.  0.
         12    1    1    2    0    0  0.12193597687E+02  0.28498806707E+02 -0.26311472279E+02  0.40659062726E+02  0.00000000000E+00 0. -1.
         11    1    3    3    0    0  0.37379679877E+01 -0.10102273614E+02  0.13314656724E+01  0.10853623264E+02  0.51100000000E-03 0. -1.
        -11    1    3    3    0    0  0.13073540382E+00 -0.88785758281E+01  0.50761262977E+00  0.88940357164E+01  0.51100000000E-03 0.  1.
        -12    1    3    3    0    0 -0.16062301079E+02 -0.95179572643E+01  0.24472393977E+02  0.30781278294E+02  0.00000000000E+00 0.  1.
</event>
<event>
 7    1  0.2744502E-011  0.5052886E+02  0.7816164E-02  0.1300439E+00
        -11   -1    0    0    0    0  0.00000000000E+00  0.00000000000E+00  0.45593999997E+02  0.45594000000E+02  0.51100000000E-03 0.  1.
         11   -1    0    0    0    0 -0.00000000000E+00 -0.00000000000E+00 -0.45593999997E+02  0.45594000000E+02  0.51100000000E-03 0. -1.
    9900012    2    1    2    0    0 -0.85430659358E+00  0.25220247932E+02  0.31880638872E+02  0.50528857358E+02  0.29999992426E+02 0.  0.
         12    1    1    2    0    0  0.85430659358E+00 -0.25220247932E+02 -0.31880638872E+02  0.40659142642E+02  0.00000000000E+00 0. -1.
         11    1    3    3    0    0  0.64151502491E+01  0.10950782534E+01 -0.49564939435E+00  0.65267922966E+01  0.51100000000E-03 0. -1.
        -11    1    3    3    0    0 -0.67341517926E+01  0.18372917528E+01  0.11538986340E+02  0.13486016735E+02  0.51100000000E-03 0.  1.
        -12    1    3    3    0    0 -0.53530505014E+00  0.22287877926E+02  0.20837301926E+02  0.30516048327E+02  0.00000000000E+00 0.  1.
</event>
<event>
 7    1  0.2744502E-011  0.5052886E+02  0.7816164E-02  0.1300439E+00
        -11   -1    0    0    0    0  0.00000000000E+00  0.00000000000E+00  0.45593999997E+02  0.45594000000E+02  0.51100000000E-03 0.  1.
         11   -1    0    0    0    0 -0.00000000000E+00 -0.00000000000E+00 -0.45593999997E+02  0.45594000000E+02  0.51100000000E-03 0. -1.
    9900012    2    1    2    0    0  0.21587781251E+02 -0.96982502920E+01  0.33061717937E+02  0.50528861408E+02  0.30000004737E+02 0.  0.
         12    1    1    2    0    0 -0.21587781251E+02  0.96982502920E+01 -0.33061717937E+02  0.40659138592E+02  0.00000000000E+00 0. -1.
         11    1    3    3    0    0  0.83398643085E+01 -0.73536125390E+01  0.10933302461E+02  0.15593782640E+02  0.51100000000E-03 0. -1.
        -11    1    3    3    0    0  0.95033622616E+01 -0.92999768295E+01  0.21730621166E+01  0.13473145977E+02  0.51100000000E-03 0.  1.
        -12    1    3    3    0    0  0.37445546810E+01  0.69553390765E+01  0.19955353359E+02  0.21461932791E+02  0.00000000000E+00 0.  1.
</event>
<event>
 7    1  0.2744502E-011  0.5052887E+02  0.7816164E-02  0.1300439E+00
        -11   -1    0    0    0    0  0.00000000000E+00  0.00000000000E+00  0.45593999997E+02  0.45594000000E+02  0.51100000000E-03 0.  1.
         11   -1    0    0    0    0 -0.00000000000E+00 -0.00000000000E+00 -0.45593999997E+02  0.45594000000E+02  0.51100000000E-03 0. -1.
    9900012    2    1    2    0    0  0.12320076359E+02 -0.49805493083E+01  0.38426228904E+02  0.50528865471E+02  0.30000017085E+02 0.  0.
         12    1    1    2    0    0 -0.12320076359E+02  0.49805493083E+01 -0.38426228904E+02  0.40659134529E+02  0.00000000000E+00 0. -1.
         11    1    3    3    0    0 -0.78729104001E+00 -0.39863482184E+01  0.36016730971E+01  0.54298111072E+01  0.51100000000E-03 0.  1.
        -11    1    3    3    0    0 -0.45096119987E+01  0.18360078545E+01  0.23424671787E+02  0.23925358384E+02  0.51100000000E-03 0. -1.
        -12    1    3    3    0    0  0.17616979397E+02 -0.28302089444E+01  0.11399884020E+02  0.21173695979E+02  0.00000000000E+00 0.  1.
</event>
<event>
 7    1  0.2744502E-011  0.5052887E+02  0.7816164E-02  0.1300439E+00
        -11   -1    0    0    0    0  0.00000000000E+00  0.00000000000E+00  0.45593999997E+02  0.45594000000E+02  0.51100000000E-03 0. -1.
         11   -1    0    0    0    0 -0.00000000000E+00 -0.00000000000E+00 -0.45593999997E+02  0.45594000000E+02  0.51100000000E-03 0.  1.
    9900012    2    1    2    0    0 -0.30188439541E+02 -0.12773097191E+02 -0.24055584411E+02  0.50528867752E+02  0.30000024018E+02 0.  0.
         12    1    1    2    0    0  0.30188439541E+02  0.12773097191E+02  0.24055584411E+02  0.40659132248E+02  0.00000000000E+00 0. -1.
         11    1    3    3    0    0 -0.95588424408E+01 -0.62998215294E+01  0.29713918418E+00  0.11451965424E+02  0.51100000000E-03 0. -1.
        -11    1    3    3    0    0 -0.30236721341E+01 -0.71985981137E+01 -0.19186452231E+02  0.20714303209E+02  0.51100000000E-03 0.  1.
         12    1    3    3    0    0 -0.17605924967E+02  0.72532245180E+00 -0.51662713650E+01  0.18362599119E+02  0.00000000000E+00 0. -1.
</event>
<event>
 7    1  0.2744502E-011  0.5052886E+02  0.7816164E-02  0.1300439E+00
        -11   -1    0    0    0    0  0.00000000000E+00  0.00000000000E+00  0.45593999997E+02  0.45594000000E+02  0.51100000000E-03 0.  1.
         11   -1    0    0    0    0 -0.00000000000E+00 -0.00000000000E+00 -0.45593999997E+02  0.45594000000E+02  0.51100000000E-03 0. -1.
    9900012    2    1    2    0    0  0.27220045199E+02  0.26112478810E+02  0.15178059595E+02  0.50528857076E+02  0.29999991568E+02 0.  0.
         12    1    1    2    0    0 -0.27220045199E+02 -0.26112478810E+02 -0.15178059595E+02  0.40659142924E+02  0.00000000000E+00 0. -1.
         11    1    3    3    0    0  0.85320167372E+01  0.20716858421E+02  0.77726836032E+01  0.23714935022E+02  0.51100000000E-03 0. -1.
        -11    1    3    3    0    0  0.98348078154E+00  0.45143685929E+01  0.78196635445E+01  0.90826150667E+01  0.51100000000E-03 0.  1.
         12    1    3    3    0    0  0.17704547681E+02  0.88125179601E+00 -0.41428755253E+00  0.17731306987E+02  0.00000000000E+00 0. -1.
</event>
<event>
 7    1  0.2744502E-011  0.5052886E+02  0.7816164E-02  0.1300439E+00
        -11   -1    0    0    0    0  0.00000000000E+00  0.00000000000E+00  0.45593999997E+02  0.45594000000E+02  0.51100000000E-03 0.  1.
         11   -1    0    0    0    0 -0.00000000000E+00 -0.00000000000E+00 -0.45593999997E+02  0.45594000000E+02  0.51100000000E-03 0. -1.
    9900012    2    1    2    0    0  0.19729060260E+02  0.16587198541E+02  0.31445100540E+02  0.50528864223E+02  0.30000013291E+02 0.  0.
         12    1    1    2    0    0 -0.19729060260E+02 -0.16587198541E+02 -0.31445100540E+02  0.40659135777E+02  0.00000000000E+00 0. -1.
         11    1    3    3    0    0 -0.34807215224E+01  0.12929139365E+01 -0.99513857313E-01  0.37144248590E+01  0.51100000000E-03 0. -1.
        -11    1    3    3    0    0 -0.64580741890E+00  0.10164162404E+02  0.96630107157E+01  0.14039267821E+02  0.51100000000E-03 0.  1.
         12    1    3    3    0    0  0.23855589202E+02  0.51301221998E+01  0.21881603682E+02  0.32775171542E+02  0.00000000000E+00 0. -1.
</event>
<event>
 7    1  0.2744502E-011  0.5052893E+02  0.7816164E-02  0.1300439E+00
        -11   -1    0    0    0    0  0.00000000000E+00  0.00000000000E+00  0.45593999997E+02  0.45594000000E+02  0.51100000000E-03 0. -1.
         11   -1    0    0    0    0 -0.00000000000E+00 -0.00000000000E+00 -0.45593999997E+02  0.45594000000E+02  0.51100000000E-03 0.  1.
    9900012    2    1    2    0    0  0.12975887428E+02  0.38524589531E+02  0.80161245126E+00  0.50528926774E+02  0.30000203421E+02 0.  0.
         12    1    1    2    0    0 -0.12975887428E+02 -0.38524589531E+02 -0.80161245126E+00  0.40659073226E+02  0.00000000000E+00 0. -1.
         11    1    3    3    0    0  0.11594333169E+01 -0.30705958484E+01  0.35400421814E+01  0.48274986678E+01  0.51100000000E-03 0. -1.
        -11    1    3    3    0    0 -0.29794186404E+01  0.57344001852E+01  0.16255154882E+01  0.66635262273E+01  0.51100000000E-03 0.  1.
         12    1    3    3    0    0  0.14795872752E+02  0.35860785194E+02 -0.43639452183E+01  0.39037901879E+02  0.00000000000E+00 0. -1.
</event>
<event>
 7    1  0.2744502E-011  0.5052886E+02  0.7816164E-02  0.1300439E+00
        -11   -1    0    0    0    0  0.00000000000E+00  0.00000000000E+00  0.45593999997E+02  0.45594000000E+02  0.51100000000E-03 0. -1.
         11   -1    0    0    0    0 -0.00000000000E+00 -0.00000000000E+00 -0.45593999997E+02  0.45594000000E+02  0.51100000000E-03 0.  1.
    9900012    2    1    2    0    0  0.16460777229E+01  0.39205333048E+02 -0.10648857194E+02  0.50528857476E+02  0.29999992783E+02 0.  0.
         12    1    1    2    0    0 -0.16460777229E+01 -0.39205333048E+02  0.10648857194E+02  0.40659142524E+02  0.00000000000E+00 0. -1.
         11    1    3    3    0    0  0.70950389133E+01  0.20471875252E+02 -0.87376788313E+01  0.23362026564E+02  0.51100000000E-03 0. -1.
        -11    1    3    3    0    0 -0.89726293183E+00  0.87770523210E+01 -0.10162483647E+02  0.13458001425E+02  0.51100000000E-03 0.  1.
         12    1    3    3    0    0 -0.45516982585E+01  0.99564054746E+01  0.82513052847E+01  0.13708829487E+02  0.00000000000E+00 0. -1.
</event>
<event>
 7    1  0.2744502E-011  0.5052886E+02  0.7816164E-02  0.1300439E+00
        -11   -1    0    0    0    0  0.00000000000E+00  0.00000000000E+00  0.45593999997E+02  0.45594000000E+02  0.51100000000E-03 0.  1.
         11   -1    0    0    0    0 -0.00000000000E+00 -0.00000000000E+00 -0.45593999997E+02  0.45594000000E+02  0.51100000000E-03 0. -1.
    9900012    2    1    2    0    0 -0.52227007673E+00 -0.30552575034E+01  0.40540825503E+02  0.50528857155E+02  0.29999991807E+02 0.  0.
         12    1    1    2    0    0  0.52227007673E+00  0.30552575034E+01 -0.40540825503E+02  0.40659142845E+02  0.00000000000E+00 0. -1.
         11    1    3    3    0    0 -0.43366292145E+01 -0.41728456376E+01  0.23903852988E+02  0.24649810985E+02  0.51100000000E-03 0. -1.
        -11    1    3    3    0    0  0.92817440688E+01  0.93271263567E+00  0.17971289766E+02  0.20248159964E+02  0.51100000000E-03 0.  1.
         12    1    3    3    0    0 -0.54673849310E+01  0.18487549849E+00 -0.13343172509E+01  0.56308862056E+01  0.00000000000E+00 0. -1.
</event>
<event>
 7    1  0.2744502E-011  0.5052886E+02  0.7816164E-02  0.1300439E+00
        -11   -1    0    0    0    0  0.00000000000E+00  0.00000000000E+00  0.45593999997E+02  0.45594000000E+02  0.51100000000E-03 0. -1.
         11   -1    0    0    0    0 -0.00000000000E+00 -0.00000000000E+00 -0.45593999997E+02  0.45594000000E+02  0.51100000000E-03 0.  1.
    9900012    2    1    2    0    0  0.91628187214E+01  0.39610502930E+02  0.46512185120E+00  0.50528861696E+02  0.30000005611E+02 0.  0.
         12    1    1    2    0    0 -0.91628187214E+01 -0.39610502930E+02 -0.46512185120E+00  0.40659138304E+02  0.00000000000E+00 0. -1.
         11    1    3    3    0    0 -0.61310794958E+00 -0.55921806865E+00 -0.56922522939E+01  0.57524223284E+01  0.51100000000E-03 0. -1.
        -11    1    3    3    0    0  0.12428159627E+01  0.20573348460E+02  0.10243072388E+02  0.23015816097E+02  0.51100000000E-03 0.  1.
        -12    1    3    3    0    0  0.85331107083E+01  0.19596372538E+02 -0.40856982427E+01  0.21760623271E+02  0.00000000000E+00 0.  1.
</event>
<event>
 7    1  0.2744502E-011  0.5052886E+02  0.7816164E-02  0.1300439E+00
        -11   -1    0    0    0    0  0.00000000000E+00  0.00000000000E+00  0.45593999997E+02  0.45594000000E+02  0.51100000000E-03 0.  1.
         11   -1    0    0    0    0 -0.00000000000E+00 -0.00000000000E+00 -0.45593999997E+02  0.45594000000E+02  0.51100000000E-03 0. -1.
    9900012    2    1    2    0    0 -0.30122255749E+02  0.21160247824E+01  0.27227517240E+02  0.50528861453E+02  0.30000004873E+02 0.  0.
         12    1    1    2    0    0  0.30122255749E+02 -0.21160247824E+01 -0.27227517240E+02  0.40659138547E+02  0.00000000000E+00 0. -1.
         11    1    3    3    0    0  0.33274953218E+01  0.23955572588E+01  0.84988895449E+01  0.94362091676E+01  0.51100000000E-03 0. -1.
        -11    1    3    3    0    0 -0.53936294906E+01 -0.36672555456E+01  0.91841468179E+01  0.11264482028E+02  0.51100000000E-03 0.  1.
        -12    1    3    3    0    0 -0.28056121580E+02  0.33877230692E+01  0.95444808775E+01  0.29828170258E+02  0.00000000000E+00 0.  1.
</event>
<event>
 7    1  0.2744502E-011  0.5052885E+02  0.7816164E-02  0.1300439E+00
        -11   -1    0    0    0    0  0.00000000000E+00  0.00000000000E+00  0.45593999997E+02  0.45594000000E+02  0.51100000000E-03 0.  1.
         11   -1    0    0    0    0 -0.00000000000E+00 -0.00000000000E+00 -0.45593999997E+02  0.45594000000E+02  0.51100000000E-03 0. -1.
    9900012    2    1    2    0    0  0.14162795801E+02 -0.36350612689E+02  0.11454879482E+02  0.50528854759E+02  0.29999984527E+02 0.  0.
         12    1    1    2    0    0 -0.14162795801E+02  0.36350612689E+02 -0.11454879482E+02  0.40659145241E+02  0.00000000000E+00 0. -1.
         11    1    3    3    0    0  0.83593716866E+00 -0.21647122373E+01  0.58071568971E+01  0.62536262688E+01  0.51100000000E-03 0. -1.
        -11    1    3    3    0    0 -0.22868629941E+01  0.18725153525E+01 -0.28136779883E+01  0.40807891617E+01  0.51100000000E-03 0.  1.
        -12    1    3    3    0    0  0.15613721627E+02 -0.36058415804E+02  0.84614005729E+01  0.40194439329E+02  0.00000000000E+00 0.  1.
</event>
<event>
 7    1  0.2744502E-011  0.5052885E+02  0.7816164E-02  0.1300439E+00
        -11   -1    0    0    0    0  0.00000000000E+00  0.00000000000E+00  0.45593999997E+02  0.45594000000E+02  0.51100000000E-03 0. -1.
         11   -1    0    0    0    0 -0.00000000000E+00 -0.00000000000E+00 -0.45593999997E+02  0.45594000000E+02  0.51100000000E-03 0.  1.
    9900012    2    1    2    0    0  0.19462514331E+02  0.14576846198E+02 -0.32586696119E+02  0.50528847609E+02  0.29999962793E+02 0.  0.
         12    1    1    2    0    0 -0.19462514331E+02 -0.14576846198E+02  0.32586696119E+02  0.40659152391E+02  0.00000000000E+00 0. -1.
         11    1    3    3    0    0 -0.42621398501E+00 -0.92198615344E+00 -0.29329180678E+01  0.31038243316E+01  0.51100000000E-03 0. -1.
        -11    1    3    3    0    0  0.18071224962E+02  0.13844818013E+02 -0.34878956317E+02  0.41650807333E+02  0.51100000000E-03 0.  1.
         12    1    3    3    0    0  0.18175033542E+01  0.16540143384E+01  0.52251782654E+01  0.57742159450E+01  0.00000000000E+00 0. -1.
</event>
<event>
 7    1  0.2744502E-011  0.5052886E+02  0.7816164E-02  0.1300439E+00
        -11   -1    0    0    0    0  0.00000000000E+00  0.00000000000E+00  0.45593999997E+02  0.45594000000E+02  0.51100000000E-03 0. -1.
         11   -1    0    0    0    0 -0.00000000000E+00 -0.00000000000E+00 -0.45593999997E+02  0.45594000000E+02  0.51100000000E-03 0.  1.
    9900012    2    1    2    0    0  0.44810282737E+01  0.40294774921E+02 -0.30687457248E+01  0.50528859569E+02  0.29999999145E+02 0.  0.
         12    1    1    2    0    0 -0.44810282737E+01 -0.40294774921E+02  0.30687457248E+01  0.40659140431E+02  0.00000000000E+00 0. -1.
         11    1    3    3    0    0  0.11826050201E+01  0.74570703544E+01  0.44482353020E+01  0.87631758209E+01  0.51100000000E-03 0. -1.
        -11    1    3    3    0    0 -0.84129700656E+01  0.22995331184E+02  0.50660725477E+00  0.24491222362E+02  0.51100000000E-03 0.  1.
        -12    1    3    3    0    0  0.11711393319E+02  0.98423733819E+01 -0.80235882816E+01  0.17274461386E+02  0.00000000000E+00 0.  1.
</event>
<event>
 7    1  0.2744502E-011  0.5052887E+02  0.7816164E-02  0.1300439E+00
        -11   -1    0    0    0    0  0.00000000000E+00  0.00000000000E+00  0.45593999997E+02  0.45594000000E+02  0.51100000000E-03 0.  1.
         11   -1    0    0    0    0 -0.00000000000E+00 -0.00000000000E+00 -0.45593999997E+02  0.45594000000E+02  0.51100000000E-03 0. -1.
    9900012    2    1    2    0    0  0.32900697887E+02 -0.18633187438E+02  0.14950365725E+02  0.50528867805E+02  0.30000024180E+02 0.  0.
         12    1    1    2    0    0 -0.32900697887E+02  0.18633187438E+02 -0.14950365725E+02  0.40659132195E+02  0.00000000000E+00 0. -1.
         11    1    3    3    0    0  0.12901431067E+02  0.37401444095E+01  0.53070000900E+01  0.14442986326E+02  0.51100000000E-03 0. -1.
        -11    1    3    3    0    0 -0.18609898247E+01 -0.59286422855E+01 -0.17460606199E+01  0.64545186054E+01  0.51100000000E-03 0.  1.
        -12    1    3    3    0    0  0.21860256644E+02 -0.16444689562E+02  0.11389426255E+02  0.29631362874E+02  0.00000000000E+00 0.  1.
</event>
<event>
 7    1  0.2744502E-011  0.5052887E+02  0.7816164E-02  0.1300439E+00
        -11   -1    0    0    0    0  0.00000000000E+00  0.00000000000E+00  0.45593999997E+02  0.45594000000E+02  0.51100000000E-03 0.  1.
         11   -1    0    0    0    0 -0.00000000000E+00 -0.00000000000E+00 -0.45593999997E+02  0.45594000000E+02  0.51100000000E-03 0. -1.
    9900012    2    1    2    0    0 -0.27291188486E+02 -0.12046326731E+02  0.27626835654E+02  0.50528868124E+02  0.30000025149E+02 0.  0.
         12    1    1    2    0    0  0.27291188486E+02  0.12046326731E+02 -0.27626835654E+02  0.40659131876E+02  0.00000000000E+00 0. -1.
         11    1    3    3    0    0 -0.16380231724E+01  0.52829247158E+01  0.11373317101E+02  0.12646926726E+02  0.51100000000E-03 0. -1.
        -11    1    3    3    0    0 -0.41261491343E+01 -0.27106540300E+01  0.99506700167E+01  0.11108041501E+02  0.51100000000E-03 0.  1.
         12    1    3    3    0    0 -0.21527016179E+02 -0.14618597417E+02  0.63028485360E+01  0.26773899897E+02  0.00000000000E+00 0. -1.
</event>
<event>
 7    1  0.2744502E-011  0.5052885E+02  0.7816164E-02  0.1300439E+00
        -11   -1    0    0    0    0  0.00000000000E+00  0.00000000000E+00  0.45593999997E+02  0.45594000000E+02  0.51100000000E-03 0.  1.
         11   -1    0    0    0    0 -0.00000000000E+00 -0.00000000000E+00 -0.45593999997E+02  0.45594000000E+02  0.51100000000E-03 0. -1.
    9900012    2    1    2    0    0 -0.17503863260E+02 -0.36005906068E+02  0.70962114514E+01  0.50528847060E+02  0.29999961123E+02 0.  0.
         12    1    1    2    0    0  0.17503863260E+02  0.36005906068E+02 -0.70962114514E+01  0.40659152940E+02  0.00000000000E+00 0. -1.
         11    1    3    3    0    0  0.16038521192E+01 -0.10481941633E+02  0.12689511899E+01  0.10679591724E+02  0.51100000000E-03 0. -1.
        -11    1    3    3    0    0  0.25687956978E+01 -0.18967782931E+01 -0.50632165505E+01  0.59860371974E+01  0.51100000000E-03 0.  1.
        -12    1    3    3    0    0 -0.21676511077E+02 -0.23627186143E+02  0.10890476812E+02  0.33863218139E+02  0.00000000000E+00 0.  1.
</event>
<event>
 7    1  0.2744502E-011  0.5052886E+02  0.7816164E-02  0.1300439E+00
        -11   -1    0    0    0    0  0.00000000000E+00  0.00000000000E+00  0.45593999997E+02  0.45594000000E+02  0.51100000000E-03 0.  1.
         11   -1    0    0    0    0 -0.00000000000E+00 -0.00000000000E+00 -0.45593999997E+02  0.45594000000E+02  0.51100000000E-03 0. -1.
    9900012    2    1    2    0    0 -0.85914568832E+01  0.37500203449E+02  0.13156267471E+02  0.50528858791E+02  0.29999996781E+02 0.  0.
         12    1    1    2    0    0  0.85914568832E+01 -0.37500203449E+02 -0.13156267471E+02  0.40659141209E+02  0.00000000000E+00 0. -1.
         11    1    3    3    0    0 -0.27199997934E+01  0.23336205219E+01 -0.19261387526E+01  0.40686845997E+01  0.51100000000E-03 0. -1.
        -11    1    3    3    0    0 -0.32295515274E+01  0.27445622724E+02 -0.18159529640E+01  0.27694582416E+02  0.51100000000E-03 0.  1.
        -12    1    3    3    0    0 -0.26419055623E+01  0.77209602035E+01  0.16898359187E+02  0.18765591776E+02  0.00000000000E+00 0.  1.
</event>
<event>
 7    1  0.2744502E-011  0.5052887E+02  0.7816164E-02  0.1300439E+00
        -11   -1    0    0    0    0  0.00000000000E+00  0.00000000000E+00  0.45593999997E+02  0.45594000000E+02  0.51100000000E-03 0.  1.
         11   -1    0    0    0    0 -0.00000000000E+00 -0.00000000000E+00 -0.45593999997E+02  0.45594000000E+02  0.51100000000E-03 0. -1.
    9900012    2    1    2    0    0 -0.27520944647E+02 -0.16467760311E+02  0.24991501736E+02  0.50528872083E+02  0.30000037184E+02 0.  0.
         12    1    1    2    0    0  0.27520944647E+02  0.16467760311E+02 -0.24991501736E+02  0.40659127917E+02  0.00000000000E+00 0. -1.
         11    1    3    3    0    0 -0.12126481825E+02 -0.14723273338E+01  0.16511179505E+02  0.20538703907E+02  0.51100000000E-03 0. -1.
        -11    1    3    3    0    0 -0.14131458618E+02 -0.13447441134E+01  0.79523164072E+01  0.16271010906E+02  0.51100000000E-03 0.  1.
         12    1    3    3    0    0 -0.12630042037E+01 -0.13650688864E+02  0.52800582385E+00  0.13719157271E+02  0.00000000000E+00 0. -1.
</event>
<event>
 7    1  0.2744502E-011  0.5052886E+02  0.7816164E-02  0.1300439E+00
        -11   -1    0    0    0    0  0.00000000000E+00  0.00000000000E+00  0.45593999997E+02  0.45594000000E+02  0.51100000000E-03 0.  1.
         11   -1    0    0    0    0 -0.00000000000E+00 -0.00000000000E+00 -0.45593999997E+02  0.45594000000E+02  0.51100000000E-03 0. -1.
    9900012    2    1    2    0    0  0.35038007586E+02 -0.38967762011E+01  0.20256318872E+02  0.50528864562E+02  0.30000014323E+02 0.  0.
         12    1    1    2    0    0 -0.35038007586E+02  0.38967762011E+01 -0.20256318872E+02  0.40659135438E+02  0.00000000000E+00 0. -1.
         11    1    3    3    0    0  0.66043054182E+00  0.13039412096E+01  0.70255592091E+01  0.71759956550E+01  0.51100000000E-03 0. -1.
        -11    1    3    3    0    0  0.12786346776E+02 -0.52530443948E+01  0.16489356155E+02  0.21517063135E+02  0.51100000000E-03 0.  1.
         12    1    3    3    0    0  0.21591230268E+02  0.52326984158E-01 -0.32585964930E+01  0.21835805772E+02  0.00000000000E+00 0. -1.
</event>
<event>
 7    1  0.2744502E-011  0.5052887E+02  0.7816164E-02  0.1300439E+00
        -11   -1    0    0    0    0  0.00000000000E+00  0.00000000000E+00  0.45593999997E+02  0.45594000000E+02  0.51100000000E-03 0.  1.
         11   -1    0    0    0    0 -0.00000000000E+00 -0.00000000000E+00 -0.45593999997E+02  0.45594000000E+02  0.51100000000E-03 0. -1.
    9900012    2    1    2    0    0  0.79547225945E+01  0.40472836024E+01  0.39667450494E+02  0.50528871323E+02  0.30000034873E+02 0.  0.
         12    1    1    2    0    0 -0.79547225945E+01 -0.40472836024E+01 -0.39667450494E+02  0.40659128677E+02  0.00000000000E+00 0. -1.
         11    1    3    3    0    0  0.25394956642E+01  0.41769157300E+01  0.20769784514E+02  0.21337282214E+02  0.51100000000E-03 0. -1.
        -11    1    3    3    0    0  0.45627255336E+01  0.96727458472E+00  0.23719446572E+02  0.24173668120E+02  0.51100000000E-03 0.  1.
         12    1    3    3    0    0  0.85250139674E+00 -0.10969067123E+01 -0.48217805929E+01  0.50179209891E+01  0.00000000000E+00 0. -1.
</event>
<event>
 7    1  0.2744502E-011  0.5052885E+02  0.7816164E-02  0.1300439E+00
        -11   -1    0    0    0    0  0.00000000000E+00  0.00000000000E+00  0.45593999997E+02  0.45594000000E+02  0.51100000000E-03 0.  1.
         11   -1    0    0    0    0 -0.00000000000E+00 -0.00000000000E+00 -0.45593999997E+02  0.45594000000E+02  0.51100000000E-03 0. -1.
    9900012    2    1    2    0    0 -0.18756842127E+02 -0.29744319253E+02  0.20411343376E+02  0.50528848597E+02  0.29999965795E+02 0.  0.
         12    1    1    2    0    0  0.18756842127E+02  0.29744319253E+02 -0.20411343376E+02  0.40659151403E+02  0.00000000000E+00 0. -1.
         11    1    3    3    0    0 -0.82839294965E+01 -0.22064164873E+00  0.13935709217E+02  0.16213456210E+02  0.51100000000E-03 0. -1.
        -11    1    3    3    0    0 -0.36064633268E+01 -0.16484595141E+01  0.37838427088E+01  0.54810092504E+01  0.51100000000E-03 0.  1.
         12    1    3    3    0    0 -0.68664493033E+01 -0.27875218091E+02  0.26917914506E+01  0.28834383136E+02  0.00000000000E+00 0. -1.
</event>
<event>
 7    1  0.2744502E-011  0.5052886E+02  0.7816164E-02  0.1300439E+00
        -11   -1    0    0    0    0  0.00000000000E+00  0.00000000000E+00  0.45593999997E+02  0.45594000000E+02  0.51100000000E-03 0. -1.
         11   -1    0    0    0    0 -0.00000000000E+00 -0.00000000000E+00 -0.45593999997E+02  0.45594000000E+02  0.51100000000E-03 0.  1.
    9900012    2    1    2    0    0  0.23234998084E+02 -0.84263779194E+01 -0.32284624435E+02  0.50528856432E+02  0.29999989610E+02 0.  0.
         12    1    1    2    0    0 -0.23234998084E+02  0.84263779194E+01  0.32284624435E+02  0.40659143568E+02  0.00000000000E+00 0. -1.
         11    1    3    3    0    0 -0.11646083596E+01  0.54661966545E+01 -0.17804003636E+01  0.58656154164E+01  0.51100000000E-03 0. -1.
        -11    1    3    3    0    0  0.56994361114E+01  0.37872780149E+01 -0.54672577617E+01  0.87588786066E+01  0.51100000000E-03 0.  1.
        -12    1    3    3    0    0  0.18700170332E+02 -0.17679852589E+02 -0.25036966309E+02  0.35904362409E+02  0.00000000000E+00 0.  1.
</event>
<event>
 7    1  0.2744502E-011  0.5052886E+02  0.7816164E-02  0.1300439E+00
        -11   -1    0    0    0    0  0.00000000000E+00  0.00000000000E+00  0.45593999997E+02  0.45594000000E+02  0.51100000000E-03 0.  1.
         11   -1    0    0    0    0 -0.00000000000E+00 -0.00000000000E+00 -0.45593999997E+02  0.45594000000E+02  0.51100000000E-03 0. -1.
    9900012    2    1    2    0    0  0.35521361579E+02 -0.18210089324E+02  0.77324907828E+01  0.50528857174E+02  0.29999991867E+02 0.  0.
         12    1    1    2    0    0 -0.35521361579E+02  0.18210089324E+02 -0.77324907828E+01  0.40659142826E+02  0.00000000000E+00 0. -1.
         11    1    3    3    0    0 -0.31843283870E+01 -0.53815215919E+01  0.51006957847E+01  0.80695613059E+01  0.51100000000E-03 0. -1.
        -11    1    3    3    0    0  0.13920956646E+02 -0.64345346784E+01  0.63417551305E+01  0.16595605709E+02  0.51100000000E-03 0.  1.
        -12    1    3    3    0    0  0.24784733320E+02 -0.63940330534E+01 -0.37099601324E+01  0.25863690159E+02  0.00000000000E+00 0.  1.
</event>
<event>
 7    1  0.2744502E-011  0.5052884E+02  0.7816164E-02  0.1300439E+00
        -11   -1    0    0    0    0  0.00000000000E+00  0.00000000000E+00  0.45593999997E+02  0.45594000000E+02  0.51100000000E-03 0.  1.
         11   -1    0    0    0    0 -0.00000000000E+00 -0.00000000000E+00 -0.45593999997E+02  0.45594000000E+02  0.51100000000E-03 0. -1.
    9900012    2    1    2    0    0 -0.26902476222E+02 -0.25620398043E+02  0.16523283897E+02  0.50528844408E+02  0.29999953061E+02 0.  0.
         12    1    1    2    0    0  0.26902476222E+02  0.25620398043E+02 -0.16523283897E+02  0.40659155592E+02  0.00000000000E+00 0. -1.
         11    1    3    3    0    0 -0.24717712721E+01 -0.78247901993E+01 -0.19905340781E+01  0.84438866088E+01  0.51100000000E-03 0. -1.
        -11    1    3    3    0    0 -0.55881978553E+01 -0.13491571480E+02  0.17412981868E+02  0.22725808986E+02  0.51100000000E-03 0.  1.
         12    1    3    3    0    0 -0.18842507094E+02 -0.43040363629E+01  0.11008361075E+01  0.19359148813E+02  0.00000000000E+00 0. -1.
</event>
<event>
 7    1  0.2744502E-011  0.5052885E+02  0.7816164E-02  0.1300439E+00
        -11   -1    0    0    0    0  0.00000000000E+00  0.00000000000E+00  0.45593999997E+02  0.45594000000E+02  0.51100000000E-03 0. -1.
         11   -1    0    0    0    0 -0.00000000000E+00 -0.00000000000E+00 -0.45593999997E+02  0.45594000000E+02  0.51100000000E-03 0.  1.
    9900012    2    1    2    0    0  0.40262685992E+02  0.56121276505E+01 -0.76607779044E+00  0.50528846846E+02  0.29999960472E+02 0.  0.
         12    1    1    2    0    0 -0.40262685992E+02 -0.56121276505E+01  0.76607779044E+00  0.40659153154E+02  0.00000000000E+00 0. -1.
         11    1    3    3    0    0  0.20878270129E+02  0.25594595253E+01  0.60527426929E+01  0.21888094732E+02  0.51100000000E-03 0.  1.
        -11    1    3    3    0    0  0.17368400782E+02 -0.48726530457E+01 -0.71976065561E-01  0.18039104031E+02  0.51100000000E-03 0. -1.
         12    1    3    3    0    0  0.20160150808E+01  0.79253211709E+01 -0.67468444178E+01  0.10601648082E+02  0.00000000000E+00 0. -1.
</event>
<event>
 7    1  0.2744502E-011  0.5052891E+02  0.7816164E-02  0.1300439E+00
        -11   -1    0    0    0    0  0.00000000000E+00  0.00000000000E+00  0.45593999997E+02  0.45594000000E+02  0.51100000000E-03 0.  1.
         11   -1    0    0    0    0 -0.00000000000E+00 -0.00000000000E+00 -0.45593999997E+02  0.45594000000E+02  0.51100000000E-03 0. -1.
    9900012    2    1    2    0    0  0.69180035023E+01  0.57797617218E+01  0.39647157660E+02  0.50528910874E+02  0.30000155093E+02 0.  0.
         12    1    1    2    0    0 -0.69180035023E+01 -0.57797617218E+01 -0.39647157660E+02  0.40659089126E+02  0.00000000000E+00 0. -1.
         11    1    3    3    0    0  0.41502312644E+01  0.19442460180E+01  0.20480664620E+01  0.50198693828E+01  0.51100000000E-03 0. -1.
        -11    1    3    3    0    0  0.12560408268E+02 -0.36151914795E+01  0.22612322061E+02  0.26118012454E+02  0.51100000000E-03 0.  1.
        -12    1    3    3    0    0 -0.97926360304E+01  0.74507071833E+01  0.14986769137E+02  0.19391029037E+02  0.00000000000E+00 0.  1.
</event>
<event>
 7    1  0.2744502E-011  0.5052884E+02  0.7816164E-02  0.1300439E+00
        -11   -1    0    0    0    0  0.00000000000E+00  0.00000000000E+00  0.45593999997E+02  0.45594000000E+02  0.51100000000E-03 0.  1.
         11   -1    0    0    0    0 -0.00000000000E+00 -0.00000000000E+00 -0.45593999997E+02  0.45594000000E+02  0.51100000000E-03 0. -1.
    9900012    2    1    2    0    0  0.30962594457E+02 -0.12416303597E+02  0.23244797362E+02  0.50528837995E+02  0.29999933570E+02 0.  0.
         12    1    1    2    0    0 -0.30962594457E+02  0.12416303597E+02 -0.23244797362E+02  0.40659162005E+02  0.00000000000E+00 0. -1.
         11    1    3    3    0    0 -0.26981407756E+01 -0.66938290054E+01  0.25371324437E+01  0.76501210249E+01  0.51100000000E-03 0. -1.
        -11    1    3    3    0    0  0.10901703887E+02 -0.95151689248E+01  0.76791338006E+01  0.16381534834E+02  0.51100000000E-03 0.  1.
         12    1    3    3    0    0  0.22759031345E+02  0.37926943333E+01  0.13028531118E+02  0.26497182137E+02  0.00000000000E+00 0. -1.
</event>
<event>
 7    1  0.2744502E-011  0.5052879E+02  0.7816164E-02  0.1300439E+00
        -11   -1    0    0    0    0  0.00000000000E+00  0.00000000000E+00  0.45593999997E+02  0.45594000000E+02  0.51100000000E-03 0. -1.
         11   -1    0    0    0    0 -0.00000000000E+00 -0.00000000000E+00 -0.45593999997E+02  0.45594000000E+02  0.51100000000E-03 0.  1.
    9900012    2    1    2    0    0  0.36624269520E+02  0.15609835875E+02 -0.82563458036E+01  0.50528790220E+02  0.29999788352E+02 0.  0.
         12    1    1    2    0    0 -0.36624269520E+02 -0.15609835875E+02  0.82563458036E+01  0.40659209780E+02  0.00000000000E+00 0. -1.
         11    1    3    3    0    0 -0.21617815113E+01 -0.27262401081E+01 -0.41119739010E+01  0.53864658222E+01  0.51100000000E-03 0. -1.
        -11    1    3    3    0    0  0.17820843548E+02  0.24368291943E+01  0.20727339957E+01  0.18105712572E+02  0.51100000000E-03 0.  1.
        -12    1    3    3    0    0  0.20965207484E+02  0.15899246788E+02 -0.62171058983E+01  0.27036611826E+02  0.00000000000E+00 0.  1.
</event>
<event>
 7    1  0.2744502E-011  0.5052888E+02  0.7816164E-02  0.1300439E+00
        -11   -1    0    0    0    0  0.00000000000E+00  0.00000000000E+00  0.45593999997E+02  0.45594000000E+02  0.51100000000E-03 0.  1.
         11   -1    0    0    0    0 -0.00000000000E+00 -0.00000000000E+00 -0.45593999997E+02  0.45594000000E+02  0.51100000000E-03 0. -1.
    9900012    2    1    2    0    0 -0.11136097220E+02  0.36617790355E+02 -0.13721830656E+02  0.50528882101E+02  0.30000067633E+02 0.  0.
         12    1    1    2    0    0  0.11136097220E+02 -0.36617790355E+02  0.13721830656E+02  0.40659117899E+02  0.00000000000E+00 0. -1.
         11    1    3    3    0    0  0.23172378562E+01 -0.10342969663E+01 -0.30141944197E+01  0.39401433677E+01  0.51100000000E-03 0.  1.
        -11    1    3    3    0    0  0.15169685219E+01  0.21323073346E+02 -0.11784042958E+02  0.24409799654E+02  0.51100000000E-03 0. -1.
        -12    1    3    3    0    0 -0.14970303599E+02  0.16329013976E+02  0.10764067224E+01  0.22178939079E+02  0.00000000000E+00 0.  1.
</event>
<event>
 7    1  0.2744502E-011  0.5052885E+02  0.7816164E-02  0.1300439E+00
        -11   -1    0    0    0    0  0.00000000000E+00  0.00000000000E+00  0.45593999997E+02  0.45594000000E+02  0.51100000000E-03 0.  1.
         11   -1    0    0    0    0 -0.00000000000E+00 -0.00000000000E+00 -0.45593999997E+02  0.45594000000E+02  0.51100000000E-03 0. -1.
    9900012    2    1    2    0    0 -0.37412892696E+02 -0.79187790276E+01  0.13810666585E+02  0.50528854502E+02  0.29999983743E+02 0.  0.
         12    1    1    2    0    0  0.37412892696E+02  0.79187790276E+01 -0.13810666585E+02  0.40659145498E+02  0.00000000000E+00 0. -1.
         11    1    3    3    0    0 -0.18921194428E+02 -0.88433780050E+01  0.15414275214E+02  0.25957981696E+02  0.51100000000E-03 0. -1.
        -11    1    3    3    0    0 -0.68563869469E+01 -0.66910201213E+01  0.28056055270E+01  0.99825455102E+01  0.51100000000E-03 0.  1.
        -12    1    3    3    0    0 -0.11635311321E+02  0.76156190988E+01 -0.44092141563E+01  0.14588327295E+02  0.00000000000E+00 0.  1.
</event>
<event>
 7    1  0.2744502E-011  0.5052886E+02  0.7816164E-02  0.1300439E+00
        -11   -1    0    0    0    0  0.00000000000E+00  0.00000000000E+00  0.45593999997E+02  0.45594000000E+02  0.51100000000E-03 0.  1.
         11   -1    0    0    0    0 -0.00000000000E+00 -0.00000000000E+00 -0.45593999997E+02  0.45594000000E+02  0.51100000000E-03 0. -1.
    9900012    2    1    2    0    0 -0.21582449147E+02 -0.32548661523E+02  0.11311417400E+02  0.50528860292E+02  0.30000001345E+02 0.  0.
         12    1    1    2    0    0  0.21582449147E+02  0.32548661523E+02 -0.11311417400E+02  0.40659139708E+02  0.00000000000E+00 0. -1.
         11    1    3    3    0    0 -0.23985880346E+02 -0.14194754579E+02  0.33029891372E+01  0.28066407875E+02  0.51100000000E-03 0. -1.
        -11    1    3    3    0    0 -0.11232355665E+01 -0.83921200155E+00 -0.16398035859E+01  0.21575196367E+01  0.51100000000E-03 0.  1.
        -12    1    3    3    0    0  0.35266667649E+01 -0.17514694943E+02  0.96482318482E+01  0.20304932781E+02  0.00000000000E+00 0.  1.
</event>
<event>
 7    1  0.2744502E-011  0.5052887E+02  0.7816164E-02  0.1300439E+00
        -11   -1    0    0    0    0  0.00000000000E+00  0.00000000000E+00  0.45593999997E+02  0.45594000000E+02  0.51100000000E-03 0. -1.
         11   -1    0    0    0    0 -0.00000000000E+00 -0.00000000000E+00 -0.45593999997E+02  0.45594000000E+02  0.51100000000E-03 0.  1.
    9900012    2    1    2    0    0  0.24839273184E+02  0.31972532601E+02  0.37326285305E+01  0.50528870042E+02  0.30000030979E+02 0.  0.
         12    1    1    2    0    0 -0.24839273184E+02 -0.31972532601E+02 -0.37326285305E+01  0.40659129958E+02  0.00000000000E+00 0. -1.
         11    1    3    3    0    0  0.20362758554E+02  0.10234025463E+02  0.45301179796E+01  0.23235730724E+02  0.51100000000E-03 0. -1.
        -11    1    3    3    0    0  0.94744754871E+01  0.71890353034E+01 -0.58861293778E+00  0.11907744530E+02  0.51100000000E-03 0.  1.
         12    1    3    3    0    0 -0.49979608567E+01  0.14549471834E+02 -0.20887651131E+00  0.15385394788E+02  0.00000000000E+00 0. -1.
</event>
<event>
 7    1  0.2744502E-011  0.5052885E+02  0.7816164E-02  0.1300439E+00
        -11   -1    0    0    0    0  0.00000000000E+00  0.00000000000E+00  0.45593999997E+02  0.45594000000E+02  0.51100000000E-03 0. -1.
         11   -1    0    0    0    0 -0.00000000000E+00 -0.00000000000E+00 -0.45593999997E+02  0.45594000000E+02  0.51100000000E-03 0.  1.
    9900012    2    1    2    0    0  0.40412290155E+02 -0.29157686091E+01  0.33928850847E+01  0.50528848861E+02  0.29999966597E+02 0.  0.
         12    1    1    2    0    0 -0.40412290155E+02  0.29157686091E+01 -0.33928850847E+01  0.40659151139E+02  0.00000000000E+00 0. -1.
         11    1    3    3    0    0  0.16719509010E+02  0.30055917039E+01 -0.14713900029E+01  0.17051115852E+02  0.51100000000E-03 0. -1.
        -11    1    3    3    0    0  0.18934234506E+02  0.43277277708E+01  0.90500374784E+01  0.21427497349E+02  0.51100000000E-03 0.  1.
        -12    1    3    3    0    0  0.47585466391E+01 -0.10249088084E+02 -0.41857623907E+01  0.12050235660E+02  0.00000000000E+00 0.  1.
</event>
<event>
 7    1  0.2744502E-011  0.5052886E+02  0.7816164E-02  0.1300439E+00
        -11   -1    0    0    0    0  0.00000000000E+00  0.00000000000E+00  0.45593999997E+02  0.45594000000E+02  0.51100000000E-03 0. -1.
         11   -1    0    0    0    0 -0.00000000000E+00 -0.00000000000E+00 -0.45593999997E+02  0.45594000000E+02  0.51100000000E-03 0.  1.
    9900012    2    1    2    0    0 -0.38552902406E+02  0.12513969724E+02 -0.31999293885E+01  0.50528864861E+02  0.30000015232E+02 0.  0.
         12    1    1    2    0    0  0.38552902406E+02 -0.12513969724E+02  0.31999293885E+01  0.40659135139E+02  0.00000000000E+00 0. -1.
         11    1    3    3    0    0 -0.14406007107E+02  0.63887905770E+01 -0.48033886139E+01  0.16474896911E+02  0.51100000000E-03 0. -1.
        -11    1    3    3    0    0 -0.14225588284E+02  0.56896661458E+01 -0.10368014909E+02  0.18499605301E+02  0.51100000000E-03 0.  1.
         12    1    3    3    0    0 -0.99213070149E+01  0.43551300074E+00  0.11971474135E+02  0.15554362649E+02  0.00000000000E+00 0. -1.
</event>
<event>
 7    1  0.2744502E-011  0.5052886E+02  0.7816164E-02  0.1300439E+00
        -11   -1    0    0    0    0  0.00000000000E+00  0.00000000000E+00  0.45593999997E+02  0.45594000000E+02  0.51100000000E-03 0. -1.
         11   -1    0    0    0    0 -0.00000000000E+00 -0.00000000000E+00 -0.45593999997E+02  0.45594000000E+02  0.51100000000E-03 0.  1.
    9900012    2    1    2    0    0  0.14663175079E+02  0.32599088081E+02 -0.19376694892E+02  0.50528861396E+02  0.30000004698E+02 0.  0.
         12    1    1    2    0    0 -0.14663175079E+02 -0.32599088081E+02  0.19376694892E+02  0.40659138604E+02  0.00000000000E+00 0. -1.
         11    1    3    3    0    0 -0.59911955026E+01  0.14217831748E+02 -0.10153843046E+02  0.18470021442E+02  0.51100000000E-03 0. -1.
        -11    1    3    3    0    0  0.10307315477E+02  0.10036879864E+01 -0.17794266799E+01  0.10507830484E+02  0.51100000000E-03 0.  1.
        -12    1    3    3    0    0  0.10347055105E+02  0.17377568346E+02 -0.74434251655E+01  0.21551009470E+02  0.00000000000E+00 0.  1.
</event>
<event>
 7    1  0.2744502E-011  0.5052885E+02  0.7816164E-02  0.1300439E+00
        -11   -1    0    0    0    0  0.00000000000E+00  0.00000000000E+00  0.45593999997E+02  0.45594000000E+02  0.51100000000E-03 0.  1.
         11   -1    0    0    0    0 -0.00000000000E+00 -0.00000000000E+00 -0.45593999997E+02  0.45594000000E+02  0.51100000000E-03 0. -1.
    9900012    2    1    2    0    0  0.31312623571E+02  0.25481040189E+02  0.48376452491E+01  0.50528848317E+02  0.29999964945E+02 0.  0.
         12    1    1    2    0    0 -0.31312623571E+02 -0.25481040189E+02 -0.48376452491E+01  0.40659151683E+02  0.00000000000E+00 0. -1.
         11    1    3    3    0    0  0.31683321529E+01  0.67902683664E+01 -0.46648529096E+01  0.88264900186E+01  0.51100000000E-03 0. -1.
        -11    1    3    3    0    0  0.14498539195E+02  0.20196058943E+02  0.12228129296E+02  0.27705876307E+02  0.51100000000E-03 0.  1.
         12    1    3    3    0    0  0.13645752223E+02 -0.15052871202E+01 -0.27256311370E+01  0.13996481992E+02  0.00000000000E+00 0. -1.
</event>
<event>
 7    1  0.2744502E-011  0.5052886E+02  0.7816164E-02  0.1300439E+00
        -11   -1    0    0    0    0  0.00000000000E+00  0.00000000000E+00  0.45593999997E+02  0.45594000000E+02  0.51100000000E-03 0.  1.
         11   -1    0    0    0    0 -0.00000000000E+00 -0.00000000000E+00 -0.45593999997E+02  0.45594000000E+02  0.51100000000E-03 0. -1.
    9900012    2    1    2    0    0  0.11285061696E+01  0.92438016103E+00  0.40632962966E+02  0.50528859769E+02  0.29999999755E+02 0.  0.
         12    1    1    2    0    0 -0.11285061696E+01 -0.92438016103E+00 -0.40632962966E+02  0.40659140231E+02  0.00000000000E+00 0. -1.
         11    1    3    3    0    0  0.49585760887E+01  0.15134684009E+00  0.10979183087E+02  0.12047939418E+02  0.51100000000E-03 0. -1.
        -11    1    3    3    0    0  0.27063189192E+01 -0.10772581967E+02  0.15640967066E+02  0.19183652815E+02  0.51100000000E-03 0.  1.
        -12    1    3    3    0    0 -0.65363888384E+01  0.11545615288E+02  0.14012812814E+02  0.19297267537E+02  0.00000000000E+00 0.  1.
</event>
<event>
 7    1  0.2744502E-011  0.5052886E+02  0.7816164E-02  0.1300439E+00
        -11   -1    0    0    0    0  0.00000000000E+00  0.00000000000E+00  0.45593999997E+02  0.45594000000E+02  0.51100000000E-03 0.  1.
         11   -1    0    0    0    0 -0.00000000000E+00 -0.00000000000E+00 -0.45593999997E+02  0.45594000000E+02  0.51100000000E-03 0. -1.
    9900012    2    1    2    0    0 -0.18287892092E+02 -0.36271398911E+02 -0.17619341190E+01  0.50528858494E+02  0.29999995880E+02 0.  0.
         12    1    1    2    0    0  0.18287892092E+02  0.36271398911E+02  0.17619341190E+01  0.40659141506E+02  0.00000000000E+00 0. -1.
         11    1    3    3    0    0 -0.56466532182E+00 -0.19147250479E+01  0.22902018906E+01  0.30380987303E+01  0.51100000000E-03 0. -1.
        -11    1    3    3    0    0 -0.24876929062E+02 -0.24712587814E+02 -0.90247489830E+00  0.35076887793E+02  0.51100000000E-03 0.  1.
        -12    1    3    3    0    0  0.71537022920E+01 -0.96440860488E+01 -0.31496611113E+01  0.12413871971E+02  0.00000000000E+00 0.  1.
</event>
<event>
 7    1  0.2744502E-011  0.5052886E+02  0.7816164E-02  0.1300439E+00
        -11   -1    0    0    0    0  0.00000000000E+00  0.00000000000E+00  0.45593999997E+02  0.45594000000E+02  0.51100000000E-03 0. -1.
         11   -1    0    0    0    0 -0.00000000000E+00 -0.00000000000E+00 -0.45593999997E+02  0.45594000000E+02  0.51100000000E-03 0.  1.
    9900012    2    1    2    0    0 -0.31268839426E+01 -0.24757794250E+02  0.32100465769E+02  0.50528859799E+02  0.29999999844E+02 0.  0.
         12    1    1    2    0    0  0.31268839426E+01  0.24757794250E+02 -0.32100465769E+02  0.40659140201E+02  0.00000000000E+00 0. -1.
         11    1    3    3    0    0  0.31829400232E+01 -0.61758067710E+01  0.90093644285E+01  0.11377185246E+02  0.51100000000E-03 0. -1.
        -11    1    3    3    0    0  0.61881118445E+00 -0.21635666913E+02  0.22994999551E+02  0.31579344747E+02  0.51100000000E-03 0.  1.
         12    1    3    3    0    0 -0.69286351503E+01  0.30536794339E+01  0.96101789912E-01  0.75723298056E+01  0.00000000000E+00 0. -1.
</event>
<event>
 7    1  0.2744502E-011  0.5052886E+02  0.7816164E-02  0.1300439E+00
        -11   -1    0    0    0    0  0.00000000000E+00  0.00000000000E+00  0.45593999997E+02  0.45594000000E+02  0.51100000000E-03 0. -1.
         11   -1    0    0    0    0 -0.00000000000E+00 -0.00000000000E+00 -0.45593999997E+02  0.45594000000E+02  0.51100000000E-03 0.  1.
    9900012    2    1    2    0    0 -0.14409147841E+02 -0.37073345374E+02  0.84326244628E+01  0.50528860387E+02  0.30000001632E+02 0.  0.
         12    1    1    2    0    0  0.14409147841E+02  0.37073345374E+02 -0.84326244628E+01  0.40659139613E+02  0.00000000000E+00 0. -1.
         11    1    3    3    0    0 -0.13845332114E+02 -0.10771953417E+02  0.15462795638E+01  0.17610201092E+02  0.51100000000E-03 0. -1.
        -11    1    3    3    0    0 -0.28792209023E+01  0.21675207364E+01  0.11725832115E+01  0.37898563028E+01  0.51100000000E-03 0.  1.
        -12    1    3    3    0    0  0.23154051758E+01 -0.28468912694E+02  0.57137616875E+01  0.29128802992E+02  0.00000000000E+00 0.  1.
</event>
<event>
 7    1  0.2744502E-011  0.5052886E+02  0.7816164E-02  0.1300439E+00
        -11   -1    0    0    0    0  0.00000000000E+00  0.00000000000E+00  0.45593999997E+02  0.45594000000E+02  0.51100000000E-03 0. -1.
         11   -1    0    0    0    0 -0.00000000000E+00 -0.00000000000E+00 -0.45593999997E+02  0.45594000000E+02  0.51100000000E-03 0.  1.
    9900012    2    1    2    0    0 -0.14740269219E+01  0.17212129844E+02 -0.36806730345E+02  0.50528861201E+02  0.30000004108E+02 0.  0.
         12    1    1    2    0    0  0.14740269219E+01 -0.17212129844E+02  0.36806730345E+02  0.40659138799E+02  0.00000000000E+00 0. -1.
         11    1    3    3    0    0 -0.45954590864E+01 -0.23759144466E+01 -0.21257192758E+02  0.21877647449E+02  0.51100000000E-03 0. -1.
        -11    1    3    3    0    0 -0.49865368728E+01  0.11850254061E+02 -0.83662497337E+01  0.15339107085E+02  0.51100000000E-03 0.  1.
        -12    1    3    3    0    0  0.81079690373E+01  0.77377902291E+01 -0.71832878534E+01  0.13312106667E+02  0.00000000000E+00 0.  1.
</event>
<event>
 7    1  0.2744502E-011  0.5052886E+02  0.7816164E-02  0.1300439E+00
        -11   -1    0    0    0    0  0.00000000000E+00  0.00000000000E+00  0.45593999997E+02  0.45594000000E+02  0.51100000000E-03 0.  1.
         11   -1    0    0    0    0 -0.00000000000E+00 -0.00000000000E+00 -0.45593999997E+02  0.45594000000E+02  0.51100000000E-03 0. -1.
    9900012    2    1    2    0    0  0.14311205242E+01  0.28856390879E+02  0.28608151309E+02  0.50528859307E+02  0.29999998351E+02 0.  0.
         12    1    1    2    0    0 -0.14311205242E+01 -0.28856390879E+02 -0.28608151309E+02  0.40659140693E+02  0.00000000000E+00 0. -1.
         11    1    3    3    0    0 -0.52043634125E+01  0.85464517141E+01  0.77484218902E+00  0.10036314867E+02  0.51100000000E-03 0. -1.
        -11    1    3    3    0    0  0.22070680329E+01  0.16970037522E+02  0.62670383773E+01  0.18224409266E+02  0.51100000000E-03 0.  1.
        -12    1    3    3    0    0  0.44284159038E+01  0.33399016431E+01  0.21566270743E+02  0.22268135175E+02  0.00000000000E+00 0.  1.
</event>
<event>
 7    1  0.2744502E-011  0.5052886E+02  0.7816164E-02  0.1300439E+00
        -11   -1    0    0    0    0  0.00000000000E+00  0.00000000000E+00  0.45593999997E+02  0.45594000000E+02  0.51100000000E-03 0.  1.
         11   -1    0    0    0    0 -0.00000000000E+00 -0.00000000000E+00 -0.45593999997E+02  0.45594000000E+02  0.51100000000E-03 0. -1.
    9900012    2    1    2    0    0  0.22281871191E+02 -0.67417850771E+00  0.34003376275E+02  0.50528857135E+02  0.29999991746E+02 0.  0.
         12    1    1    2    0    0 -0.22281871191E+02  0.67417850771E+00 -0.34003376275E+02  0.40659142865E+02  0.00000000000E+00 0. -1.
         11    1    3    3    0    0  0.51224173808E+01  0.87824257815E+01  0.49779843635E+01  0.11320357371E+02  0.51100000000E-03 0. -1.
        -11    1    3    3    0    0  0.13960540036E+02  0.15378319874E+01  0.20849261119E+02  0.25138681246E+02  0.51100000000E-03 0.  1.
         12    1    3    3    0    0  0.31989137745E+01 -0.10994436277E+02  0.81761307930E+01  0.14069818518E+02  0.00000000000E+00 0. -1.
</event>
<event>
 7    1  0.2744502E-011  0.5052886E+02  0.7816164E-02  0.1300439E+00
        -11   -1    0    0    0    0  0.00000000000E+00  0.00000000000E+00  0.45593999997E+02  0.45594000000E+02  0.51100000000E-03 0.  1.
         11   -1    0    0    0    0 -0.00000000000E+00 -0.00000000000E+00 -0.45593999997E+02  0.45594000000E+02  0.51100000000E-03 0. -1.
    9900012    2    1    2    0    0  0.71480517487E+01  0.36703939933E+02  0.15965326671E+02  0.50528861960E+02  0.30000006415E+02 0.  0.
         12    1    1    2    0    0 -0.71480517487E+01 -0.36703939933E+02 -0.15965326671E+02  0.40659138040E+02  0.00000000000E+00 0. -1.
         11    1    3    3    0    0  0.12061429017E+02  0.14420437654E+02  0.76869233148E+01  0.20310487005E+02  0.51100000000E-03 0.  1.
        -11    1    3    3    0    0 -0.10402367560E+01  0.17013023727E+02 -0.28780079167E+01  0.17286063713E+02  0.51100000000E-03 0. -1.
         12    1    3    3    0    0 -0.38731405119E+01  0.52704785520E+01  0.11156411273E+02  0.12932311243E+02  0.00000000000E+00 0. -1.
</event>
<event>
 7    1  0.2744502E-011  0.5052886E+02  0.7816164E-02  0.1300439E+00
        -11   -1    0    0    0    0  0.00000000000E+00  0.00000000000E+00  0.45593999997E+02  0.45594000000E+02  0.51100000000E-03 0.  1.
         11   -1    0    0    0    0 -0.00000000000E+00 -0.00000000000E+00 -0.45593999997E+02  0.45594000000E+02  0.51100000000E-03 0. -1.
    9900012    2    1    2    0    0 -0.25849819328E+02 -0.30601890815E+02  0.69625320044E+01  0.50528859175E+02  0.29999997948E+02 0.  0.
         12    1    1    2    0    0  0.25849819328E+02  0.30601890815E+02 -0.69625320044E+01  0.40659140825E+02  0.00000000000E+00 0. -1.
         11    1    3    3    0    0 -0.48074454357E+01  0.39850357709E+00  0.26748634081E+01  0.55159071087E+01  0.51100000000E-03 0. -1.
        -11    1    3    3    0    0 -0.80618891090E+01 -0.55189502479E+00 -0.63157970238E+01  0.10256117025E+02  0.51100000000E-03 0.  1.
        -12    1    3    3    0    0 -0.12980484783E+02 -0.30448499367E+02  0.10603465620E+02  0.34756835041E+02  0.00000000000E+00 0.  1.
</event>
<event>
 7    1  0.2744502E-011  0.5052885E+02  0.7816164E-02  0.1300439E+00
        -11   -1    0    0    0    0  0.00000000000E+00  0.00000000000E+00  0.45593999997E+02  0.45594000000E+02  0.51100000000E-03 0.  1.
         11   -1    0    0    0    0 -0.00000000000E+00 -0.00000000000E+00 -0.45593999997E+02  0.45594000000E+02  0.51100000000E-03 0. -1.
    9900012    2    1    2    0    0 -0.15289130681E+02  0.99304038376E+01  0.36342753329E+02  0.50528853958E+02  0.29999982091E+02 0.  0.
         12    1    1    2    0    0  0.15289130681E+02 -0.99304038376E+01 -0.36342753329E+02  0.40659146042E+02  0.00000000000E+00 0. -1.
         11    1    3    3    0    0 -0.30094794439E+01  0.76448255240E+01  0.11603251340E+01  0.82973898603E+01  0.51100000000E-03 0. -1.
        -11    1    3    3    0    0 -0.16103638854E+02  0.65588174563E+01  0.23674257648E+02  0.29373725440E+02  0.51100000000E-03 0.  1.
        -12    1    3    3    0    0  0.38239876167E+01 -0.42732391427E+01  0.11508170547E+02  0.12857738658E+02  0.00000000000E+00 0.  1.
</event>
<event>
 7    1  0.2744502E-011  0.5052886E+02  0.7816164E-02  0.1300439E+00
        -11   -1    0    0    0    0  0.00000000000E+00  0.00000000000E+00  0.45593999997E+02  0.45594000000E+02  0.51100000000E-03 0.  1.
         11   -1    0    0    0    0 -0.00000000000E+00 -0.00000000000E+00 -0.45593999997E+02  0.45594000000E+02  0.51100000000E-03 0. -1.
    9900012    2    1    2    0    0 -0.24510667967E+02  0.20205657298E+02  0.25379606574E+02  0.50528857598E+02  0.29999993155E+02 0.  0.
         12    1    1    2    0    0  0.24510667967E+02 -0.20205657298E+02 -0.25379606574E+02  0.40659142402E+02  0.00000000000E+00 0. -1.
         11    1    3    3    0    0 -0.13464049783E+02  0.11618014738E+02  0.15504689724E+01  0.17851130421E+02  0.51100000000E-03 0.  1.
        -11    1    3    3    0    0 -0.14847607958E+02  0.28424437465E+01  0.13533674703E+02  0.20290177420E+02  0.51100000000E-03 0. -1.
         12    1    3    3    0    0  0.38009897744E+01  0.57451988136E+01  0.10295462899E+02  0.12387549756E+02  0.00000000000E+00 0. -1.
</event>
<event>
 7    1  0.2744502E-011  0.5052888E+02  0.7816164E-02  0.1300439E+00
        -11   -1    0    0    0    0  0.00000000000E+00  0.00000000000E+00  0.45593999997E+02  0.45594000000E+02  0.51100000000E-03 0. -1.
         11   -1    0    0    0    0 -0.00000000000E+00 -0.00000000000E+00 -0.45593999997E+02  0.45594000000E+02  0.51100000000E-03 0.  1.
    9900012    2    1    2    0    0 -0.16501409538E+02  0.37135420558E+02 -0.13519922937E+01  0.50528882205E+02  0.30000067950E+02 0.  0.
         12    1    1    2    0    0  0.16501409538E+02 -0.37135420558E+02  0.13519922937E+01  0.40659117795E+02  0.00000000000E+00 0. -1.
         11    1    3    3    0    0  0.10352950635E+01  0.15333448226E+02  0.23927580983E+01  0.15553512849E+02  0.51100000000E-03 0. -1.
        -11    1    3    3    0    0  0.21204122167E+01  0.10370695641E+01  0.46161415706E+01  0.51846334982E+01  0.51100000000E-03 0.  1.
        -12    1    3    3    0    0 -0.19657116818E+02  0.20764902768E+02 -0.83608919626E+01  0.29790735858E+02  0.00000000000E+00 0.  1.
</event>
<event>
 7    1  0.2744502E-011  0.5052884E+02  0.7816164E-02  0.1300439E+00
        -11   -1    0    0    0    0  0.00000000000E+00  0.00000000000E+00  0.45593999997E+02  0.45594000000E+02  0.51100000000E-03 0.  1.
         11   -1    0    0    0    0 -0.00000000000E+00 -0.00000000000E+00 -0.45593999997E+02  0.45594000000E+02  0.51100000000E-03 0. -1.
    9900012    2    1    2    0    0  0.16234984941E+02  0.91852522981E+01  0.36127884721E+02  0.50528835593E+02  0.29999926270E+02 0.  0.
         12    1    1    2    0    0 -0.16234984941E+02 -0.91852522981E+01 -0.36127884721E+02  0.40659164407E+02  0.00000000000E+00 0. -1.
         11    1    3    3    0    0 -0.34513261133E+01 -0.19053654986E+01  0.13793511056E+01  0.41766828174E+01  0.51100000000E-03 0. -1.
        -11    1    3    3    0    0  0.14323261576E+02 -0.28791032616E+01  0.11022083380E+02  0.18301130568E+02  0.51100000000E-03 0.  1.
         12    1    3    3    0    0  0.53630494783E+01  0.13969721058E+02  0.23726450235E+02  0.28051022208E+02  0.00000000000E+00 0. -1.
</event>
<event>
 7    1  0.2895686E-011  0.5052885E+02  0.7816164E-02  0.1300439E+00
        -11   -1    0    0    0    0  0.00000000000E+00  0.00000000000E+00  0.45593999997E+02  0.45594000000E+02  0.51100000000E-03 0.  1.
         11   -1    0    0    0    0 -0.00000000000E+00 -0.00000000000E+00 -0.45593999997E+02  0.45594000000E+02  0.51100000000E-03 0. -1.
    9900012    2    1    2    0    0 -0.10267995487E+02  0.27598057665E+02  0.28037148985E+02  0.50528852918E+02  0.29999978929E+02 0.  0.
         12    1    1    2    0    0  0.10267995487E+02 -0.27598057665E+02 -0.28037148985E+02  0.40659147082E+02  0.00000000000E+00 0. -1.
         11    1    3    3    0    0 -0.78584021374E+01  0.50920188512E+01  0.15380738201E+02  0.18006949992E+02  0.51100000000E-03 0. -1.
        -11    1    3    3    0    0 -0.27622566661E+01  0.14467395500E+02  0.17699120774E+02  0.23025952117E+02  0.51100000000E-03 0.  1.
         12    1    3    3    0    0  0.35266331606E+00  0.80386433134E+01 -0.50427099896E+01  0.94959508093E+01  0.00000000000E+00 0. -1.
</event>
<event>
 7    1  0.2744502E-011  0.5052886E+02  0.7816164E-02  0.1300439E+00
        -11   -1    0    0    0    0  0.00000000000E+00  0.00000000000E+00  0.45593999997E+02  0.45594000000E+02  0.51100000000E-03 0.  1.
         11   -1    0    0    0    0 -0.00000000000E+00 -0.00000000000E+00 -0.45593999997E+02  0.45594000000E+02  0.51100000000E-03 0. -1.
    9900012    2    1    2    0    0  0.22914430618E+02 -0.16188289144E+02  0.29428455011E+02  0.50528858343E+02  0.29999995418E+02 0.  0.
         12    1    1    2    0    0 -0.22914430618E+02  0.16188289144E+02 -0.29428455011E+02  0.40659141657E+02  0.00000000000E+00 0. -1.
         11    1    3    3    0    0  0.37010373685E+01 -0.10878911032E+01  0.75304967015E+01  0.84610617235E+01  0.51100000000E-03 0. -1.
        -11    1    3    3    0    0  0.10611024097E+02 -0.45805282170E-01  0.22330469722E+02  0.24723385868E+02  0.51100000000E-03 0.  1.
         12    1    3    3    0    0  0.86023691530E+01 -0.15054592759E+02 -0.43251141240E+00  0.17344410751E+02  0.00000000000E+00 0. -1.
</event>
<event>
 7    1  0.2744502E-011  0.5052887E+02  0.7816164E-02  0.1300439E+00
        -11   -1    0    0    0    0  0.00000000000E+00  0.00000000000E+00  0.45593999997E+02  0.45594000000E+02  0.51100000000E-03 0.  1.
         11   -1    0    0    0    0 -0.00000000000E+00 -0.00000000000E+00 -0.45593999997E+02  0.45594000000E+02  0.51100000000E-03 0. -1.
    9900012    2    1    2    0    0 -0.30378571349E+02  0.19441861030E+02  0.18770215210E+02  0.50528873883E+02  0.30000042656E+02 0.  0.
         12    1    1    2    0    0  0.30378571349E+02 -0.19441861030E+02 -0.18770215210E+02  0.40659126117E+02  0.00000000000E+00 0. -1.
         11    1    3    3    0    0 -0.13814093348E+02  0.43649361842E+01  0.20534681340E+01  0.14632107659E+02  0.51100000000E-03 0. -1.
        -11    1    3    3    0    0 -0.11072632496E+02 -0.16331878605E+01 -0.60676921123E+00  0.11208865336E+02  0.51100000000E-03 0.  1.
         12    1    3    3    0    0 -0.54918455053E+01  0.16710112707E+02  0.17323516287E+02  0.24687900888E+02  0.00000000000E+00 0. -1.
</event>
<event>
 7    1  0.2744502E-011  0.5052887E+02  0.7816164E-02  0.1300439E+00
        -11   -1    0    0    0    0  0.00000000000E+00  0.00000000000E+00  0.45593999997E+02  0.45594000000E+02  0.51100000000E-03 0.  1.
         11   -1    0    0    0    0 -0.00000000000E+00 -0.00000000000E+00 -0.45593999997E+02  0.45594000000E+02  0.51100000000E-03 0. -1.
    9900012    2    1    2    0    0 -0.13377116189E+02  0.84532370895E+01  0.37453446628E+02  0.50528866719E+02  0.30000020880E+02 0.  0.
         12    1    1    2    0    0  0.13377116189E+02 -0.84532370895E+01 -0.37453446628E+02  0.40659133281E+02  0.00000000000E+00 0. -1.
         11    1    3    3    0    0 -0.96819598140E+01  0.55893998654E+01  0.30501764009E+02  0.32485986897E+02  0.51100000000E-03 0. -1.
        -11    1    3    3    0    0 -0.85512582325E+01  0.44582558862E+00  0.88319414152E+01  0.12301461996E+02  0.51100000000E-03 0.  1.
         12    1    3    3    0    0  0.48561018576E+01  0.24180116354E+01 -0.18802587968E+01  0.57414178270E+01  0.00000000000E+00 0. -1.
</event>
<event>
 7    1  0.2744502E-011  0.5052886E+02  0.7816164E-02  0.1300439E+00
        -11   -1    0    0    0    0  0.00000000000E+00  0.00000000000E+00  0.45593999997E+02  0.45594000000E+02  0.51100000000E-03 0.  1.
         11   -1    0    0    0    0 -0.00000000000E+00 -0.00000000000E+00 -0.45593999997E+02  0.45594000000E+02  0.51100000000E-03 0. -1.
    9900012    2    1    2    0    0 -0.21743205967E+02  0.26699970518E+02  0.21621987661E+02  0.50528858570E+02  0.29999996110E+02 0.  0.
         12    1    1    2    0    0  0.21743205967E+02 -0.26699970518E+02 -0.21621987661E+02  0.40659141430E+02  0.00000000000E+00 0. -1.
         11    1    3    3    0    0 -0.10309687379E+02  0.14702084097E+02  0.19567058172E+02  0.26557686203E+02  0.51100000000E-03 0. -1.
        -11    1    3    3    0    0 -0.53778856967E+00 -0.23390658023E+01  0.51666738653E+01  0.56969258784E+01  0.51100000000E-03 0.  1.
        -12    1    3    3    0    0 -0.10895730018E+02  0.14336952223E+02 -0.31117443769E+01  0.18274246489E+02  0.00000000000E+00 0.  1.
</event>
<event>
 7    1  0.2744502E-011  0.5052887E+02  0.7816164E-02  0.1300439E+00
        -11   -1    0    0    0    0  0.00000000000E+00  0.00000000000E+00  0.45593999997E+02  0.45594000000E+02  0.51100000000E-03 0.  1.
         11   -1    0    0    0    0 -0.00000000000E+00 -0.00000000000E+00 -0.45593999997E+02  0.45594000000E+02  0.51100000000E-03 0. -1.
    9900012    2    1    2    0    0 -0.10359640899E+02 -0.38957936745E+02 -0.53030417728E+01  0.50528865147E+02  0.30000016101E+02 0.  0.
         12    1    1    2    0    0  0.10359640899E+02  0.38957936745E+02  0.53030417728E+01  0.40659134853E+02  0.00000000000E+00 0. -1.
         11    1    3    3    0    0  0.47442205975E+01 -0.13254777043E+02  0.44234708118E+01  0.14756823433E+02  0.51100000000E-03 0. -1.
        -11    1    3    3    0    0 -0.53035054698E+01 -0.21292842558E+02 -0.11665574726E+02  0.24851518030E+02  0.51100000000E-03 0.  1.
         12    1    3    3    0    0 -0.98003560263E+01 -0.44103171441E+01  0.19390621410E+01  0.10920523684E+02  0.00000000000E+00 0. -1.
</event>
<event>
 7    1  0.2744502E-011  0.5052885E+02  0.7816164E-02  0.1300439E+00
        -11   -1    0    0    0    0  0.00000000000E+00  0.00000000000E+00  0.45593999997E+02  0.45594000000E+02  0.51100000000E-03 0.  1.
         11   -1    0    0    0    0 -0.00000000000E+00 -0.00000000000E+00 -0.45593999997E+02  0.45594000000E+02  0.51100000000E-03 0. -1.
    9900012    2    1    2    0    0  0.17173475573E+02  0.17100102107E+02  0.32646965410E+02  0.50528854586E+02  0.29999984000E+02 0.  0.
         12    1    1    2    0    0 -0.17173475573E+02 -0.17100102107E+02 -0.32646965410E+02  0.40659145414E+02  0.00000000000E+00 0. -1.
         11    1    3    3    0    0 -0.15006463259E+01  0.12366919703E+01  0.18953216027E+01  0.27154356305E+01  0.51100000000E-03 0. -1.
        -11    1    3    3    0    0  0.13759687514E+02  0.19470383284E+02  0.33507051382E+02  0.41123561595E+02  0.51100000000E-03 0.  1.
        -12    1    3    3    0    0  0.49144343844E+01 -0.36069731470E+01 -0.27554075745E+01  0.66898573604E+01  0.00000000000E+00 0.  1.
</event>
<event>
 7    1  0.2744502E-011  0.5052886E+02  0.7816164E-02  0.1300439E+00
        -11   -1    0    0    0    0  0.00000000000E+00  0.00000000000E+00  0.45593999997E+02  0.45594000000E+02  0.51100000000E-03 0.  1.
         11   -1    0    0    0    0 -0.00000000000E+00 -0.00000000000E+00 -0.45593999997E+02  0.45594000000E+02  0.51100000000E-03 0. -1.
    9900012    2    1    2    0    0 -0.10463588435E+02 -0.32108118292E+02  0.22643936245E+02  0.50528858447E+02  0.29999995735E+02 0.  0.
         12    1    1    2    0    0  0.10463588435E+02  0.32108118292E+02 -0.22643936245E+02  0.40659141553E+02  0.00000000000E+00 0. -1.
         11    1    3    3    0    0 -0.11008531959E+02 -0.56107312531E+00  0.29940307128E+01  0.11422206403E+02  0.51100000000E-03 0. -1.
        -11    1    3    3    0    0 -0.45631764552E+01 -0.24559839881E+02  0.16288660622E+02  0.29821615977E+02  0.51100000000E-03 0.  1.
        -12    1    3    3    0    0  0.51081199788E+01 -0.69872052855E+01  0.33612449099E+01  0.92850360669E+01  0.00000000000E+00 0.  1.
</event>
<event>
 7    1  0.2744502E-011  0.5052887E+02  0.7816164E-02  0.1300439E+00
        -11   -1    0    0    0    0  0.00000000000E+00  0.00000000000E+00  0.45593999997E+02  0.45594000000E+02  0.51100000000E-03 0. -1.
         11   -1    0    0    0    0 -0.00000000000E+00 -0.00000000000E+00 -0.45593999997E+02  0.45594000000E+02  0.51100000000E-03 0.  1.
    9900012    2    1    2    0    0  0.37471504844E+02  0.31299278377E+01 -0.15467859595E+02  0.50528870595E+02  0.30000032659E+02 0.  0.
         12    1    1    2    0    0 -0.37471504844E+02 -0.31299278377E+01  0.15467859595E+02  0.40659129405E+02  0.00000000000E+00 0. -1.
         11    1    3    3    0    0  0.10334392040E+01 -0.29643435595E+00  0.52404051522E+01  0.53495529099E+01  0.51100000000E-03 0. -1.
        -11    1    3    3    0    0  0.90943824154E+01  0.16626505127E+01  0.21549968843E+01  0.94929558135E+01  0.51100000000E-03 0.  1.
        -12    1    3    3    0    0  0.27343683225E+02  0.17637116809E+01 -0.22863261631E+02  0.35686361871E+02  0.00000000000E+00 0.  1.
</event>
<event>
 7    1  0.2744502E-011  0.5052886E+02  0.7816164E-02  0.1300439E+00
        -11   -1    0    0    0    0  0.00000000000E+00  0.00000000000E+00  0.45593999997E+02  0.45594000000E+02  0.51100000000E-03 0.  1.
         11   -1    0    0    0    0 -0.00000000000E+00 -0.00000000000E+00 -0.45593999997E+02  0.45594000000E+02  0.51100000000E-03 0. -1.
    9900012    2    1    2    0    0 -0.25956505429E+02 -0.30506220273E+02  0.69854162852E+01  0.50528859698E+02  0.29999999538E+02 0.  0.
         12    1    1    2    0    0  0.25956505429E+02  0.30506220273E+02 -0.69854162852E+01  0.40659140302E+02  0.00000000000E+00 0. -1.
         11    1    3    3    0    0  0.17335056572E+01 -0.48657790782E+01  0.31485924389E+01  0.60493373611E+01  0.51100000000E-03 0. -1.
        -11    1    3    3    0    0 -0.79423515973E+00 -0.11358694935E+02  0.77544112935E+01  0.13776126266E+02  0.51100000000E-03 0.  1.
        -12    1    3    3    0    0 -0.26895775926E+02 -0.14281746259E+02 -0.39175874471E+01  0.30703396071E+02  0.00000000000E+00 0.  1.
</event>
<event>
 7    1  0.2744502E-011  0.5052889E+02  0.7816164E-02  0.1300439E+00
        -11   -1    0    0    0    0  0.00000000000E+00  0.00000000000E+00  0.45593999997E+02  0.45594000000E+02  0.51100000000E-03 0.  1.
         11   -1    0    0    0    0 -0.00000000000E+00 -0.00000000000E+00 -0.45593999997E+02  0.45594000000E+02  0.51100000000E-03 0. -1.
    9900012    2    1    2    0    0 -0.17463354200E+02 -0.32839044905E+02  0.16425333111E+02  0.50528890590E+02  0.30000093437E+02 0.  0.
         12    1    1    2    0    0  0.17463354200E+02  0.32839044905E+02 -0.16425333111E+02  0.40659109410E+02  0.00000000000E+00 0. -1.
         11    1    3    3    0    0  0.49244652568E+01 -0.10425700163E+02  0.28538320612E+01  0.11878128626E+02  0.51100000000E-03 0. -1.
        -11    1    3    3    0    0  0.27008765598E+01 -0.30629681276E+01 -0.23234955696E+00  0.40902927181E+01  0.51100000000E-03 0.  1.
         12    1    3    3    0    0 -0.25088696017E+02 -0.19350376615E+02  0.13803850607E+02  0.34560469246E+02  0.00000000000E+00 0. -1.
</event>
<event>
 7    1  0.2744502E-011  0.5052886E+02  0.7816164E-02  0.1300439E+00
        -11   -1    0    0    0    0  0.00000000000E+00  0.00000000000E+00  0.45593999997E+02  0.45594000000E+02  0.51100000000E-03 0.  1.
         11   -1    0    0    0    0 -0.00000000000E+00 -0.00000000000E+00 -0.45593999997E+02  0.45594000000E+02  0.51100000000E-03 0. -1.
    9900012    2    1    2    0    0 -0.16071926229E+02 -0.18028886939E+02  0.32708075561E+02  0.50528858545E+02  0.29999996034E+02 0.  0.
         12    1    1    2    0    0  0.16071926229E+02  0.18028886939E+02 -0.32708075561E+02  0.40659141455E+02  0.00000000000E+00 0. -1.
         11    1    3    3    0    0 -0.15147987455E+02 -0.41008258670E+01  0.26281645691E+02  0.30610507954E+02  0.51100000000E-03 0. -1.
        -11    1    3    3    0    0 -0.33584633312E+01 -0.20668480908E+01  0.67365379422E+01  0.78059003764E+01  0.51100000000E-03 0.  1.
         12    1    3    3    0    0  0.24345245571E+01 -0.11861212981E+02 -0.31010807191E+00  0.12112450215E+02  0.00000000000E+00 0. -1.
</event>
<event>
 7    1  0.2744502E-011  0.5052884E+02  0.7816164E-02  0.1300439E+00
        -11   -1    0    0    0    0  0.00000000000E+00  0.00000000000E+00  0.45593999997E+02  0.45594000000E+02  0.51100000000E-03 0.  1.
         11   -1    0    0    0    0 -0.00000000000E+00 -0.00000000000E+00 -0.45593999997E+02  0.45594000000E+02  0.51100000000E-03 0. -1.
    9900012    2    1    2    0    0  0.15581667612E+02 -0.18784220425E+02  0.32519717205E+02  0.50528839781E+02  0.29999938999E+02 0.  0.
         12    1    1    2    0    0 -0.15581667612E+02  0.18784220425E+02 -0.32519717205E+02  0.40659160219E+02  0.00000000000E+00 0. -1.
         11    1    3    3    0    0  0.69710628192E+01 -0.51944979368E+01  0.20076511220E+01  0.89223981604E+01  0.51100000000E-03 0. -1.
        -11    1    3    3    0    0  0.50456274887E+01 -0.19049237713E+02  0.28744377292E+02  0.34850696412E+02  0.51100000000E-03 0.  1.
         12    1    3    3    0    0  0.35649773044E+01  0.54595152245E+01  0.17676887914E+01  0.67557452091E+01  0.00000000000E+00 0. -1.
</event>
<event>
 7    1  0.2744502E-011  0.5052885E+02  0.7816164E-02  0.1300439E+00
        -11   -1    0    0    0    0  0.00000000000E+00  0.00000000000E+00  0.45593999997E+02  0.45594000000E+02  0.51100000000E-03 0.  1.
         11   -1    0    0    0    0 -0.00000000000E+00 -0.00000000000E+00 -0.45593999997E+02  0.45594000000E+02  0.51100000000E-03 0. -1.
    9900012    2    1    2    0    0 -0.84357714224E+01 -0.14177335355E+02  0.37161907702E+02  0.50528850215E+02  0.29999970712E+02 0.  0.
         12    1    1    2    0    0  0.84357714224E+01  0.14177335355E+02 -0.37161907702E+02  0.40659149785E+02  0.00000000000E+00 0. -1.
         11    1    3    3    0    0  0.64565585224E+01  0.21363835693E+00  0.92849280346E+00  0.65264759593E+01  0.51100000000E-03 0.  1.
        -11    1    3    3    0    0  0.23575828139E+01 -0.45020745865E+01  0.75731971766E+01  0.91203173215E+01  0.51100000000E-03 0. -1.
        -12    1    3    3    0    0 -0.17249912759E+02 -0.98888991251E+01  0.28660217722E+02  0.34882056934E+02  0.00000000000E+00 0.  1.
</event>
<event>
 7    1  0.2744502E-011  0.5052886E+02  0.7816164E-02  0.1300439E+00
        -11   -1    0    0    0    0  0.00000000000E+00  0.00000000000E+00  0.45593999997E+02  0.45594000000E+02  0.51100000000E-03 0.  1.
         11   -1    0    0    0    0 -0.00000000000E+00 -0.00000000000E+00 -0.45593999997E+02  0.45594000000E+02  0.51100000000E-03 0. -1.
    9900012    2    1    2    0    0  0.17173736700E+02 -0.18765107241E+02  0.31719062553E+02  0.50528863127E+02  0.30000009960E+02 0.  0.
         12    1    1    2    0    0 -0.17173736700E+02  0.18765107241E+02 -0.31719062553E+02  0.40659136873E+02  0.00000000000E+00 0. -1.
         11    1    3    3    0    0  0.10697610468E+02 -0.19880199544E+02  0.99539709408E+01  0.24672712486E+02  0.51100000000E-03 0. -1.
        -11    1    3    3    0    0  0.98603629313E+00  0.59521387657E+01  0.61683534013E+01  0.86283722337E+01  0.51100000000E-03 0.  1.
        -12    1    3    3    0    0  0.54900899384E+01 -0.48370464628E+01  0.15596738211E+02  0.17227778407E+02  0.00000000000E+00 0.  1.
</event>
<event>
 7    1  0.2744502E-011  0.5052886E+02  0.7816164E-02  0.1300439E+00
        -11   -1    0    0    0    0  0.00000000000E+00  0.00000000000E+00  0.45593999997E+02  0.45594000000E+02  0.51100000000E-03 0.  1.
         11   -1    0    0    0    0 -0.00000000000E+00 -0.00000000000E+00 -0.45593999997E+02  0.45594000000E+02  0.51100000000E-03 0. -1.
    9900012    2    1    2    0    0  0.94011824053E+01 -0.27503460503E+02  0.28431378349E+02  0.50528857792E+02  0.29999993744E+02 0.  0.
         12    1    1    2    0    0 -0.94011824053E+01  0.27503460503E+02 -0.28431378349E+02  0.40659142208E+02  0.00000000000E+00 0. -1.
         11    1    3    3    0    0 -0.96262700553E+00 -0.10340811551E+02  0.21559250156E+01  0.10606933921E+02  0.51100000000E-03 0. -1.
        -11    1    3    3    0    0  0.30659732421E+01 -0.76770405820E+01 -0.25988822636E+01  0.86655255640E+01  0.51100000000E-03 0.  1.
         12    1    3    3    0    0  0.72978361688E+01 -0.94856083705E+01  0.28874335597E+02  0.31256398306E+02  0.00000000000E+00 0. -1.
</event>
<event>
 7    1  0.2744502E-011  0.5052887E+02  0.7816164E-02  0.1300439E+00
        -11   -1    0    0    0    0  0.00000000000E+00  0.00000000000E+00  0.45593999997E+02  0.45594000000E+02  0.51100000000E-03 0. -1.
         11   -1    0    0    0    0 -0.00000000000E+00 -0.00000000000E+00 -0.45593999997E+02  0.45594000000E+02  0.51100000000E-03 0.  1.
    9900012    2    1    2    0    0  0.13250723755E+02 -0.18085937145E+01 -0.38396775157E+02  0.50528867770E+02  0.30000024074E+02 0.  0.
         12    1    1    2    0    0 -0.13250723755E+02  0.18085937145E+01  0.38396775157E+02  0.40659132230E+02  0.00000000000E+00 0. -1.
         11    1    3    3    0    0  0.14659570465E+01  0.78986203479E+01 -0.77109160574E+01  0.11135324879E+02  0.51100000000E-03 0. -1.
        -11    1    3    3    0    0 -0.31739032939E+00 -0.18824963261E+01 -0.22965029687E+02  0.23044242617E+02  0.51100000000E-03 0.  1.
        -12    1    3    3    0    0  0.12102157038E+02 -0.78247177363E+01 -0.77208294125E+01  0.16349300274E+02  0.00000000000E+00 0.  1.
</event>
<event>
 7    1  0.2744502E-011  0.5052885E+02  0.7816164E-02  0.1300439E+00
        -11   -1    0    0    0    0  0.00000000000E+00  0.00000000000E+00  0.45593999997E+02  0.45594000000E+02  0.51100000000E-03 0.  1.
         11   -1    0    0    0    0 -0.00000000000E+00 -0.00000000000E+00 -0.45593999997E+02  0.45594000000E+02  0.51100000000E-03 0. -1.
    9900012    2    1    2    0    0 -0.34684360644E+01  0.24228580822E+02  0.32467092697E+02  0.50528852376E+02  0.29999977281E+02 0.  0.
         12    1    1    2    0    0  0.34684360644E+01 -0.24228580822E+02 -0.32467092697E+02  0.40659147624E+02  0.00000000000E+00 0. -1.
         11    1    3    3    0    0 -0.40729428913E+01  0.44155634758E+01  0.62656599874E+00  0.60397557746E+01  0.51100000000E-03 0.  1.
        -11    1    3    3    0    0  0.11408142884E+02  0.14855549686E+02  0.23073444331E+02  0.29718965562E+02  0.51100000000E-03 0. -1.
         12    1    3    3    0    0 -0.10803636058E+02  0.49574676600E+01  0.87670823671E+01  0.14770131039E+02  0.00000000000E+00 0. -1.
</event>
<event>
 7    1  0.2744502E-011  0.5052884E+02  0.7816164E-02  0.1300439E+00
        -11   -1    0    0    0    0  0.00000000000E+00  0.00000000000E+00  0.45593999997E+02  0.45594000000E+02  0.51100000000E-03 0.  1.
         11   -1    0    0    0    0 -0.00000000000E+00 -0.00000000000E+00 -0.45593999997E+02  0.45594000000E+02  0.51100000000E-03 0. -1.
    9900012    2    1    2    0    0  0.91759313412E+00  0.35185108796E+02  0.20355179880E+02  0.50528841055E+02  0.29999942870E+02 0.  0.
         12    1    1    2    0    0 -0.91759313412E+00 -0.35185108796E+02 -0.20355179880E+02  0.40659158945E+02  0.00000000000E+00 0. -1.
         11    1    3    3    0    0  0.87536206853E+01  0.26313977460E+02  0.21935125906E+02  0.35358181991E+02  0.51100000000E-03 0.  1.
        -11    1    3    3    0    0 -0.28246504608E+00  0.10286429106E+01 -0.38952342444E+01  0.40386560660E+01  0.51100000000E-03 0. -1.
        -12    1    3    3    0    0 -0.75535625051E+01  0.78424884253E+01  0.23152882185E+01  0.11132002998E+02  0.00000000000E+00 0.  1.
</event>
<event>
 7    1  0.2744502E-011  0.5052886E+02  0.7816164E-02  0.1300439E+00
        -11   -1    0    0    0    0  0.00000000000E+00  0.00000000000E+00  0.45593999997E+02  0.45594000000E+02  0.51100000000E-03 0.  1.
         11   -1    0    0    0    0 -0.00000000000E+00 -0.00000000000E+00 -0.45593999997E+02  0.45594000000E+02  0.51100000000E-03 0. -1.
    9900012    2    1    2    0    0 -0.10018189825E+02 -0.28300889778E+02  0.27420088774E+02  0.50528858863E+02  0.29999997000E+02 0.  0.
         12    1    1    2    0    0  0.10018189825E+02  0.28300889778E+02 -0.27420088774E+02  0.40659141137E+02  0.00000000000E+00 0. -1.
         11    1    3    3    0    0 -0.84118224261E+01 -0.63853348140E+00  0.40352544387E+00  0.84456683915E+01  0.51100000000E-03 0. -1.
        -11    1    3    3    0    0  0.58027316170E+01 -0.56733579242E+01  0.11850108183E+02  0.14362581542E+02  0.51100000000E-03 0.  1.
        -12    1    3    3    0    0 -0.74090990157E+01 -0.21988998373E+02  0.15166455148E+02  0.27720608929E+02  0.00000000000E+00 0.  1.
</event>
<event>
 7    1  0.2744502E-011  0.5052883E+02  0.7816164E-02  0.1300439E+00
        -11   -1    0    0    0    0  0.00000000000E+00  0.00000000000E+00  0.45593999997E+02  0.45594000000E+02  0.51100000000E-03 0. -1.
         11   -1    0    0    0    0 -0.00000000000E+00 -0.00000000000E+00 -0.45593999997E+02  0.45594000000E+02  0.51100000000E-03 0.  1.
    9900012    2    1    2    0    0  0.30257377524E+02  0.18612434876E+01 -0.27096027905E+02  0.50528833135E+02  0.29999918796E+02 0.  0.
         12    1    1    2    0    0 -0.30257377524E+02 -0.18612434876E+01  0.27096027905E+02  0.40659166865E+02  0.00000000000E+00 0. -1.
         11    1    3    3    0    0  0.36096666892E+01  0.36061391384E+01 -0.13064774593E+02  0.14025771584E+02  0.51100000000E-03 0. -1.
        -11    1    3    3    0    0  0.16069965392E+02 -0.27779900310E+00 -0.18863107650E+02  0.24781803616E+02  0.51100000000E-03 0.  1.
         12    1    3    3    0    0  0.10577745443E+02 -0.14670966477E+01  0.48318543381E+01  0.11721257935E+02  0.00000000000E+00 0. -1.
</event>
<event>
 7    1  0.2744502E-011  0.5052886E+02  0.7816164E-02  0.1300439E+00
        -11   -1    0    0    0    0  0.00000000000E+00  0.00000000000E+00  0.45593999997E+02  0.45594000000E+02  0.51100000000E-03 0. -1.
         11   -1    0    0    0    0 -0.00000000000E+00 -0.00000000000E+00 -0.45593999997E+02  0.45594000000E+02  0.51100000000E-03 0.  1.
    9900012    2    1    2    0    0  0.14100947377E+02 -0.24401658081E+02 -0.29306796640E+02  0.50528856338E+02  0.29999989324E+02 0.  0.
         12    1    1    2    0    0 -0.14100947377E+02  0.24401658081E+02  0.29306796640E+02  0.40659143662E+02  0.00000000000E+00 0. -1.
         11    1    3    3    0    0  0.20379671541E+01 -0.14434096698E+02  0.10249930494E+01  0.14613249763E+02  0.51100000000E-03 0. -1.
        -11    1    3    3    0    0  0.80397815839E+00 -0.22832717504E+01  0.24982645946E+00  0.24335415111E+01  0.51100000000E-03 0.  1.
        -12    1    3    3    0    0  0.11259002065E+02 -0.76842896326E+01 -0.30581616149E+02  0.33482065064E+02  0.00000000000E+00 0.  1.
</event>
<event>
 7    1  0.2744502E-011  0.5052882E+02  0.7816164E-02  0.1300439E+00
        -11   -1    0    0    0    0  0.00000000000E+00  0.00000000000E+00  0.45593999997E+02  0.45594000000E+02  0.51100000000E-03 0.  1.
         11   -1    0    0    0    0 -0.00000000000E+00 -0.00000000000E+00 -0.45593999997E+02  0.45594000000E+02  0.51100000000E-03 0. -1.
    9900012    2    1    2    0    0  0.14830538000E+02 -0.26605079941E+02  0.26933136345E+02  0.50528819371E+02  0.29999876960E+02 0.  0.
         12    1    1    2    0    0 -0.14830538000E+02  0.26605079941E+02 -0.26933136345E+02  0.40659180629E+02  0.00000000000E+00 0. -1.
         11    1    3    3    0    0  0.11249563507E+02 -0.20896546529E+01  0.84368161771E+01  0.14216159929E+02  0.51100000000E-03 0. -1.
        -11    1    3    3    0    0 -0.29222434950E+01 -0.11563352808E+02  0.18269314660E+02  0.21817848052E+02  0.51100000000E-03 0.  1.
        -12    1    3    3    0    0  0.65032179877E+01 -0.12952072480E+02  0.22700550813E+00  0.14494811390E+02  0.00000000000E+00 0.  1.
</event>
<event>
 7    1  0.2744502E-011  0.5052887E+02  0.7816164E-02  0.1300439E+00
        -11   -1    0    0    0    0  0.00000000000E+00  0.00000000000E+00  0.45593999997E+02  0.45594000000E+02  0.51100000000E-03 0.  1.
         11   -1    0    0    0    0 -0.00000000000E+00 -0.00000000000E+00 -0.45593999997E+02  0.45594000000E+02  0.51100000000E-03 0. -1.
    9900012    2    1    2    0    0 -0.12839759809E+02 -0.34210139254E+02  0.17831770995E+02  0.50528866751E+02  0.30000020975E+02 0.  0.
         12    1    1    2    0    0  0.12839759809E+02  0.34210139254E+02 -0.17831770995E+02  0.40659133249E+02  0.00000000000E+00 0. -1.
         11    1    3    3    0    0 -0.63435709630E+01  0.11152731650E+01  0.28853438373E+01  0.70576154696E+01  0.51100000000E-03 0. -1.
        -11    1    3    3    0    0 -0.46303505099E+01 -0.44180724677E+01 -0.36348988719E+01  0.73601630583E+01  0.51100000000E-03 0.  1.
         12    1    3    3    0    0 -0.18658383362E+01 -0.30907339952E+02  0.18581326030E+02  0.36111088223E+02  0.00000000000E+00 0. -1.
</event>
<event>
 7    1  0.2744502E-011  0.5052887E+02  0.7816164E-02  0.1300439E+00
        -11   -1    0    0    0    0  0.00000000000E+00  0.00000000000E+00  0.45593999997E+02  0.45594000000E+02  0.51100000000E-03 0.  1.
         11   -1    0    0    0    0 -0.00000000000E+00 -0.00000000000E+00 -0.45593999997E+02  0.45594000000E+02  0.51100000000E-03 0. -1.
    9900012    2    1    2    0    0 -0.39474833143E+02 -0.11152058710E+01  0.96777317069E+01  0.50528872774E+02  0.30000039283E+02 0.  0.
         12    1    1    2    0    0  0.39474833143E+02  0.11152058710E+01 -0.96777317069E+01  0.40659127226E+02  0.00000000000E+00 0. -1.
         11    1    3    3    0    0 -0.16846331451E+02  0.81971163083E+01 -0.31949064232E+00  0.18737493794E+02  0.51100000000E-03 0. -1.
        -11    1    3    3    0    0 -0.83847463839E+01 -0.74718772185E+00  0.12410857568E+02  0.14996387807E+02  0.51100000000E-03 0.  1.
        -12    1    3    3    0    0 -0.14243755308E+02 -0.85651344574E+01 -0.24136352188E+01  0.16794991174E+02  0.00000000000E+00 0.  1.
</event>
<event>
 7    1  0.2744502E-011  0.5052884E+02  0.7816164E-02  0.1300439E+00
        -11   -1    0    0    0    0  0.00000000000E+00  0.00000000000E+00  0.45593999997E+02  0.45594000000E+02  0.51100000000E-03 0.  1.
         11   -1    0    0    0    0 -0.00000000000E+00 -0.00000000000E+00 -0.45593999997E+02  0.45594000000E+02  0.51100000000E-03 0. -1.
    9900012    2    1    2    0    0  0.10545359155E+01  0.38955968384E+02  0.11596897287E+02  0.50528836882E+02  0.29999930188E+02 0.  0.
         12    1    1    2    0    0 -0.10545359155E+01 -0.38955968384E+02 -0.11596897287E+02  0.40659163118E+02  0.00000000000E+00 0. -1.
         11    1    3    3    0    0  0.35750885754E+00  0.34255230324E+01  0.13402192401E+02  0.13837658112E+02  0.51100000000E-03 0. -1.
        -11    1    3    3    0    0 -0.22090319179E+01  0.34978955616E+01  0.14006108131E+01  0.43677003429E+01  0.51100000000E-03 0.  1.
        -12    1    3    3    0    0  0.29060589759E+01  0.32032549790E+02 -0.32059059266E+01  0.32323478427E+02  0.00000000000E+00 0.  1.
</event>
<event>
 7    1  0.2744502E-011  0.5052886E+02  0.7816164E-02  0.1300439E+00
        -11   -1    0    0    0    0  0.00000000000E+00  0.00000000000E+00  0.45593999997E+02  0.45594000000E+02  0.51100000000E-03 0.  1.
         11   -1    0    0    0    0 -0.00000000000E+00 -0.00000000000E+00 -0.45593999997E+02  0.45594000000E+02  0.51100000000E-03 0. -1.
    9900012    2    1    2    0    0 -0.24508885828E+02  0.31524282837E+02 -0.76615726673E+01  0.50528860946E+02  0.30000003331E+02 0.  0.
         12    1    1    2    0    0  0.24508885828E+02 -0.31524282837E+02  0.76615726673E+01  0.40659139054E+02  0.00000000000E+00 0. -1.
         11    1    3    3    0    0 -0.82957917577E+01  0.10136117749E+02 -0.47033052253E+01  0.13916972523E+02  0.51100000000E-03 0. -1.
        -11    1    3    3    0    0 -0.19213751163E+02  0.79170513603E+01 -0.74840213481E+01  0.22087519367E+02  0.51100000000E-03 0.  1.
         12    1    3    3    0    0  0.30006570924E+01  0.13471113728E+02  0.45257539060E+01  0.14524369056E+02  0.00000000000E+00 0. -1.
</event>
<event>
 7    1  0.2744502E-011  0.5052886E+02  0.7816164E-02  0.1300439E+00
        -11   -1    0    0    0    0  0.00000000000E+00  0.00000000000E+00  0.45593999997E+02  0.45594000000E+02  0.51100000000E-03 0. -1.
         11   -1    0    0    0    0 -0.00000000000E+00 -0.00000000000E+00 -0.45593999997E+02  0.45594000000E+02  0.51100000000E-03 0.  1.
    9900012    2    1    2    0    0 -0.35671853314E+00  0.22418368571E+02 -0.33918359854E+02  0.50528860404E+02  0.30000001683E+02 0.  0.
         12    1    1    2    0    0  0.35671853314E+00 -0.22418368571E+02  0.33918359854E+02  0.40659139596E+02  0.00000000000E+00 0. -1.
         11    1    3    3    0    0  0.20989048219E+01  0.74196035621E+01 -0.24286322178E+02  0.25481000052E+02  0.51100000000E-03 0. -1.
        -11    1    3    3    0    0 -0.13032220926E+01  0.12907822087E+02 -0.14602866017E+02  0.19533406130E+02  0.51100000000E-03 0.  1.
         12    1    3    3    0    0 -0.11524012624E+01  0.20909429223E+01  0.49708283408E+01  0.55144542221E+01  0.00000000000E+00 0. -1.
</event>
<event>
 7    1  0.2744502E-011  0.5052879E+02  0.7816164E-02  0.1300439E+00
        -11   -1    0    0    0    0  0.00000000000E+00  0.00000000000E+00  0.45593999997E+02  0.45594000000E+02  0.51100000000E-03 0. -1.
         11   -1    0    0    0    0 -0.00000000000E+00 -0.00000000000E+00 -0.45593999997E+02  0.45594000000E+02  0.51100000000E-03 0.  1.
    9900012    2    1    2    0    0 -0.22382301164E+00 -0.31742396882E+01 -0.40534492228E+02  0.50528794960E+02  0.29999802760E+02 0.  0.
         12    1    1    2    0    0  0.22382301164E+00  0.31742396882E+01  0.40534492228E+02  0.40659205040E+02  0.00000000000E+00 0. -1.
         11    1    3    3    0    0  0.82418095651E+00 -0.23622711860E+01 -0.27669658362E+02  0.27782541164E+02  0.51100000000E-03 0. -1.
        -11    1    3    3    0    0  0.65328401210E+01 -0.10195460721E+01 -0.13604951175E+02  0.15126538632E+02  0.51100000000E-03 0.  1.
         12    1    3    3    0    0 -0.75808440891E+01  0.20757756979E+00  0.74011730939E+00  0.76197151642E+01  0.00000000000E+00 0. -1.
</event>
<event>
 7    1  0.2744502E-011  0.5052886E+02  0.7816164E-02  0.1300439E+00
        -11   -1    0    0    0    0  0.00000000000E+00  0.00000000000E+00  0.45593999997E+02  0.45594000000E+02  0.51100000000E-03 0.  1.
         11   -1    0    0    0    0 -0.00000000000E+00 -0.00000000000E+00 -0.45593999997E+02  0.45594000000E+02  0.51100000000E-03 0. -1.
    9900012    2    1    2    0    0 -0.21588011487E+02 -0.21586866028E+02  0.26853874004E+02  0.50528861127E+02  0.30000003882E+02 0.  0.
         12    1    1    2    0    0  0.21588011487E+02  0.21586866028E+02 -0.26853874004E+02  0.40659138873E+02  0.00000000000E+00 0. -1.
         11    1    3    3    0    0  0.54382226029E+01 -0.66925566840E+01  0.54171156035E+01  0.10183797021E+02  0.51100000000E-03 0. -1.
        -11    1    3    3    0    0 -0.99432200702E+00 -0.27582424500E+01  0.82217686358E+01  0.87289207482E+01  0.51100000000E-03 0.  1.
        -12    1    3    3    0    0 -0.26031912083E+02 -0.12136066893E+02  0.13214989765E+02  0.31616143358E+02  0.00000000000E+00 0.  1.
</event>
<event>
 7    1  0.2744502E-011  0.5052901E+02  0.7816164E-02  0.1300438E+00
        -11   -1    0    0    0    0  0.00000000000E+00  0.00000000000E+00  0.45593999997E+02  0.45594000000E+02  0.51100000000E-03 0. -1.
         11   -1    0    0    0    0 -0.00000000000E+00 -0.00000000000E+00 -0.45593999997E+02  0.45594000000E+02  0.51100000000E-03 0.  1.
    9900012    2    1    2    0    0  0.26959123139E+02  0.18063367483E+02 -0.24496411130E+02  0.50529006856E+02  0.30000446836E+02 0.  0.
         12    1    1    2    0    0 -0.26959123139E+02 -0.18063367483E+02  0.24496411130E+02  0.40658993144E+02  0.00000000000E+00 0. -1.
         11    1    3    3    0    0 -0.12824826016E+01  0.43249364960E+01 -0.73984657474E+01  0.86652832033E+01  0.51100000000E-03 0. -1.
        -11    1    3    3    0    0  0.71819034771E+01 -0.55378257222E+01 -0.10951266685E+01  0.91349085362E+01  0.51100000000E-03 0.  1.
        -12    1    3    3    0    0  0.21059702263E+02  0.19276256710E+02 -0.16002818714E+02  0.32728815117E+02  0.00000000000E+00 0.  1.
</event>
<event>
 7    1  0.2744502E-011  0.5052885E+02  0.7816164E-02  0.1300439E+00
        -11   -1    0    0    0    0  0.00000000000E+00  0.00000000000E+00  0.45593999997E+02  0.45594000000E+02  0.51100000000E-03 0. -1.
         11   -1    0    0    0    0 -0.00000000000E+00 -0.00000000000E+00 -0.45593999997E+02  0.45594000000E+02  0.51100000000E-03 0.  1.
    9900012    2    1    2    0    0 -0.37081387490E+02  0.86324738746E+01 -0.14269474568E+02  0.50528845953E+02  0.29999957760E+02 0.  0.
         12    1    1    2    0    0  0.37081387490E+02 -0.86324738746E+01  0.14269474568E+02  0.40659154047E+02  0.00000000000E+00 0. -1.
         11    1    3    3    0    0 -0.11165534211E+02 -0.79870523881E+00  0.57454329828E+01  0.12582411720E+02  0.51100000000E-03 0. -1.
        -11    1    3    3    0    0 -0.54602036527E+01 -0.47165787444E+01 -0.60919162347E+01  0.94430600259E+01  0.51100000000E-03 0.  1.
         12    1    3    3    0    0 -0.20455649626E+02  0.14147757858E+02 -0.13922991316E+02  0.28503374207E+02  0.00000000000E+00 0. -1.
</event>
<event>
 7    1  0.2744502E-011  0.5052886E+02  0.7816164E-02  0.1300439E+00
        -11   -1    0    0    0    0  0.00000000000E+00  0.00000000000E+00  0.45593999997E+02  0.45594000000E+02  0.51100000000E-03 0.  1.
         11   -1    0    0    0    0 -0.00000000000E+00 -0.00000000000E+00 -0.45593999997E+02  0.45594000000E+02  0.51100000000E-03 0. -1.
    9900012    2    1    2    0    0  0.45241237065E+01 -0.39678661659E+02  0.76355828788E+01  0.50528855736E+02  0.29999987495E+02 0.  0.
         12    1    1    2    0    0 -0.45241237065E+01  0.39678661659E+02 -0.76355828788E+01  0.40659144264E+02  0.00000000000E+00 0. -1.
         11    1    3    3    0    0  0.38399841136E+01  0.91818753365E+00 -0.21374590163E+01  0.44896856958E+01  0.51100000000E-03 0. -1.
        -11    1    3    3    0    0  0.22323337070E+01  0.87770937523E-01  0.44490787140E+01  0.49784856313E+01  0.51100000000E-03 0.  1.
        -12    1    3    3    0    0 -0.15481941141E+01 -0.40684620130E+02  0.53239631812E+01  0.41060684409E+02  0.00000000000E+00 0.  1.
</event>
<event>
 7    1  0.2744502E-011  0.5052886E+02  0.7816164E-02  0.1300439E+00
        -11   -1    0    0    0    0  0.00000000000E+00  0.00000000000E+00  0.45593999997E+02  0.45594000000E+02  0.51100000000E-03 0.  1.
         11   -1    0    0    0    0 -0.00000000000E+00 -0.00000000000E+00 -0.45593999997E+02  0.45594000000E+02  0.51100000000E-03 0. -1.
    9900012    2    1    2    0    0 -0.12775043965E+02  0.37934161076E+02  0.71388609555E+01  0.50528860061E+02  0.30000000643E+02 0.  0.
         12    1    1    2    0    0  0.12775043965E+02 -0.37934161076E+02 -0.71388609555E+01  0.40659139939E+02  0.00000000000E+00 0. -1.
         11    1    3    3    0    0 -0.83096565607E+01  0.18616123118E+02 -0.25674184229E+01  0.20547556296E+02  0.51100000000E-03 0. -1.
        -11    1    3    3    0    0 -0.53470813344E+01  0.23480880812E+02  0.87301152367E+01  0.25615580314E+02  0.51100000000E-03 0.  1.
         12    1    3    3    0    0  0.88169393048E+00 -0.41628428551E+01  0.97616414174E+00  0.43657234515E+01  0.00000000000E+00 0. -1.
</event>
<event>
 7    1  0.2744502E-011  0.5052886E+02  0.7816164E-02  0.1300439E+00
        -11   -1    0    0    0    0  0.00000000000E+00  0.00000000000E+00  0.45593999997E+02  0.45594000000E+02  0.51100000000E-03 0.  1.
         11   -1    0    0    0    0 -0.00000000000E+00 -0.00000000000E+00 -0.45593999997E+02  0.45594000000E+02  0.51100000000E-03 0. -1.
    9900012    2    1    2    0    0  0.25141722845E+02  0.22844677810E+02  0.22342334104E+02  0.50528862957E+02  0.30000009445E+02 0.  0.
         12    1    1    2    0    0 -0.25141722845E+02 -0.22844677810E+02 -0.22342334104E+02  0.40659137043E+02  0.00000000000E+00 0. -1.
         11    1    3    3    0    0 -0.15211506310E+01 -0.58687339939E+00  0.27088230969E+01  0.31616518563E+01  0.51100000000E-03 0. -1.
        -11    1    3    3    0    0  0.45354855187E+01  0.11025399772E+01  0.14854146299E+02  0.15570224334E+02  0.51100000000E-03 0.  1.
         12    1    3    3    0    0  0.22127387958E+02  0.22329011232E+02  0.47793647082E+01  0.31796986767E+02  0.00000000000E+00 0. -1.
</event>
<event>
 7    1  0.2744502E-011  0.5052886E+02  0.7816164E-02  0.1300439E+00
        -11   -1    0    0    0    0  0.00000000000E+00  0.00000000000E+00  0.45593999997E+02  0.45594000000E+02  0.51100000000E-03 0.  1.
         11   -1    0    0    0    0 -0.00000000000E+00 -0.00000000000E+00 -0.45593999997E+02  0.45594000000E+02  0.51100000000E-03 0. -1.
    9900012    2    1    2    0    0  0.12467522127E+02  0.46931638716E+00  0.38697630063E+02  0.50528856645E+02  0.29999990258E+02 0.  0.
         12    1    1    2    0    0 -0.12467522127E+02 -0.46931638716E+00 -0.38697630063E+02  0.40659143355E+02  0.00000000000E+00 0. -1.
         11    1    3    3    0    0 -0.23724845079E+01  0.43874461076E+01 -0.22137056105E+01  0.54570009051E+01  0.51100000000E-03 0. -1.
        -11    1    3    3    0    0  0.70213606639E+01 -0.67729221403E+01  0.15334039256E+02  0.18174287883E+02  0.51100000000E-03 0.  1.
        -12    1    3    3    0    0  0.78186459708E+01  0.28547924199E+01  0.25577296418E+02  0.26897567857E+02  0.00000000000E+00 0.  1.
</event>
<event>
 7    1  0.2744502E-011  0.5052887E+02  0.7816164E-02  0.1300439E+00
        -11   -1    0    0    0    0  0.00000000000E+00  0.00000000000E+00  0.45593999997E+02  0.45594000000E+02  0.51100000000E-03 0. -1.
         11   -1    0    0    0    0 -0.00000000000E+00 -0.00000000000E+00 -0.45593999997E+02  0.45594000000E+02  0.51100000000E-03 0.  1.
    9900012    2    1    2    0    0 -0.14109842616E+02 -0.32390040559E+02  0.20123682415E+02  0.50528868431E+02  0.30000026082E+02 0.  0.
         12    1    1    2    0    0  0.14109842616E+02  0.32390040559E+02 -0.20123682415E+02  0.40659131569E+02  0.00000000000E+00 0. -1.
         11    1    3    3    0    0 -0.43049561876E+01 -0.13237766387E+02  0.17346447825E+02  0.22241186099E+02  0.51100000000E-03 0.  1.
        -11    1    3    3    0    0 -0.58247641743E+01 -0.86517416437E+01  0.10389281096E+02  0.14721333945E+02  0.51100000000E-03 0. -1.
        -12    1    3    3    0    0 -0.39801222537E+01 -0.10500532528E+02 -0.76120465069E+01  0.13566348386E+02  0.00000000000E+00 0.  1.
</event>
<event>
 7    1  0.2744502E-011  0.5052886E+02  0.7816164E-02  0.1300439E+00
        -11   -1    0    0    0    0  0.00000000000E+00  0.00000000000E+00  0.45593999997E+02  0.45594000000E+02  0.51100000000E-03 0.  1.
         11   -1    0    0    0    0 -0.00000000000E+00 -0.00000000000E+00 -0.45593999997E+02  0.45594000000E+02  0.51100000000E-03 0. -1.
    9900012    2    1    2    0    0  0.32510874770E+02 -0.23182259091E+02 -0.76675466443E+01  0.50528863433E+02  0.30000010890E+02 0.  0.
         12    1    1    2    0    0 -0.32510874770E+02  0.23182259091E+02  0.76675466443E+01  0.40659136567E+02  0.00000000000E+00 0. -1.
         11    1    3    3    0    0 -0.21897612595E+01 -0.32189111309E+01  0.23103404599E+01  0.45270428035E+01  0.51100000000E-03 0. -1.
        -11    1    3    3    0    0  0.22101373627E+02 -0.21893644237E+02 -0.24669740306E+01  0.31207184034E+02  0.51100000000E-03 0.  1.
         12    1    3    3    0    0  0.12599262402E+02  0.19302962770E+01 -0.75109130736E+01  0.14794636595E+02  0.00000000000E+00 0. -1.
</event>
<event>
 7    1  0.2744502E-011  0.5052898E+02  0.7816164E-02  0.1300438E+00
        -11   -1    0    0    0    0  0.00000000000E+00  0.00000000000E+00  0.45593999997E+02  0.45594000000E+02  0.51100000000E-03 0.  1.
         11   -1    0    0    0    0 -0.00000000000E+00 -0.00000000000E+00 -0.45593999997E+02  0.45594000000E+02  0.51100000000E-03 0. -1.
    9900012    2    1    2    0    0  0.62425235618E+01  0.71261351990E+01  0.39539913871E+02  0.50528982646E+02  0.30000373247E+02 0.  0.
         12    1    1    2    0    0 -0.62425235618E+01 -0.71261351990E+01 -0.39539913871E+02  0.40659017354E+02  0.00000000000E+00 0. -1.
         11    1    3    3    0    0  0.13885712581E+00  0.46985783195E+01  0.17897123630E+02  0.18504133430E+02  0.51100000000E-03 0. -1.
        -11    1    3    3    0    0 -0.50704956121E+01  0.73690900159E+01  0.16499772528E+02  0.18768481748E+02  0.51100000000E-03 0.  1.
         12    1    3    3    0    0  0.11174162048E+02 -0.49415331364E+01  0.51430177137E+01  0.13256367467E+02  0.00000000000E+00 0. -1.
</event>
<event>
 7    1  0.2744502E-011  0.5052886E+02  0.7816164E-02  0.1300439E+00
        -11   -1    0    0    0    0  0.00000000000E+00  0.00000000000E+00  0.45593999997E+02  0.45594000000E+02  0.51100000000E-03 0. -1.
         11   -1    0    0    0    0 -0.00000000000E+00 -0.00000000000E+00 -0.45593999997E+02  0.45594000000E+02  0.51100000000E-03 0.  1.
    9900012    2    1    2    0    0  0.33858028114E+02 -0.13001320192E+02 -0.18378401414E+02  0.50528855480E+02  0.29999986718E+02 0.  0.
         12    1    1    2    0    0 -0.33858028114E+02  0.13001320192E+02  0.18378401414E+02  0.40659144520E+02  0.00000000000E+00 0. -1.
         11    1    3    3    0    0  0.24152021383E+02 -0.37710040390E+01 -0.22430974155E+02  0.33176636510E+02  0.51100000000E-03 0. -1.
        -11    1    3    3    0    0  0.66589809557E+00 -0.20993722077E+01 -0.30960243823E+01  0.37994935422E+01  0.51100000000E-03 0.  1.
         12    1    3    3    0    0  0.90401086362E+01 -0.71309439452E+01  0.71485971226E+01  0.13552725428E+02  0.00000000000E+00 0. -1.
</event>
<event>
 7    1  0.2744502E-011  0.5052887E+02  0.7816164E-02  0.1300439E+00
        -11   -1    0    0    0    0  0.00000000000E+00  0.00000000000E+00  0.45593999997E+02  0.45594000000E+02  0.51100000000E-03 0.  1.
         11   -1    0    0    0    0 -0.00000000000E+00 -0.00000000000E+00 -0.45593999997E+02  0.45594000000E+02  0.51100000000E-03 0. -1.
    9900012    2    1    2    0    0  0.40531511393E+02 -0.31678192663E+01 -0.57150796777E+00  0.50528866757E+02  0.30000020995E+02 0.  0.
         12    1    1    2    0    0 -0.40531511393E+02  0.31678192663E+01  0.57150796777E+00  0.40659133243E+02  0.00000000000E+00 0. -1.
         11    1    3    3    0    0  0.54742513080E+01  0.72489965463E+01  0.18457834881E+00  0.90856726631E+01  0.51100000000E-03 0. -1.
        -11    1    3    3    0    0  0.31200918689E+02 -0.32971138188E+01  0.46356801401E+01  0.31715261581E+02  0.51100000000E-03 0.  1.
         12    1    3    3    0    0  0.38563413964E+01 -0.71197019938E+01 -0.53917664566E+01  0.97279325126E+01  0.00000000000E+00 0. -1.
</event>
<event>
 7    1  0.2744502E-011  0.5052886E+02  0.7816164E-02  0.1300439E+00
        -11   -1    0    0    0    0  0.00000000000E+00  0.00000000000E+00  0.45593999997E+02  0.45594000000E+02  0.51100000000E-03 0.  1.
         11   -1    0    0    0    0 -0.00000000000E+00 -0.00000000000E+00 -0.45593999997E+02  0.45594000000E+02  0.51100000000E-03 0. -1.
    9900012    2    1    2    0    0  0.29174488257E+02  0.38880391418E+01 -0.28051703859E+02  0.50528859542E+02  0.29999999063E+02 0.  0.
         12    1    1    2    0    0 -0.29174488257E+02 -0.38880391418E+01  0.28051703859E+02  0.40659140458E+02  0.00000000000E+00 0. -1.
         11    1    3    3    0    0  0.22642211512E+01 -0.74692786189E+01 -0.63726537962E+00  0.78308957300E+01  0.51100000000E-03 0. -1.
        -11    1    3    3    0    0 -0.19023075580E+00 -0.22099223833E+01 -0.78160326840E+00  0.23517756294E+01  0.51100000000E-03 0.  1.
        -12    1    3    3    0    0  0.27100497862E+02  0.13567240144E+02 -0.26632835211E+02  0.40346188182E+02  0.00000000000E+00 0.  1.
</event>
<event>
 7    1  0.2744502E-011  0.5052886E+02  0.7816164E-02  0.1300439E+00
        -11   -1    0    0    0    0  0.00000000000E+00  0.00000000000E+00  0.45593999997E+02  0.45594000000E+02  0.51100000000E-03 0.  1.
         11   -1    0    0    0    0 -0.00000000000E+00 -0.00000000000E+00 -0.45593999997E+02  0.45594000000E+02  0.51100000000E-03 0. -1.
    9900012    2    1    2    0    0 -0.58507457979E+01  0.38708942102E+02  0.10979614602E+02  0.50528863734E+02  0.30000011806E+02 0.  0.
         12    1    1    2    0    0  0.58507457979E+01 -0.38708942102E+02 -0.10979614602E+02  0.40659136266E+02  0.00000000000E+00 0. -1.
         11    1    3    3    0    0 -0.86719179795E+01  0.10760230279E+02 -0.11038255027E+01  0.13863734999E+02  0.51100000000E-03 0. -1.
        -11    1    3    3    0    0 -0.75683085825E+01  0.19829423421E+02  0.54921189448E+01  0.21923701758E+02  0.51100000000E-03 0.  1.
         12    1    3    3    0    0  0.10389480764E+02  0.81192884018E+01  0.65913211599E+01  0.14741426977E+02  0.00000000000E+00 0. -1.
</event>
<event>
 7    1  0.2744502E-011  0.5052886E+02  0.7816164E-02  0.1300439E+00
        -11   -1    0    0    0    0  0.00000000000E+00  0.00000000000E+00  0.45593999997E+02  0.45594000000E+02  0.51100000000E-03 0.  1.
         11   -1    0    0    0    0 -0.00000000000E+00 -0.00000000000E+00 -0.45593999997E+02  0.45594000000E+02  0.51100000000E-03 0. -1.
    9900012    2    1    2    0    0 -0.13223515300E+02 -0.24479146315E+02  0.29649212328E+02  0.50528858926E+02  0.29999997192E+02 0.  0.
         12    1    1    2    0    0  0.13223515300E+02  0.24479146315E+02 -0.29649212328E+02  0.40659141074E+02  0.00000000000E+00 0. -1.
         11    1    3    3    0    0 -0.14840723074E+02 -0.29346627832E+01  0.49354753129E+01  0.15912832050E+02  0.51100000000E-03 0. -1.
        -11    1    3    3    0    0 -0.33951781397E+01 -0.19866284669E+01  0.53564912135E+01  0.66457449279E+01  0.51100000000E-03 0.  1.
         12    1    3    3    0    0  0.50123859135E+01 -0.19557855065E+02  0.19357245801E+02  0.27970281949E+02  0.00000000000E+00 0. -1.
</event>
<event>
 7    1  0.2744502E-011  0.5052883E+02  0.7816164E-02  0.1300439E+00
        -11   -1    0    0    0    0  0.00000000000E+00  0.00000000000E+00  0.45593999997E+02  0.45594000000E+02  0.51100000000E-03 0.  1.
         11   -1    0    0    0    0 -0.00000000000E+00 -0.00000000000E+00 -0.45593999997E+02  0.45594000000E+02  0.51100000000E-03 0. -1.
    9900012    2    1    2    0    0  0.34676058434E+02 -0.21187574053E+02  0.13510647172E+01  0.50528834999E+02  0.29999924462E+02 0.  0.
         12    1    1    2    0    0 -0.34676058434E+02  0.21187574053E+02 -0.13510647172E+01  0.40659165001E+02  0.00000000000E+00 0. -1.
         11    1    3    3    0    0  0.10736896781E+01 -0.39579879359E+01 -0.53529520751E+01  0.67433355400E+01  0.51100000000E-03 0. -1.
        -11    1    3    3    0    0  0.12627205848E+02 -0.16557956966E+02 -0.22991062953E+01  0.20949896335E+02  0.51100000000E-03 0.  1.
         12    1    3    3    0    0  0.20975162907E+02 -0.67162915128E+00  0.90031230876E+01  0.22835603124E+02  0.00000000000E+00 0. -1.
</event>
<event>
 7    1  0.2744502E-011  0.5052885E+02  0.7816164E-02  0.1300439E+00
        -11   -1    0    0    0    0  0.00000000000E+00  0.00000000000E+00  0.45593999997E+02  0.45594000000E+02  0.51100000000E-03 0. -1.
         11   -1    0    0    0    0 -0.00000000000E+00 -0.00000000000E+00 -0.45593999997E+02  0.45594000000E+02  0.51100000000E-03 0.  1.
    9900012    2    1    2    0    0  0.71877962525E+01 -0.39936237571E+02 -0.25688733647E+01  0.50528848550E+02  0.29999965653E+02 0.  0.
         12    1    1    2    0    0 -0.71877962525E+01  0.39936237571E+02  0.25688733647E+01  0.40659151450E+02  0.00000000000E+00 0. -1.
         11    1    3    3    0    0 -0.42800404459E+01 -0.83210991132E+01 -0.55008368354E+01  0.10854429641E+02  0.51100000000E-03 0. -1.
        -11    1    3    3    0    0 -0.33883285892E+01  0.37637427375E+00 -0.21603614221E+01  0.40360364168E+01  0.51100000000E-03 0.  1.
        -12    1    3    3    0    0  0.14856165288E+02 -0.31991512731E+02  0.50923248928E+01  0.35638382493E+02  0.00000000000E+00 0.  1.
</event>
<event>
 7    1  0.2744502E-011  0.5052888E+02  0.7816164E-02  0.1300439E+00
        -11   -1    0    0    0    0  0.00000000000E+00  0.00000000000E+00  0.45593999997E+02  0.45594000000E+02  0.51100000000E-03 0. -1.
         11   -1    0    0    0    0 -0.00000000000E+00 -0.00000000000E+00 -0.45593999997E+02  0.45594000000E+02  0.51100000000E-03 0.  1.
    9900012    2    1    2    0    0  0.12515035209E+02 -0.91963996573E+01 -0.37576108311E+02  0.50528883080E+02  0.30000070609E+02 0.  0.
         12    1    1    2    0    0 -0.12515035209E+02  0.91963996573E+01  0.37576108311E+02  0.40659116920E+02  0.00000000000E+00 0. -1.
         11    1    3    3    0    0  0.31306472260E+01 -0.80002784982E+01 -0.23823266557E+02  0.25324956817E+02  0.51100000000E-03 0. -1.
        -11    1    3    3    0    0  0.54494794478E+00 -0.83715769987E+01 -0.10346036038E+02  0.13319937375E+02  0.51100000000E-03 0.  1.
         12    1    3    3    0    0  0.88394400382E+01  0.71754558397E+01 -0.34068057165E+01  0.11883988888E+02  0.00000000000E+00 0. -1.
</event>
<event>
 7    1  0.2744502E-011  0.5052886E+02  0.7816164E-02  0.1300439E+00
        -11   -1    0    0    0    0  0.00000000000E+00  0.00000000000E+00  0.45593999997E+02  0.45594000000E+02  0.51100000000E-03 0. -1.
         11   -1    0    0    0    0 -0.00000000000E+00 -0.00000000000E+00 -0.45593999997E+02  0.45594000000E+02  0.51100000000E-03 0.  1.
    9900012    2    1    2    0    0 -0.51318835392E+01 -0.53773831746E+01 -0.39973906038E+02  0.50528860284E+02  0.30000001320E+02 0.  0.
         12    1    1    2    0    0  0.51318835392E+01  0.53773831746E+01  0.39973906038E+02  0.40659139716E+02  0.00000000000E+00 0. -1.
         11    1    3    3    0    0  0.65669715249E+01  0.41232230153E+01 -0.16620792162E+01  0.79302326968E+01  0.51100000000E-03 0. -1.
        -11    1    3    3    0    0  0.82520271431E-01 -0.35745449708E+01 -0.23084939944E+01  0.42559753438E+01  0.51100000000E-03 0.  1.
        -12    1    3    3    0    0 -0.11781375336E+02 -0.59260612191E+01 -0.36003332828E+02  0.38342652244E+02  0.00000000000E+00 0.  1.
</event>
<event>
 7    1  0.2744502E-011  0.5052886E+02  0.7816164E-02  0.1300439E+00
        -11   -1    0    0    0    0  0.00000000000E+00  0.00000000000E+00  0.45593999997E+02  0.45594000000E+02  0.51100000000E-03 0.  1.
         11   -1    0    0    0    0 -0.00000000000E+00 -0.00000000000E+00 -0.45593999997E+02  0.45594000000E+02  0.51100000000E-03 0. -1.
    9900012    2    1    2    0    0  0.36150342418E+02 -0.93699036374E+01  0.16078654329E+02  0.50528862330E+02  0.30000007537E+02 0.  0.
         12    1    1    2    0    0 -0.36150342418E+02  0.93699036374E+01 -0.16078654329E+02  0.40659137670E+02  0.00000000000E+00 0. -1.
         11    1    3    3    0    0  0.80914623600E+01  0.75679396789E+01  0.27258635166E+01  0.11409461262E+02  0.51100000000E-03 0. -1.
        -11    1    3    3    0    0  0.11325752063E+02  0.17923476518E+01  0.60409522135E+01  0.12960643263E+02  0.51100000000E-03 0.  1.
         12    1    3    3    0    0  0.16733127995E+02 -0.18730190968E+02  0.73118385984E+01  0.26158757805E+02  0.00000000000E+00 0. -1.
</event>
<event>
 7    1  0.2744502E-011  0.5052885E+02  0.7816164E-02  0.1300439E+00
        -11   -1    0    0    0    0  0.00000000000E+00  0.00000000000E+00  0.45593999997E+02  0.45594000000E+02  0.51100000000E-03 0.  1.
         11   -1    0    0    0    0 -0.00000000000E+00 -0.00000000000E+00 -0.45593999997E+02  0.45594000000E+02  0.51100000000E-03 0. -1.
    9900012    2    1    2    0    0  0.25778598035E+02 -0.11430282843E+02  0.29291273623E+02  0.50528853514E+02  0.29999980740E+02 0.  0.
         12    1    1    2    0    0 -0.25778598035E+02  0.11430282843E+02 -0.29291273623E+02  0.40659146486E+02  0.00000000000E+00 0. -1.
         11    1    3    3    0    0  0.59044275484E+01 -0.44932246215E+01  0.21318619521E+01  0.77198554273E+01  0.51100000000E-03 0. -1.
        -11    1    3    3    0    0  0.78184796378E+00 -0.12966099385E+02  0.12146489156E+02  0.17783931471E+02  0.51100000000E-03 0.  1.
        -12    1    3    3    0    0  0.19092322523E+02  0.60290411631E+01  0.15012922515E+02  0.25025066615E+02  0.00000000000E+00 0.  1.
</event>
<event>
 7    1  0.2744502E-011  0.5052886E+02  0.7816164E-02  0.1300439E+00
        -11   -1    0    0    0    0  0.00000000000E+00  0.00000000000E+00  0.45593999997E+02  0.45594000000E+02  0.51100000000E-03 0.  1.
         11   -1    0    0    0    0 -0.00000000000E+00 -0.00000000000E+00 -0.45593999997E+02  0.45594000000E+02  0.51100000000E-03 0. -1.
    9900012    2    1    2    0    0 -0.17103175666E+02 -0.33963854469E+02  0.14391088138E+02  0.50528862699E+02  0.30000008659E+02 0.  0.
         12    1    1    2    0    0  0.17103175666E+02  0.33963854469E+02 -0.14391088138E+02  0.40659137301E+02  0.00000000000E+00 0. -1.
         11    1    3    3    0    0 -0.14064182489E+01  0.10391883714E+01 -0.90761152987E+00  0.19701989017E+01  0.51100000000E-03 0. -1.
        -11    1    3    3    0    0 -0.19572611706E+02 -0.12855432685E+02  0.56326243244E+01  0.24084761480E+02  0.51100000000E-03 0.  1.
         12    1    3    3    0    0  0.38758542888E+01 -0.22147610155E+02  0.96660753435E+01  0.24473902317E+02  0.00000000000E+00 0. -1.
</event>
<event>
 7    1  0.2744502E-011  0.5052886E+02  0.7816164E-02  0.1300439E+00
        -11   -1    0    0    0    0  0.00000000000E+00  0.00000000000E+00  0.45593999997E+02  0.45594000000E+02  0.51100000000E-03 0.  1.
         11   -1    0    0    0    0 -0.00000000000E+00 -0.00000000000E+00 -0.45593999997E+02  0.45594000000E+02  0.51100000000E-03 0. -1.
    9900012    2    1    2    0    0  0.28287780255E+01 -0.22963445516E+02  0.33434171491E+02  0.50528860335E+02  0.30000001473E+02 0.  0.
         12    1    1    2    0    0 -0.28287780255E+01  0.22963445516E+02 -0.33434171491E+02  0.40659139665E+02  0.00000000000E+00 0. -1.
         11    1    3    3    0    0  0.44344236234E+01 -0.46941591818E+01 -0.22616609510E+01  0.68421015642E+01  0.51100000000E-03 0. -1.
        -11    1    3    3    0    0 -0.32956385057E+01 -0.45079367171E+00 -0.44570774196E+00  0.33560547890E+01  0.51100000000E-03 0.  1.
        -12    1    3    3    0    0  0.16899929077E+01 -0.17818492662E+02  0.36141540184E+02  0.40330703981E+02  0.00000000000E+00 0.  1.
</event>
<event>
 7    1  0.2744502E-011  0.5052887E+02  0.7816164E-02  0.1300439E+00
        -11   -1    0    0    0    0  0.00000000000E+00  0.00000000000E+00  0.45593999997E+02  0.45594000000E+02  0.51100000000E-03 0.  1.
         11   -1    0    0    0    0 -0.00000000000E+00 -0.00000000000E+00 -0.45593999997E+02  0.45594000000E+02  0.51100000000E-03 0. -1.
    9900012    2    1    2    0    0 -0.11659637234E+02 -0.15618516042E+01  0.38920153948E+02  0.50528869362E+02  0.30000028913E+02 0.  0.
         12    1    1    2    0    0  0.11659637234E+02  0.15618516042E+01 -0.38920153948E+02  0.40659130638E+02  0.00000000000E+00 0. -1.
         11    1    3    3    0    0 -0.26401516383E+01 -0.65729022885E+01  0.74771248142E+00  0.71226764200E+01  0.51100000000E-03 0. -1.
        -11    1    3    3    0    0  0.41962109637E+01 -0.12630636858E+01  0.17760381142E+02  0.18293022027E+02  0.51100000000E-03 0.  1.
         12    1    3    3    0    0 -0.13215696560E+02  0.62741143702E+01  0.20412060325E+02  0.25113170915E+02  0.00000000000E+00 0. -1.
</event>
<event>
 7    1  0.2744502E-011  0.5052886E+02  0.7816164E-02  0.1300439E+00
        -11   -1    0    0    0    0  0.00000000000E+00  0.00000000000E+00  0.45593999997E+02  0.45594000000E+02  0.51100000000E-03 0.  1.
         11   -1    0    0    0    0 -0.00000000000E+00 -0.00000000000E+00 -0.45593999997E+02  0.45594000000E+02  0.51100000000E-03 0. -1.
    9900012    2    1    2    0    0  0.19352042014E+02 -0.11641440665E+02  0.33810364647E+02  0.50528862915E+02  0.30000009318E+02 0.  0.
         12    1    1    2    0    0 -0.19352042014E+02  0.11641440665E+02 -0.33810364647E+02  0.40659137085E+02  0.00000000000E+00 0. -1.
         11    1    3    3    0    0  0.11582429180E+02 -0.34327235026E+01  0.67720223399E+01  0.13849062899E+02  0.51100000000E-03 0. -1.
        -11    1    3    3    0    0  0.64211584035E+01  0.45189751956E+01  0.21209175229E+02  0.22615957336E+02  0.51100000000E-03 0.  1.
        -12    1    3    3    0    0  0.13484544312E+01 -0.12727692358E+02  0.58291670779E+01  0.14063842680E+02  0.00000000000E+00 0.  1.
</event>
<event>
 7    1  0.2744502E-011  0.5052885E+02  0.7816164E-02  0.1300439E+00
        -11   -1    0    0    0    0  0.00000000000E+00  0.00000000000E+00  0.45593999997E+02  0.45594000000E+02  0.51100000000E-03 0. -1.
         11   -1    0    0    0    0 -0.00000000000E+00 -0.00000000000E+00 -0.45593999997E+02  0.45594000000E+02  0.51100000000E-03 0.  1.
    9900012    2    1    2    0    0  0.16220067251E+02  0.19706344382E+02 -0.31650211260E+02  0.50528850189E+02  0.29999970635E+02 0.  0.
         12    1    1    2    0    0 -0.16220067251E+02 -0.19706344382E+02  0.31650211260E+02  0.40659149811E+02  0.00000000000E+00 0. -1.
         11    1    3    3    0    0  0.46789922141E+00  0.23230093747E+01 -0.13406121450E+02  0.13613941194E+02  0.51100000000E-03 0. -1.
        -11    1    3    3    0    0  0.62462070211E+01  0.73149837478E+01 -0.20724231095E+02  0.22847709822E+02  0.51100000000E-03 0.  1.
         12    1    3    3    0    0  0.95059610088E+01  0.10068351259E+02  0.24801412847E+01  0.14067199173E+02  0.00000000000E+00 0. -1.
</event>
<event>
 7    1  0.2744502E-011  0.5052894E+02  0.7816164E-02  0.1300438E+00
        -11   -1    0    0    0    0  0.00000000000E+00  0.00000000000E+00  0.45593999997E+02  0.45594000000E+02  0.51100000000E-03 0.  1.
         11   -1    0    0    0    0 -0.00000000000E+00 -0.00000000000E+00 -0.45593999997E+02  0.45594000000E+02  0.51100000000E-03 0. -1.
    9900012    2    1    2    0    0 -0.31083416753E+02  0.26042217995E+02 -0.29635971896E+01  0.50528944140E+02  0.30000256207E+02 0.  0.
         12    1    1    2    0    0  0.31083416753E+02 -0.26042217995E+02  0.29635971896E+01  0.40659055860E+02  0.00000000000E+00 0. -1.
         11    1    3    3    0    0 -0.10296275285E+02 -0.77838728075E+00  0.27995310047E+01  0.10698436596E+02  0.51100000000E-03 0. -1.
        -11    1    3    3    0    0  0.21872342951E+01  0.10981357053E+02  0.58483610201E+00  0.11212324920E+02  0.51100000000E-03 0.  1.
         12    1    3    3    0    0 -0.22974375764E+02  0.15839248222E+02 -0.63479642963E+01  0.28618182624E+02  0.00000000000E+00 0. -1.
</event>
<event>
 7    1  0.2744502E-011  0.5052886E+02  0.7816164E-02  0.1300439E+00
        -11   -1    0    0    0    0  0.00000000000E+00  0.00000000000E+00  0.45593999997E+02  0.45594000000E+02  0.51100000000E-03 0.  1.
         11   -1    0    0    0    0 -0.00000000000E+00 -0.00000000000E+00 -0.45593999997E+02  0.45594000000E+02  0.51100000000E-03 0. -1.
    9900012    2    1    2    0    0 -0.17807441238E+02 -0.36514109341E+02  0.16675021311E+01  0.50528859481E+02  0.29999998878E+02 0.  0.
         12    1    1    2    0    0  0.17807441238E+02  0.36514109341E+02 -0.16675021311E+01  0.40659140519E+02  0.00000000000E+00 0. -1.
         11    1    3    3    0    0 -0.39762795881E+01 -0.39219080874E+01  0.46794097391E+01  0.72862224902E+01  0.51100000000E-03 0. -1.
        -11    1    3    3    0    0  0.19725686003E+01 -0.10021806945E+01  0.63300089557E+01  0.67055504373E+01  0.51100000000E-03 0.  1.
        -12    1    3    3    0    0 -0.15803730250E+02 -0.31590020559E+02 -0.93419165637E+01  0.36537086553E+02  0.00000000000E+00 0.  1.
</event>
<event>
 7    1  0.2744502E-011  0.5052886E+02  0.7816164E-02  0.1300439E+00
        -11   -1    0    0    0    0  0.00000000000E+00  0.00000000000E+00  0.45593999997E+02  0.45594000000E+02  0.51100000000E-03 0.  1.
         11   -1    0    0    0    0 -0.00000000000E+00 -0.00000000000E+00 -0.45593999997E+02  0.45594000000E+02  0.51100000000E-03 0. -1.
    9900012    2    1    2    0    0 -0.20189283955E+01 -0.10315838467E+02  0.39276877539E+02  0.50528859523E+02  0.29999999006E+02 0.  0.
         12    1    1    2    0    0  0.20189283955E+01  0.10315838467E+02 -0.39276877539E+02  0.40659140477E+02  0.00000000000E+00 0. -1.
         11    1    3    3    0    0  0.90936256433E+01 -0.14749437294E+02  0.24007542612E+02  0.29607465788E+02  0.51100000000E-03 0. -1.
        -11    1    3    3    0    0  0.91543527191E+00  0.32249735825E+00  0.33797024841E+01  0.35163070721E+01  0.51100000000E-03 0.  1.
        -12    1    3    3    0    0 -0.12027989311E+02  0.41111014687E+01  0.11889632442E+02  0.17405086663E+02  0.00000000000E+00 0.  1.
</event>
<event>
 7    1  0.2744502E-011  0.5052889E+02  0.7816164E-02  0.1300439E+00
        -11   -1    0    0    0    0  0.00000000000E+00  0.00000000000E+00  0.45593999997E+02  0.45594000000E+02  0.51100000000E-03 0.  1.
         11   -1    0    0    0    0 -0.00000000000E+00 -0.00000000000E+00 -0.45593999997E+02  0.45594000000E+02  0.51100000000E-03 0. -1.
    9900012    2    1    2    0    0  0.24190658621E+01  0.26820627001E+02  0.30462521424E+02  0.50528891256E+02  0.30000095461E+02 0.  0.
         12    1    1    2    0    0 -0.24190658621E+01 -0.26820627001E+02 -0.30462521424E+02  0.40659108744E+02  0.00000000000E+00 0. -1.
         11    1    3    3    0    0 -0.38850603530E+01 -0.23351866310E+01  0.71242771730E+01  0.84440580320E+01  0.51100000000E-03 0. -1.
        -11    1    3    3    0    0  0.10190013331E+02  0.80350055096E+01  0.12547319709E+02  0.18050842567E+02  0.51100000000E-03 0.  1.
         12    1    3    3    0    0 -0.38858871161E+01  0.21120808123E+02  0.10790924541E+02  0.24033990657E+02  0.00000000000E+00 0. -1.
</event>
<event>
 7    1  0.2744502E-011  0.5052886E+02  0.7816164E-02  0.1300439E+00
        -11   -1    0    0    0    0  0.00000000000E+00  0.00000000000E+00  0.45593999997E+02  0.45594000000E+02  0.51100000000E-03 0. -1.
         11   -1    0    0    0    0 -0.00000000000E+00 -0.00000000000E+00 -0.45593999997E+02  0.45594000000E+02  0.51100000000E-03 0.  1.
    9900012    2    1    2    0    0  0.70617361149E+01  0.40037689438E+02  0.52995210768E+00  0.50528861523E+02  0.30000005085E+02 0.  0.
         12    1    1    2    0    0 -0.70617361149E+01 -0.40037689438E+02 -0.52995210768E+00  0.40659138477E+02  0.00000000000E+00 0. -1.
         11    1    3    3    0    0  0.20581832244E+01  0.25051266868E+01  0.92581864345E+01  0.98094747168E+01  0.51100000000E-03 0. -1.
        -11    1    3    3    0    0 -0.21163399787E+01  0.84551797272E+00 -0.12765977621E+01  0.26121825463E+01  0.51100000000E-03 0.  1.
        -12    1    3    3    0    0  0.71198928692E+01  0.36687044778E+02 -0.74516365647E+01  0.38107204260E+02  0.00000000000E+00 0.  1.
</event>
<event>
 7    1  0.2744502E-011  0.5052886E+02  0.7816164E-02  0.1300439E+00
        -11   -1    0    0    0    0  0.00000000000E+00  0.00000000000E+00  0.45593999997E+02  0.45594000000E+02  0.51100000000E-03 0. -1.
         11   -1    0    0    0    0 -0.00000000000E+00 -0.00000000000E+00 -0.45593999997E+02  0.45594000000E+02  0.51100000000E-03 0.  1.
    9900012    2    1    2    0    0 -0.34304741863E+02 -0.10803762862E+02 -0.18963882611E+02  0.50528862651E+02  0.30000008515E+02 0.  0.
         12    1    1    2    0    0  0.34304741863E+02  0.10803762862E+02  0.18963882611E+02  0.40659137349E+02  0.00000000000E+00 0. -1.
         11    1    3    3    0    0 -0.10202711029E+02 -0.15097998656E+02 -0.10921813013E+02  0.21244549313E+02  0.51100000000E-03 0. -1.
        -11    1    3    3    0    0 -0.13485460516E+02  0.11445005855E+01 -0.11418212975E+02  0.17707148690E+02  0.51100000000E-03 0.  1.
        -12    1    3    3    0    0 -0.10616570318E+02  0.31497352089E+01  0.33761433767E+01  0.11577164648E+02  0.00000000000E+00 0.  1.
</event>
<event>
 7    1  0.2744502E-011  0.5052886E+02  0.7816164E-02  0.1300439E+00
        -11   -1    0    0    0    0  0.00000000000E+00  0.00000000000E+00  0.45593999997E+02  0.45594000000E+02  0.51100000000E-03 0.  1.
         11   -1    0    0    0    0 -0.00000000000E+00 -0.00000000000E+00 -0.45593999997E+02  0.45594000000E+02  0.51100000000E-03 0. -1.
    9900012    2    1    2    0    0  0.30363166884E+02  0.27038797691E+02 -0.38315831119E+00  0.50528864568E+02  0.30000014341E+02 0.  0.
         12    1    1    2    0    0 -0.30363166884E+02 -0.27038797691E+02  0.38315831119E+00  0.40659135432E+02  0.00000000000E+00 0. -1.
         11    1    3    3    0    0  0.55278124707E+01 -0.52764750921E+01  0.36231486063E+00  0.76504360939E+01  0.51100000000E-03 0. -1.
        -11    1    3    3    0    0  0.29058665995E+01  0.27283833722E+01  0.41176924770E+01  0.57309273348E+01  0.51100000000E-03 0.  1.
         12    1    3    3    0    0  0.21929487814E+02  0.29586889411E+02 -0.48631656488E+01  0.37147501139E+02  0.00000000000E+00 0. -1.
</event>
<event>
 7    1  0.2744502E-011  0.5052886E+02  0.7816164E-02  0.1300439E+00
        -11   -1    0    0    0    0  0.00000000000E+00  0.00000000000E+00  0.45593999997E+02  0.45594000000E+02  0.51100000000E-03 0.  1.
         11   -1    0    0    0    0 -0.00000000000E+00 -0.00000000000E+00 -0.45593999997E+02  0.45594000000E+02  0.51100000000E-03 0. -1.
    9900012    2    1    2    0    0 -0.26484497683E+02  0.26033638972E+02  0.16552545895E+02  0.50528858946E+02  0.29999997253E+02 0.  0.
         12    1    1    2    0    0  0.26484497683E+02 -0.26033638972E+02 -0.16552545895E+02  0.40659141054E+02  0.00000000000E+00 0. -1.
         11    1    3    3    0    0  0.76191477358E+00 -0.20160236396E+01  0.35692588652E+01  0.41694693362E+01  0.51100000000E-03 0. -1.
        -11    1    3    3    0    0  0.10211720977E+00 -0.55519723650E+00  0.61777649633E+01  0.62035032118E+01  0.51100000000E-03 0.  1.
        -12    1    3    3    0    0 -0.27348529666E+02  0.28604859848E+02  0.68055220663E+01  0.40155886398E+02  0.00000000000E+00 0.  1.
</event>
<event>
 7    1  0.2744502E-011  0.5052886E+02  0.7816164E-02  0.1300439E+00
        -11   -1    0    0    0    0  0.00000000000E+00  0.00000000000E+00  0.45593999997E+02  0.45594000000E+02  0.51100000000E-03 0.  1.
         11   -1    0    0    0    0 -0.00000000000E+00 -0.00000000000E+00 -0.45593999997E+02  0.45594000000E+02  0.51100000000E-03 0. -1.
    9900012    2    1    2    0    0 -0.39600633959E+02 -0.87648408313E+01 -0.28517828953E+01  0.50528864366E+02  0.30000013728E+02 0.  0.
         12    1    1    2    0    0  0.39600633959E+02  0.87648408313E+01  0.28517828953E+01  0.40659135634E+02  0.00000000000E+00 0. -1.
         11    1    3    3    0    0 -0.30347817234E+01  0.36084898463E+01  0.15075933679E+01  0.49501451599E+01  0.51100000000E-03 0. -1.
        -11    1    3    3    0    0 -0.26963947446E+02  0.22253850134E+01  0.16369239769E+01  0.27105097689E+02  0.51100000000E-03 0.  1.
        -12    1    3    3    0    0 -0.96019047899E+01 -0.14598715691E+02 -0.59963002401E+01  0.18473621518E+02  0.00000000000E+00 0.  1.
</event>
<event>
 7    1  0.2744502E-011  0.5052886E+02  0.7816164E-02  0.1300439E+00
        -11   -1    0    0    0    0  0.00000000000E+00  0.00000000000E+00  0.45593999997E+02  0.45594000000E+02  0.51100000000E-03 0.  1.
         11   -1    0    0    0    0 -0.00000000000E+00 -0.00000000000E+00 -0.45593999997E+02  0.45594000000E+02  0.51100000000E-03 0. -1.
    9900012    2    1    2    0    0  0.29847476822E+02 -0.27407655704E+02 -0.33337906893E+01  0.50528860509E+02  0.30000002002E+02 0.  0.
         12    1    1    2    0    0 -0.29847476822E+02  0.27407655704E+02  0.33337906893E+01  0.40659139491E+02  0.00000000000E+00 0. -1.
         11    1    3    3    0    0  0.19035848201E+02 -0.31648586108E+01 -0.42473530149E+01  0.19759044882E+02  0.51100000000E-03 0. -1.
        -11    1    3    3    0    0  0.13363496555E+02 -0.14265288345E+02 -0.29540359906E+01  0.19768859872E+02  0.51100000000E-03 0.  1.
         12    1    3    3    0    0 -0.25518679343E+01 -0.99775087487E+01  0.38675983163E+01  0.11000955755E+02  0.00000000000E+00 0. -1.
</event>
<event>
 7    1  0.2977763E-011  0.5052886E+02  0.7816164E-02  0.1300439E+00
        -11   -1    0    0    0    0  0.00000000000E+00  0.00000000000E+00  0.45593999997E+02  0.45594000000E+02  0.51100000000E-03 0. -1.
         11   -1    0    0    0    0 -0.00000000000E+00 -0.00000000000E+00 -0.45593999997E+02  0.45594000000E+02  0.51100000000E-03 0.  1.
    9900012    2    1    2    0    0  0.25785778238E+02  0.53790718019E+01 -0.30972975592E+02  0.50528856012E+02  0.29999988335E+02 0.  0.
         12    1    1    2    0    0 -0.25785778238E+02 -0.53790718019E+01  0.30972975592E+02  0.40659143988E+02  0.00000000000E+00 0. -1.
         11    1    3    3    0    0  0.50055720134E+01  0.36135941838E+01  0.25283847373E+01  0.66713224886E+01  0.51100000000E-03 0. -1.
        -11    1    3    3    0    0  0.19765551618E+02  0.83236054997E+01 -0.23112989471E+02  0.31530457051E+02  0.51100000000E-03 0.  1.
         12    1    3    3    0    0  0.10146546063E+01 -0.65581278816E+01 -0.10388370858E+02  0.12327076473E+02  0.00000000000E+00 0. -1.
</event>
<event>
 7    1  0.2744502E-011  0.5052886E+02  0.7816164E-02  0.1300439E+00
        -11   -1    0    0    0    0  0.00000000000E+00  0.00000000000E+00  0.45593999997E+02  0.45594000000E+02  0.51100000000E-03 0.  1.
         11   -1    0    0    0    0 -0.00000000000E+00 -0.00000000000E+00 -0.45593999997E+02  0.45594000000E+02  0.51100000000E-03 0. -1.
    9900012    2    1    2    0    0  0.27396802057E+02 -0.11713960430E+02  0.27665208232E+02  0.50528863531E+02  0.30000011188E+02 0.  0.
         12    1    1    2    0    0 -0.27396802057E+02  0.11713960430E+02 -0.27665208232E+02  0.40659136469E+02  0.00000000000E+00 0. -1.
         11    1    3    3    0    0  0.78765484264E+01 -0.61886524785E+01  0.27892192787E+01  0.10398037270E+02  0.51100000000E-03 0. -1.
        -11    1    3    3    0    0  0.15483428502E+02 -0.14726469736E+02  0.18187500588E+02  0.28060481944E+02  0.51100000000E-03 0.  1.
        -12    1    3    3    0    0  0.40368251291E+01  0.92011617848E+01  0.66884883658E+01  0.12070344317E+02  0.00000000000E+00 0.  1.
</event>
<event>
 7    1  0.2744502E-011  0.5052884E+02  0.7816164E-02  0.1300439E+00
        -11   -1    0    0    0    0  0.00000000000E+00  0.00000000000E+00  0.45593999997E+02  0.45594000000E+02  0.51100000000E-03 0.  1.
         11   -1    0    0    0    0 -0.00000000000E+00 -0.00000000000E+00 -0.45593999997E+02  0.45594000000E+02  0.51100000000E-03 0. -1.
    9900012    2    1    2    0    0 -0.32057099457E+02  0.24903334055E+02 -0.23094253087E+01  0.50528842140E+02  0.29999946168E+02 0.  0.
         12    1    1    2    0    0  0.32057099457E+02 -0.24903334055E+02  0.23094253087E+01  0.40659157860E+02  0.00000000000E+00 0. -1.
         11    1    3    3    0    0 -0.23549562111E+01  0.17989069515E+01  0.45455167729E+01  0.54261964552E+01  0.51100000000E-03 0. -1.
        -11    1    3    3    0    0 -0.25724495058E+02  0.14681420010E+02  0.49870758424E+01  0.30036056086E+02  0.51100000000E-03 0.  1.
        -12    1    3    3    0    0 -0.39776481872E+01  0.84230070943E+01 -0.11842017924E+02  0.15066589598E+02  0.00000000000E+00 0.  1.
</event>
<event>
 7    1  0.2744502E-011  0.5052888E+02  0.7816164E-02  0.1300439E+00
        -11   -1    0    0    0    0  0.00000000000E+00  0.00000000000E+00  0.45593999997E+02  0.45594000000E+02  0.51100000000E-03 0.  1.
         11   -1    0    0    0    0 -0.00000000000E+00 -0.00000000000E+00 -0.45593999997E+02  0.45594000000E+02  0.51100000000E-03 0. -1.
    9900012    2    1    2    0    0 -0.41199483699E+01 -0.56845463274E+01  0.40048422583E+02  0.50528878110E+02  0.30000055502E+02 0.  0.
         12    1    1    2    0    0  0.41199483699E+01  0.56845463274E+01 -0.40048422583E+02  0.40659121890E+02  0.00000000000E+00 0. -1.
         11    1    3    3    0    0  0.73906910100E+01  0.11572434997E+01  0.48271284423E+01  0.89029599225E+01  0.51100000000E-03 0. -1.
        -11    1    3    3    0    0  0.26108327838E+01  0.27615650449E+00 -0.39663142190E+00  0.26551886912E+01  0.51100000000E-03 0.  1.
        -12    1    3    3    0    0 -0.14121472164E+02 -0.71179463316E+01  0.35617925563E+02  0.38970729496E+02  0.00000000000E+00 0.  1.
</event>
<event>
 7    1  0.2744502E-011  0.5052887E+02  0.7816164E-02  0.1300439E+00
        -11   -1    0    0    0    0  0.00000000000E+00  0.00000000000E+00  0.45593999997E+02  0.45594000000E+02  0.51100000000E-03 0.  1.
         11   -1    0    0    0    0 -0.00000000000E+00 -0.00000000000E+00 -0.45593999997E+02  0.45594000000E+02  0.51100000000E-03 0. -1.
    9900012    2    1    2    0    0  0.43070998475E+01 -0.24568189604E+02  0.32109464042E+02  0.50528871497E+02  0.30000035403E+02 0.  0.
         12    1    1    2    0    0 -0.43070998475E+01  0.24568189604E+02 -0.32109464042E+02  0.40659128503E+02  0.00000000000E+00 0. -1.
         11    1    3    3    0    0 -0.73602405725E+00  0.89898398714E+00  0.64255652701E+01  0.65297620878E+01  0.51100000000E-03 0. -1.
        -11    1    3    3    0    0 -0.31955408168E+01  0.29600976254E+01  0.90606344954E+01  0.10053295817E+02  0.51100000000E-03 0.  1.
        -12    1    3    3    0    0  0.82386647216E+01 -0.28427271217E+02  0.16623264277E+02  0.33945813592E+02  0.00000000000E+00 0.  1.
</event>
<event>
 7    1  0.2744502E-011  0.5052885E+02  0.7816164E-02  0.1300439E+00
        -11   -1    0    0    0    0  0.00000000000E+00  0.00000000000E+00  0.45593999997E+02  0.45594000000E+02  0.51100000000E-03 0.  1.
         11   -1    0    0    0    0 -0.00000000000E+00 -0.00000000000E+00 -0.45593999997E+02  0.45594000000E+02  0.51100000000E-03 0. -1.
    9900012    2    1    2    0    0  0.29260037874E+02  0.28142821692E+02  0.22357140417E+01  0.50528847937E+02  0.29999963790E+02 0.  0.
         12    1    1    2    0    0 -0.29260037874E+02 -0.28142821692E+02 -0.22357140417E+01  0.40659152063E+02  0.00000000000E+00 0. -1.
         11    1    3    3    0    0 -0.84826017433E+00  0.11023898359E+01 -0.53120171202E+01  0.54911141693E+01  0.51100000000E-03 0. -1.
        -11    1    3    3    0    0 -0.16371585707E+01  0.62225130298E+01  0.88446294736E+00  0.64947849509E+01  0.51100000000E-03 0.  1.
         12    1    3    3    0    0  0.31745456619E+02  0.20817918827E+02  0.66632682146E+01  0.38542948817E+02  0.00000000000E+00 0. -1.
</event>
<event>
 7    1  0.2744502E-011  0.5052886E+02  0.7816164E-02  0.1300439E+00
        -11   -1    0    0    0    0  0.00000000000E+00  0.00000000000E+00  0.45593999997E+02  0.45594000000E+02  0.51100000000E-03 0.  1.
         11   -1    0    0    0    0 -0.00000000000E+00 -0.00000000000E+00 -0.45593999997E+02  0.45594000000E+02  0.51100000000E-03 0. -1.
    9900012    2    1    2    0    0 -0.37857307699E+02  0.33980869300E+01  0.14437560691E+02  0.50528857120E+02  0.29999991702E+02 0.  0.
         12    1    1    2    0    0  0.37857307699E+02 -0.33980869300E+01 -0.14437560691E+02  0.40659142880E+02  0.00000000000E+00 0. -1.
         11    1    3    3    0    0 -0.44677245329E+01 -0.51928978017E+01  0.11783578387E+02  0.13630094275E+02  0.51100000000E-03 0. -1.
        -11    1    3    3    0    0 -0.55012079994E+01 -0.32727957173E+01 -0.54060183129E+00  0.64239187309E+01  0.51100000000E-03 0.  1.
         12    1    3    3    0    0 -0.27888375167E+02  0.11863780449E+02  0.31945841353E+01  0.30474844114E+02  0.00000000000E+00 0. -1.
</event>
<event>
 7    1  0.2744502E-011  0.5052885E+02  0.7816164E-02  0.1300439E+00
        -11   -1    0    0    0    0  0.00000000000E+00  0.00000000000E+00  0.45593999997E+02  0.45594000000E+02  0.51100000000E-03 0.  1.
         11   -1    0    0    0    0 -0.00000000000E+00 -0.00000000000E+00 -0.45593999997E+02  0.45594000000E+02  0.51100000000E-03 0. -1.
    9900012    2    1    2    0    0  0.12933656840E+02  0.19851686832E+02  0.33042355563E+02  0.50528853298E+02  0.29999980086E+02 0.  0.
         12    1    1    2    0    0 -0.12933656840E+02 -0.19851686832E+02 -0.33042355563E+02  0.40659146702E+02  0.00000000000E+00 0. -1.
         11    1    3    3    0    0  0.98478502763E-01 -0.30799568492E+00 -0.28056020319E+01  0.28241746369E+01  0.51100000000E-03 0. -1.
        -11    1    3    3    0    0  0.97394784830E+01 -0.19390382908E-01  0.56692263761E+01  0.11269336497E+02  0.51100000000E-03 0.  1.
        -12    1    3    3    0    0  0.30956998546E+01  0.20179072900E+02  0.30178731219E+02  0.36435342165E+02  0.00000000000E+00 0.  1.
</event>
<event>
 7    1  0.2744502E-011  0.5052886E+02  0.7816164E-02  0.1300439E+00
        -11   -1    0    0    0    0  0.00000000000E+00  0.00000000000E+00  0.45593999997E+02  0.45594000000E+02  0.51100000000E-03 0. -1.
         11   -1    0    0    0    0 -0.00000000000E+00 -0.00000000000E+00 -0.45593999997E+02  0.45594000000E+02  0.51100000000E-03 0.  1.
    9900012    2    1    2    0    0 -0.26319813406E+02  0.23867160294E+02 -0.19768450851E+02  0.50528861209E+02  0.30000004130E+02 0.  0.
         12    1    1    2    0    0  0.26319813406E+02 -0.23867160294E+02  0.19768450851E+02  0.40659138791E+02  0.00000000000E+00 0. -1.
         11    1    3    3    0    0 -0.74828062522E+01  0.15727748641E+02  0.38734040302E+01  0.17842581814E+02  0.51100000000E-03 0. -1.
        -11    1    3    3    0    0 -0.86502825905E+01  0.65657218561E+01 -0.64203272015E+01  0.12615732005E+02  0.51100000000E-03 0.  1.
        -12    1    3    3    0    0 -0.10186724563E+02  0.15736897963E+01 -0.17221527680E+02  0.20070547390E+02  0.00000000000E+00 0.  1.
</event>
<event>
 7    1  0.2744502E-011  0.5052886E+02  0.7816164E-02  0.1300439E+00
        -11   -1    0    0    0    0  0.00000000000E+00  0.00000000000E+00  0.45593999997E+02  0.45594000000E+02  0.51100000000E-03 0. -1.
         11   -1    0    0    0    0 -0.00000000000E+00 -0.00000000000E+00 -0.45593999997E+02  0.45594000000E+02  0.51100000000E-03 0.  1.
    9900012    2    1    2    0    0  0.30354459471E+02 -0.21013187197E+01 -0.26969554111E+02  0.50528860818E+02  0.30000002942E+02 0.  0.
         12    1    1    2    0    0 -0.30354459471E+02  0.21013187197E+01  0.26969554111E+02  0.40659139182E+02  0.00000000000E+00 0. -1.
         11    1    3    3    0    0  0.56695367905E+01 -0.34217202975E+00  0.67417710603E+00  0.57197241322E+01  0.51100000000E-03 0. -1.
        -11    1    3    3    0    0  0.36006490101E+01  0.89909603027E+01 -0.19553165848E+01  0.98805517895E+01  0.51100000000E-03 0.  1.
        -12    1    3    3    0    0  0.21084273670E+02 -0.10750106993E+02 -0.25688414632E+02  0.34928584896E+02  0.00000000000E+00 0.  1.
</event>
<event>
 7    1  0.2744502E-011  0.5052885E+02  0.7816164E-02  0.1300439E+00
        -11   -1    0    0    0    0  0.00000000000E+00  0.00000000000E+00  0.45593999997E+02  0.45594000000E+02  0.51100000000E-03 0.  1.
         11   -1    0    0    0    0 -0.00000000000E+00 -0.00000000000E+00 -0.45593999997E+02  0.45594000000E+02  0.51100000000E-03 0. -1.
    9900012    2    1    2    0    0  0.33254633563E+02 -0.17295571428E+02  0.15753064681E+02  0.50528849846E+02  0.29999969591E+02 0.  0.
         12    1    1    2    0    0 -0.33254633563E+02  0.17295571428E+02 -0.15753064681E+02  0.40659150154E+02  0.00000000000E+00 0. -1.
         11    1    3    3    0    0  0.51383024851E+01 -0.63885741540E+01 -0.79111783557E+01  0.11393102097E+02  0.51100000000E-03 0. -1.
        -11    1    3    3    0    0  0.16402778487E+02 -0.94999771100E+01  0.11405312278E+02  0.22121976756E+02  0.51100000000E-03 0.  1.
        -12    1    3    3    0    0  0.11713552591E+02 -0.14070201638E+01  0.12258930759E+02  0.17013770993E+02  0.00000000000E+00 0.  1.
</event>
<event>
 7    1  0.2744502E-011  0.5052893E+02  0.7816164E-02  0.1300439E+00
        -11   -1    0    0    0    0  0.00000000000E+00  0.00000000000E+00  0.45593999997E+02  0.45594000000E+02  0.51100000000E-03 0.  1.
         11   -1    0    0    0    0 -0.00000000000E+00 -0.00000000000E+00 -0.45593999997E+02  0.45594000000E+02  0.51100000000E-03 0. -1.
    9900012    2    1    2    0    0  0.18485776299E+02 -0.31547131963E+02  0.17782423072E+02  0.50528929293E+02  0.30000211078E+02 0.  0.
         12    1    1    2    0    0 -0.18485776299E+02  0.31547131963E+02 -0.17782423072E+02  0.40659070707E+02  0.00000000000E+00 0. -1.
         11    1    3    3    0    0 -0.11295533342E+01 -0.16363568897E+01 -0.21092871021E+00  0.19995113871E+01  0.51100000000E-03 0. -1.
        -11    1    3    3    0    0  0.14122078332E+02  0.36690175384E+00  0.76527231185E+01  0.16066483271E+02  0.51100000000E-03 0.  1.
        -12    1    3    3    0    0  0.54932513007E+01 -0.30277676827E+02  0.10340628663E+02  0.32462934634E+02  0.00000000000E+00 0.  1.
</event>
<event>
 7    1  0.2744502E-011  0.5052886E+02  0.7816164E-02  0.1300439E+00
        -11   -1    0    0    0    0  0.00000000000E+00  0.00000000000E+00  0.45593999997E+02  0.45594000000E+02  0.51100000000E-03 0.  1.
         11   -1    0    0    0    0 -0.00000000000E+00 -0.00000000000E+00 -0.45593999997E+02  0.45594000000E+02  0.51100000000E-03 0. -1.
    9900012    2    1    2    0    0  0.21641453018E+02 -0.11295916107E+02  0.32514855076E+02  0.50528855764E+02  0.29999987581E+02 0.  0.
         12    1    1    2    0    0 -0.21641453018E+02  0.11295916107E+02 -0.32514855076E+02  0.40659144236E+02  0.00000000000E+00 0. -1.
         11    1    3    3    0    0  0.11640162908E+02  0.15745671069E+01  0.47602846987E+01  0.12674106074E+02  0.51100000000E-03 0. -1.
        -11    1    3    3    0    0  0.11246652059E+02  0.13254440943E+01  0.10169372790E+02  0.15220385270E+02  0.51100000000E-03 0.  1.
         12    1    3    3    0    0 -0.12453619490E+01 -0.14195927308E+02  0.17585197587E+02  0.22634364420E+02  0.00000000000E+00 0. -1.
</event>
<event>
 7    1  0.2744502E-011  0.5052886E+02  0.7816164E-02  0.1300439E+00
        -11   -1    0    0    0    0  0.00000000000E+00  0.00000000000E+00  0.45593999997E+02  0.45594000000E+02  0.51100000000E-03 0. -1.
         11   -1    0    0    0    0 -0.00000000000E+00 -0.00000000000E+00 -0.45593999997E+02  0.45594000000E+02  0.51100000000E-03 0.  1.
    9900012    2    1    2    0    0 -0.83677759954E+01  0.30888133428E+02 -0.25081248449E+02  0.50528862214E+02  0.30000007185E+02 0.  0.
         12    1    1    2    0    0  0.83677759954E+01 -0.30888133428E+02  0.25081248449E+02  0.40659137786E+02  0.00000000000E+00 0. -1.
         11    1    3    3    0    0  0.34795265075E+01 -0.18850312495E+01 -0.21949489606E+01  0.45252899055E+01  0.51100000000E-03 0. -1.
        -11    1    3    3    0    0 -0.31529990193E+01  0.12487539875E+02 -0.19939554934E+02  0.23737436807E+02  0.51100000000E-03 0.  1.
         12    1    3    3    0    0 -0.86943034836E+01  0.20285624803E+02 -0.29467445545E+01  0.22266135502E+02  0.00000000000E+00 0. -1.
</event>
<event>
 7    1  0.2744502E-011  0.5052878E+02  0.7816164E-02  0.1300439E+00
        -11   -1    0    0    0    0  0.00000000000E+00  0.00000000000E+00  0.45593999997E+02  0.45594000000E+02  0.51100000000E-03 0.  1.
         11   -1    0    0    0    0 -0.00000000000E+00 -0.00000000000E+00 -0.45593999997E+02  0.45594000000E+02  0.51100000000E-03 0. -1.
    9900012    2    1    2    0    0  0.35564295907E+02 -0.17271385058E+02  0.94895833372E+01  0.50528781155E+02  0.29999760797E+02 0.  0.
         12    1    1    2    0    0 -0.35564295907E+02  0.17271385058E+02 -0.94895833372E+01  0.40659218845E+02  0.00000000000E+00 0. -1.
         11    1    3    3    0    0 -0.17681727977E+01 -0.12961429475E+01 -0.68533051694E+00  0.22969762214E+01  0.51100000000E-03 0.  1.
        -11    1    3    3    0    0  0.22943177932E+02 -0.19817718368E+02  0.22058112176E+00  0.30317981978E+02  0.51100000000E-03 0. -1.
        -12    1    3    3    0    0  0.14389290773E+02  0.38424762574E+01  0.99543327324E+01  0.17913822955E+02  0.00000000000E+00 0.  1.
</event>
<event>
 7    1  0.2744502E-011  0.5052886E+02  0.7816164E-02  0.1300439E+00
        -11   -1    0    0    0    0  0.00000000000E+00  0.00000000000E+00  0.45593999997E+02  0.45594000000E+02  0.51100000000E-03 0. -1.
         11   -1    0    0    0    0 -0.00000000000E+00 -0.00000000000E+00 -0.45593999997E+02  0.45594000000E+02  0.51100000000E-03 0.  1.
    9900012    2    1    2    0    0  0.21542830086E+02  0.29690706059E+02 -0.17536655282E+02  0.50528857942E+02  0.29999994200E+02 0.  0.
         12    1    1    2    0    0 -0.21542830086E+02 -0.29690706059E+02  0.17536655282E+02  0.40659142058E+02  0.00000000000E+00 0. -1.
         11    1    3    3    0    0  0.98560232916E+01  0.22732012200E+02 -0.10963931354E+02  0.27094157392E+02  0.51100000000E-03 0. -1.
        -11    1    3    3    0    0  0.12519324528E+02  0.13695610222E+01 -0.10628142148E+02  0.16479277588E+02  0.51100000000E-03 0.  1.
         12    1    3    3    0    0 -0.83251773363E+00  0.55891328376E+01  0.40554182198E+01  0.69554229627E+01  0.00000000000E+00 0. -1.
</event>
<event>
 7    1  0.2744502E-011  0.5052886E+02  0.7816164E-02  0.1300439E+00
        -11   -1    0    0    0    0  0.00000000000E+00  0.00000000000E+00  0.45593999997E+02  0.45594000000E+02  0.51100000000E-03 0.  1.
         11   -1    0    0    0    0 -0.00000000000E+00 -0.00000000000E+00 -0.45593999997E+02  0.45594000000E+02  0.51100000000E-03 0. -1.
    9900012    2    1    2    0    0  0.22875796323E+02  0.19950697534E+02  0.27052419134E+02  0.50528858709E+02  0.29999996531E+02 0.  0.
         12    1    1    2    0    0 -0.22875796323E+02 -0.19950697534E+02 -0.27052419134E+02  0.40659141291E+02  0.00000000000E+00 0. -1.
         11    1    3    3    0    0  0.78841094047E+00 -0.35978550766E+01 -0.28615159183E+01  0.46641640811E+01  0.51100000000E-03 0. -1.
        -11    1    3    3    0    0  0.76283901041E+01  0.75229837486E+01  0.18673968879E+02  0.21529160086E+02  0.51100000000E-03 0.  1.
        -12    1    3    3    0    0  0.14458995279E+02  0.16025568863E+02  0.11239966173E+02  0.24335534541E+02  0.00000000000E+00 0.  1.
</event>
<event>
 7    1  0.2744502E-011  0.5052885E+02  0.7816164E-02  0.1300439E+00
        -11   -1    0    0    0    0  0.00000000000E+00  0.00000000000E+00  0.45593999997E+02  0.45594000000E+02  0.51100000000E-03 0.  1.
         11   -1    0    0    0    0 -0.00000000000E+00 -0.00000000000E+00 -0.45593999997E+02  0.45594000000E+02  0.51100000000E-03 0. -1.
    9900012    2    1    2    0    0  0.25336767506E+02  0.16146089953E+02  0.27395590468E+02  0.50528851146E+02  0.29999973542E+02 0.  0.
         12    1    1    2    0    0 -0.25336767506E+02 -0.16146089953E+02 -0.27395590468E+02  0.40659148854E+02  0.00000000000E+00 0. -1.
         11    1    3    3    0    0 -0.29011807978E+01  0.39381665240E+01  0.15958329831E+01  0.51451616849E+01  0.51100000000E-03 0. -1.
        -11    1    3    3    0    0 -0.23773852075E+01  0.54763811581E+01  0.35895771872E+01  0.69661880291E+01  0.51100000000E-03 0.  1.
        -12    1    3    3    0    0  0.30615333512E+02  0.67315422714E+01  0.22210180298E+02  0.38417501432E+02  0.00000000000E+00 0.  1.
</event>
<event>
 7    1  0.2744502E-011  0.5052885E+02  0.7816164E-02  0.1300439E+00
        -11   -1    0    0    0    0  0.00000000000E+00  0.00000000000E+00  0.45593999997E+02  0.45594000000E+02  0.51100000000E-03 0.  1.
         11   -1    0    0    0    0 -0.00000000000E+00 -0.00000000000E+00 -0.45593999997E+02  0.45594000000E+02  0.51100000000E-03 0. -1.
    9900012    2    1    2    0    0  0.34345534929E+02  0.15240386462E+02  0.15533240393E+02  0.50528847203E+02  0.29999961559E+02 0.  0.
         12    1    1    2    0    0 -0.34345534929E+02 -0.15240386462E+02 -0.15533240393E+02  0.40659152797E+02  0.00000000000E+00 0. -1.
         11    1    3    3    0    0  0.17124562419E+02  0.54196137439E+01 -0.33653128319E+01  0.18274249147E+02  0.51100000000E-03 0. -1.
        -11    1    3    3    0    0  0.87346206358E+01  0.11699319996E+02  0.42238232715E+01  0.15198959481E+02  0.51100000000E-03 0.  1.
        -12    1    3    3    0    0  0.84863518738E+01 -0.18785472780E+01  0.14674729953E+02  0.17055638575E+02  0.00000000000E+00 0.  1.
</event>
<event>
 7    1  0.2744502E-011  0.5052886E+02  0.7816164E-02  0.1300439E+00
        -11   -1    0    0    0    0  0.00000000000E+00  0.00000000000E+00  0.45593999997E+02  0.45594000000E+02  0.51100000000E-03 0. -1.
         11   -1    0    0    0    0 -0.00000000000E+00 -0.00000000000E+00 -0.45593999997E+02  0.45594000000E+02  0.51100000000E-03 0.  1.
    9900012    2    1    2    0    0  0.12522536341E+01  0.34857685125E+02 -0.20893526484E+02  0.50528858342E+02  0.29999995416E+02 0.  0.
         12    1    1    2    0    0 -0.12522536341E+01 -0.34857685125E+02  0.20893526484E+02  0.40659141658E+02  0.00000000000E+00 0. -1.
         11    1    3    3    0    0  0.43037041906E+01  0.89979970667E+01 -0.10295049915E+02  0.14334359909E+02  0.51100000000E-03 0. -1.
        -11    1    3    3    0    0  0.89485703891E+01  0.78504929853E+01 -0.81250916875E+01  0.14412642621E+02  0.51100000000E-03 0.  1.
        -12    1    3    3    0    0 -0.12000020946E+02  0.18009195073E+02 -0.24733848811E+01  0.21781855813E+02  0.00000000000E+00 0.  1.
</event>
<event>
 7    1  0.2744502E-011  0.5052886E+02  0.7816164E-02  0.1300439E+00
        -11   -1    0    0    0    0  0.00000000000E+00  0.00000000000E+00  0.45593999997E+02  0.45594000000E+02  0.51100000000E-03 0.  1.
         11   -1    0    0    0    0 -0.00000000000E+00 -0.00000000000E+00 -0.45593999997E+02  0.45594000000E+02  0.51100000000E-03 0. -1.
    9900012    2    1    2    0    0  0.23385853599E+02  0.17250454144E+02  0.28437458928E+02  0.50528863425E+02  0.30000010866E+02 0.  0.
         12    1    1    2    0    0 -0.23385853599E+02 -0.17250454144E+02 -0.28437458928E+02  0.40659136575E+02  0.00000000000E+00 0. -1.
         11    1    3    3    0    0  0.15920582968E+01 -0.51532655417E+00  0.85263265349E+01  0.86889847231E+01  0.51100000000E-03 0. -1.
        -11    1    3    3    0    0  0.50129116636E+01 -0.30120930677E+01  0.12995877229E+02  0.14251133752E+02  0.51100000000E-03 0.  1.
         12    1    3    3    0    0  0.16780883639E+02  0.20777873766E+02  0.69152551643E+01  0.27588744950E+02  0.00000000000E+00 0. -1.
</event>
<event>
 7    1  0.2744502E-011  0.5052887E+02  0.7816164E-02  0.1300439E+00
        -11   -1    0    0    0    0  0.00000000000E+00  0.00000000000E+00  0.45593999997E+02  0.45594000000E+02  0.51100000000E-03 0.  1.
         11   -1    0    0    0    0 -0.00000000000E+00 -0.00000000000E+00 -0.45593999997E+02  0.45594000000E+02  0.51100000000E-03 0. -1.
    9900012    2    1    2    0    0 -0.22443685166E+02 -0.29011567943E+02  0.17543500650E+02  0.50528874414E+02  0.30000044270E+02 0.  0.
         12    1    1    2    0    0  0.22443685166E+02  0.29011567943E+02 -0.17543500650E+02  0.40659125586E+02  0.00000000000E+00 0. -1.
         11    1    3    3    0    0 -0.10669706955E+02 -0.10479684259E+02 -0.63207707431E+01  0.16236334923E+02  0.51100000000E-03 0. -1.
        -11    1    3    3    0    0 -0.59455117071E+01 -0.73689426702E+01  0.30177482098E+01  0.99376672340E+01  0.51100000000E-03 0.  1.
         12    1    3    3    0    0 -0.58284665039E+01 -0.11162941014E+02  0.20846523183E+02  0.24354872258E+02  0.00000000000E+00 0. -1.
</event>
<event>
 7    1  0.2744502E-011  0.5052888E+02  0.7816164E-02  0.1300439E+00
        -11   -1    0    0    0    0  0.00000000000E+00  0.00000000000E+00  0.45593999997E+02  0.45594000000E+02  0.51100000000E-03 0.  1.
         11   -1    0    0    0    0 -0.00000000000E+00 -0.00000000000E+00 -0.45593999997E+02  0.45594000000E+02  0.51100000000E-03 0. -1.
    9900012    2    1    2    0    0 -0.93633043887E+01  0.90533891218E+00  0.39555951036E+02  0.50528875932E+02  0.30000048884E+02 0.  0.
         12    1    1    2    0    0  0.93633043887E+01 -0.90533891218E+00 -0.39555951036E+02  0.40659124068E+02  0.00000000000E+00 0. -1.
         11    1    3    3    0    0 -0.84053575522E+01  0.51417842373E+01  0.35734396336E+02  0.37067978937E+02  0.51100000000E-03 0.  1.
        -11    1    3    3    0    0 -0.48873622153E+01  0.22019173991E+01  0.14264630603E+01  0.55470304469E+01  0.51100000000E-03 0. -1.
        -12    1    3    3    0    0  0.39294153787E+01 -0.64383627243E+01  0.23950916398E+01  0.79138665487E+01  0.00000000000E+00 0.  1.
</event>
<event>
 7    1  0.2744502E-011  0.5052889E+02  0.7816164E-02  0.1300439E+00
        -11   -1    0    0    0    0  0.00000000000E+00  0.00000000000E+00  0.45593999997E+02  0.45594000000E+02  0.51100000000E-03 0. -1.
         11   -1    0    0    0    0 -0.00000000000E+00 -0.00000000000E+00 -0.45593999997E+02  0.45594000000E+02  0.51100000000E-03 0.  1.
    9900012    2    1    2    0    0  0.82588773705E+01 -0.39324211562E+02  0.62097464029E+01  0.50528885146E+02  0.30000076888E+02 0.  0.
         12    1    1    2    0    0 -0.82588773705E+01  0.39324211562E+02 -0.62097464029E+01  0.40659114854E+02  0.00000000000E+00 0. -1.
         11    1    3    3    0    0  0.14645140909E+02 -0.17446977961E+02  0.34383729213E+01  0.23036918215E+02  0.51100000000E-03 0. -1.
        -11    1    3    3    0    0  0.27747626714E+01 -0.14632186678E+02  0.47791016801E+01  0.15640972093E+02  0.51100000000E-03 0.  1.
         12    1    3    3    0    0 -0.91610262104E+01 -0.72450469224E+01 -0.20077281986E+01  0.11850994838E+02  0.00000000000E+00 0. -1.
</event>
<event>
 7    1  0.2744502E-011  0.5052884E+02  0.7816164E-02  0.1300439E+00
        -11   -1    0    0    0    0  0.00000000000E+00  0.00000000000E+00  0.45593999997E+02  0.45594000000E+02  0.51100000000E-03 0.  1.
         11   -1    0    0    0    0 -0.00000000000E+00 -0.00000000000E+00 -0.45593999997E+02  0.45594000000E+02  0.51100000000E-03 0. -1.
    9900012    2    1    2    0    0  0.16159061141E+02  0.15345567592E+02  0.34008315123E+02  0.50528841140E+02  0.29999943130E+02 0.  0.
         12    1    1    2    0    0 -0.16159061141E+02 -0.15345567592E+02 -0.34008315123E+02  0.40659158860E+02  0.00000000000E+00 0. -1.
         11    1    3    3    0    0  0.15317721758E+02  0.95864242083E+01  0.13076423564E+02  0.22305268043E+02  0.51100000000E-03 0. -1.
        -11    1    3    3    0    0  0.58881013483E+01  0.50396763806E+01  0.21723526918E+02  0.23064685073E+02  0.51100000000E-03 0.  1.
         12    1    3    3    0    0 -0.50467619656E+01  0.71946700281E+00 -0.79163535913E+00  0.51588880243E+01  0.00000000000E+00 0. -1.
</event>
<event>
 7    1  0.2744502E-011  0.5052885E+02  0.7816164E-02  0.1300439E+00
        -11   -1    0    0    0    0  0.00000000000E+00  0.00000000000E+00  0.45593999997E+02  0.45594000000E+02  0.51100000000E-03 0. -1.
         11   -1    0    0    0    0 -0.00000000000E+00 -0.00000000000E+00 -0.45593999997E+02  0.45594000000E+02  0.51100000000E-03 0.  1.
    9900012    2    1    2    0    0  0.29582717640E+02 -0.26065229387E+02  0.99314034472E+01  0.50528854160E+02  0.29999982706E+02 0.  0.
         12    1    1    2    0    0 -0.29582717640E+02  0.26065229387E+02 -0.99314034472E+01  0.40659145840E+02  0.00000000000E+00 0. -1.
         11    1    3    3    0    0  0.72218670617E+00 -0.17893184004E+02 -0.19560744364E+01  0.18014266983E+02  0.51100000000E-03 0.  1.
        -11    1    3    3    0    0  0.15566561131E+02 -0.31877569567E+01  0.45242357983E+01  0.16521147953E+02  0.51100000000E-03 0. -1.
        -12    1    3    3    0    0  0.13293969803E+02 -0.49842884256E+01  0.73632420853E+01  0.15993439225E+02  0.00000000000E+00 0.  1.
</event>
<event>
 7    1  0.2744502E-011  0.5052888E+02  0.7816164E-02  0.1300439E+00
        -11   -1    0    0    0    0  0.00000000000E+00  0.00000000000E+00  0.45593999997E+02  0.45594000000E+02  0.51100000000E-03 0. -1.
         11   -1    0    0    0    0 -0.00000000000E+00 -0.00000000000E+00 -0.45593999997E+02  0.45594000000E+02  0.51100000000E-03 0.  1.
    9900012    2    1    2    0    0  0.12665467182E+02 -0.12393981469E+02 -0.36594254389E+02  0.50528876917E+02  0.30000051878E+02 0.  0.
         12    1    1    2    0    0 -0.12665467182E+02  0.12393981469E+02  0.36594254389E+02  0.40659123083E+02  0.00000000000E+00 0. -1.
         11    1    3    3    0    0  0.91942633287E+00 -0.13153224170E+01  0.33134299139E+00  0.16386599041E+01  0.51100000000E-03 0. -1.
        -11    1    3    3    0    0 -0.12056912900E+01 -0.13348557524E+02 -0.49003754604E+01  0.14270646775E+02  0.51100000000E-03 0.  1.
         12    1    3    3    0    0  0.12951732139E+02  0.22698984720E+01 -0.32025221920E+02  0.34619570238E+02  0.00000000000E+00 0. -1.
</event>
<event>
 7    1  0.2744502E-011  0.5052886E+02  0.7816164E-02  0.1300439E+00
        -11   -1    0    0    0    0  0.00000000000E+00  0.00000000000E+00  0.45593999997E+02  0.45594000000E+02  0.51100000000E-03 0. -1.
         11   -1    0    0    0    0 -0.00000000000E+00 -0.00000000000E+00 -0.45593999997E+02  0.45594000000E+02  0.51100000000E-03 0.  1.
    9900012    2    1    2    0    0  0.16864427759E+02  0.70331486022E+01 -0.36322053178E+02  0.50528860191E+02  0.30000001037E+02 0.  0.
         12    1    1    2    0    0 -0.16864427759E+02 -0.70331486022E+01  0.36322053178E+02  0.40659139809E+02  0.00000000000E+00 0. -1.
         11    1    3    3    0    0 -0.69116317926E+01  0.21005687565E+01 -0.52201115296E+01  0.89124972808E+01  0.51100000000E-03 0. -1.
        -11    1    3    3    0    0 -0.13666261845E+00  0.27506663413E+01 -0.73181033180E+01  0.78191737687E+01  0.51100000000E-03 0.  1.
        -12    1    3    3    0    0  0.23912722170E+02  0.21819135044E+01 -0.23783838331E+02  0.33797189142E+02  0.00000000000E+00 0.  1.
</event>
<event>
 7    1  0.2744502E-011  0.5052886E+02  0.7816164E-02  0.1300439E+00
        -11   -1    0    0    0    0  0.00000000000E+00  0.00000000000E+00  0.45593999997E+02  0.45594000000E+02  0.51100000000E-03 0.  1.
         11   -1    0    0    0    0 -0.00000000000E+00 -0.00000000000E+00 -0.45593999997E+02  0.45594000000E+02  0.51100000000E-03 0. -1.
    9900012    2    1    2    0    0 -0.34887576504E+02  0.95266573053E+01  0.18581328769E+02  0.50528856225E+02  0.29999988980E+02 0.  0.
         12    1    1    2    0    0  0.34887576504E+02 -0.95266573053E+01 -0.18581328769E+02  0.40659143775E+02  0.00000000000E+00 0. -1.
         11    1    3    3    0    0 -0.38645241009E+01  0.49514980724E+01  0.43710322370E+01  0.76523070224E+01  0.51100000000E-03 0. -1.
        -11    1    3    3    0    0 -0.17822241034E+02  0.10662338007E+02  0.18401562404E+02  0.27747706687E+02  0.51100000000E-03 0.  1.
        -12    1    3    3    0    0 -0.13200811369E+02 -0.60871787743E+01 -0.41912658717E+01  0.15128842515E+02  0.00000000000E+00 0.  1.
</event>
<event>
 7    1  0.2744502E-011  0.5052886E+02  0.7816164E-02  0.1300439E+00
        -11   -1    0    0    0    0  0.00000000000E+00  0.00000000000E+00  0.45593999997E+02  0.45594000000E+02  0.51100000000E-03 0.  1.
         11   -1    0    0    0    0 -0.00000000000E+00 -0.00000000000E+00 -0.45593999997E+02  0.45594000000E+02  0.51100000000E-03 0. -1.
    9900012    2    1    2    0    0 -0.13284721022E+01  0.22364456289E+02  0.33929806623E+02  0.50528861782E+02  0.30000005871E+02 0.  0.
         12    1    1    2    0    0  0.13284721022E+01 -0.22364456289E+02 -0.33929806623E+02  0.40659138218E+02  0.00000000000E+00 0. -1.
         11    1    3    3    0    0  0.26169003205E+01  0.17459886571E+01 -0.32825424950E+01  0.45466173328E+01  0.51100000000E-03 0. -1.
        -11    1    3    3    0    0 -0.22588741775E+01  0.25921911750E+01  0.22194784049E+02  0.22459528198E+02  0.51100000000E-03 0.  1.
         12    1    3    3    0    0 -0.16864982452E+01  0.18026276457E+02  0.15017565069E+02  0.23522716251E+02  0.00000000000E+00 0. -1.
</event>
<event>
 7    1  0.2744502E-011  0.5052884E+02  0.7816164E-02  0.1300439E+00
        -11   -1    0    0    0    0  0.00000000000E+00  0.00000000000E+00  0.45593999997E+02  0.45594000000E+02  0.51100000000E-03 0. -1.
         11   -1    0    0    0    0 -0.00000000000E+00 -0.00000000000E+00 -0.45593999997E+02  0.45594000000E+02  0.51100000000E-03 0.  1.
    9900012    2    1    2    0    0  0.38052222338E+01 -0.22949409369E+02 -0.33346841414E+02  0.50528844341E+02  0.29999952858E+02 0.  0.
         12    1    1    2    0    0 -0.38052222338E+01  0.22949409369E+02  0.33346841414E+02  0.40659155659E+02  0.00000000000E+00 0. -1.
         11    1    3    3    0    0 -0.21698106021E+00 -0.51841143691E+01  0.28051660028E+00  0.51962305950E+01  0.51100000000E-03 0. -1.
        -11    1    3    3    0    0 -0.26166015620E+01 -0.12425055983E+02 -0.23469977180E+01  0.12912668913E+02  0.51100000000E-03 0.  1.
        -12    1    3    3    0    0  0.66388048561E+01 -0.53402390170E+01 -0.31280360296E+02  0.32419944833E+02  0.00000000000E+00 0.  1.
</event>
<event>
 7    1  0.2744502E-011  0.5052886E+02  0.7816164E-02  0.1300439E+00
        -11   -1    0    0    0    0  0.00000000000E+00  0.00000000000E+00  0.45593999997E+02  0.45594000000E+02  0.51100000000E-03 0.  1.
         11   -1    0    0    0    0 -0.00000000000E+00 -0.00000000000E+00 -0.45593999997E+02  0.45594000000E+02  0.51100000000E-03 0. -1.
    9900012    2    1    2    0    0  0.40562719168E+02  0.26292433200E+01 -0.95835280095E+00  0.50528861459E+02  0.30000004892E+02 0.  0.
         12    1    1    2    0    0 -0.40562719168E+02 -0.26292433200E+01  0.95835280095E+00  0.40659138541E+02  0.00000000000E+00 0. -1.
         11    1    3    3    0    0  0.69549718734E+01  0.69151286154E+00  0.21730402774E+01  0.73192846717E+01  0.51100000000E-03 0. -1.
        -11    1    3    3    0    0  0.96727610236E+00  0.68773694153E+01  0.57579893944E+01  0.90215450595E+01  0.51100000000E-03 0.  1.
         12    1    3    3    0    0  0.32640471193E+02 -0.49396389569E+01 -0.88893824727E+01  0.34188031728E+02  0.00000000000E+00 0. -1.
</event>
<event>
 7    1  0.2744502E-011  0.5052886E+02  0.7816164E-02  0.1300439E+00
        -11   -1    0    0    0    0  0.00000000000E+00  0.00000000000E+00  0.45593999997E+02  0.45594000000E+02  0.51100000000E-03 0.  1.
         11   -1    0    0    0    0 -0.00000000000E+00 -0.00000000000E+00 -0.45593999997E+02  0.45594000000E+02  0.51100000000E-03 0. -1.
    9900012    2    1    2    0    0  0.22254505974E+02  0.15422371477E+02  0.30332382775E+02  0.50528855605E+02  0.29999987097E+02 0.  0.
         12    1    1    2    0    0 -0.22254505974E+02 -0.15422371477E+02 -0.30332382775E+02  0.40659144395E+02  0.00000000000E+00 0. -1.
         11    1    3    3    0    0  0.65340821242E+01  0.27064843631E+00  0.10774352317E+02  0.12603735473E+02  0.51100000000E-03 0. -1.
        -11    1    3    3    0    0 -0.40235691499E+00 -0.46283802492E+01  0.93499297630E+01  0.10440545084E+02  0.51100000000E-03 0.  1.
        -12    1    3    3    0    0  0.16122780765E+02  0.19780103290E+02  0.10208100696E+02  0.27484575048E+02  0.00000000000E+00 0.  1.
</event>
<event>
 7    1  0.2744502E-011  0.5052883E+02  0.7816164E-02  0.1300439E+00
        -11   -1    0    0    0    0  0.00000000000E+00  0.00000000000E+00  0.45593999997E+02  0.45594000000E+02  0.51100000000E-03 0. -1.
         11   -1    0    0    0    0 -0.00000000000E+00 -0.00000000000E+00 -0.45593999997E+02  0.45594000000E+02  0.51100000000E-03 0.  1.
    9900012    2    1    2    0    0 -0.26923546080E+02 -0.29251564644E+02 -0.85227221752E+01  0.50528829313E+02  0.29999907180E+02 0.  0.
         12    1    1    2    0    0  0.26923546080E+02  0.29251564644E+02  0.85227221752E+01  0.40659170687E+02  0.00000000000E+00 0. -1.
         11    1    3    3    0    0  0.12784379219E+01 -0.96428947611E+00  0.12880117245E+01  0.20550504075E+01  0.51100000000E-03 0. -1.
        -11    1    3    3    0    0 -0.49516138762E+01 -0.22932122073E+02 -0.29337046873E+01  0.23643335767E+02  0.51100000000E-03 0.  1.
         12    1    3    3    0    0 -0.23250370126E+02 -0.53551530954E+01 -0.68770292123E+01  0.24830443139E+02  0.00000000000E+00 0. -1.
</event>
<event>
 7    1  0.2744502E-011  0.5052887E+02  0.7816164E-02  0.1300439E+00
        -11   -1    0    0    0    0  0.00000000000E+00  0.00000000000E+00  0.45593999997E+02  0.45594000000E+02  0.51100000000E-03 0. -1.
         11   -1    0    0    0    0 -0.00000000000E+00 -0.00000000000E+00 -0.45593999997E+02  0.45594000000E+02  0.51100000000E-03 0.  1.
    9900012    2    1    2    0    0 -0.49485819747E+01 -0.36033778665E+02 -0.18172589657E+02  0.50528872079E+02  0.30000037171E+02 0.  0.
         12    1    1    2    0    0  0.49485819747E+01  0.36033778665E+02  0.18172589657E+02  0.40659127921E+02  0.00000000000E+00 0. -1.
         11    1    3    3    0    0 -0.19982465472E+01 -0.58204272256E+00 -0.12615910927E+02  0.12786437024E+02  0.51100000000E-03 0. -1.
        -11    1    3    3    0    0  0.21433754402E+01 -0.34364794361E+01 -0.33384687507E+01  0.52486972720E+01  0.51100000000E-03 0.  1.
        -12    1    3    3    0    0 -0.50937108678E+01 -0.32015256507E+02 -0.22182099789E+01  0.32493737783E+02  0.00000000000E+00 0.  1.
</event>
<event>
 7    1  0.2744502E-011  0.5052884E+02  0.7816164E-02  0.1300439E+00
        -11   -1    0    0    0    0  0.00000000000E+00  0.00000000000E+00  0.45593999997E+02  0.45594000000E+02  0.51100000000E-03 0. -1.
         11   -1    0    0    0    0 -0.00000000000E+00 -0.00000000000E+00 -0.45593999997E+02  0.45594000000E+02  0.51100000000E-03 0.  1.
    9900012    2    1    2    0    0  0.19728949449E+01 -0.30458899227E+02 -0.26861316885E+02  0.50528841113E+02  0.29999943048E+02 0.  0.
         12    1    1    2    0    0 -0.19728949449E+01  0.30458899227E+02  0.26861316885E+02  0.40659158887E+02  0.00000000000E+00 0. -1.
         11    1    3    3    0    0 -0.14217830506E+01 -0.78666344553E+01 -0.15431466779E+02  0.17379170633E+02  0.51100000000E-03 0. -1.
        -11    1    3    3    0    0  0.19055678248E+01 -0.97883872565E+01 -0.16515414215E+02  0.19292553506E+02  0.51100000000E-03 0.  1.
         12    1    3    3    0    0  0.14891101707E+01 -0.12803877515E+02  0.50855641090E+01  0.13857116974E+02  0.00000000000E+00 0. -1.
</event>
<event>
 7    1  0.2744502E-011  0.5052886E+02  0.7816164E-02  0.1300439E+00
        -11   -1    0    0    0    0  0.00000000000E+00  0.00000000000E+00  0.45593999997E+02  0.45594000000E+02  0.51100000000E-03 0. -1.
         11   -1    0    0    0    0 -0.00000000000E+00 -0.00000000000E+00 -0.45593999997E+02  0.45594000000E+02  0.51100000000E-03 0.  1.
    9900012    2    1    2    0    0 -0.26624859642E+02  0.28900504486E+02 -0.10442366217E+02  0.50528864216E+02  0.30000013271E+02 0.  0.
         12    1    1    2    0    0  0.26624859642E+02 -0.28900504486E+02  0.10442366217E+02  0.40659135784E+02  0.00000000000E+00 0. -1.
         11    1    3    3    0    0  0.36162778300E+01  0.81582460201E+01 -0.87620971969E+01  0.12506350028E+02  0.51100000000E-03 0.  1.
        -11    1    3    3    0    0 -0.93934412699E+01  0.12103082313E+02 -0.20194242598E+01  0.15453136089E+02  0.51100000000E-03 0. -1.
        -12    1    3    3    0    0 -0.20847696202E+02  0.86391761526E+01  0.33915523973E+00  0.22569378099E+02  0.00000000000E+00 0.  1.
</event>
<event>
 7    1  0.2744502E-011  0.5052886E+02  0.7816164E-02  0.1300439E+00
        -11   -1    0    0    0    0  0.00000000000E+00  0.00000000000E+00  0.45593999997E+02  0.45594000000E+02  0.51100000000E-03 0.  1.
         11   -1    0    0    0    0 -0.00000000000E+00 -0.00000000000E+00 -0.45593999997E+02  0.45594000000E+02  0.51100000000E-03 0. -1.
    9900012    2    1    2    0    0  0.38887111784E+02 -0.30349281775E+01  0.11478140118E+02  0.50528856471E+02  0.29999989730E+02 0.  0.
         12    1    1    2    0    0 -0.38887111784E+02  0.30349281775E+01 -0.11478140118E+02  0.40659143529E+02  0.00000000000E+00 0. -1.
         11    1    3    3    0    0  0.13809167169E+02 -0.80183399176E+01  0.17488255009E+02  0.23681763795E+02  0.51100000000E-03 0. -1.
        -11    1    3    3    0    0  0.35328822156E+01 -0.12263780281E+01 -0.10224071339E+01  0.38769287362E+01  0.51100000000E-03 0.  1.
         12    1    3    3    0    0  0.21545062399E+02  0.62097897681E+01 -0.49877077570E+01  0.22970163940E+02  0.00000000000E+00 0. -1.
</event>
<event>
 7    1  0.2744502E-011  0.5052886E+02  0.7816164E-02  0.1300439E+00
        -11   -1    0    0    0    0  0.00000000000E+00  0.00000000000E+00  0.45593999997E+02  0.45594000000E+02  0.51100000000E-03 0. -1.
         11   -1    0    0    0    0 -0.00000000000E+00 -0.00000000000E+00 -0.45593999997E+02  0.45594000000E+02  0.51100000000E-03 0.  1.
    9900012    2    1    2    0    0  0.22085899576E+02  0.24967902580E+02 -0.23280519268E+02  0.50528859617E+02  0.29999999293E+02 0.  0.
         12    1    1    2    0    0 -0.22085899576E+02 -0.24967902580E+02  0.23280519268E+02  0.40659140383E+02  0.00000000000E+00 0. -1.
         11    1    3    3    0    0  0.13333618150E+02  0.59002481411E+01 -0.14308752207E+02  0.20428869061E+02  0.51100000000E-03 0. -1.
        -11    1    3    3    0    0  0.15047894708E+02  0.12472180081E+02 -0.70832665111E+01  0.20788628522E+02  0.51100000000E-03 0.  1.
         12    1    3    3    0    0 -0.62956132827E+01  0.65954743579E+01 -0.18885005496E+01  0.93113620345E+01  0.00000000000E+00 0. -1.
</event>
<event>
 7    1  0.2744502E-011  0.5052887E+02  0.7816164E-02  0.1300439E+00
        -11   -1    0    0    0    0  0.00000000000E+00  0.00000000000E+00  0.45593999997E+02  0.45594000000E+02  0.51100000000E-03 0.  1.
         11   -1    0    0    0    0 -0.00000000000E+00 -0.00000000000E+00 -0.45593999997E+02  0.45594000000E+02  0.51100000000E-03 0. -1.
    9900012    2    1    2    0    0  0.16012045480E+02 -0.33911137754E+02  0.15710323286E+02  0.50528866684E+02  0.30000020774E+02 0.  0.
         12    1    1    2    0    0 -0.16012045480E+02  0.33911137754E+02 -0.15710323286E+02  0.40659133316E+02  0.00000000000E+00 0. -1.
         11    1    3    3    0    0 -0.34180212494E+00 -0.78288818054E+01  0.12064459719E+02  0.14386083817E+02  0.51100000000E-03 0. -1.
        -11    1    3    3    0    0  0.20082848476E+01 -0.16506042403E+02  0.78530311474E+01  0.18388929884E+02  0.51100000000E-03 0.  1.
        -12    1    3    3    0    0  0.14345562758E+02 -0.95762135457E+01 -0.42071675797E+01  0.17753852983E+02  0.00000000000E+00 0.  1.
</event>
<event>
 7    1  0.2744502E-011  0.5052888E+02  0.7816164E-02  0.1300439E+00
        -11   -1    0    0    0    0  0.00000000000E+00  0.00000000000E+00  0.45593999997E+02  0.45594000000E+02  0.51100000000E-03 0. -1.
         11   -1    0    0    0    0 -0.00000000000E+00 -0.00000000000E+00 -0.45593999997E+02  0.45594000000E+02  0.51100000000E-03 0.  1.
    9900012    2    1    2    0    0  0.30827329876E+02 -0.19035079064E+02 -0.18452802320E+02  0.50528875370E+02  0.30000047174E+02 0.  0.
         12    1    1    2    0    0 -0.30827329876E+02  0.19035079064E+02  0.18452802320E+02  0.40659124630E+02  0.00000000000E+00 0. -1.
         11    1    3    3    0    0  0.93872359662E+01  0.54965372012E+01  0.40498724840E+00  0.10885593012E+02  0.51100000000E-03 0. -1.
        -11    1    3    3    0    0  0.43097994788E+01 -0.10650890646E+00 -0.54137623174E+01  0.69205880086E+01  0.51100000000E-03 0.  1.
         12    1    3    3    0    0  0.17130294431E+02 -0.24425107358E+02 -0.13444027251E+02  0.32722694349E+02  0.00000000000E+00 0. -1.
</event>
<event>
 7    1  0.2744502E-011  0.5052888E+02  0.7816164E-02  0.1300439E+00
        -11   -1    0    0    0    0  0.00000000000E+00  0.00000000000E+00  0.45593999997E+02  0.45594000000E+02  0.51100000000E-03 0.  1.
         11   -1    0    0    0    0 -0.00000000000E+00 -0.00000000000E+00 -0.45593999997E+02  0.45594000000E+02  0.51100000000E-03 0. -1.
    9900012    2    1    2    0    0  0.14146953387E+02 -0.25317892467E+02  0.28496173065E+02  0.50528882345E+02  0.30000068377E+02 0.  0.
         12    1    1    2    0    0 -0.14146953387E+02  0.25317892467E+02 -0.28496173065E+02  0.40659117655E+02  0.00000000000E+00 0. -1.
         11    1    3    3    0    0 -0.71740968577E+01 -0.16015620120E+02  0.13129768107E+02  0.21917083847E+02  0.51100000000E-03 0. -1.
        -11    1    3    3    0    0  0.13589404176E+01 -0.26027515301E+01  0.29750779653E+01  0.41799669553E+01  0.51100000000E-03 0.  1.
         12    1    3    3    0    0  0.19962109827E+02 -0.66995208171E+01  0.12391326993E+02  0.24431831543E+02  0.00000000000E+00 0. -1.
</event>
<event>
 7    1  0.2744502E-011  0.5052885E+02  0.7816164E-02  0.1300439E+00
        -11   -1    0    0    0    0  0.00000000000E+00  0.00000000000E+00  0.45593999997E+02  0.45594000000E+02  0.51100000000E-03 0. -1.
         11   -1    0    0    0    0 -0.00000000000E+00 -0.00000000000E+00 -0.45593999997E+02  0.45594000000E+02  0.51100000000E-03 0.  1.
    9900012    2    1    2    0    0 -0.25378191150E+02 -0.98407678334E+01 -0.30203854864E+02  0.50528854089E+02  0.29999982488E+02 0.  0.
         12    1    1    2    0    0  0.25378191150E+02  0.98407678334E+01  0.30203854864E+02  0.40659145911E+02  0.00000000000E+00 0. -1.
         11    1    3    3    0    0 -0.36154622979E+01  0.14551360680E+01 -0.17669861077E+01  0.42791621575E+01  0.51100000000E-03 0. -1.
        -11    1    3    3    0    0 -0.19919060323E+02  0.43863330394E+01 -0.13123657856E+02  0.24253644623E+02  0.51100000000E-03 0.  1.
         12    1    3    3    0    0 -0.18436685285E+01 -0.15682236941E+02 -0.15313210900E+02  0.21996047308E+02  0.00000000000E+00 0. -1.
</event>
<event>
 7    1  0.2744502E-011  0.5052886E+02  0.7816164E-02  0.1300439E+00
        -11   -1    0    0    0    0  0.00000000000E+00  0.00000000000E+00  0.45593999997E+02  0.45594000000E+02  0.51100000000E-03 0. -1.
         11   -1    0    0    0    0 -0.00000000000E+00 -0.00000000000E+00 -0.45593999997E+02  0.45594000000E+02  0.51100000000E-03 0.  1.
    9900012    2    1    2    0    0  0.31417018415E+01 -0.34577681691E+02 -0.21158434599E+02  0.50528859376E+02  0.29999998559E+02 0.  0.
         12    1    1    2    0    0 -0.31417018415E+01  0.34577681691E+02  0.21158434599E+02  0.40659140624E+02  0.00000000000E+00 0. -1.
         11    1    3    3    0    0 -0.38629123625E+01 -0.14260766671E+01  0.17218498958E+01  0.44632447732E+01  0.51100000000E-03 0.  1.
        -11    1    3    3    0    0 -0.64531507080E+00 -0.20344723936E+01  0.38068050666E+01  0.43643183359E+01  0.51100000000E-03 0. -1.
        -12    1    3    3    0    0  0.76499292748E+01 -0.31117132631E+02 -0.26687089562E+02  0.41701296267E+02  0.00000000000E+00 0.  1.
</event>
<event>
 7    1  0.2744502E-011  0.5052886E+02  0.7816164E-02  0.1300439E+00
        -11   -1    0    0    0    0  0.00000000000E+00  0.00000000000E+00  0.45593999997E+02  0.45594000000E+02  0.51100000000E-03 0. -1.
         11   -1    0    0    0    0 -0.00000000000E+00 -0.00000000000E+00 -0.45593999997E+02  0.45594000000E+02  0.51100000000E-03 0.  1.
    9900012    2    1    2    0    0  0.28024425466E+01 -0.38080813533E+02 -0.13970089587E+02  0.50528862692E+02  0.30000008639E+02 0.  0.
         12    1    1    2    0    0 -0.28024425466E+01  0.38080813533E+02  0.13970089587E+02  0.40659137308E+02  0.00000000000E+00 0. -1.
         11    1    3    3    0    0  0.14018450953E+01 -0.10720568166E+02 -0.76559264063E+01  0.13247979501E+02  0.51100000000E-03 0.  1.
        -11    1    3    3    0    0 -0.94149226862E+01 -0.19396724931E+02 -0.93661921354E+01  0.23507429945E+02  0.51100000000E-03 0. -1.
         12    1    3    3    0    0  0.10815520138E+02 -0.79635204361E+01  0.30520289545E+01  0.13773453246E+02  0.00000000000E+00 0. -1.
</event>
<event>
 7    1  0.2744502E-011  0.5052885E+02  0.7816164E-02  0.1300439E+00
        -11   -1    0    0    0    0  0.00000000000E+00  0.00000000000E+00  0.45593999997E+02  0.45594000000E+02  0.51100000000E-03 0. -1.
         11   -1    0    0    0    0 -0.00000000000E+00 -0.00000000000E+00 -0.45593999997E+02  0.45594000000E+02  0.51100000000E-03 0.  1.
    9900012    2    1    2    0    0 -0.33326120340E+02 -0.40420001343E-02 -0.23292403529E+02  0.50528851271E+02  0.29999973922E+02 0.  0.
         12    1    1    2    0    0  0.33326120340E+02  0.40420001343E-02  0.23292403529E+02  0.40659148729E+02  0.00000000000E+00 0. -1.
         11    1    3    3    0    0 -0.93651219903E+01  0.36480450660E+01 -0.47556644996E+01  0.11118906771E+02  0.51100000000E-03 0. -1.
        -11    1    3    3    0    0 -0.88999877603E+01  0.74739896940E+01 -0.17039026236E+02  0.20625196227E+02  0.51100000000E-03 0.  1.
        -12    1    3    3    0    0 -0.15061010589E+02 -0.11126076760E+02 -0.14977127940E+01  0.18784748272E+02  0.00000000000E+00 0.  1.
</event>
<event>
 7    1  0.2744502E-011  0.5052886E+02  0.7816164E-02  0.1300439E+00
        -11   -1    0    0    0    0  0.00000000000E+00  0.00000000000E+00  0.45593999997E+02  0.45594000000E+02  0.51100000000E-03 0.  1.
         11   -1    0    0    0    0 -0.00000000000E+00 -0.00000000000E+00 -0.45593999997E+02  0.45594000000E+02  0.51100000000E-03 0. -1.
    9900012    2    1    2    0    0 -0.14683175797E+02 -0.37889313029E+02  0.14035765937E+01  0.50528859324E+02  0.29999998401E+02 0.  0.
         12    1    1    2    0    0  0.14683175797E+02  0.37889313029E+02 -0.14035765937E+01  0.40659140676E+02  0.00000000000E+00 0. -1.
         11    1    3    3    0    0 -0.80948157740E+01 -0.23579720068E+02 -0.67652405282E+01  0.25832106390E+02  0.51100000000E-03 0. -1.
        -11    1    3    3    0    0 -0.11807799071E+01 -0.14383859365E+02 -0.54340858783E+00  0.14442470169E+02  0.51100000000E-03 0.  1.
         12    1    3    3    0    0 -0.54075801157E+01  0.74266404277E-01  0.87122257098E+01  0.10254282765E+02  0.00000000000E+00 0. -1.
</event>
<event>
 7    1  0.2744502E-011  0.5052886E+02  0.7816164E-02  0.1300439E+00
        -11   -1    0    0    0    0  0.00000000000E+00  0.00000000000E+00  0.45593999997E+02  0.45594000000E+02  0.51100000000E-03 0. -1.
         11   -1    0    0    0    0 -0.00000000000E+00 -0.00000000000E+00 -0.45593999997E+02  0.45594000000E+02  0.51100000000E-03 0.  1.
    9900012    2    1    2    0    0 -0.25866738658E+02 -0.11428105678E+02 -0.29214315194E+02  0.50528856128E+02  0.29999988686E+02 0.  0.
         12    1    1    2    0    0  0.25866738658E+02  0.11428105678E+02  0.29214315194E+02  0.40659143872E+02  0.00000000000E+00 0. -1.
         11    1    3    3    0    0 -0.83010201947E+00  0.28619626254E+01  0.95835310505E+00  0.31302300821E+01  0.51100000000E-03 0. -1.
        -11    1    3    3    0    0 -0.18366728290E+02 -0.25759252681E+01 -0.28233078725E+02  0.33779858402E+02  0.51100000000E-03 0.  1.
         12    1    3    3    0    0 -0.66699083486E+01 -0.11714143035E+02 -0.19395895736E+01  0.13618767644E+02  0.00000000000E+00 0. -1.
</event>
<event>
 7    1  0.2744502E-011  0.5052885E+02  0.7816164E-02  0.1300439E+00
        -11   -1    0    0    0    0  0.00000000000E+00  0.00000000000E+00  0.45593999997E+02  0.45594000000E+02  0.51100000000E-03 0.  1.
         11   -1    0    0    0    0 -0.00000000000E+00 -0.00000000000E+00 -0.45593999997E+02  0.45594000000E+02  0.51100000000E-03 0. -1.
    9900012    2    1    2    0    0  0.10767145876E+02 -0.36902533281E+02  0.13245292871E+02  0.50528853721E+02  0.29999981370E+02 0.  0.
         12    1    1    2    0    0 -0.10767145876E+02  0.36902533281E+02 -0.13245292871E+02  0.40659146279E+02  0.00000000000E+00 0. -1.
         11    1    3    3    0    0  0.10203696593E+02 -0.90731802305E+01  0.11056386793E+02  0.17569340137E+02  0.51100000000E-03 0. -1.
        -11    1    3    3    0    0 -0.79997940697E+01 -0.95165089961E+01  0.27618707987E+01  0.12735327997E+02  0.51100000000E-03 0.  1.
         12    1    3    3    0    0  0.85632433522E+01 -0.18312844055E+02 -0.57296472053E+00  0.20224185587E+02  0.00000000000E+00 0. -1.
</event>
<event>
 7    1  0.2744502E-011  0.5052886E+02  0.7816164E-02  0.1300439E+00
        -11   -1    0    0    0    0  0.00000000000E+00  0.00000000000E+00  0.45593999997E+02  0.45594000000E+02  0.51100000000E-03 0. -1.
         11   -1    0    0    0    0 -0.00000000000E+00 -0.00000000000E+00 -0.45593999997E+02  0.45594000000E+02  0.51100000000E-03 0.  1.
    9900012    2    1    2    0    0 -0.34794799858E+02  0.15654163029E+02 -0.14051161476E+02  0.50528855197E+02  0.29999985858E+02 0.  0.
         12    1    1    2    0    0  0.34794799858E+02 -0.15654163029E+02  0.14051161476E+02  0.40659144803E+02  0.00000000000E+00 0. -1.
         11    1    3    3    0    0 -0.12552596966E+02  0.33635589901E+01 -0.58030044495E+01  0.14232219805E+02  0.51100000000E-03 0. -1.
        -11    1    3    3    0    0 -0.18619289069E+02 -0.34542984607E+01 -0.66099183193E+01  0.20057445593E+02  0.51100000000E-03 0.  1.
         12    1    3    3    0    0 -0.36229138235E+01  0.15744902500E+02 -0.16382387069E+01  0.16239189800E+02  0.00000000000E+00 0. -1.
</event>
<event>
 7    1  0.2744502E-011  0.5052886E+02  0.7816164E-02  0.1300439E+00
        -11   -1    0    0    0    0  0.00000000000E+00  0.00000000000E+00  0.45593999997E+02  0.45594000000E+02  0.51100000000E-03 0. -1.
         11   -1    0    0    0    0 -0.00000000000E+00 -0.00000000000E+00 -0.45593999997E+02  0.45594000000E+02  0.51100000000E-03 0.  1.
    9900012    2    1    2    0    0 -0.16810785834E+02  0.94256194937E+01 -0.35801130429E+02  0.50528858799E+02  0.29999996807E+02 0.  0.
         12    1    1    2    0    0  0.16810785834E+02 -0.94256194937E+01  0.35801130429E+02  0.40659141201E+02  0.00000000000E+00 0. -1.
         11    1    3    3    0    0  0.14943329624E+01  0.46068006593E+01 -0.10439600827E+02  0.11508297398E+02  0.51100000000E-03 0. -1.
        -11    1    3    3    0    0 -0.62312246614E+01  0.16181248332E+01 -0.25731011151E+02  0.26524166789E+02  0.51100000000E-03 0.  1.
         12    1    3    3    0    0 -0.12073894135E+02  0.32006940013E+01  0.36948154934E+00  0.12496394612E+02  0.00000000000E+00 0. -1.
</event>
<event>
 7    1  0.2744502E-011  0.5052875E+02  0.7816164E-02  0.1300439E+00
        -11   -1    0    0    0    0  0.00000000000E+00  0.00000000000E+00  0.45593999997E+02  0.45594000000E+02  0.51100000000E-03 0.  1.
         11   -1    0    0    0    0 -0.00000000000E+00 -0.00000000000E+00 -0.45593999997E+02  0.45594000000E+02  0.51100000000E-03 0. -1.
    9900012    2    1    2    0    0  0.15648193298E+02  0.63515589912E+01  0.36986027129E+02  0.50528751877E+02  0.29999671805E+02 0.  0.
         12    1    1    2    0    0 -0.15648193298E+02 -0.63515589912E+01 -0.36986027129E+02  0.40659248123E+02  0.00000000000E+00 0. -1.
         11    1    3    3    0    0  0.16494561473E+02 -0.19352922715E-01  0.15393018173E+02  0.22561381639E+02  0.51100000000E-03 0. -1.
        -11    1    3    3    0    0  0.51881152472E+01  0.13824230776E+01  0.41118151985E+00  0.53848587621E+01  0.51100000000E-03 0.  1.
         12    1    3    3    0    0 -0.60344834221E+01  0.49884888363E+01  0.21181827436E+02  0.22582511476E+02  0.00000000000E+00 0. -1.
</event>
<event>
 7    1  0.2744502E-011  0.5052886E+02  0.7816164E-02  0.1300439E+00
        -11   -1    0    0    0    0  0.00000000000E+00  0.00000000000E+00  0.45593999997E+02  0.45594000000E+02  0.51100000000E-03 0. -1.
         11   -1    0    0    0    0 -0.00000000000E+00 -0.00000000000E+00 -0.45593999997E+02  0.45594000000E+02  0.51100000000E-03 0.  1.
    9900012    2    1    2    0    0  0.36264824914E+02  0.66320135190E+01 -0.17147735922E+02  0.50528856174E+02  0.29999988828E+02 0.  0.
         12    1    1    2    0    0 -0.36264824914E+02 -0.66320135190E+01  0.17147735922E+02  0.40659143826E+02  0.00000000000E+00 0. -1.
         11    1    3    3    0    0  0.13877805825E+02  0.13370208540E+02 -0.54029304816E+00  0.19278171276E+02  0.51100000000E-03 0. -1.
        -11    1    3    3    0    0 -0.76205708356E+00 -0.64627551506E+00 -0.41447030840E+01  0.42634454325E+01  0.51100000000E-03 0.  1.
        -12    1    3    3    0    0  0.23149076173E+02 -0.60919195055E+01 -0.12462739790E+02  0.26987239466E+02  0.00000000000E+00 0.  1.
</event>
<event>
 7    1  0.2744502E-011  0.5052886E+02  0.7816164E-02  0.1300439E+00
        -11   -1    0    0    0    0  0.00000000000E+00  0.00000000000E+00  0.45593999997E+02  0.45594000000E+02  0.51100000000E-03 0. -1.
         11   -1    0    0    0    0 -0.00000000000E+00 -0.00000000000E+00 -0.45593999997E+02  0.45594000000E+02  0.51100000000E-03 0.  1.
    9900012    2    1    2    0    0 -0.35443774232E+02 -0.19754381262E+02 -0.25824256799E+01  0.50528860397E+02  0.30000001662E+02 0.  0.
         12    1    1    2    0    0  0.35443774232E+02  0.19754381262E+02  0.25824256799E+01  0.40659139603E+02  0.00000000000E+00 0. -1.
         11    1    3    3    0    0 -0.39839351318E+01 -0.60430865623E+01  0.10053448766E+02  0.12387996879E+02  0.51100000000E-03 0. -1.
        -11    1    3    3    0    0 -0.18638245042E+02 -0.13065059315E+02 -0.53578205244E+01  0.23383459842E+02  0.51100000000E-03 0.  1.
        -12    1    3    3    0    0 -0.12821594058E+02 -0.64623538564E+00 -0.72780539211E+01  0.14757403676E+02  0.00000000000E+00 0.  1.
</event>
<event>
 7    1  0.2744502E-011  0.5052885E+02  0.7816164E-02  0.1300439E+00
        -11   -1    0    0    0    0  0.00000000000E+00  0.00000000000E+00  0.45593999997E+02  0.45594000000E+02  0.51100000000E-03 0.  1.
         11   -1    0    0    0    0 -0.00000000000E+00 -0.00000000000E+00 -0.45593999997E+02  0.45594000000E+02  0.51100000000E-03 0. -1.
    9900012    2    1    2    0    0 -0.40090583087E+02 -0.27690977112E+01  0.61841418830E+01  0.50528851396E+02  0.29999974303E+02 0.  0.
         12    1    1    2    0    0  0.40090583087E+02  0.27690977112E+01 -0.61841418830E+01  0.40659148604E+02  0.00000000000E+00 0. -1.
         11    1    3    3    0    0 -0.18069962044E+02 -0.10698446627E+01 -0.97562938759E+01  0.20563398706E+02  0.51100000000E-03 0. -1.
        -11    1    3    3    0    0 -0.31913918532E+01 -0.20655151840E+01 -0.16971747379E+01  0.41631403157E+01  0.51100000000E-03 0.  1.
        -12    1    3    3    0    0 -0.18829229190E+02  0.36626213551E+00  0.17637610497E+02  0.25802312375E+02  0.00000000000E+00 0.  1.
</event>
<event>
 7    1  0.2744502E-011  0.5052885E+02  0.7816164E-02  0.1300439E+00
        -11   -1    0    0    0    0  0.00000000000E+00  0.00000000000E+00  0.45593999997E+02  0.45594000000E+02  0.51100000000E-03 0.  1.
         11   -1    0    0    0    0 -0.00000000000E+00 -0.00000000000E+00 -0.45593999997E+02  0.45594000000E+02  0.51100000000E-03 0. -1.
    9900012    2    1    2    0    0 -0.16620223723E+02  0.19317745307E+02  0.31682158594E+02  0.50528852277E+02  0.29999976983E+02 0.  0.
         12    1    1    2    0    0  0.16620223723E+02 -0.19317745307E+02 -0.31682158594E+02  0.40659147723E+02  0.00000000000E+00 0. -1.
         11    1    3    3    0    0 -0.10397242350E+02 -0.18070365053E+01  0.37457654150E+01  0.11198160037E+02  0.51100000000E-03 0. -1.
        -11    1    3    3    0    0 -0.50397948740E+01  0.33179247917E+01 -0.17107338469E+00  0.60363419104E+01  0.51100000000E-03 0.  1.
        -12    1    3    3    0    0 -0.11831864985E+01  0.17806857021E+02  0.28107466564E+02  0.33294350330E+02  0.00000000000E+00 0.  1.
</event>
<event>
 7    1  0.2744502E-011  0.5052886E+02  0.7816164E-02  0.1300439E+00
        -11   -1    0    0    0    0  0.00000000000E+00  0.00000000000E+00  0.45593999997E+02  0.45594000000E+02  0.51100000000E-03 0.  1.
         11   -1    0    0    0    0 -0.00000000000E+00 -0.00000000000E+00 -0.45593999997E+02  0.45594000000E+02  0.51100000000E-03 0. -1.
    9900012    2    1    2    0    0  0.25227659736E+02 -0.31571912087E+02  0.44660352977E+01  0.50528856873E+02  0.29999990950E+02 0.  0.
         12    1    1    2    0    0 -0.25227659736E+02  0.31571912087E+02 -0.44660352977E+01  0.40659143127E+02  0.00000000000E+00 0. -1.
         11    1    3    3    0    0  0.11521140551E+02 -0.37698481678E+01  0.68947527606E+01  0.13945825565E+02  0.51100000000E-03 0. -1.
        -11    1    3    3    0    0  0.88833042657E+01 -0.19708607646E+02  0.75127375681E+01  0.22886317660E+02  0.51100000000E-03 0.  1.
        -12    1    3    3    0    0  0.48232149197E+01 -0.80934562732E+01 -0.99414550310E+01  0.13696713647E+02  0.00000000000E+00 0.  1.
</event>
<event>
 7    1  0.2744502E-011  0.5052885E+02  0.7816164E-02  0.1300439E+00
        -11   -1    0    0    0    0  0.00000000000E+00  0.00000000000E+00  0.45593999997E+02  0.45594000000E+02  0.51100000000E-03 0.  1.
         11   -1    0    0    0    0 -0.00000000000E+00 -0.00000000000E+00 -0.45593999997E+02  0.45594000000E+02  0.51100000000E-03 0. -1.
    9900012    2    1    2    0    0 -0.43155232332E+01 -0.79428552356E+01  0.39641567109E+02  0.50528849333E+02  0.29999968033E+02 0.  0.
         12    1    1    2    0    0  0.43155232332E+01  0.79428552356E+01 -0.39641567109E+02  0.40659150667E+02  0.00000000000E+00 0. -1.
         11    1    3    3    0    0  0.39639433597E+01 -0.38745292335E+01  0.20808093861E+02  0.21533731542E+02  0.51100000000E-03 0. -1.
        -11    1    3    3    0    0 -0.37413264082E+01 -0.71798925419E+01  0.21431810532E+02  0.22910060741E+02  0.51100000000E-03 0.  1.
         12    1    3    3    0    0 -0.45381401847E+01  0.31115665397E+01 -0.25983372834E+01  0.60850570503E+01  0.00000000000E+00 0. -1.
</event>
<event>
 7    1  0.2744502E-011  0.5052885E+02  0.7816164E-02  0.1300439E+00
        -11   -1    0    0    0    0  0.00000000000E+00  0.00000000000E+00  0.45593999997E+02  0.45594000000E+02  0.51100000000E-03 0.  1.
         11   -1    0    0    0    0 -0.00000000000E+00 -0.00000000000E+00 -0.45593999997E+02  0.45594000000E+02  0.51100000000E-03 0. -1.
    9900012    2    1    2    0    0  0.23526775586E+02  0.66962676254E+01  0.32477954695E+02  0.50528847147E+02  0.29999961387E+02 0.  0.
         12    1    1    2    0    0 -0.23526775586E+02 -0.66962676254E+01 -0.32477954695E+02  0.40659152853E+02  0.00000000000E+00 0. -1.
         11    1    3    3    0    0  0.14129890218E+02  0.29171474268E+00  0.75901697849E+01  0.16042118710E+02  0.51100000000E-03 0. -1.
        -11    1    3    3    0    0  0.10407744689E+02  0.87188967197E+01  0.50455198719E+01  0.14484390928E+02  0.51100000000E-03 0.  1.
        -12    1    3    3    0    0 -0.10108593219E+01 -0.23143438370E+01  0.19842265038E+02  0.20002337509E+02  0.00000000000E+00 0.  1.
</event>
<event>
 7    1  0.2744502E-011  0.5052882E+02  0.7816164E-02  0.1300439E+00
        -11   -1    0    0    0    0  0.00000000000E+00  0.00000000000E+00  0.45593999997E+02  0.45594000000E+02  0.51100000000E-03 0. -1.
         11   -1    0    0    0    0 -0.00000000000E+00 -0.00000000000E+00 -0.45593999997E+02  0.45594000000E+02  0.51100000000E-03 0.  1.
    9900012    2    1    2    0    0 -0.36026515757E+02  0.16518457363E+02  0.90774125112E+01  0.50528822818E+02  0.29999887436E+02 0.  0.
         12    1    1    2    0    0  0.36026515757E+02 -0.16518457363E+02 -0.90774125112E+01  0.40659177182E+02  0.00000000000E+00 0. -1.
         11    1    3    3    0    0 -0.71947361218E+01  0.15249111216E+02  0.12808215551E+01  0.16909764187E+02  0.51100000000E-03 0. -1.
        -11    1    3    3    0    0 -0.63714087135E+01  0.70363704364E+01  0.28160625167E+01  0.99012911417E+01  0.51100000000E-03 0.  1.
         12    1    3    3    0    0 -0.22460370922E+02 -0.57670242900E+01  0.49805284394E+01  0.23717767489E+02  0.00000000000E+00 0. -1.
</event>
<event>
 7    1  0.2744502E-011  0.5052886E+02  0.7816164E-02  0.1300439E+00
        -11   -1    0    0    0    0  0.00000000000E+00  0.00000000000E+00  0.45593999997E+02  0.45594000000E+02  0.51100000000E-03 0. -1.
         11   -1    0    0    0    0 -0.00000000000E+00 -0.00000000000E+00 -0.45593999997E+02  0.45594000000E+02  0.51100000000E-03 0.  1.
    9900012    2    1    2    0    0 -0.14754058047E+02 -0.81425851952E-01 -0.37887688385E+02  0.50528858467E+02  0.29999995797E+02 0.  0.
         12    1    1    2    0    0  0.14754058047E+02  0.81425851952E-01  0.37887688385E+02  0.40659141533E+02  0.00000000000E+00 0. -1.
         11    1    3    3    0    0  0.35027451722E+01 -0.19490587991E+01 -0.34569128407E+01  0.52932315832E+01  0.51100000000E-03 0. -1.
        -11    1    3    3    0    0 -0.17781041512E+02 -0.74930148968E+01 -0.27430795174E+02  0.33537430337E+02  0.51100000000E-03 0.  1.
         12    1    3    3    0    0 -0.47576170691E+00  0.93606478440E+01 -0.69999803703E+01  0.11698196547E+02  0.00000000000E+00 0. -1.
</event>
<event>
 7    1  0.2744502E-011  0.5052886E+02  0.7816164E-02  0.1300439E+00
        -11   -1    0    0    0    0  0.00000000000E+00  0.00000000000E+00  0.45593999997E+02  0.45594000000E+02  0.51100000000E-03 0.  1.
         11   -1    0    0    0    0 -0.00000000000E+00 -0.00000000000E+00 -0.45593999997E+02  0.45594000000E+02  0.51100000000E-03 0. -1.
    9900012    2    1    2    0    0  0.33932881164E+02 -0.20858158577E+02  0.81646924810E+01  0.50528863184E+02  0.30000010134E+02 0.  0.
         12    1    1    2    0    0 -0.33932881164E+02  0.20858158577E+02 -0.81646924810E+01  0.40659136816E+02  0.00000000000E+00 0. -1.
         11    1    3    3    0    0  0.30165182924E+02 -0.16809180369E+02  0.48070583553E+00  0.34535747913E+02  0.51100000000E-03 0. -1.
        -11    1    3    3    0    0  0.54566147243E+01  0.27644909879E+01  0.64071709434E+01  0.88582670106E+01  0.51100000000E-03 0.  1.
         12    1    3    3    0    0 -0.16889164844E+01 -0.68134691954E+01  0.12768157020E+01  0.71348482609E+01  0.00000000000E+00 0. -1.
</event>
<event>
 7    1  0.2744502E-011  0.5052886E+02  0.7816164E-02  0.1300439E+00
        -11   -1    0    0    0    0  0.00000000000E+00  0.00000000000E+00  0.45593999997E+02  0.45594000000E+02  0.51100000000E-03 0. -1.
         11   -1    0    0    0    0 -0.00000000000E+00 -0.00000000000E+00 -0.45593999997E+02  0.45594000000E+02  0.51100000000E-03 0.  1.
    9900012    2    1    2    0    0 -0.10103472362E+02 -0.19019262381E+02 -0.34487000473E+02  0.50528859614E+02  0.29999999282E+02 0.  0.
         12    1    1    2    0    0  0.10103472362E+02  0.19019262381E+02  0.34487000473E+02  0.40659140386E+02  0.00000000000E+00 0. -1.
         11    1    3    3    0    0 -0.67286384191E+01 -0.92346896814E+01 -0.17353785045E+02  0.20777582249E+02  0.51100000000E-03 0. -1.
        -11    1    3    3    0    0 -0.30931770643E+01 -0.12478834742E+02 -0.21242114534E+02  0.24829750120E+02  0.51100000000E-03 0.  1.
         12    1    3    3    0    0 -0.28165687905E+00  0.26942620425E+01  0.41088991059E+01  0.49215272440E+01  0.00000000000E+00 0. -1.
</event>
<event>
 7    1  0.2744502E-011  0.5052884E+02  0.7816164E-02  0.1300439E+00
        -11   -1    0    0    0    0  0.00000000000E+00  0.00000000000E+00  0.45593999997E+02  0.45594000000E+02  0.51100000000E-03 0.  1.
         11   -1    0    0    0    0 -0.00000000000E+00 -0.00000000000E+00 -0.45593999997E+02  0.45594000000E+02  0.51100000000E-03 0. -1.
    9900012    2    1    2    0    0  0.54541110703E+01 -0.17063810858E+02  0.36499947737E+02  0.50528841704E+02  0.29999944843E+02 0.  0.
         12    1    1    2    0    0 -0.54541110703E+01  0.17063810858E+02 -0.36499947737E+02  0.40659158296E+02  0.00000000000E+00 0. -1.
         11    1    3    3    0    0  0.54436998942E+01 -0.36164235316E+01  0.58114933988E+01  0.87456185306E+01  0.51100000000E-03 0. -1.
        -11    1    3    3    0    0  0.39238533490E+01 -0.14097063916E+02  0.33741188412E+02  0.36777596875E+02  0.51100000000E-03 0.  1.
        -12    1    3    3    0    0 -0.39134421728E+01  0.64967659036E+00 -0.30527340739E+01  0.50056262983E+01  0.00000000000E+00 0.  1.
</event>
<event>
 7    1  0.2744502E-011  0.5052887E+02  0.7816164E-02  0.1300439E+00
        -11   -1    0    0    0    0  0.00000000000E+00  0.00000000000E+00  0.45593999997E+02  0.45594000000E+02  0.51100000000E-03 0. -1.
         11   -1    0    0    0    0 -0.00000000000E+00 -0.00000000000E+00 -0.45593999997E+02  0.45594000000E+02  0.51100000000E-03 0.  1.
    9900012    2    1    2    0    0  0.39801892468E+02 -0.61219801751E+01  0.56120737598E+01  0.50528872401E+02  0.30000038149E+02 0.  0.
         12    1    1    2    0    0 -0.39801892468E+02  0.61219801751E+01 -0.56120737598E+01  0.40659127599E+02  0.00000000000E+00 0. -1.
         11    1    3    3    0    0  0.14307896000E+02  0.48138183338E+01 -0.25214434219E+01  0.15305110652E+02  0.51100000000E-03 0. -1.
        -11    1    3    3    0    0  0.11208078635E+02  0.46560768198E+01  0.70793826754E+01  0.14050542245E+02  0.51100000000E-03 0.  1.
        -12    1    3    3    0    0  0.14285917833E+02 -0.15591875329E+02  0.10541345063E+01  0.21173219504E+02  0.00000000000E+00 0.  1.
</event>
<event>
 7    1  0.2744502E-011  0.5052885E+02  0.7816164E-02  0.1300439E+00
        -11   -1    0    0    0    0  0.00000000000E+00  0.00000000000E+00  0.45593999997E+02  0.45594000000E+02  0.51100000000E-03 0.  1.
         11   -1    0    0    0    0 -0.00000000000E+00 -0.00000000000E+00 -0.45593999997E+02  0.45594000000E+02  0.51100000000E-03 0. -1.
    9900012    2    1    2    0    0  0.32761593287E+02  0.48734227854E+00  0.24075020020E+02  0.50528854827E+02  0.29999984733E+02 0.  0.
         12    1    1    2    0    0 -0.32761593287E+02 -0.48734227854E+00 -0.24075020020E+02  0.40659145173E+02  0.00000000000E+00 0. -1.
         11    1    3    3    0    0  0.15770359555E+02  0.32882947560E+01  0.14416367824E+02  0.21618251187E+02  0.51100000000E-03 0. -1.
        -11    1    3    3    0    0  0.14282193481E+02  0.58283473325E+01  0.12028122428E+02  0.19560838752E+02  0.51100000000E-03 0.  1.
         12    1    3    3    0    0  0.27090402510E+01 -0.86292998100E+01 -0.23694702315E+01  0.93497648885E+01  0.00000000000E+00 0. -1.
</event>
<event>
 7    1  0.2744502E-011  0.5052886E+02  0.7816164E-02  0.1300439E+00
        -11   -1    0    0    0    0  0.00000000000E+00  0.00000000000E+00  0.45593999997E+02  0.45594000000E+02  0.51100000000E-03 0. -1.
         11   -1    0    0    0    0 -0.00000000000E+00 -0.00000000000E+00 -0.45593999997E+02  0.45594000000E+02  0.51100000000E-03 0.  1.
    9900012    2    1    2    0    0  0.13146710506E+02 -0.31753175170E+02  0.21727076889E+02  0.50528855879E+02  0.29999987931E+02 0.  0.
         12    1    1    2    0    0 -0.13146710506E+02  0.31753175170E+02 -0.21727076889E+02  0.40659144121E+02  0.00000000000E+00 0. -1.
         11    1    3    3    0    0 -0.72072164976E+00 -0.17033572438E+01  0.68997737099E+01  0.71433705703E+01  0.51100000000E-03 0. -1.
        -11    1    3    3    0    0 -0.48837449626E+01 -0.20921489032E+00  0.45411583719E+01  0.66720952744E+01  0.51100000000E-03 0.  1.
        -12    1    3    3    0    0  0.18751177118E+02 -0.29840603036E+02  0.10286144807E+02  0.36713390035E+02  0.00000000000E+00 0.  1.
</event>
<event>
 7    1  0.2744502E-011  0.5052886E+02  0.7816164E-02  0.1300439E+00
        -11   -1    0    0    0    0  0.00000000000E+00  0.00000000000E+00  0.45593999997E+02  0.45594000000E+02  0.51100000000E-03 0.  1.
         11   -1    0    0    0    0 -0.00000000000E+00 -0.00000000000E+00 -0.45593999997E+02  0.45594000000E+02  0.51100000000E-03 0. -1.
    9900012    2    1    2    0    0 -0.11248343247E+02 -0.39029787693E+02  0.18209764686E+01  0.50528861932E+02  0.30000006327E+02 0.  0.
         12    1    1    2    0    0  0.11248343247E+02  0.39029787693E+02 -0.18209764686E+01  0.40659138068E+02  0.00000000000E+00 0. -1.
         11    1    3    3    0    0  0.77187293022E+01 -0.19453066868E+02  0.72141914023E+01  0.22136963443E+02  0.51100000000E-03 0. -1.
        -11    1    3    3    0    0 -0.25762270056E+01 -0.35040535964E+01  0.11923959756E+01  0.45096724510E+01  0.51100000000E-03 0.  1.
         12    1    3    3    0    0 -0.16390845543E+02 -0.16072667229E+02 -0.65856109093E+01  0.23882226038E+02  0.00000000000E+00 0. -1.
</event>
<event>
 7    1  0.2744502E-011  0.5052886E+02  0.7816164E-02  0.1300439E+00
        -11   -1    0    0    0    0  0.00000000000E+00  0.00000000000E+00  0.45593999997E+02  0.45594000000E+02  0.51100000000E-03 0.  1.
         11   -1    0    0    0    0 -0.00000000000E+00 -0.00000000000E+00 -0.45593999997E+02  0.45594000000E+02  0.51100000000E-03 0. -1.
    9900012    2    1    2    0    0  0.19931909868E+02 -0.15741801713E+02  0.31750285725E+02  0.50528855939E+02  0.29999988113E+02 0.  0.
         12    1    1    2    0    0 -0.19931909868E+02  0.15741801713E+02 -0.31750285725E+02  0.40659144061E+02  0.00000000000E+00 0. -1.
         11    1    3    3    0    0 -0.15528799047E+01 -0.38717001356E+01 -0.43393530555E+01  0.60192593515E+01  0.51100000000E-03 0. -1.
        -11    1    3    3    0    0  0.14717808827E+01 -0.97321257974E+00  0.87144870228E+01  0.88913197009E+01  0.51100000000E-03 0.  1.
        -12    1    3    3    0    0  0.20013008890E+02 -0.10896888998E+02  0.27375151757E+02  0.35618276887E+02  0.00000000000E+00 0.  1.
</event>
<event>
 7    1  0.2744502E-011  0.5052886E+02  0.7816164E-02  0.1300439E+00
        -11   -1    0    0    0    0  0.00000000000E+00  0.00000000000E+00  0.45593999997E+02  0.45594000000E+02  0.51100000000E-03 0. -1.
         11   -1    0    0    0    0 -0.00000000000E+00 -0.00000000000E+00 -0.45593999997E+02  0.45594000000E+02  0.51100000000E-03 0.  1.
    9900012    2    1    2    0    0 -0.58480823206E+01  0.17976802548E+02  0.35997221821E+02  0.50528862337E+02  0.30000007560E+02 0.  0.
         12    1    1    2    0    0  0.58480823206E+01 -0.17976802548E+02 -0.35997221821E+02  0.40659137663E+02  0.00000000000E+00 0. -1.
         11    1    3    3    0    0 -0.11078809597E+01  0.73026807345E+01  0.14521423253E+02  0.16291969792E+02  0.51100000000E-03 0. -1.
        -11    1    3    3    0    0  0.77710971900E+01  0.11741007931E+02  0.12122647167E+02  0.18579553099E+02  0.51100000000E-03 0.  1.
         12    1    3    3    0    0 -0.12511298551E+02 -0.10668861170E+01  0.93531514005E+01  0.15657339446E+02  0.00000000000E+00 0. -1.
</event>
<event>
 7    1  0.2744502E-011  0.5052885E+02  0.7816164E-02  0.1300439E+00
        -11   -1    0    0    0    0  0.00000000000E+00  0.00000000000E+00  0.45593999997E+02  0.45594000000E+02  0.51100000000E-03 0.  1.
         11   -1    0    0    0    0 -0.00000000000E+00 -0.00000000000E+00 -0.45593999997E+02  0.45594000000E+02  0.51100000000E-03 0. -1.
    9900012    2    1    2    0    0  0.13389112899E+02  0.62773032814E+01  0.37874707290E+02  0.50528851792E+02  0.29999975507E+02 0.  0.
         12    1    1    2    0    0 -0.13389112899E+02 -0.62773032814E+01 -0.37874707290E+02  0.40659148208E+02  0.00000000000E+00 0. -1.
         11    1    3    3    0    0  0.61695537734E+01 -0.51374336738E+01  0.67131538107E+01  0.10465326219E+02  0.51100000000E-03 0. -1.
        -11    1    3    3    0    0  0.58763998052E+01  0.14030516483E+01 -0.12021597342E+01  0.61600176044E+01  0.51100000000E-03 0.  1.
        -12    1    3    3    0    0  0.13431593204E+01  0.10011685307E+02  0.32363713213E+02  0.33903507969E+02  0.00000000000E+00 0.  1.
</event>
<event>
 7    1  0.2744502E-011  0.5052885E+02  0.7816164E-02  0.1300439E+00
        -11   -1    0    0    0    0  0.00000000000E+00  0.00000000000E+00  0.45593999997E+02  0.45594000000E+02  0.51100000000E-03 0. -1.
         11   -1    0    0    0    0 -0.00000000000E+00 -0.00000000000E+00 -0.45593999997E+02  0.45594000000E+02  0.51100000000E-03 0.  1.
    9900012    2    1    2    0    0  0.14215416515E+02  0.35925602033E+02  0.12666483715E+02  0.50528846568E+02  0.29999959627E+02 0.  0.
         12    1    1    2    0    0 -0.14215416515E+02 -0.35925602033E+02 -0.12666483715E+02  0.40659153432E+02  0.00000000000E+00 0. -1.
         11    1    3    3    0    0  0.33716249586E+01  0.14185351205E+02  0.54633755173E+01  0.15570501469E+02  0.51100000000E-03 0. -1.
        -11    1    3    3    0    0  0.16852866926E+02  0.21436700892E+02  0.89394426573E+01  0.28696078199E+02  0.51100000000E-03 0.  1.
         12    1    3    3    0    0 -0.60090753698E+01  0.30354993641E+00 -0.17363344601E+01  0.62622668995E+01  0.00000000000E+00 0. -1.
</event>
<event>
 7    1  0.2744502E-011  0.5052885E+02  0.7816164E-02  0.1300439E+00
        -11   -1    0    0    0    0  0.00000000000E+00  0.00000000000E+00  0.45593999997E+02  0.45594000000E+02  0.51100000000E-03 0. -1.
         11   -1    0    0    0    0 -0.00000000000E+00 -0.00000000000E+00 -0.45593999997E+02  0.45594000000E+02  0.51100000000E-03 0.  1.
    9900012    2    1    2    0    0  0.21230912604E+02  0.18839984395E+02 -0.29111335131E+02  0.50528849799E+02  0.29999969449E+02 0.  0.
         12    1    1    2    0    0 -0.21230912604E+02 -0.18839984395E+02  0.29111335131E+02  0.40659150201E+02  0.00000000000E+00 0. -1.
         11    1    3    3    0    0  0.23089832290E+02  0.16121844991E+02 -0.10475721128E+02  0.30046546798E+02  0.51100000000E-03 0. -1.
        -11    1    3    3    0    0  0.29862426343E+01  0.43618413810E+00 -0.51053946211E+01  0.59306792336E+01  0.51100000000E-03 0.  1.
        -12    1    3    3    0    0 -0.48451623204E+01  0.22819552662E+01 -0.13530219382E+02  0.14551623767E+02  0.00000000000E+00 0.  1.
</event>
<event>
 7    1  0.2744502E-011  0.5052885E+02  0.7816164E-02  0.1300439E+00
        -11   -1    0    0    0    0  0.00000000000E+00  0.00000000000E+00  0.45593999997E+02  0.45594000000E+02  0.51100000000E-03 0.  1.
         11   -1    0    0    0    0 -0.00000000000E+00 -0.00000000000E+00 -0.45593999997E+02  0.45594000000E+02  0.51100000000E-03 0. -1.
    9900012    2    1    2    0    0 -0.63997292639E+01  0.38875714554E+02  0.10044332716E+02  0.50528851750E+02  0.29999975378E+02 0.  0.
         12    1    1    2    0    0  0.63997292639E+01 -0.38875714554E+02 -0.10044332716E+02  0.40659148250E+02  0.00000000000E+00 0. -1.
         11    1    3    3    0    0 -0.50459533066E+01  0.13793113473E+02  0.64494101048E+01  0.16040776634E+02  0.51100000000E-03 0. -1.
        -11    1    3    3    0    0 -0.11299383551E+02  0.16747905170E+02  0.64377924862E+01  0.21204093203E+02  0.51100000000E-03 0.  1.
         12    1    3    3    0    0  0.99456075933E+01  0.83346959115E+01 -0.28428698753E+01  0.13283981913E+02  0.00000000000E+00 0. -1.
</event>
<event>
 7    1  0.2744502E-011  0.5052886E+02  0.7816164E-02  0.1300439E+00
        -11   -1    0    0    0    0  0.00000000000E+00  0.00000000000E+00  0.45593999997E+02  0.45594000000E+02  0.51100000000E-03 0.  1.
         11   -1    0    0    0    0 -0.00000000000E+00 -0.00000000000E+00 -0.45593999997E+02  0.45594000000E+02  0.51100000000E-03 0. -1.
    9900012    2    1    2    0    0  0.42779213018E+01 -0.13517165684E+02  0.38107104169E+02  0.50528858753E+02  0.29999996665E+02 0.  0.
         12    1    1    2    0    0 -0.42779213018E+01  0.13517165684E+02 -0.38107104169E+02  0.40659141247E+02  0.00000000000E+00 0. -1.
         11    1    3    3    0    0 -0.10389072280E+02 -0.11358456931E+01  0.42744552725E+01  0.11291321287E+02  0.51100000000E-03 0.  1.
        -11    1    3    3    0    0  0.45266722002E+01 -0.37655712701E+01  0.61019391564E+01  0.84796196806E+01  0.51100000000E-03 0. -1.
        -12    1    3    3    0    0  0.10140321382E+02 -0.86157487209E+01  0.27730709740E+02  0.30757917785E+02  0.00000000000E+00 0.  1.
</event>
<event>
 7    1  0.2744502E-011  0.5052884E+02  0.7816164E-02  0.1300439E+00
        -11   -1    0    0    0    0  0.00000000000E+00  0.00000000000E+00  0.45593999997E+02  0.45594000000E+02  0.51100000000E-03 0.  1.
         11   -1    0    0    0    0 -0.00000000000E+00 -0.00000000000E+00 -0.45593999997E+02  0.45594000000E+02  0.51100000000E-03 0. -1.
    9900012    2    1    2    0    0  0.36787161949E+02 -0.58484421903E+01  0.16299305390E+02  0.50528844616E+02  0.29999953695E+02 0.  0.
         12    1    1    2    0    0 -0.36787161949E+02  0.58484421903E+01 -0.16299305390E+02  0.40659155384E+02  0.00000000000E+00 0. -1.
         11    1    3    3    0    0  0.16439669873E+02  0.82906279526E+00 -0.98049866926E+00  0.16489738280E+02  0.51100000000E-03 0. -1.
        -11    1    3    3    0    0  0.65855631357E+01 -0.37767698868E+01 -0.39619187196E+01  0.85633190291E+01  0.51100000000E-03 0.  1.
        -12    1    3    3    0    0  0.13761928940E+02 -0.29007350988E+01  0.21241722779E+02  0.25475787307E+02  0.00000000000E+00 0.  1.
</event>
<event>
 7    1  0.2744502E-011  0.5052877E+02  0.7816164E-02  0.1300439E+00
        -11   -1    0    0    0    0  0.00000000000E+00  0.00000000000E+00  0.45593999997E+02  0.45594000000E+02  0.51100000000E-03 0. -1.
         11   -1    0    0    0    0 -0.00000000000E+00 -0.00000000000E+00 -0.45593999997E+02  0.45594000000E+02  0.51100000000E-03 0.  1.
    9900012    2    1    2    0    0 -0.32794335182E+02  0.19830315092E+02 -0.13581736681E+02  0.50528765035E+02  0.29999711799E+02 0.  0.
         12    1    1    2    0    0  0.32794335182E+02 -0.19830315092E+02  0.13581736681E+02  0.40659234965E+02  0.00000000000E+00 0. -1.
         11    1    3    3    0    0 -0.24041466784E+02  0.10655565783E+02 -0.14658592731E+02  0.30106603070E+02  0.51100000000E-03 0. -1.
        -11    1    3    3    0    0 -0.13098581024E+02  0.52362461381E+01 -0.11396909957E+01  0.14152384756E+02  0.51100000000E-03 0.  1.
         12    1    3    3    0    0  0.43457126258E+01  0.39385031712E+01  0.22165470456E+01  0.62697772099E+01  0.00000000000E+00 0. -1.
</event>
<event>
 7    1  0.2744502E-011  0.5052887E+02  0.7816164E-02  0.1300439E+00
        -11   -1    0    0    0    0  0.00000000000E+00  0.00000000000E+00  0.45593999997E+02  0.45594000000E+02  0.51100000000E-03 0. -1.
         11   -1    0    0    0    0 -0.00000000000E+00 -0.00000000000E+00 -0.45593999997E+02  0.45594000000E+02  0.51100000000E-03 0.  1.
    9900012    2    1    2    0    0 -0.24778636016E+02  0.32214347938E+02  0.11914473644E+01  0.50528873562E+02  0.30000041679E+02 0.  0.
         12    1    1    2    0    0  0.24778636016E+02 -0.32214347938E+02 -0.11914473644E+01  0.40659126438E+02  0.00000000000E+00 0. -1.
         11    1    3    3    0    0 -0.62085018658E+00  0.70661414477E+01 -0.26020706537E+01  0.75555662833E+01  0.51100000000E-03 0. -1.
        -11    1    3    3    0    0 -0.13603118058E+02  0.13914413236E+02 -0.10361453235E+02  0.22045757642E+02  0.51100000000E-03 0.  1.
         12    1    3    3    0    0 -0.10554667771E+02  0.11233793254E+02  0.14154971253E+02  0.20927549637E+02  0.00000000000E+00 0. -1.
</event>
<event>
 7    1  0.2744502E-011  0.5052886E+02  0.7816164E-02  0.1300439E+00
        -11   -1    0    0    0    0  0.00000000000E+00  0.00000000000E+00  0.45593999997E+02  0.45594000000E+02  0.51100000000E-03 0.  1.
         11   -1    0    0    0    0 -0.00000000000E+00 -0.00000000000E+00 -0.45593999997E+02  0.45594000000E+02  0.51100000000E-03 0. -1.
    9900012    2    1    2    0    0 -0.26180108273E+02  0.22061591175E+02 -0.21932929922E+02  0.50528864626E+02  0.30000014518E+02 0.  0.
         12    1    1    2    0    0  0.26180108273E+02 -0.22061591175E+02  0.21932929922E+02  0.40659135374E+02  0.00000000000E+00 0. -1.
         11    1    3    3    0    0 -0.45375371518E+01  0.74585292884E+01 -0.37948213822E+01  0.95194312926E+01  0.51100000000E-03 0. -1.
        -11    1    3    3    0    0  0.48141911713E+01  0.81738169366E+01 -0.36168677517E+01  0.10152312670E+02  0.51100000000E-03 0.  1.
        -12    1    3    3    0    0 -0.26456762293E+02  0.64292449499E+01 -0.14521240788E+02  0.30857120664E+02  0.00000000000E+00 0.  1.
</event>
<event>
 7    1  0.2744502E-011  0.5052885E+02  0.7816164E-02  0.1300439E+00
        -11   -1    0    0    0    0  0.00000000000E+00  0.00000000000E+00  0.45593999997E+02  0.45594000000E+02  0.51100000000E-03 0.  1.
         11   -1    0    0    0    0 -0.00000000000E+00 -0.00000000000E+00 -0.45593999997E+02  0.45594000000E+02  0.51100000000E-03 0. -1.
    9900012    2    1    2    0    0  0.26708937326E+01 -0.33216358196E+02  0.23296051256E+02  0.50528854297E+02  0.29999983122E+02 0.  0.
         12    1    1    2    0    0 -0.26708937326E+01  0.33216358196E+02 -0.23296051256E+02  0.40659145703E+02  0.00000000000E+00 0. -1.
         11    1    3    3    0    0 -0.33190532268E+01  0.14388391745E+01  0.77097455012E+00  0.36987531022E+01  0.51100000000E-03 0. -1.
        -11    1    3    3    0    0  0.83854032976E+01 -0.33032109711E+01  0.85431319785E+01  0.12418184064E+02  0.51100000000E-03 0.  1.
        -12    1    3    3    0    0 -0.23954563381E+01 -0.31351986400E+02  0.13981944727E+02  0.34411917131E+02  0.00000000000E+00 0.  1.
</event>
<event>
 7    1  0.2744502E-011  0.5052886E+02  0.7816164E-02  0.1300439E+00
        -11   -1    0    0    0    0  0.00000000000E+00  0.00000000000E+00  0.45593999997E+02  0.45594000000E+02  0.51100000000E-03 0.  1.
         11   -1    0    0    0    0 -0.00000000000E+00 -0.00000000000E+00 -0.45593999997E+02  0.45594000000E+02  0.51100000000E-03 0. -1.
    9900012    2    1    2    0    0  0.22565170851E+02  0.30744313950E+02  0.14098444307E+02  0.50528857022E+02  0.29999991405E+02 0.  0.
         12    1    1    2    0    0 -0.22565170851E+02 -0.30744313950E+02 -0.14098444307E+02  0.40659142978E+02  0.00000000000E+00 0. -1.
         11    1    3    3    0    0  0.21332417724E+01 -0.38403674986E+01  0.56974989404E+01  0.71944865988E+01  0.51100000000E-03 0. -1.
        -11    1    3    3    0    0  0.18151467518E+02  0.18682080783E+02  0.80564232346E+01  0.27265396954E+02  0.51100000000E-03 0.  1.
        -12    1    3    3    0    0  0.22804615601E+01  0.15902600666E+02  0.34452213173E+00  0.16068973470E+02  0.00000000000E+00 0.  1.
</event>
<event>
 7    1  0.2744502E-011  0.5052886E+02  0.7816164E-02  0.1300439E+00
        -11   -1    0    0    0    0  0.00000000000E+00  0.00000000000E+00  0.45593999997E+02  0.45594000000E+02  0.51100000000E-03 0.  1.
         11   -1    0    0    0    0 -0.00000000000E+00 -0.00000000000E+00 -0.45593999997E+02  0.45594000000E+02  0.51100000000E-03 0. -1.
    9900012    2    1    2    0    0  0.17505898612E+02 -0.70457397762E+01  0.36014810060E+02  0.50528862296E+02  0.30000007435E+02 0.  0.
         12    1    1    2    0    0 -0.17505898612E+02  0.70457397762E+01 -0.36014810060E+02  0.40659137704E+02  0.00000000000E+00 0. -1.
         11    1    3    3    0    0  0.36929475099E+01  0.53306406518E+01  0.72195755470E+01  0.97044248881E+01  0.51100000000E-03 0. -1.
        -11    1    3    3    0    0  0.17623666520E+02 -0.29686925543E+01  0.23030336015E+02  0.29151383060E+02  0.51100000000E-03 0.  1.
         12    1    3    3    0    0 -0.38107154177E+01 -0.94076878737E+01  0.57648984977E+01  0.11673054348E+02  0.00000000000E+00 0. -1.
</event>
<event>
 7    1  0.2744502E-011  0.5052883E+02  0.7816164E-02  0.1300439E+00
        -11   -1    0    0    0    0  0.00000000000E+00  0.00000000000E+00  0.45593999997E+02  0.45594000000E+02  0.51100000000E-03 0.  1.
         11   -1    0    0    0    0 -0.00000000000E+00 -0.00000000000E+00 -0.45593999997E+02  0.45594000000E+02  0.51100000000E-03 0. -1.
    9900012    2    1    2    0    0 -0.30184438780E+02  0.19560108551E+02  0.18959695918E+02  0.50528828092E+02  0.29999903468E+02 0.  0.
         12    1    1    2    0    0  0.30184438780E+02 -0.19560108551E+02 -0.18959695918E+02  0.40659171908E+02  0.00000000000E+00 0. -1.
         11    1    3    3    0    0 -0.18154876577E+02  0.68445170366E+01  0.56697597228E+01  0.20213686764E+02  0.51100000000E-03 0. -1.
        -11    1    3    3    0    0 -0.10404703270E+02  0.95046649257E+01 -0.23320015984E+01  0.14284072851E+02  0.51100000000E-03 0.  1.
         12    1    3    3    0    0 -0.16248589322E+01  0.32109265888E+01  0.15621937793E+02  0.16031068477E+02  0.00000000000E+00 0. -1.
</event>
<event>
 7    1  0.2744502E-011  0.5052886E+02  0.7816164E-02  0.1300439E+00
        -11   -1    0    0    0    0  0.00000000000E+00  0.00000000000E+00  0.45593999997E+02  0.45594000000E+02  0.51100000000E-03 0. -1.
         11   -1    0    0    0    0 -0.00000000000E+00 -0.00000000000E+00 -0.45593999997E+02  0.45594000000E+02  0.51100000000E-03 0.  1.
    9900012    2    1    2    0    0 -0.24287589708E+02  0.29676453215E+02 -0.13512461493E+02  0.50528861976E+02  0.30000006462E+02 0.  0.
         12    1    1    2    0    0  0.24287589708E+02 -0.29676453215E+02  0.13512461493E+02  0.40659138024E+02  0.00000000000E+00 0. -1.
         11    1    3    3    0    0 -0.13305082949E+02  0.40953047787E+01 -0.49679947013E+00  0.13929952027E+02  0.51100000000E-03 0. -1.
        -11    1    3    3    0    0 -0.99700080783E+01  0.28254762100E+02 -0.83106292699E+01  0.31093394822E+02  0.51100000000E-03 0.  1.
         12    1    3    3    0    0 -0.10124986813E+01 -0.26736136642E+01 -0.47050327531E+01  0.55055151269E+01  0.00000000000E+00 0. -1.
</event>
<event>
 7    1  0.2744502E-011  0.5052886E+02  0.7816164E-02  0.1300439E+00
        -11   -1    0    0    0    0  0.00000000000E+00  0.00000000000E+00  0.45593999997E+02  0.45594000000E+02  0.51100000000E-03 0. -1.
         11   -1    0    0    0    0 -0.00000000000E+00 -0.00000000000E+00 -0.45593999997E+02  0.45594000000E+02  0.51100000000E-03 0.  1.
    9900012    2    1    2    0    0  0.29879107717E+02  0.71799581292E+01 -0.26624282863E+02  0.50528864315E+02  0.30000013571E+02 0.  0.
         12    1    1    2    0    0 -0.29879107717E+02 -0.71799581292E+01  0.26624282863E+02  0.40659135685E+02  0.00000000000E+00 0. -1.
         11    1    3    3    0    0  0.70771107088E+01  0.12504703228E+01 -0.18509200628E+01  0.74212584750E+01  0.51100000000E-03 0. -1.
        -11    1    3    3    0    0  0.21895077838E+02  0.13588979668E+02 -0.24236383651E+02  0.35375939488E+02  0.51100000000E-03 0.  1.
        -12    1    3    3    0    0  0.90691917023E+00 -0.76594918619E+01 -0.53697914912E+00  0.77316663515E+01  0.00000000000E+00 0.  1.
</event>
<event>
 7    1  0.2744502E-011  0.5052886E+02  0.7816164E-02  0.1300439E+00
        -11   -1    0    0    0    0  0.00000000000E+00  0.00000000000E+00  0.45593999997E+02  0.45594000000E+02  0.51100000000E-03 0.  1.
         11   -1    0    0    0    0 -0.00000000000E+00 -0.00000000000E+00 -0.45593999997E+02  0.45594000000E+02  0.51100000000E-03 0. -1.
    9900012    2    1    2    0    0 -0.14404903408E+02  0.18473188795E+02  0.33232606303E+02  0.50528855049E+02  0.29999985407E+02 0.  0.
         12    1    1    2    0    0  0.14404903408E+02 -0.18473188795E+02 -0.33232606303E+02  0.40659144951E+02  0.00000000000E+00 0. -1.
         11    1    3    3    0    0  0.47568479051E+01  0.37527395579E+01  0.14544157475E+01  0.62310498000E+01  0.51100000000E-03 0. -1.
        -11    1    3    3    0    0 -0.71255735405E+01  0.11892422879E+02  0.48859999011E+01  0.14699541337E+02  0.51100000000E-03 0.  1.
        -12    1    3    3    0    0 -0.12036177772E+02  0.28280263582E+01  0.26892190654E+02  0.29598263913E+02  0.00000000000E+00 0.  1.
</event>
<event>
 7    1  0.2744502E-011  0.5052886E+02  0.7816164E-02  0.1300439E+00
        -11   -1    0    0    0    0  0.00000000000E+00  0.00000000000E+00  0.45593999997E+02  0.45594000000E+02  0.51100000000E-03 0. -1.
         11   -1    0    0    0    0 -0.00000000000E+00 -0.00000000000E+00 -0.45593999997E+02  0.45594000000E+02  0.51100000000E-03 0.  1.
    9900012    2    1    2    0    0  0.20986826472E+02 -0.34598058006E+02 -0.39614643585E+01  0.50528859539E+02  0.29999999055E+02 0.  0.
         12    1    1    2    0    0 -0.20986826472E+02  0.34598058006E+02  0.39614643585E+01  0.40659140461E+02  0.00000000000E+00 0. -1.
         11    1    3    3    0    0  0.83441605788E+01 -0.35382713662E+01 -0.29637704901E+01  0.95356340012E+01  0.51100000000E-03 0. -1.
        -11    1    3    3    0    0  0.17243075880E+02 -0.18005329811E+02 -0.70181629864E+01  0.25899231250E+02  0.51100000000E-03 0.  1.
         12    1    3    3    0    0 -0.46004099868E+01 -0.13054456829E+02  0.60204691180E+01  0.15093994287E+02  0.00000000000E+00 0. -1.
</event>
<event>
 7    1  0.2744502E-011  0.5052886E+02  0.7816164E-02  0.1300439E+00
        -11   -1    0    0    0    0  0.00000000000E+00  0.00000000000E+00  0.45593999997E+02  0.45594000000E+02  0.51100000000E-03 0.  1.
         11   -1    0    0    0    0 -0.00000000000E+00 -0.00000000000E+00 -0.45593999997E+02  0.45594000000E+02  0.51100000000E-03 0. -1.
    9900012    2    1    2    0    0  0.30148005882E+02 -0.32112004167E+01 -0.27091542738E+02  0.50528858903E+02  0.29999997123E+02 0.  0.
         12    1    1    2    0    0 -0.30148005882E+02  0.32112004167E+01  0.27091542738E+02  0.40659141097E+02  0.00000000000E+00 0. -1.
         11    1    3    3    0    0 -0.25101149173E+01 -0.27772350841E+01 -0.32412046340E+01  0.49516784378E+01  0.51100000000E-03 0. -1.
        -11    1    3    3    0    0  0.48456205048E+01 -0.53713391074E+00  0.39336726072E+01  0.62643699888E+01  0.51100000000E-03 0.  1.
         12    1    3    3    0    0  0.27812500295E+02  0.10316857815E+00 -0.27784010711E+02  0.39312810477E+02  0.00000000000E+00 0. -1.
</event>
<event>
 7    1  0.2744502E-011  0.5052887E+02  0.7816164E-02  0.1300439E+00
        -11   -1    0    0    0    0  0.00000000000E+00  0.00000000000E+00  0.45593999997E+02  0.45594000000E+02  0.51100000000E-03 0.  1.
         11   -1    0    0    0    0 -0.00000000000E+00 -0.00000000000E+00 -0.45593999997E+02  0.45594000000E+02  0.51100000000E-03 0. -1.
    9900012    2    1    2    0    0  0.30152712288E+01  0.21724543811E+02  0.34236196519E+02  0.50528870441E+02  0.30000032193E+02 0.  0.
         12    1    1    2    0    0 -0.30152712288E+01 -0.21724543811E+02 -0.34236196519E+02  0.40659129559E+02  0.00000000000E+00 0. -1.
         11    1    3    3    0    0 -0.75611047301E+01  0.10418959171E+02  0.12675347840E+02  0.18066251910E+02  0.51100000000E-03 0. -1.
        -11    1    3    3    0    0 -0.35797260870E+01 -0.24794276075E+01  0.53949072418E+01  0.69330386215E+01  0.51100000000E-03 0.  1.
        -12    1    3    3    0    0  0.14156102046E+02  0.13785012248E+02  0.16165941438E+02  0.25529579910E+02  0.00000000000E+00 0.  1.
</event>
<event>
 7    1  0.2744502E-011  0.5052885E+02  0.7816164E-02  0.1300439E+00
        -11   -1    0    0    0    0  0.00000000000E+00  0.00000000000E+00  0.45593999997E+02  0.45594000000E+02  0.51100000000E-03 0. -1.
         11   -1    0    0    0    0 -0.00000000000E+00 -0.00000000000E+00 -0.45593999997E+02  0.45594000000E+02  0.51100000000E-03 0.  1.
    9900012    2    1    2    0    0  0.39436579753E+02  0.15287321403E+01 -0.97767975197E+01  0.50528848333E+02  0.29999964992E+02 0.  0.
         12    1    1    2    0    0 -0.39436579753E+02 -0.15287321403E+01  0.97767975197E+01  0.40659151667E+02  0.00000000000E+00 0. -1.
         11    1    3    3    0    0  0.14520053237E+01  0.86724830388E+01 -0.39951517427E+00  0.88022664215E+01  0.51100000000E-03 0. -1.
        -11    1    3    3    0    0  0.14679512527E+02  0.31664329249E+01 -0.52634674711E+01  0.15912839959E+02  0.51100000000E-03 0.  1.
         12    1    3    3    0    0  0.23305061902E+02 -0.10310183823E+02 -0.41138148743E+01  0.25813741952E+02  0.00000000000E+00 0. -1.
</event>
<event>
 7    1  0.2744502E-011  0.5052886E+02  0.7816164E-02  0.1300439E+00
        -11   -1    0    0    0    0  0.00000000000E+00  0.00000000000E+00  0.45593999997E+02  0.45594000000E+02  0.51100000000E-03 0. -1.
         11   -1    0    0    0    0 -0.00000000000E+00 -0.00000000000E+00 -0.45593999997E+02  0.45594000000E+02  0.51100000000E-03 0.  1.
    9900012    2    1    2    0    0  0.41832594722E+01 -0.37339757446E+02 -0.15537330211E+02  0.50528858641E+02  0.29999996326E+02 0.  0.
         12    1    1    2    0    0 -0.41832594722E+01  0.37339757446E+02  0.15537330211E+02  0.40659141359E+02  0.00000000000E+00 0. -1.
         11    1    3    3    0    0 -0.17777743092E+01 -0.15027633198E+02  0.39801134065E+01  0.15647093789E+02  0.51100000000E-03 0. -1.
        -11    1    3    3    0    0 -0.26770090293E+01 -0.54542900585E+01  0.18267256198E+01  0.63444924254E+01  0.51100000000E-03 0.  1.
         12    1    3    3    0    0  0.86380428107E+01 -0.16857834189E+02 -0.21344169237E+02  0.28537272427E+02  0.00000000000E+00 0. -1.
</event>
<event>
 7    1  0.2744502E-011  0.5052886E+02  0.7816164E-02  0.1300439E+00
        -11   -1    0    0    0    0  0.00000000000E+00  0.00000000000E+00  0.45593999997E+02  0.45594000000E+02  0.51100000000E-03 0. -1.
         11   -1    0    0    0    0 -0.00000000000E+00 -0.00000000000E+00 -0.45593999997E+02  0.45594000000E+02  0.51100000000E-03 0.  1.
    9900012    2    1    2    0    0 -0.17970095518E+02  0.18784427562E+02 -0.31263189542E+02  0.50528855001E+02  0.29999985260E+02 0.  0.
         12    1    1    2    0    0  0.17970095518E+02 -0.18784427562E+02  0.31263189542E+02  0.40659144999E+02  0.00000000000E+00 0. -1.
         11    1    3    3    0    0 -0.97015498223E+00  0.13202403771E+02 -0.18557041673E+02  0.22794921845E+02  0.51100000000E-03 0. -1.
        -11    1    3    3    0    0 -0.60737199764E+00  0.70426298392E+01 -0.78744929782E+01  0.10581832342E+02  0.51100000000E-03 0.  1.
        -12    1    3    3    0    0 -0.16392568538E+02 -0.14606060489E+01 -0.48316548907E+01  0.17152100813E+02  0.00000000000E+00 0.  1.
</event>
<event>
 7    1  0.2744502E-011  0.5052886E+02  0.7816164E-02  0.1300439E+00
        -11   -1    0    0    0    0  0.00000000000E+00  0.00000000000E+00  0.45593999997E+02  0.45594000000E+02  0.51100000000E-03 0. -1.
         11   -1    0    0    0    0 -0.00000000000E+00 -0.00000000000E+00 -0.45593999997E+02  0.45594000000E+02  0.51100000000E-03 0.  1.
    9900012    2    1    2    0    0  0.21800669595E+02 -0.32579401336E+02 -0.10792531109E+02  0.50528864324E+02  0.30000013599E+02 0.  0.
         12    1    1    2    0    0 -0.21800669595E+02  0.32579401336E+02  0.10792531109E+02  0.40659135676E+02  0.00000000000E+00 0. -1.
         11    1    3    3    0    0  0.51778452043E+01 -0.38203346463E+01 -0.52188897140E+01  0.82850375906E+01  0.51100000000E-03 0. -1.
        -11    1    3    3    0    0  0.62217143884E+01 -0.84738417272E+01 -0.14373756721E+02  0.17807880449E+02  0.51100000000E-03 0.  1.
         12    1    3    3    0    0  0.10401110002E+02 -0.20285224962E+02  0.88001153266E+01  0.24435946284E+02  0.00000000000E+00 0. -1.
</event>
<event>
 7    1  0.2744502E-011  0.5052886E+02  0.7816164E-02  0.1300439E+00
        -11   -1    0    0    0    0  0.00000000000E+00  0.00000000000E+00  0.45593999997E+02  0.45594000000E+02  0.51100000000E-03 0.  1.
         11   -1    0    0    0    0 -0.00000000000E+00 -0.00000000000E+00 -0.45593999997E+02  0.45594000000E+02  0.51100000000E-03 0. -1.
    9900012    2    1    2    0    0 -0.49392176894E+00 -0.59589214896E+01  0.40217069439E+02  0.50528863532E+02  0.30000011192E+02 0.  0.
         12    1    1    2    0    0  0.49392176894E+00  0.59589214896E+01 -0.40217069439E+02  0.40659136468E+02  0.00000000000E+00 0. -1.
         11    1    3    3    0    0 -0.11676419766E+01 -0.12106989612E+01  0.20173511544E+02  0.20243511258E+02  0.51100000000E-03 0. -1.
        -11    1    3    3    0    0 -0.58299191993E+01  0.47092917921E+01  0.16740769511E+02  0.18341721597E+02  0.51100000000E-03 0.  1.
         12    1    3    3    0    0  0.65036394070E+01 -0.94575143204E+01  0.33027883848E+01  0.11943630678E+02  0.00000000000E+00 0. -1.
</event>
<event>
 7    1  0.2744502E-011  0.5052886E+02  0.7816164E-02  0.1300439E+00
        -11   -1    0    0    0    0  0.00000000000E+00  0.00000000000E+00  0.45593999997E+02  0.45594000000E+02  0.51100000000E-03 0.  1.
         11   -1    0    0    0    0 -0.00000000000E+00 -0.00000000000E+00 -0.45593999997E+02  0.45594000000E+02  0.51100000000E-03 0. -1.
    9900012    2    1    2    0    0  0.21273961352E+01  0.36672174754E+02  0.17429610138E+02  0.50528861728E+02  0.30000005707E+02 0.  0.
         12    1    1    2    0    0 -0.21273961352E+01 -0.36672174754E+02 -0.17429610138E+02  0.40659138272E+02  0.00000000000E+00 0. -1.
         11    1    3    3    0    0 -0.22820205318E+01  0.35397268416E+01  0.85645030838E+01  0.95440032038E+01  0.51100000000E-03 0. -1.
        -11    1    3    3    0    0 -0.48419101643E+01 -0.63853775234E+00  0.21283855294E+01  0.53274618463E+01  0.51100000000E-03 0.  1.
         12    1    3    3    0    0  0.92513268314E+01  0.33770985665E+02  0.67367215244E+01  0.35657396677E+02  0.00000000000E+00 0. -1.
</event>
<event>
 7    1  0.2744502E-011  0.5052886E+02  0.7816164E-02  0.1300439E+00
        -11   -1    0    0    0    0  0.00000000000E+00  0.00000000000E+00  0.45593999997E+02  0.45594000000E+02  0.51100000000E-03 0.  1.
         11   -1    0    0    0    0 -0.00000000000E+00 -0.00000000000E+00 -0.45593999997E+02  0.45594000000E+02  0.51100000000E-03 0. -1.
    9900012    2    1    2    0    0 -0.16723788410E+02 -0.78582405764E+01  0.36217799262E+02  0.50528855554E+02  0.29999986942E+02 0.  0.
         12    1    1    2    0    0  0.16723788410E+02  0.78582405764E+01 -0.36217799262E+02  0.40659144446E+02  0.00000000000E+00 0. -1.
         11    1    3    3    0    0 -0.88640366832E+01 -0.58687990554E+01  0.52064391377E+01  0.11837269847E+02  0.51100000000E-03 0. -1.
        -11    1    3    3    0    0 -0.14895961421E+02 -0.35100446176E+01  0.16573393622E+02  0.22558534001E+02  0.51100000000E-03 0.  1.
         12    1    3    3    0    0  0.70362096945E+01  0.15206030966E+01  0.14437966502E+02  0.16133051706E+02  0.00000000000E+00 0. -1.
</event>
<event>
 7    1  0.2744502E-011  0.5052885E+02  0.7816164E-02  0.1300439E+00
        -11   -1    0    0    0    0  0.00000000000E+00  0.00000000000E+00  0.45593999997E+02  0.45594000000E+02  0.51100000000E-03 0. -1.
         11   -1    0    0    0    0 -0.00000000000E+00 -0.00000000000E+00 -0.45593999997E+02  0.45594000000E+02  0.51100000000E-03 0.  1.
    9900012    2    1    2    0    0  0.39386819883E+02 -0.83332100078E+00 -0.10057352176E+02  0.50528851741E+02  0.29999975351E+02 0.  0.
         12    1    1    2    0    0 -0.39386819883E+02  0.83332100078E+00  0.10057352176E+02  0.40659148259E+02  0.00000000000E+00 0. -1.
         11    1    3    3    0    0 -0.28867221586E+01  0.15222912885E+01 -0.38010343572E+01  0.50098301402E+01  0.51100000000E-03 0. -1.
        -11    1    3    3    0    0  0.14652831085E+02  0.47105774453E+01  0.27182827467E+01  0.15629589247E+02  0.51100000000E-03 0.  1.
        -12    1    3    3    0    0  0.27620710957E+02 -0.70661897346E+01 -0.89746005651E+01  0.29889432354E+02  0.00000000000E+00 0.  1.
</event>
<event>
 7    1  0.2744502E-011  0.5052886E+02  0.7816164E-02  0.1300439E+00
        -11   -1    0    0    0    0  0.00000000000E+00  0.00000000000E+00  0.45593999997E+02  0.45594000000E+02  0.51100000000E-03 0.  1.
         11   -1    0    0    0    0 -0.00000000000E+00 -0.00000000000E+00 -0.45593999997E+02  0.45594000000E+02  0.51100000000E-03 0. -1.
    9900012    2    1    2    0    0 -0.17555920812E+02  0.25240135880E+02  0.26606218198E+02  0.50528860048E+02  0.30000000603E+02 0.  0.
         12    1    1    2    0    0  0.17555920812E+02 -0.25240135880E+02 -0.26606218198E+02  0.40659139952E+02  0.00000000000E+00 0. -1.
         11    1    3    3    0    0 -0.47412994974E+01  0.70277278470E+01  0.13499656735E+00  0.84786263009E+01  0.51100000000E-03 0. -1.
        -11    1    3    3    0    0 -0.10493851049E+02  0.11771847313E+02  0.11411824970E+01  0.15811375549E+02  0.51100000000E-03 0.  1.
         12    1    3    3    0    0 -0.23207702654E+01  0.64405607195E+01  0.25330039134E+02  0.26238858198E+02  0.00000000000E+00 0. -1.
</event>
<event>
 7    1  0.2744502E-011  0.5052887E+02  0.7816164E-02  0.1300439E+00
        -11   -1    0    0    0    0  0.00000000000E+00  0.00000000000E+00  0.45593999997E+02  0.45594000000E+02  0.51100000000E-03 0.  1.
         11   -1    0    0    0    0 -0.00000000000E+00 -0.00000000000E+00 -0.45593999997E+02  0.45594000000E+02  0.51100000000E-03 0. -1.
    9900012    2    1    2    0    0  0.24517073595E+02 -0.30357279393E+02  0.11424267021E+02  0.50528865888E+02  0.30000018353E+02 0.  0.
         12    1    1    2    0    0 -0.24517073595E+02  0.30357279393E+02 -0.11424267021E+02  0.40659134112E+02  0.00000000000E+00 0. -1.
         11    1    3    3    0    0  0.96978618144E+01 -0.16491260702E+02  0.19877932837E+02  0.27588809642E+02  0.51100000000E-03 0.  1.
        -11    1    3    3    0    0  0.10971841971E+02 -0.11106012701E+02 -0.33287648621E+01  0.15962628546E+02  0.51100000000E-03 0. -1.
        -12    1    3    3    0    0  0.38473698100E+01 -0.27600059897E+01 -0.51249009542E+01  0.69774277000E+01  0.00000000000E+00 0.  1.
</event>
<event>
 7    1  0.2744502E-011  0.5052889E+02  0.7816164E-02  0.1300439E+00
        -11   -1    0    0    0    0  0.00000000000E+00  0.00000000000E+00  0.45593999997E+02  0.45594000000E+02  0.51100000000E-03 0.  1.
         11   -1    0    0    0    0 -0.00000000000E+00 -0.00000000000E+00 -0.45593999997E+02  0.45594000000E+02  0.51100000000E-03 0. -1.
    9900012    2    1    2    0    0  0.21881294368E+02  0.13871459523E+02  0.31336154370E+02  0.50528892739E+02  0.30000099971E+02 0.  0.
         12    1    1    2    0    0 -0.21881294368E+02 -0.13871459523E+02 -0.31336154370E+02  0.40659107261E+02  0.00000000000E+00 0. -1.
         11    1    3    3    0    0 -0.24172513610E+01 -0.21268558020E+01 -0.84535998381E+00  0.33288516801E+01  0.51100000000E-03 0. -1.
        -11    1    3    3    0    0  0.93974463820E+01  0.15624776205E+02  0.24175220147E+02  0.30280140346E+02  0.51100000000E-03 0.  1.
         12    1    3    3    0    0  0.14901099347E+02  0.37353911999E+00  0.80062942073E+01  0.16919900714E+02  0.00000000000E+00 0. -1.
</event>
<event>
 7    1  0.2744502E-011  0.5052886E+02  0.7816164E-02  0.1300439E+00
        -11   -1    0    0    0    0  0.00000000000E+00  0.00000000000E+00  0.45593999997E+02  0.45594000000E+02  0.51100000000E-03 0. -1.
         11   -1    0    0    0    0 -0.00000000000E+00 -0.00000000000E+00 -0.45593999997E+02  0.45594000000E+02  0.51100000000E-03 0.  1.
    9900012    2    1    2    0    0  0.17326267576E+02  0.34409895110E+02 -0.12997123315E+02  0.50528860264E+02  0.30000001259E+02 0.  0.
         12    1    1    2    0    0 -0.17326267576E+02 -0.34409895110E+02  0.12997123315E+02  0.40659139736E+02  0.00000000000E+00 0. -1.
         11    1    3    3    0    0 -0.48626336940E+00 -0.24725287146E+01 -0.18284001697E+01  0.31133418943E+01  0.51100000000E-03 0. -1.
        -11    1    3    3    0    0 -0.29424481827E+00  0.47097751749E+01  0.52082746079E+01  0.70281353760E+01  0.51100000000E-03 0.  1.
        -12    1    3    3    0    0  0.18106775763E+02  0.32172648650E+02 -0.16376997753E+02  0.40387382994E+02  0.00000000000E+00 0.  1.
</event>
<event>
 7    1  0.2744502E-011  0.5052887E+02  0.7816164E-02  0.1300439E+00
        -11   -1    0    0    0    0  0.00000000000E+00  0.00000000000E+00  0.45593999997E+02  0.45594000000E+02  0.51100000000E-03 0.  1.
         11   -1    0    0    0    0 -0.00000000000E+00 -0.00000000000E+00 -0.45593999997E+02  0.45594000000E+02  0.51100000000E-03 0. -1.
    9900012    2    1    2    0    0 -0.22683674422E+02  0.32600321214E+02  0.87083373891E+01  0.50528866110E+02  0.30000019029E+02 0.  0.
         12    1    1    2    0    0  0.22683674422E+02 -0.32600321214E+02 -0.87083373891E+01  0.40659133890E+02  0.00000000000E+00 0. -1.
         11    1    3    3    0    0 -0.10370856522E+02  0.18038738994E+02  0.10197053103E+02  0.23171764320E+02  0.51100000000E-03 0. -1.
        -11    1    3    3    0    0 -0.59217894376E+01  0.13006275626E+02  0.75623189671E+01  0.16168471302E+02  0.51100000000E-03 0.  1.
         12    1    3    3    0    0 -0.63910284630E+01  0.15553065946E+01 -0.90510346806E+01  0.11188630489E+02  0.00000000000E+00 0. -1.
</event>
<event>
 7    1  0.2744502E-011  0.5052886E+02  0.7816164E-02  0.1300439E+00
        -11   -1    0    0    0    0  0.00000000000E+00  0.00000000000E+00  0.45593999997E+02  0.45594000000E+02  0.51100000000E-03 0.  1.
         11   -1    0    0    0    0 -0.00000000000E+00 -0.00000000000E+00 -0.45593999997E+02  0.45594000000E+02  0.51100000000E-03 0. -1.
    9900012    2    1    2    0    0  0.29003747498E+02  0.25882113679E+02  0.11919072674E+02  0.50528862395E+02  0.30000007734E+02 0.  0.
         12    1    1    2    0    0 -0.29003747498E+02 -0.25882113679E+02 -0.11919072674E+02  0.40659137605E+02  0.00000000000E+00 0. -1.
         11    1    3    3    0    0  0.77580427259E+01  0.66869798909E+01  0.31413512255E+01  0.10713123484E+02  0.51100000000E-03 0. -1.
        -11    1    3    3    0    0  0.20696526330E+02  0.21921873534E+02  0.14499502654E+02  0.33453704113E+02  0.51100000000E-03 0.  1.
         12    1    3    3    0    0  0.54917844195E+00 -0.27267397459E+01 -0.57217812060E+01  0.63620347981E+01  0.00000000000E+00 0. -1.
</event>
<event>
 7    1  0.2744502E-011  0.5052888E+02  0.7816164E-02  0.1300439E+00
        -11   -1    0    0    0    0  0.00000000000E+00  0.00000000000E+00  0.45593999997E+02  0.45594000000E+02  0.51100000000E-03 0.  1.
         11   -1    0    0    0    0 -0.00000000000E+00 -0.00000000000E+00 -0.45593999997E+02  0.45594000000E+02  0.51100000000E-03 0. -1.
    9900012    2    1    2    0    0 -0.39222419893E+02  0.30557762898E+01  0.10267796768E+02  0.50528884891E+02  0.30000076115E+02 0.  0.
         12    1    1    2    0    0  0.39222419893E+02 -0.30557762898E+01 -0.10267796768E+02  0.40659115109E+02  0.00000000000E+00 0. -1.
         11    1    3    3    0    0 -0.96249644371E+01 -0.45606669299E+00 -0.50936607816E+01  0.10899234728E+02  0.51100000000E-03 0. -1.
        -11    1    3    3    0    0 -0.15590210758E+02  0.27481471510E+01 -0.34119236530E+01  0.16194079397E+02  0.51100000000E-03 0.  1.
         12    1    3    3    0    0 -0.14007244697E+02  0.76369583174E+00  0.18773381202E+02  0.23435570765E+02  0.00000000000E+00 0. -1.
</event>
<event>
 7    1  0.2744502E-011  0.5052885E+02  0.7816164E-02  0.1300439E+00
        -11   -1    0    0    0    0  0.00000000000E+00  0.00000000000E+00  0.45593999997E+02  0.45594000000E+02  0.51100000000E-03 0.  1.
         11   -1    0    0    0    0 -0.00000000000E+00 -0.00000000000E+00 -0.45593999997E+02  0.45594000000E+02  0.51100000000E-03 0. -1.
    9900012    2    1    2    0    0  0.12667403564E+02 -0.31888653075E+02  0.21813235345E+02  0.50528849195E+02  0.29999967613E+02 0.  0.
         12    1    1    2    0    0 -0.12667403564E+02  0.31888653075E+02 -0.21813235345E+02  0.40659150805E+02  0.00000000000E+00 0. -1.
         11    1    3    3    0    0  0.61804044911E+01 -0.84044142419E+01  0.98191791609E+01  0.14326474028E+02  0.51100000000E-03 0. -1.
        -11    1    3    3    0    0  0.51743045807E+01  0.68080315421E+00  0.10773417182E+02  0.11970941436E+02  0.51100000000E-03 0.  1.
         12    1    3    3    0    0  0.13126944918E+01 -0.24165041987E+02  0.12206390015E+01  0.24231433731E+02  0.00000000000E+00 0. -1.
</event>
<event>
 7    1  0.2744502E-011  0.5052878E+02  0.7816164E-02  0.1300439E+00
        -11   -1    0    0    0    0  0.00000000000E+00  0.00000000000E+00  0.45593999997E+02  0.45594000000E+02  0.51100000000E-03 0.  1.
         11   -1    0    0    0    0 -0.00000000000E+00 -0.00000000000E+00 -0.45593999997E+02  0.45594000000E+02  0.51100000000E-03 0. -1.
    9900012    2    1    2    0    0  0.31775337049E+02  0.15802208234E+01  0.25318032117E+02  0.50528783423E+02  0.29999767690E+02 0.  0.
         12    1    1    2    0    0 -0.31775337049E+02 -0.15802208234E+01 -0.25318032117E+02  0.40659216577E+02  0.00000000000E+00 0. -1.
         11    1    3    3    0    0  0.84933820177E+01  0.19636178818E+01 -0.20964825235E+01  0.89659674613E+01  0.51100000000E-03 0. -1.
        -11    1    3    3    0    0  0.12254085738E+02  0.29623264323E+01  0.88465142590E+00  0.12638061701E+02  0.51100000000E-03 0.  1.
        -12    1    3    3    0    0  0.11027869293E+02 -0.33457234907E+01  0.26529863214E+02  0.28924754260E+02  0.00000000000E+00 0.  1.
</event>
<event>
 7    1  0.2744502E-011  0.5052885E+02  0.7816164E-02  0.1300439E+00
        -11   -1    0    0    0    0  0.00000000000E+00  0.00000000000E+00  0.45593999997E+02  0.45594000000E+02  0.51100000000E-03 0.  1.
         11   -1    0    0    0    0 -0.00000000000E+00 -0.00000000000E+00 -0.45593999997E+02  0.45594000000E+02  0.51100000000E-03 0. -1.
    9900012    2    1    2    0    0  0.80640706446E+01  0.96767594498E+01  0.38658731079E+02  0.50528851000E+02  0.29999973098E+02 0.  0.
         12    1    1    2    0    0 -0.80640706446E+01 -0.96767594498E+01 -0.38658731079E+02  0.40659149000E+02  0.00000000000E+00 0. -1.
         11    1    3    3    0    0  0.75742924283E+01  0.92489767497E+01  0.97341032910E+01  0.15416427727E+02  0.51100000000E-03 0. -1.
        -11    1    3    3    0    0  0.10023640363E+02  0.83457679420E+00  0.11770226121E+02  0.15482509737E+02  0.51100000000E-03 0.  1.
         12    1    3    3    0    0 -0.95338621472E+01 -0.40679409411E+00  0.17154401667E+02  0.19629913536E+02  0.00000000000E+00 0. -1.
</event>
<event>
 7    1  0.2744502E-011  0.5052887E+02  0.7816164E-02  0.1300439E+00
        -11   -1    0    0    0    0  0.00000000000E+00  0.00000000000E+00  0.45593999997E+02  0.45594000000E+02  0.51100000000E-03 0.  1.
         11   -1    0    0    0    0 -0.00000000000E+00 -0.00000000000E+00 -0.45593999997E+02  0.45594000000E+02  0.51100000000E-03 0. -1.
    9900012    2    1    2    0    0  0.10261409289E+02 -0.31291311082E+02 -0.23847902473E+02  0.50528866682E+02  0.30000020766E+02 0.  0.
         12    1    1    2    0    0 -0.10261409289E+02  0.31291311082E+02  0.23847902473E+02  0.40659133318E+02  0.00000000000E+00 0. -1.
         11    1    3    3    0    0  0.52877629556E+00 -0.30319514249E+01 -0.13292628437E+02  0.13644277366E+02  0.51100000000E-03 0. -1.
        -11    1    3    3    0    0  0.79769869472E+01 -0.21416307098E+02 -0.16056787721E+02  0.27930466567E+02  0.51100000000E-03 0.  1.
        -12    1    3    3    0    0  0.17556460459E+01 -0.68430525595E+01  0.55015136853E+01  0.89541227488E+01  0.00000000000E+00 0.  1.
</event>
<event>
 7    1  0.2744502E-011  0.5052883E+02  0.7816164E-02  0.1300439E+00
        -11   -1    0    0    0    0  0.00000000000E+00  0.00000000000E+00  0.45593999997E+02  0.45594000000E+02  0.51100000000E-03 0.  1.
         11   -1    0    0    0    0 -0.00000000000E+00 -0.00000000000E+00 -0.45593999997E+02  0.45594000000E+02  0.51100000000E-03 0. -1.
    9900012    2    1    2    0    0  0.69574525360E+01  0.32920842064E+02  0.22824995494E+02  0.50528826284E+02  0.29999897973E+02 0.  0.
         12    1    1    2    0    0 -0.69574525360E+01 -0.32920842064E+02 -0.22824995494E+02  0.40659173716E+02  0.00000000000E+00 0. -1.
         11    1    3    3    0    0  0.53880888175E+01 -0.21928587124E+01  0.59408645709E+01  0.83146859561E+01  0.51100000000E-03 0. -1.
        -11    1    3    3    0    0 -0.53485066077E+01  0.15698960242E+02  0.13377004410E+02  0.21307466364E+02  0.51100000000E-03 0.  1.
        -12    1    3    3    0    0  0.69178703262E+01  0.19414740534E+02  0.35071265130E+01  0.20906673964E+02  0.00000000000E+00 0.  1.
</event>
<event>
 7    1  0.2744502E-011  0.5052887E+02  0.7816164E-02  0.1300439E+00
        -11   -1    0    0    0    0  0.00000000000E+00  0.00000000000E+00  0.45593999997E+02  0.45594000000E+02  0.51100000000E-03 0.  1.
         11   -1    0    0    0    0 -0.00000000000E+00 -0.00000000000E+00 -0.45593999997E+02  0.45594000000E+02  0.51100000000E-03 0. -1.
    9900012    2    1    2    0    0  0.10228042485E+02 -0.14811999421E+02  0.36457605109E+02  0.50528866337E+02  0.30000019719E+02 0.  0.
         12    1    1    2    0    0 -0.10228042485E+02  0.14811999421E+02 -0.36457605109E+02  0.40659133663E+02  0.00000000000E+00 0. -1.
         11    1    3    3    0    0  0.50478557427E+01 -0.10118107539E+02  0.20865954972E+01  0.11498296779E+02  0.51100000000E-03 0.  1.
        -11    1    3    3    0    0 -0.18162864675E+01  0.31071090283E+01  0.57172182839E+00  0.36441582232E+01  0.51100000000E-03 0. -1.
        -12    1    3    3    0    0  0.69964732098E+01 -0.78010009103E+01  0.33799287783E+02  0.35386411336E+02  0.00000000000E+00 0.  1.
</event>
<event>
 7    1  0.2744502E-011  0.5052886E+02  0.7816164E-02  0.1300439E+00
        -11   -1    0    0    0    0  0.00000000000E+00  0.00000000000E+00  0.45593999997E+02  0.45594000000E+02  0.51100000000E-03 0.  1.
         11   -1    0    0    0    0 -0.00000000000E+00 -0.00000000000E+00 -0.45593999997E+02  0.45594000000E+02  0.51100000000E-03 0. -1.
    9900012    2    1    2    0    0  0.17059655583E+02 -0.30816537847E+02  0.20309470762E+02  0.50528862576E+02  0.30000008285E+02 0.  0.
         12    1    1    2    0    0 -0.17059655583E+02  0.30816537847E+02 -0.20309470762E+02  0.40659137424E+02  0.00000000000E+00 0. -1.
         11    1    3    3    0    0  0.63204577036E+01 -0.33630217656E+01 -0.33462557335E+01  0.79028810363E+01  0.51100000000E-03 0. -1.
        -11    1    3    3    0    0  0.97651683492E+01 -0.11710331771E+02  0.13507709773E+01  0.15307350051E+02  0.51100000000E-03 0.  1.
        -12    1    3    3    0    0  0.97402953032E+00 -0.15743184310E+02  0.22304955518E+02  0.27318631489E+02  0.00000000000E+00 0.  1.
</event>
<event>
 7    1  0.2744502E-011  0.5052886E+02  0.7816164E-02  0.1300439E+00
        -11   -1    0    0    0    0  0.00000000000E+00  0.00000000000E+00  0.45593999997E+02  0.45594000000E+02  0.51100000000E-03 0.  1.
         11   -1    0    0    0    0 -0.00000000000E+00 -0.00000000000E+00 -0.45593999997E+02  0.45594000000E+02  0.51100000000E-03 0. -1.
    9900012    2    1    2    0    0 -0.23106511003E+02 -0.28260414383E+02  0.17905417724E+02  0.50528857662E+02  0.29999993349E+02 0.  0.
         12    1    1    2    0    0  0.23106511003E+02  0.28260414383E+02 -0.17905417724E+02  0.40659142338E+02  0.00000000000E+00 0. -1.
         11    1    3    3    0    0  0.95156690062E+00 -0.85327097344E+01 -0.11242510765E+01  0.86589003761E+01  0.51100000000E-03 0. -1.
        -11    1    3    3    0    0 -0.12367797197E+02 -0.13022733185E+02 -0.70399574273E+00  0.17973580539E+02  0.51100000000E-03 0.  1.
        -12    1    3    3    0    0 -0.11690280707E+02 -0.67049714629E+01  0.19733664543E+02  0.23896376747E+02  0.00000000000E+00 0.  1.
</event>
<event>
 7    1  0.2744502E-011  0.5052886E+02  0.7816164E-02  0.1300439E+00
        -11   -1    0    0    0    0  0.00000000000E+00  0.00000000000E+00  0.45593999997E+02  0.45594000000E+02  0.51100000000E-03 0. -1.
         11   -1    0    0    0    0 -0.00000000000E+00 -0.00000000000E+00 -0.45593999997E+02  0.45594000000E+02  0.51100000000E-03 0.  1.
    9900012    2    1    2    0    0 -0.21118870752E+02 -0.93480338884E+01 -0.33463013092E+02  0.50528859765E+02  0.29999999743E+02 0.  0.
         12    1    1    2    0    0  0.21118870752E+02  0.93480338884E+01  0.33463013092E+02  0.40659140235E+02  0.00000000000E+00 0. -1.
         11    1    3    3    0    0 -0.16111221495E+02 -0.14113473458E+02 -0.23554584583E+02  0.31836771920E+02  0.51100000000E-03 0.  1.
        -11    1    3    3    0    0  0.32050050273E+01 -0.23392080306E+01 -0.59134220022E+01  0.71212717595E+01  0.51100000000E-03 0. -1.
        -12    1    3    3    0    0 -0.82126542837E+01  0.71046476005E+01 -0.39950065070E+01  0.11570816086E+02  0.00000000000E+00 0.  1.
</event>
<event>
 7    1  0.2744502E-011  0.5052885E+02  0.7816164E-02  0.1300439E+00
        -11   -1    0    0    0    0  0.00000000000E+00  0.00000000000E+00  0.45593999997E+02  0.45594000000E+02  0.51100000000E-03 0.  1.
         11   -1    0    0    0    0 -0.00000000000E+00 -0.00000000000E+00 -0.45593999997E+02  0.45594000000E+02  0.51100000000E-03 0. -1.
    9900012    2    1    2    0    0  0.29486327425E+02  0.13653142508E+02  0.24440013903E+02  0.50528854843E+02  0.29999984780E+02 0.  0.
         12    1    1    2    0    0 -0.29486327425E+02 -0.13653142508E+02 -0.24440013903E+02  0.40659145157E+02  0.00000000000E+00 0. -1.
         11    1    3    3    0    0  0.22986257965E+02  0.59271122437E+01  0.24520819361E+02  0.34128716606E+02  0.51100000000E-03 0.  1.
        -11    1    3    3    0    0 -0.11032968308E+01 -0.30092564216E+01  0.43716306461E+00  0.32348106457E+01  0.51100000000E-03 0. -1.
        -12    1    3    3    0    0  0.76033662908E+01  0.10735286686E+02 -0.51796852290E+00  0.13165327591E+02  0.00000000000E+00 0.  1.
</event>
<event>
 7    1  0.2744502E-011  0.5052887E+02  0.7816164E-02  0.1300439E+00
        -11   -1    0    0    0    0  0.00000000000E+00  0.00000000000E+00  0.45593999997E+02  0.45594000000E+02  0.51100000000E-03 0.  1.
         11   -1    0    0    0    0 -0.00000000000E+00 -0.00000000000E+00 -0.45593999997E+02  0.45594000000E+02  0.51100000000E-03 0. -1.
    9900012    2    1    2    0    0 -0.80746156809E+01 -0.10991713376E+02  0.38303359091E+02  0.50528874345E+02  0.30000044060E+02 0.  0.
         12    1    1    2    0    0  0.80746156809E+01  0.10991713376E+02 -0.38303359091E+02  0.40659125655E+02  0.00000000000E+00 0. -1.
         11    1    3    3    0    0 -0.11310538911E+02 -0.48774346696E+00  0.11599387578E+02  0.16208392165E+02  0.51100000000E-03 0. -1.
        -11    1    3    3    0    0 -0.55649032834E+01 -0.31869618910E+01  0.20118570879E+02  0.21115912699E+02  0.51100000000E-03 0.  1.
        -12    1    3    3    0    0  0.88008265133E+01 -0.73170080181E+01  0.65854006345E+01  0.13204569481E+02  0.00000000000E+00 0.  1.
</event>
<event>
 7    1  0.2744502E-011  0.5052886E+02  0.7816164E-02  0.1300439E+00
        -11   -1    0    0    0    0  0.00000000000E+00  0.00000000000E+00  0.45593999997E+02  0.45594000000E+02  0.51100000000E-03 0.  1.
         11   -1    0    0    0    0 -0.00000000000E+00 -0.00000000000E+00 -0.45593999997E+02  0.45594000000E+02  0.51100000000E-03 0. -1.
    9900012    2    1    2    0    0 -0.12774928401E+02 -0.31080522052E+02  0.22890346873E+02  0.50528860478E+02  0.30000001910E+02 0.  0.
         12    1    1    2    0    0  0.12774928401E+02  0.31080522052E+02 -0.22890346873E+02  0.40659139522E+02  0.00000000000E+00 0. -1.
         11    1    3    3    0    0  0.18776135086E+01 -0.27538167115E+01 -0.19321299238E+01  0.38525401065E+01  0.51100000000E-03 0. -1.
        -11    1    3    3    0    0  0.36786655894E+01 -0.17030778331E+02  0.72016168422E+01  0.18853203348E+02  0.51100000000E-03 0.  1.
         12    1    3    3    0    0 -0.18331207499E+02 -0.11295927009E+02  0.17620859955E+02  0.27823117024E+02  0.00000000000E+00 0. -1.
</event>
<event>
 7    1  0.2744502E-011  0.5052886E+02  0.7816164E-02  0.1300439E+00
        -11   -1    0    0    0    0  0.00000000000E+00  0.00000000000E+00  0.45593999997E+02  0.45594000000E+02  0.51100000000E-03 0. -1.
         11   -1    0    0    0    0 -0.00000000000E+00 -0.00000000000E+00 -0.45593999997E+02  0.45594000000E+02  0.51100000000E-03 0.  1.
    9900012    2    1    2    0    0 -0.17210467417E+02 -0.19890534532E+02 -0.31005355844E+02  0.50528860269E+02  0.30000001273E+02 0.  0.
         12    1    1    2    0    0  0.17210467417E+02  0.19890534532E+02  0.31005355844E+02  0.40659139731E+02  0.00000000000E+00 0. -1.
         11    1    3    3    0    0  0.86844723962E+00  0.55250585520E+00 -0.82935484323E+00  0.13218521268E+01  0.51100000000E-03 0. -1.
        -11    1    3    3    0    0 -0.10990692604E+02 -0.97372533179E+00  0.17251673156E+01  0.11167795998E+02  0.51100000000E-03 0.  1.
         12    1    3    3    0    0 -0.70882220529E+01 -0.19469315055E+02 -0.31901168316E+02  0.38039212144E+02  0.00000000000E+00 0. -1.
</event>
<event>
 7    1  0.2744502E-011  0.5052882E+02  0.7816164E-02  0.1300439E+00
        -11   -1    0    0    0    0  0.00000000000E+00  0.00000000000E+00  0.45593999997E+02  0.45594000000E+02  0.51100000000E-03 0.  1.
         11   -1    0    0    0    0 -0.00000000000E+00 -0.00000000000E+00 -0.45593999997E+02  0.45594000000E+02  0.51100000000E-03 0. -1.
    9900012    2    1    2    0    0  0.14835905749E+02 -0.20924045963E+02  0.31547566834E+02  0.50528821798E+02  0.29999884338E+02 0.  0.
         12    1    1    2    0    0 -0.14835905749E+02  0.20924045963E+02 -0.31547566834E+02  0.40659178202E+02  0.00000000000E+00 0. -1.
         11    1    3    3    0    0 -0.91155594380E+00  0.22585640758E+01  0.14435998210E+02  0.14640016752E+02  0.51100000000E-03 0. -1.
        -11    1    3    3    0    0 -0.74183258253E+00 -0.60685554822E+01  0.87933419203E+01  0.10709833967E+02  0.51100000000E-03 0.  1.
        -12    1    3    3    0    0  0.16489294276E+02 -0.17114054557E+02  0.83182267041E+01  0.25178971079E+02  0.00000000000E+00 0.  1.
</event>
<event>
 7    1  0.2744502E-011  0.5052886E+02  0.7816164E-02  0.1300439E+00
        -11   -1    0    0    0    0  0.00000000000E+00  0.00000000000E+00  0.45593999997E+02  0.45594000000E+02  0.51100000000E-03 0.  1.
         11   -1    0    0    0    0 -0.00000000000E+00 -0.00000000000E+00 -0.45593999997E+02  0.45594000000E+02  0.51100000000E-03 0. -1.
    9900012    2    1    2    0    0 -0.12434941225E+02 -0.17292778892E+02  0.34633764847E+02  0.50528860406E+02  0.30000001689E+02 0.  0.
         12    1    1    2    0    0  0.12434941225E+02  0.17292778892E+02 -0.34633764847E+02  0.40659139594E+02  0.00000000000E+00 0. -1.
         11    1    3    3    0    0 -0.43691807049E+01  0.27997248395E-01  0.60890678546E+01  0.74944827358E+01  0.51100000000E-03 0. -1.
        -11    1    3    3    0    0 -0.96284819748E+01 -0.19404925068E+02  0.32039574786E+02  0.38675484933E+02  0.51100000000E-03 0.  1.
         12    1    3    3    0    0  0.15627214548E+01  0.20841489279E+01 -0.34948777938E+01  0.43588927370E+01  0.00000000000E+00 0. -1.
</event>
<event>
 7    1  0.2744502E-011  0.5052886E+02  0.7816164E-02  0.1300439E+00
        -11   -1    0    0    0    0  0.00000000000E+00  0.00000000000E+00  0.45593999997E+02  0.45594000000E+02  0.51100000000E-03 0. -1.
         11   -1    0    0    0    0 -0.00000000000E+00 -0.00000000000E+00 -0.45593999997E+02  0.45594000000E+02  0.51100000000E-03 0.  1.
    9900012    2    1    2    0    0 -0.26929158117E+02 -0.28630107565E+02 -0.10406887370E+02  0.50528856861E+02  0.29999990913E+02 0.  0.
         12    1    1    2    0    0  0.26929158117E+02  0.28630107565E+02  0.10406887370E+02  0.40659143139E+02  0.00000000000E+00 0. -1.
         11    1    3    3    0    0 -0.17474945812E+01 -0.33606338611E+01 -0.18374697452E+01  0.42099753663E+01  0.51100000000E-03 0. -1.
        -11    1    3    3    0    0 -0.31261745961E+02 -0.18124905129E+02 -0.66361164784E+01  0.36740263862E+02  0.51100000000E-03 0.  1.
         12    1    3    3    0    0  0.60800824252E+01 -0.71445685752E+01 -0.19333011462E+01  0.95786176322E+01  0.00000000000E+00 0. -1.
</event>
<event>
 7    1  0.2744502E-011  0.5052886E+02  0.7816164E-02  0.1300439E+00
        -11   -1    0    0    0    0  0.00000000000E+00  0.00000000000E+00  0.45593999997E+02  0.45594000000E+02  0.51100000000E-03 0.  1.
         11   -1    0    0    0    0 -0.00000000000E+00 -0.00000000000E+00 -0.45593999997E+02  0.45594000000E+02  0.51100000000E-03 0. -1.
    9900012    2    1    2    0    0  0.17836285182E+02  0.17448234540E+02  0.32102825557E+02  0.50528863679E+02  0.30000011639E+02 0.  0.
         12    1    1    2    0    0 -0.17836285182E+02 -0.17448234540E+02 -0.32102825557E+02  0.40659136321E+02  0.00000000000E+00 0. -1.
         11    1    3    3    0    0 -0.44717343615E+00  0.29160260898E+01 -0.37412772469E+01  0.47644861148E+01  0.51100000000E-03 0. -1.
        -11    1    3    3    0    0  0.61069125368E+01  0.64709476240E+01  0.23160078154E+01  0.91940979082E+01  0.51100000000E-03 0.  1.
         12    1    3    3    0    0  0.12176546081E+02  0.80612608264E+01  0.33528094988E+02  0.36570279656E+02  0.00000000000E+00 0. -1.
</event>
<event>
 7    1  0.2744502E-011  0.5052886E+02  0.7816164E-02  0.1300439E+00
        -11   -1    0    0    0    0  0.00000000000E+00  0.00000000000E+00  0.45593999997E+02  0.45594000000E+02  0.51100000000E-03 0.  1.
         11   -1    0    0    0    0 -0.00000000000E+00 -0.00000000000E+00 -0.45593999997E+02  0.45594000000E+02  0.51100000000E-03 0. -1.
    9900012    2    1    2    0    0  0.38613875210E+01 -0.38291792556E+02  0.13114639822E+02  0.50528862424E+02  0.30000007823E+02 0.  0.
         12    1    1    2    0    0 -0.38613875210E+01  0.38291792556E+02 -0.13114639822E+02  0.40659137576E+02  0.00000000000E+00 0. -1.
         11    1    3    3    0    0 -0.81593644867E+01 -0.84181780411E+01  0.23924457080E+01  0.11965147182E+02  0.51100000000E-03 0. -1.
        -11    1    3    3    0    0 -0.33651781509E+01  0.82128744869E-01  0.89480481133E+00  0.34830798195E+01  0.51100000000E-03 0.  1.
        -12    1    3    3    0    0  0.15385930159E+02 -0.29955743260E+02  0.98273893031E+01  0.35080635422E+02  0.00000000000E+00 0.  1.
</event>
<event>
 7    1  0.2744502E-011  0.5052886E+02  0.7816164E-02  0.1300439E+00
        -11   -1    0    0    0    0  0.00000000000E+00  0.00000000000E+00  0.45593999997E+02  0.45594000000E+02  0.51100000000E-03 0. -1.
         11   -1    0    0    0    0 -0.00000000000E+00 -0.00000000000E+00 -0.45593999997E+02  0.45594000000E+02  0.51100000000E-03 0.  1.
    9900012    2    1    2    0    0 -0.27901910923E+02 -0.29494599110E+02  0.21720197244E+01  0.50528859828E+02  0.29999999933E+02 0.  0.
         12    1    1    2    0    0  0.27901910923E+02  0.29494599110E+02 -0.21720197244E+01  0.40659140172E+02  0.00000000000E+00 0. -1.
         11    1    3    3    0    0 -0.71022011844E+01  0.21950768443E+01  0.17491173956E+01  0.76366901168E+01  0.51100000000E-03 0.  1.
        -11    1    3    3    0    0 -0.44448823619E+01  0.21560894268E+01  0.18493249660E+01  0.52750074804E+01  0.51100000000E-03 0. -1.
        -12    1    3    3    0    0 -0.16354827377E+02 -0.33845765381E+02 -0.14264226372E+01  0.37617162231E+02  0.00000000000E+00 0.  1.
</event>
<event>
 7    1  0.2744502E-011  0.5052890E+02  0.7816164E-02  0.1300439E+00
        -11   -1    0    0    0    0  0.00000000000E+00  0.00000000000E+00  0.45593999997E+02  0.45594000000E+02  0.51100000000E-03 0.  1.
         11   -1    0    0    0    0 -0.00000000000E+00 -0.00000000000E+00 -0.45593999997E+02  0.45594000000E+02  0.51100000000E-03 0. -1.
    9900012    2    1    2    0    0  0.29020757337E+01  0.15165100946E+02  0.37613293713E+02  0.50528902688E+02  0.30000130209E+02 0.  0.
         12    1    1    2    0    0 -0.29020757337E+01 -0.15165100946E+02 -0.37613293713E+02  0.40659097312E+02  0.00000000000E+00 0. -1.
         11    1    3    3    0    0  0.34135983404E+01 -0.11836515675E+01  0.14910468040E+01  0.39085682156E+01  0.51100000000E-03 0. -1.
        -11    1    3    3    0    0  0.72962233186E+00  0.59244763925E+00 -0.36782857919E+01  0.37964627722E+01  0.51100000000E-03 0.  1.
        -12    1    3    3    0    0 -0.12411449386E+01  0.15756304874E+02  0.39800532701E+02  0.42823871700E+02  0.00000000000E+00 0.  1.
</event>
<event>
 7    1  0.2744502E-011  0.5052887E+02  0.7816164E-02  0.1300439E+00
        -11   -1    0    0    0    0  0.00000000000E+00  0.00000000000E+00  0.45593999997E+02  0.45594000000E+02  0.51100000000E-03 0.  1.
         11   -1    0    0    0    0 -0.00000000000E+00 -0.00000000000E+00 -0.45593999997E+02  0.45594000000E+02  0.51100000000E-03 0. -1.
    9900012    2    1    2    0    0  0.32406252423E+02  0.23168150994E+02 -0.81385807054E+01  0.50528869261E+02  0.30000028605E+02 0.  0.
         12    1    1    2    0    0 -0.32406252423E+02 -0.23168150994E+02  0.81385807054E+01  0.40659130739E+02  0.00000000000E+00 0. -1.
         11    1    3    3    0    0  0.50728991101E+01  0.17970236407E+02 -0.10412985202E+02  0.21379755915E+02  0.51100000000E-03 0. -1.
        -11    1    3    3    0    0  0.58542062350E+01  0.47451420253E+01 -0.82990061192E-01  0.75362451588E+01  0.51100000000E-03 0.  1.
         12    1    3    3    0    0  0.21479147078E+02  0.45277256131E+00  0.23573945574E+01  0.21612868187E+02  0.00000000000E+00 0. -1.
</event>
<event>
 7    1  0.2744502E-011  0.5052885E+02  0.7816164E-02  0.1300439E+00
        -11   -1    0    0    0    0  0.00000000000E+00  0.00000000000E+00  0.45593999997E+02  0.45594000000E+02  0.51100000000E-03 0.  1.
         11   -1    0    0    0    0 -0.00000000000E+00 -0.00000000000E+00 -0.45593999997E+02  0.45594000000E+02  0.51100000000E-03 0. -1.
    9900012    2    1    2    0    0 -0.75430230971E+01  0.94485091896E+01  0.38820038061E+02  0.50528845085E+02  0.29999955119E+02 0.  0.
         12    1    1    2    0    0  0.75430230971E+01 -0.94485091896E+01 -0.38820038061E+02  0.40659154915E+02  0.00000000000E+00 0. -1.
         11    1    3    3    0    0  0.58454303214E+01  0.42415730317E+01  0.25476762857E+02  0.26480661687E+02  0.51100000000E-03 0. -1.
        -11    1    3    3    0    0 -0.66583183952E+01 -0.23066477927E+01  0.11939637367E+02  0.13863937702E+02  0.51100000000E-03 0.  1.
         12    1    3    3    0    0 -0.67301350233E+01  0.75135839506E+01  0.14036378372E+01  0.10184245696E+02  0.00000000000E+00 0. -1.
</event>
<event>
 7    1  0.2744502E-011  0.5052887E+02  0.7816164E-02  0.1300439E+00
        -11   -1    0    0    0    0  0.00000000000E+00  0.00000000000E+00  0.45593999997E+02  0.45594000000E+02  0.51100000000E-03 0. -1.
         11   -1    0    0    0    0 -0.00000000000E+00 -0.00000000000E+00 -0.45593999997E+02  0.45594000000E+02  0.51100000000E-03 0.  1.
    9900012    2    1    2    0    0  0.36163537430E+02  0.17343921617E+02 -0.66747355742E+01  0.50528866322E+02  0.30000019671E+02 0.  0.
         12    1    1    2    0    0 -0.36163537430E+02 -0.17343921617E+02  0.66747355742E+01  0.40659133678E+02  0.00000000000E+00 0. -1.
         11    1    3    3    0    0  0.10640253030E+02  0.16878049355E+02  0.70093218693E+01  0.21147437857E+02  0.51100000000E-03 0. -1.
        -11    1    3    3    0    0  0.11516140117E+02 -0.19984405368E+01 -0.49636194605E+01  0.12698534017E+02  0.51100000000E-03 0.  1.
        -12    1    3    3    0    0  0.14007144283E+02  0.24643127980E+01 -0.87204379830E+01  0.16682894447E+02  0.00000000000E+00 0.  1.
</event>
<event>
 7    1  0.2744502E-011  0.5052886E+02  0.7816164E-02  0.1300439E+00
        -11   -1    0    0    0    0  0.00000000000E+00  0.00000000000E+00  0.45593999997E+02  0.45594000000E+02  0.51100000000E-03 0.  1.
         11   -1    0    0    0    0 -0.00000000000E+00 -0.00000000000E+00 -0.45593999997E+02  0.45594000000E+02  0.51100000000E-03 0. -1.
    9900012    2    1    2    0    0 -0.15473577951E+02 -0.27635196348E+02  0.25495687367E+02  0.50528858763E+02  0.29999996697E+02 0.  0.
         12    1    1    2    0    0  0.15473577951E+02  0.27635196348E+02 -0.25495687367E+02  0.40659141237E+02  0.00000000000E+00 0. -1.
         11    1    3    3    0    0 -0.71956352449E+01  0.53380679251E+00  0.14507350474E+02  0.16202633561E+02  0.51100000000E-03 0. -1.
        -11    1    3    3    0    0 -0.91613005678E+01 -0.18142380439E+02  0.12911526868E+02  0.24078681908E+02  0.51100000000E-03 0.  1.
        -12    1    3    3    0    0  0.88335786125E+00 -0.10026622701E+02 -0.19231899753E+01  0.10247543295E+02  0.00000000000E+00 0.  1.
</event>
<event>
 7    1  0.2744502E-011  0.5052886E+02  0.7816164E-02  0.1300439E+00
        -11   -1    0    0    0    0  0.00000000000E+00  0.00000000000E+00  0.45593999997E+02  0.45594000000E+02  0.51100000000E-03 0.  1.
         11   -1    0    0    0    0 -0.00000000000E+00 -0.00000000000E+00 -0.45593999997E+02  0.45594000000E+02  0.51100000000E-03 0. -1.
    9900012    2    1    2    0    0 -0.35301636134E+02  0.17047970637E+02  0.10785479547E+02  0.50528863442E+02  0.30000010919E+02 0.  0.
         12    1    1    2    0    0  0.35301636134E+02 -0.17047970637E+02 -0.10785479547E+02  0.40659136558E+02  0.00000000000E+00 0. -1.
         11    1    3    3    0    0 -0.49069817600E+01 -0.60675587770E+01  0.48380650863E+01  0.91815365568E+01  0.51100000000E-03 0. -1.
        -11    1    3    3    0    0 -0.19478940810E+02  0.86792151246E+01 -0.23180047976E+01  0.21450665648E+02  0.51100000000E-03 0.  1.
        -12    1    3    3    0    0 -0.10915713564E+02  0.14436314289E+02  0.82654192579E+01  0.19896661237E+02  0.00000000000E+00 0.  1.
</event>
<event>
 7    1  0.2744502E-011  0.5052884E+02  0.7816164E-02  0.1300439E+00
        -11   -1    0    0    0    0  0.00000000000E+00  0.00000000000E+00  0.45593999997E+02  0.45594000000E+02  0.51100000000E-03 0.  1.
         11   -1    0    0    0    0 -0.00000000000E+00 -0.00000000000E+00 -0.45593999997E+02  0.45594000000E+02  0.51100000000E-03 0. -1.
    9900012    2    1    2    0    0  0.30540718845E+02  0.67662932667E+01  0.25974007467E+02  0.50528839949E+02  0.29999939509E+02 0.  0.
         12    1    1    2    0    0 -0.30540718845E+02 -0.67662932667E+01 -0.25974007467E+02  0.40659160051E+02  0.00000000000E+00 0. -1.
         11    1    3    3    0    0  0.19007167877E+02 -0.26243254477E+01  0.64898090326E+01  0.20255298969E+02  0.51100000000E-03 0. -1.
        -11    1    3    3    0    0  0.10825723157E+02  0.14450063831E+02  0.14901308833E+02  0.23410459880E+02  0.51100000000E-03 0.  1.
         12    1    3    3    0    0  0.70782781086E+00 -0.50594451162E+01  0.45828896009E+01  0.68630811002E+01  0.00000000000E+00 0. -1.
</event>
<event>
 7    1  0.2744502E-011  0.5052883E+02  0.7816164E-02  0.1300439E+00
        -11   -1    0    0    0    0  0.00000000000E+00  0.00000000000E+00  0.45593999997E+02  0.45594000000E+02  0.51100000000E-03 0.  1.
         11   -1    0    0    0    0 -0.00000000000E+00 -0.00000000000E+00 -0.45593999997E+02  0.45594000000E+02  0.51100000000E-03 0. -1.
    9900012    2    1    2    0    0 -0.24093583498E+02  0.22919982740E+02  0.23395335798E+02  0.50528829919E+02  0.29999909020E+02 0.  0.
         12    1    1    2    0    0  0.24093583498E+02 -0.22919982740E+02 -0.23395335798E+02  0.40659170081E+02  0.00000000000E+00 0. -1.
         11    1    3    3    0    0 -0.96576754414E+01  0.86043926225E+01  0.45059935848E+01  0.13697088953E+02  0.51100000000E-03 0. -1.
        -11    1    3    3    0    0 -0.14055682624E+02  0.16328926678E+02  0.41382529190E+01  0.21939033661E+02  0.51100000000E-03 0.  1.
        -12    1    3    3    0    0 -0.38022543289E+00 -0.20133365610E+01  0.14751089295E+02  0.14892707305E+02  0.00000000000E+00 0.  1.
</event>
<event>
 7    1  0.2744502E-011  0.5052887E+02  0.7816164E-02  0.1300439E+00
        -11   -1    0    0    0    0  0.00000000000E+00  0.00000000000E+00  0.45593999997E+02  0.45594000000E+02  0.51100000000E-03 0.  1.
         11   -1    0    0    0    0 -0.00000000000E+00 -0.00000000000E+00 -0.45593999997E+02  0.45594000000E+02  0.51100000000E-03 0. -1.
    9900012    2    1    2    0    0 -0.38080930970E+02 -0.37792606678E+01  0.13737720873E+02  0.50528867084E+02  0.30000021989E+02 0.  0.
         12    1    1    2    0    0  0.38080930970E+02  0.37792606678E+01 -0.13737720873E+02  0.40659132916E+02  0.00000000000E+00 0. -1.
         11    1    3    3    0    0 -0.40658992608E+01  0.18566086072E+01  0.79571471404E+01  0.91265942824E+01  0.51100000000E-03 0.  1.
        -11    1    3    3    0    0 -0.33420596517E+02 -0.10938746139E+02  0.27667340027E+01  0.35273889153E+02  0.51100000000E-03 0. -1.
         12    1    3    3    0    0 -0.59443519143E+00  0.53028768640E+01  0.30138397294E+01  0.61283836487E+01  0.00000000000E+00 0. -1.
</event>
<event>
 7    1  0.2744502E-011  0.5052886E+02  0.7816164E-02  0.1300439E+00
        -11   -1    0    0    0    0  0.00000000000E+00  0.00000000000E+00  0.45593999997E+02  0.45594000000E+02  0.51100000000E-03 0.  1.
         11   -1    0    0    0    0 -0.00000000000E+00 -0.00000000000E+00 -0.45593999997E+02  0.45594000000E+02  0.51100000000E-03 0. -1.
    9900012    2    1    2    0    0 -0.16566295427E+02 -0.28278245679E+02  0.24063751749E+02  0.50528862392E+02  0.30000007726E+02 0.  0.
         12    1    1    2    0    0  0.16566295427E+02  0.28278245679E+02 -0.24063751749E+02  0.40659137608E+02  0.00000000000E+00 0. -1.
         11    1    3    3    0    0 -0.55918798103E+01 -0.50472150114E+01  0.15486222555E+02  0.17221108805E+02  0.51100000000E-03 0. -1.
        -11    1    3    3    0    0 -0.31717087768E+01 -0.12179383817E+02  0.13916864836E+02  0.18763695101E+02  0.51100000000E-03 0.  1.
         12    1    3    3    0    0 -0.78027068396E+01 -0.11051646851E+02 -0.53393356425E+01  0.14544058486E+02  0.00000000000E+00 0. -1.
</event>
<event>
 7    1  0.2744502E-011  0.5052885E+02  0.7816164E-02  0.1300439E+00
        -11   -1    0    0    0    0  0.00000000000E+00  0.00000000000E+00  0.45593999997E+02  0.45594000000E+02  0.51100000000E-03 0.  1.
         11   -1    0    0    0    0 -0.00000000000E+00 -0.00000000000E+00 -0.45593999997E+02  0.45594000000E+02  0.51100000000E-03 0. -1.
    9900012    2    1    2    0    0  0.17935690123E+02  0.36481381273E+02 -0.76576660077E+00  0.50528849021E+02  0.29999967086E+02 0.  0.
         12    1    1    2    0    0 -0.17935690123E+02 -0.36481381273E+02  0.76576660077E+00  0.40659150979E+02  0.00000000000E+00 0. -1.
         11    1    3    3    0    0  0.12927697157E+02  0.22815881936E+02  0.27506422070E+01  0.26367704775E+02  0.51100000000E-03 0. -1.
        -11    1    3    3    0    0  0.36223861560E+01  0.15082528217E+02  0.43007949095E+01  0.16096620018E+02  0.51100000000E-03 0.  1.
         12    1    3    3    0    0  0.13856068106E+01 -0.14170288796E+01 -0.78172037173E+01  0.80645242288E+01  0.00000000000E+00 0. -1.
</event>
<event>
 7    1  0.2744502E-011  0.5052887E+02  0.7816164E-02  0.1300439E+00
        -11   -1    0    0    0    0  0.00000000000E+00  0.00000000000E+00  0.45593999997E+02  0.45594000000E+02  0.51100000000E-03 0.  1.
         11   -1    0    0    0    0 -0.00000000000E+00 -0.00000000000E+00 -0.45593999997E+02  0.45594000000E+02  0.51100000000E-03 0. -1.
    9900012    2    1    2    0    0  0.38108694438E+02  0.11651344283E+02  0.80708347941E+01  0.50528870771E+02  0.30000033197E+02 0.  0.
         12    1    1    2    0    0 -0.38108694438E+02 -0.11651344283E+02 -0.80708347941E+01  0.40659129229E+02  0.00000000000E+00 0. -1.
         11    1    3    3    0    0  0.55572662811E+01  0.16213742438E+01 -0.20168588321E+01  0.61302351315E+01  0.51100000000E-03 0. -1.
        -11    1    3    3    0    0  0.34510661877E+02  0.15157858845E+02  0.95442174567E+01  0.38882368177E+02  0.51100000000E-03 0.  1.
         12    1    3    3    0    0 -0.19592337199E+01 -0.51278888058E+01  0.54347616948E+00  0.55162674628E+01  0.00000000000E+00 0. -1.
</event>
<event>
 7    1  0.2744502E-011  0.5052885E+02  0.7816164E-02  0.1300439E+00
        -11   -1    0    0    0    0  0.00000000000E+00  0.00000000000E+00  0.45593999997E+02  0.45594000000E+02  0.51100000000E-03 0.  1.
         11   -1    0    0    0    0 -0.00000000000E+00 -0.00000000000E+00 -0.45593999997E+02  0.45594000000E+02  0.51100000000E-03 0. -1.
    9900012    2    1    2    0    0  0.21898559644E+02  0.34159275099E+02  0.26005963535E+01  0.50528854766E+02  0.29999984548E+02 0.  0.
         12    1    1    2    0    0 -0.21898559644E+02 -0.34159275099E+02 -0.26005963535E+01  0.40659145234E+02  0.00000000000E+00 0. -1.
         11    1    3    3    0    0  0.53795372146E+01  0.24006819133E+02  0.10174848726E+02  0.26623191627E+02  0.51100000000E-03 0.  1.
        -11    1    3    3    0    0  0.48549905892E+00  0.35693629074E+01  0.19839938452E+01  0.41124558040E+01  0.51100000000E-03 0. -1.
        -12    1    3    3    0    0  0.16033523370E+02  0.65830930576E+01 -0.95582462173E+01  0.19793207336E+02  0.00000000000E+00 0.  1.
</event>
<event>
 7    1  0.2744502E-011  0.5052886E+02  0.7816164E-02  0.1300439E+00
        -11   -1    0    0    0    0  0.00000000000E+00  0.00000000000E+00  0.45593999997E+02  0.45594000000E+02  0.51100000000E-03 0. -1.
         11   -1    0    0    0    0 -0.00000000000E+00 -0.00000000000E+00 -0.45593999997E+02  0.45594000000E+02  0.51100000000E-03 0.  1.
    9900012    2    1    2    0    0  0.11360055981E+02 -0.29251570126E+02 -0.25854602718E+02  0.50528859473E+02  0.29999998853E+02 0.  0.
         12    1    1    2    0    0 -0.11360055981E+02  0.29251570126E+02  0.25854602718E+02  0.40659140527E+02  0.00000000000E+00 0. -1.
         11    1    3    3    0    0  0.53692330374E+01 -0.88992493509E+01 -0.75488321529E+01  0.12845628422E+02  0.51100000000E-03 0. -1.
        -11    1    3    3    0    0  0.14226452820E+02 -0.12569493007E+02 -0.39433030017E+01  0.19389011143E+02  0.51100000000E-03 0.  1.
         12    1    3    3    0    0 -0.82356298762E+01 -0.77828277684E+01 -0.14362467563E+02  0.18294219908E+02  0.00000000000E+00 0. -1.
</event>
<event>
 7    1  0.2744502E-011  0.5052887E+02  0.7816164E-02  0.1300439E+00
        -11   -1    0    0    0    0  0.00000000000E+00  0.00000000000E+00  0.45593999997E+02  0.45594000000E+02  0.51100000000E-03 0.  1.
         11   -1    0    0    0    0 -0.00000000000E+00 -0.00000000000E+00 -0.45593999997E+02  0.45594000000E+02  0.51100000000E-03 0. -1.
    9900012    2    1    2    0    0 -0.32973039244E+02 -0.22105138957E+02  0.87924157964E+01  0.50528867436E+02  0.30000023060E+02 0.  0.
         12    1    1    2    0    0  0.32973039244E+02  0.22105138957E+02 -0.87924157964E+01  0.40659132564E+02  0.00000000000E+00 0. -1.
         11    1    3    3    0    0 -0.73306998664E+01 -0.49918762350E+01  0.44235784664E+01  0.99109048823E+01  0.51100000000E-03 0. -1.
        -11    1    3    3    0    0 -0.12540486231E+02  0.39972584047E+01  0.81574068770E+01  0.15484997800E+02  0.51100000000E-03 0.  1.
         12    1    3    3    0    0 -0.13101853147E+02 -0.21110521126E+02 -0.37885695470E+01  0.25132964754E+02  0.00000000000E+00 0. -1.
</event>
<event>
 7    1  0.2744502E-011  0.5052886E+02  0.7816164E-02  0.1300439E+00
        -11   -1    0    0    0    0  0.00000000000E+00  0.00000000000E+00  0.45593999997E+02  0.45594000000E+02  0.51100000000E-03 0. -1.
         11   -1    0    0    0    0 -0.00000000000E+00 -0.00000000000E+00 -0.45593999997E+02  0.45594000000E+02  0.51100000000E-03 0.  1.
    9900012    2    1    2    0    0 -0.23994039635E+02  0.32279511870E+02  0.59569131287E+01  0.50528860331E+02  0.30000001463E+02 0.  0.
         12    1    1    2    0    0  0.23994039635E+02 -0.32279511870E+02 -0.59569131287E+01  0.40659139669E+02  0.00000000000E+00 0. -1.
         11    1    3    3    0    0  0.23483878267E+01 -0.13980723393E+01  0.29172844214E+01  0.39975092629E+01  0.51100000000E-03 0. -1.
        -11    1    3    3    0    0  0.89093441544E+00 -0.10916899588E+01  0.18819961303E+01  0.23510552512E+01  0.51100000000E-03 0.  1.
        -12    1    3    3    0    0 -0.27233361877E+02  0.34769274168E+02  0.11576325770E+01  0.44180295817E+02  0.00000000000E+00 0.  1.
</event>
<event>
 7    1  0.2744502E-011  0.5052888E+02  0.7816164E-02  0.1300439E+00
        -11   -1    0    0    0    0  0.00000000000E+00  0.00000000000E+00  0.45593999997E+02  0.45594000000E+02  0.51100000000E-03 0.  1.
         11   -1    0    0    0    0 -0.00000000000E+00 -0.00000000000E+00 -0.45593999997E+02  0.45594000000E+02  0.51100000000E-03 0. -1.
    9900012    2    1    2    0    0  0.26468758240E+02 -0.18179633204E+02  0.24941319960E+02  0.50528884570E+02  0.30000075139E+02 0.  0.
         12    1    1    2    0    0 -0.26468758240E+02  0.18179633204E+02 -0.24941319960E+02  0.40659115430E+02  0.00000000000E+00 0. -1.
         11    1    3    3    0    0  0.46178099639E+00  0.15643164777E+01  0.11077942908E+02  0.11197372329E+02  0.51100000000E-03 0. -1.
        -11    1    3    3    0    0  0.30192304365E+01  0.25485922750E+01  0.44582786081E+01  0.59571237541E+01  0.51100000000E-03 0.  1.
        -12    1    3    3    0    0  0.22987746807E+02 -0.22292541957E+02  0.94050984439E+01  0.33374388487E+02  0.00000000000E+00 0.  1.
</event>
<event>
 7    1  0.2744502E-011  0.5052886E+02  0.7816164E-02  0.1300439E+00
        -11   -1    0    0    0    0  0.00000000000E+00  0.00000000000E+00  0.45593999997E+02  0.45594000000E+02  0.51100000000E-03 0.  1.
         11   -1    0    0    0    0 -0.00000000000E+00 -0.00000000000E+00 -0.45593999997E+02  0.45594000000E+02  0.51100000000E-03 0. -1.
    9900012    2    1    2    0    0  0.20644879766E+02 -0.26572788642E+02  0.22821951491E+02  0.50528860479E+02  0.30000001911E+02 0.  0.
         12    1    1    2    0    0 -0.20644879766E+02  0.26572788642E+02 -0.22821951491E+02  0.40659139521E+02  0.00000000000E+00 0. -1.
         11    1    3    3    0    0 -0.23133213504E+01 -0.91001997381E+01  0.32739138987E+01  0.99440235026E+01  0.51100000000E-03 0. -1.
        -11    1    3    3    0    0  0.41726956113E+01 -0.11473691120E+02  0.16659678488E+02  0.20654342501E+02  0.51100000000E-03 0.  1.
         12    1    3    3    0    0  0.18785505505E+02 -0.59988977838E+01  0.28883591047E+01  0.19930494475E+02  0.00000000000E+00 0. -1.
</event>
<event>
 7    1  0.2744502E-011  0.5052886E+02  0.7816164E-02  0.1300439E+00
        -11   -1    0    0    0    0  0.00000000000E+00  0.00000000000E+00  0.45593999997E+02  0.45594000000E+02  0.51100000000E-03 0.  1.
         11   -1    0    0    0    0 -0.00000000000E+00 -0.00000000000E+00 -0.45593999997E+02  0.45594000000E+02  0.51100000000E-03 0. -1.
    9900012    2    1    2    0    0 -0.41134847628E+01  0.40449770588E+02  0.24637866863E+00  0.50528863266E+02  0.30000010383E+02 0.  0.
         12    1    1    2    0    0  0.41134847628E+01 -0.40449770588E+02 -0.24637866863E+00  0.40659136734E+02  0.00000000000E+00 0. -1.
         11    1    3    3    0    0  0.79636166940E+01  0.34504294091E+01  0.10212394250E+01  0.87388548552E+01  0.51100000000E-03 0. -1.
        -11    1    3    3    0    0  0.35983955687E+00 -0.13844335768E+01  0.78766086046E-01  0.14326008491E+01  0.51100000000E-03 0.  1.
        -12    1    3    3    0    0 -0.12436941014E+02  0.38383774756E+02 -0.85362684244E+00  0.40357407561E+02  0.00000000000E+00 0.  1.
</event>
<event>
 7    1  0.2744502E-011  0.5052887E+02  0.7816164E-02  0.1300439E+00
        -11   -1    0    0    0    0  0.00000000000E+00  0.00000000000E+00  0.45593999997E+02  0.45594000000E+02  0.51100000000E-03 0.  1.
         11   -1    0    0    0    0 -0.00000000000E+00 -0.00000000000E+00 -0.45593999997E+02  0.45594000000E+02  0.51100000000E-03 0. -1.
    9900012    2    1    2    0    0  0.69400290302E+01 -0.10530981018E+02  0.38653578730E+02  0.50528871716E+02  0.30000036069E+02 0.  0.
         12    1    1    2    0    0 -0.69400290302E+01  0.10530981018E+02 -0.38653578730E+02  0.40659128284E+02  0.00000000000E+00 0. -1.
         11    1    3    3    0    0  0.37906966749E+01 -0.62883477064E+01  0.30122679311E+02  0.31004652994E+02  0.51100000000E-03 0.  1.
        -11    1    3    3    0    0  0.68724663472E+00  0.63109085858E+01  0.51429106429E+01  0.81700309215E+01  0.51100000000E-03 0. -1.
        -12    1    3    3    0    0  0.24620857206E+01 -0.10553541897E+02  0.33879887767E+01  0.11354187801E+02  0.00000000000E+00 0.  1.
</event>
<event>
 7    1  0.2744502E-011  0.5052892E+02  0.7816164E-02  0.1300439E+00
        -11   -1    0    0    0    0  0.00000000000E+00  0.00000000000E+00  0.45593999997E+02  0.45594000000E+02  0.51100000000E-03 0. -1.
         11   -1    0    0    0    0 -0.00000000000E+00 -0.00000000000E+00 -0.45593999997E+02  0.45594000000E+02  0.51100000000E-03 0.  1.
    9900012    2    1    2    0    0  0.26123247370E+02  0.26041454524E+02 -0.17104940214E+02  0.50528924917E+02  0.30000197778E+02 0.  0.
         12    1    1    2    0    0 -0.26123247370E+02 -0.26041454524E+02  0.17104940214E+02  0.40659075083E+02  0.00000000000E+00 0. -1.
         11    1    3    3    0    0 -0.45667913702E+00  0.42925504661E+01 -0.77723570977E+01  0.88906737908E+01  0.51100000000E-03 0. -1.
        -11    1    3    3    0    0  0.23733469283E+02  0.69912328872E+01 -0.97733092141E+01  0.26602114103E+02  0.51100000000E-03 0.  1.
         12    1    3    3    0    0  0.28464572237E+01  0.14757671171E+02  0.44072609785E+00  0.15036137024E+02  0.00000000000E+00 0. -1.
</event>
<event>
 7    1  0.2744502E-011  0.5052887E+02  0.7816164E-02  0.1300439E+00
        -11   -1    0    0    0    0  0.00000000000E+00  0.00000000000E+00  0.45593999997E+02  0.45594000000E+02  0.51100000000E-03 0.  1.
         11   -1    0    0    0    0 -0.00000000000E+00 -0.00000000000E+00 -0.45593999997E+02  0.45594000000E+02  0.51100000000E-03 0. -1.
    9900012    2    1    2    0    0 -0.99259657900E+01 -0.27080210517E+02  0.28658374698E+02  0.50528867707E+02  0.30000023882E+02 0.  0.
         12    1    1    2    0    0  0.99259657900E+01  0.27080210517E+02 -0.28658374698E+02  0.40659132293E+02  0.00000000000E+00 0. -1.
         11    1    3    3    0    0 -0.10329853026E+02 -0.15814660687E+02  0.19458977866E+02  0.27119387457E+02  0.51100000000E-03 0. -1.
        -11    1    3    3    0    0  0.53428759994E+01 -0.18261196591E+01  0.11225048162E+02  0.12565140009E+02  0.51100000000E-03 0.  1.
         12    1    3    3    0    0 -0.49389887629E+01 -0.94394301709E+01 -0.20256513296E+01  0.10844340241E+02  0.00000000000E+00 0. -1.
</event>
<event>
 7    1  0.2744502E-011  0.5052886E+02  0.7816164E-02  0.1300439E+00
        -11   -1    0    0    0    0  0.00000000000E+00  0.00000000000E+00  0.45593999997E+02  0.45594000000E+02  0.51100000000E-03 0. -1.
         11   -1    0    0    0    0 -0.00000000000E+00 -0.00000000000E+00 -0.45593999997E+02  0.45594000000E+02  0.51100000000E-03 0.  1.
    9900012    2    1    2    0    0 -0.27027711469E+02 -0.28705183617E+02  0.99338362577E+01  0.50528857651E+02  0.29999993316E+02 0.  0.
         12    1    1    2    0    0  0.27027711469E+02  0.28705183617E+02 -0.99338362577E+01  0.40659142349E+02  0.00000000000E+00 0. -1.
         11    1    3    3    0    0 -0.11863155246E+01  0.13748895157E+01  0.61703360947E+01  0.64320069564E+01  0.51100000000E-03 0. -1.
        -11    1    3    3    0    0 -0.56940822964E+01  0.14116461659E+01 -0.21479261394E+01  0.62473118264E+01  0.51100000000E-03 0.  1.
        -12    1    3    3    0    0 -0.20147313648E+02 -0.31491719298E+02  0.59114263024E+01  0.37849538868E+02  0.00000000000E+00 0.  1.
</event>
<event>
 7    1  0.2744502E-011  0.5052885E+02  0.7816164E-02  0.1300439E+00
        -11   -1    0    0    0    0  0.00000000000E+00  0.00000000000E+00  0.45593999997E+02  0.45594000000E+02  0.51100000000E-03 0.  1.
         11   -1    0    0    0    0 -0.00000000000E+00 -0.00000000000E+00 -0.45593999997E+02  0.45594000000E+02  0.51100000000E-03 0. -1.
    9900012    2    1    2    0    0 -0.29712278985E+02 -0.15264520828E+01  0.27713113878E+02  0.50528852699E+02  0.29999978263E+02 0.  0.
         12    1    1    2    0    0  0.29712278985E+02  0.15264520828E+01 -0.27713113878E+02  0.40659147301E+02  0.00000000000E+00 0. -1.
         11    1    3    3    0    0 -0.45490048071E-01  0.28040629510E+01 -0.38660508601E+01  0.47761059339E+01  0.51100000000E-03 0. -1.
        -11    1    3    3    0    0  0.15179847174E+01 -0.41863584550E+00  0.81567893002E+00  0.17733769908E+01  0.51100000000E-03 0.  1.
        -12    1    3    3    0    0 -0.31184773654E+02 -0.39118791882E+01  0.30763485808E+02  0.43979369774E+02  0.00000000000E+00 0.  1.
</event>
<event>
 7    1  0.2744502E-011  0.5052886E+02  0.7816164E-02  0.1300439E+00
        -11   -1    0    0    0    0  0.00000000000E+00  0.00000000000E+00  0.45593999997E+02  0.45594000000E+02  0.51100000000E-03 0. -1.
         11   -1    0    0    0    0 -0.00000000000E+00 -0.00000000000E+00 -0.45593999997E+02  0.45594000000E+02  0.51100000000E-03 0.  1.
    9900012    2    1    2    0    0  0.27059141450E+02 -0.19285127197E+02 -0.23431873186E+02  0.50528856526E+02  0.29999989898E+02 0.  0.
         12    1    1    2    0    0 -0.27059141450E+02  0.19285127197E+02  0.23431873186E+02  0.40659143474E+02  0.00000000000E+00 0. -1.
         11    1    3    3    0    0  0.94738141250E+01  0.23855905644E+00  0.35223153857E+01  0.10110230978E+02  0.51100000000E-03 0. -1.
        -11    1    3    3    0    0 -0.10042937510E+01 -0.52522631630E+01 -0.10499842217E+02  0.11783104901E+02  0.51100000000E-03 0.  1.
         12    1    3    3    0    0  0.18589621076E+02 -0.14271423090E+02 -0.16454346355E+02  0.28635520647E+02  0.00000000000E+00 0. -1.
</event>
<event>
 7    1  0.2744502E-011  0.5052886E+02  0.7816164E-02  0.1300439E+00
        -11   -1    0    0    0    0  0.00000000000E+00  0.00000000000E+00  0.45593999997E+02  0.45594000000E+02  0.51100000000E-03 0.  1.
         11   -1    0    0    0    0 -0.00000000000E+00 -0.00000000000E+00 -0.45593999997E+02  0.45594000000E+02  0.51100000000E-03 0. -1.
    9900012    2    1    2    0    0 -0.20166930682E+02  0.33311911920E+02  0.11695190907E+02  0.50528855158E+02  0.29999985740E+02 0.  0.
         12    1    1    2    0    0  0.20166930682E+02 -0.33311911920E+02 -0.11695190907E+02  0.40659144842E+02  0.00000000000E+00 0. -1.
         11    1    3    3    0    0 -0.45196974304E+01  0.14711664858E+02 -0.23632176845E+00  0.15392095244E+02  0.51100000000E-03 0. -1.
        -11    1    3    3    0    0  0.11492356471E+01  0.14389023929E+02  0.10322239207E+02  0.17745798790E+02  0.51100000000E-03 0.  1.
         12    1    3    3    0    0 -0.16796468898E+02  0.42112231336E+01  0.16092734678E+01  0.17390961124E+02  0.00000000000E+00 0. -1.
</event>
<event>
 7    1  0.2744502E-011  0.5052885E+02  0.7816164E-02  0.1300439E+00
        -11   -1    0    0    0    0  0.00000000000E+00  0.00000000000E+00  0.45593999997E+02  0.45594000000E+02  0.51100000000E-03 0.  1.
         11   -1    0    0    0    0 -0.00000000000E+00 -0.00000000000E+00 -0.45593999997E+02  0.45594000000E+02  0.51100000000E-03 0. -1.
    9900012    2    1    2    0    0 -0.73239271171E+01  0.34527361745E+02  0.20183857401E+02  0.50528847069E+02  0.29999961151E+02 0.  0.
         12    1    1    2    0    0  0.73239271171E+01 -0.34527361745E+02 -0.20183857401E+02  0.40659152931E+02  0.00000000000E+00 0. -1.
         11    1    3    3    0    0 -0.68841552316E+01  0.13775592036E+01  0.66321303377E+01  0.96578680717E+01  0.51100000000E-03 0. -1.
        -11    1    3    3    0    0 -0.71457366357E+01  0.32015577967E+01  0.35014943913E+01  0.85774114758E+01  0.51100000000E-03 0.  1.
        -12    1    3    3    0    0  0.67059647502E+01  0.29948244744E+02  0.10050232672E+02  0.32293567522E+02  0.00000000000E+00 0.  1.
</event>
<event>
 7    1  0.2744502E-011  0.5052886E+02  0.7816164E-02  0.1300439E+00
        -11   -1    0    0    0    0  0.00000000000E+00  0.00000000000E+00  0.45593999997E+02  0.45594000000E+02  0.51100000000E-03 0.  1.
         11   -1    0    0    0    0 -0.00000000000E+00 -0.00000000000E+00 -0.45593999997E+02  0.45594000000E+02  0.51100000000E-03 0. -1.
    9900012    2    1    2    0    0 -0.87176163269E+00 -0.37292806420E+02  0.16175663046E+02  0.50528862601E+02  0.30000008362E+02 0.  0.
         12    1    1    2    0    0  0.87176163269E+00  0.37292806420E+02 -0.16175663046E+02  0.40659137399E+02  0.00000000000E+00 0. -1.
         11    1    3    3    0    0 -0.61941701227E+01 -0.30625991747E+02  0.74496558090E+01  0.32121900410E+02  0.51100000000E-03 0. -1.
        -11    1    3    3    0    0 -0.60683330969E+00 -0.95769664801E+01  0.49197152635E+01  0.10783790250E+02  0.51100000000E-03 0.  1.
         12    1    3    3    0    0  0.59292417997E+01  0.29101518067E+01  0.38062919732E+01  0.76231719410E+01  0.00000000000E+00 0. -1.
</event>
<event>
 7    1  0.2744502E-011  0.5052887E+02  0.7816164E-02  0.1300439E+00
        -11   -1    0    0    0    0  0.00000000000E+00  0.00000000000E+00  0.45593999997E+02  0.45594000000E+02  0.51100000000E-03 0.  1.
         11   -1    0    0    0    0 -0.00000000000E+00 -0.00000000000E+00 -0.45593999997E+02  0.45594000000E+02  0.51100000000E-03 0. -1.
    9900012    2    1    2    0    0  0.19960520259E+02  0.87053606982E+00  0.35411649973E+02  0.50528866268E+02  0.30000019507E+02 0.  0.
         12    1    1    2    0    0 -0.19960520259E+02 -0.87053606982E+00 -0.35411649973E+02  0.40659133732E+02  0.00000000000E+00 0. -1.
         11    1    3    3    0    0 -0.11814164598E+00 -0.88059652411E+00  0.45370686088E+01  0.46232455600E+01  0.51100000000E-03 0. -1.
        -11    1    3    3    0    0  0.85854918235E+01 -0.11479999582E+02  0.61484074122E+01  0.15598204198E+02  0.51100000000E-03 0.  1.
         12    1    3    3    0    0  0.11493170081E+02  0.13231132176E+02  0.24726173952E+02  0.30307416509E+02  0.00000000000E+00 0. -1.
</event>
<event>
 7    1  0.2744502E-011  0.5052886E+02  0.7816164E-02  0.1300439E+00
        -11   -1    0    0    0    0  0.00000000000E+00  0.00000000000E+00  0.45593999997E+02  0.45594000000E+02  0.51100000000E-03 0.  1.
         11   -1    0    0    0    0 -0.00000000000E+00 -0.00000000000E+00 -0.45593999997E+02  0.45594000000E+02  0.51100000000E-03 0. -1.
    9900012    2    1    2    0    0 -0.13896156225E+02 -0.35175376673E+02  0.14924995724E+02  0.50528858601E+02  0.29999996203E+02 0.  0.
         12    1    1    2    0    0  0.13896156225E+02  0.35175376673E+02 -0.14924995724E+02  0.40659141399E+02  0.00000000000E+00 0. -1.
         11    1    3    3    0    0 -0.20740421111E+01 -0.58138068509E+01  0.13093040448E+01  0.63100141141E+01  0.51100000000E-03 0. -1.
        -11    1    3    3    0    0 -0.16029464600E+02 -0.28676247143E+02  0.32521415552E+01  0.33012835542E+02  0.51100000000E-03 0.  1.
         12    1    3    3    0    0  0.42073504855E+01 -0.68532267890E+00  0.10363550124E+02  0.11206008944E+02  0.00000000000E+00 0. -1.
</event>
<event>
 7    1  0.2744502E-011  0.5052886E+02  0.7816164E-02  0.1300439E+00
        -11   -1    0    0    0    0  0.00000000000E+00  0.00000000000E+00  0.45593999997E+02  0.45594000000E+02  0.51100000000E-03 0.  1.
         11   -1    0    0    0    0 -0.00000000000E+00 -0.00000000000E+00 -0.45593999997E+02  0.45594000000E+02  0.51100000000E-03 0. -1.
    9900012    2    1    2    0    0 -0.45753701449E+00 -0.33755659656E+01  0.40516192715E+02  0.50528860095E+02  0.30000000744E+02 0.  0.
         12    1    1    2    0    0  0.45753701449E+00  0.33755659656E+01 -0.40516192715E+02  0.40659139905E+02  0.00000000000E+00 0. -1.
         11    1    3    3    0    0  0.79174188526E+01 -0.51878256438E+01  0.49161328471E+01  0.10666181071E+02  0.51100000000E-03 0. -1.
        -11    1    3    3    0    0  0.16239846081E+01  0.22274490794E+01 -0.12793415662E+00  0.27595693175E+01  0.51100000000E-03 0.  1.
        -12    1    3    3    0    0 -0.99989404752E+01 -0.41518940125E+00  0.35727994025E+02  0.37103109707E+02  0.00000000000E+00 0.  1.
</event>
<event>
 7    1  0.2744502E-011  0.5052886E+02  0.7816164E-02  0.1300439E+00
        -11   -1    0    0    0    0  0.00000000000E+00  0.00000000000E+00  0.45593999997E+02  0.45594000000E+02  0.51100000000E-03 0. -1.
         11   -1    0    0    0    0 -0.00000000000E+00 -0.00000000000E+00 -0.45593999997E+02  0.45594000000E+02  0.51100000000E-03 0.  1.
    9900012    2    1    2    0    0 -0.75727244240E+01  0.32885255611E+02 -0.22679937790E+02  0.50528858715E+02  0.29999996551E+02 0.  0.
         12    1    1    2    0    0  0.75727244240E+01 -0.32885255611E+02  0.22679937790E+02  0.40659141285E+02  0.00000000000E+00 0. -1.
         11    1    3    3    0    0 -0.26651381847E+01 -0.28715877474E+01 -0.32072457926E+01  0.50631416700E+01  0.51100000000E-03 0.  1.
        -11    1    3    3    0    0 -0.31018235963E+01 -0.16936649119E+01 -0.10287007880E+01  0.36807656851E+01  0.51100000000E-03 0. -1.
        -12    1    3    3    0    0 -0.18057626431E+01  0.37450508271E+02 -0.18443991210E+02  0.41784951360E+02  0.00000000000E+00 0.  1.
</event>
<event>
 7    1  0.2744502E-011  0.5052886E+02  0.7816164E-02  0.1300439E+00
        -11   -1    0    0    0    0  0.00000000000E+00  0.00000000000E+00  0.45593999997E+02  0.45594000000E+02  0.51100000000E-03 0. -1.
         11   -1    0    0    0    0 -0.00000000000E+00 -0.00000000000E+00 -0.45593999997E+02  0.45594000000E+02  0.51100000000E-03 0.  1.
    9900012    2    1    2    0    0  0.34149589208E+02 -0.16817150665E+02  0.14288275152E+02  0.50528858268E+02  0.29999995190E+02 0.  0.
         12    1    1    2    0    0 -0.34149589208E+02  0.16817150665E+02 -0.14288275152E+02  0.40659141732E+02  0.00000000000E+00 0. -1.
         11    1    3    3    0    0  0.40479422135E+01 -0.91353371563E+01  0.29794315208E+01  0.10426755659E+02  0.51100000000E-03 0. -1.
        -11    1    3    3    0    0  0.21232667407E+02 -0.13382339040E+02  0.14626961597E+02  0.29049288618E+02  0.51100000000E-03 0.  1.
        -12    1    3    3    0    0  0.88689795882E+01  0.57005255313E+01 -0.33181179665E+01  0.11052813990E+02  0.00000000000E+00 0.  1.
</event>
<event>
 7    1  0.2744502E-011  0.5052886E+02  0.7816164E-02  0.1300439E+00
        -11   -1    0    0    0    0  0.00000000000E+00  0.00000000000E+00  0.45593999997E+02  0.45594000000E+02  0.51100000000E-03 0.  1.
         11   -1    0    0    0    0 -0.00000000000E+00 -0.00000000000E+00 -0.45593999997E+02  0.45594000000E+02  0.51100000000E-03 0. -1.
    9900012    2    1    2    0    0  0.12562768191E+02 -0.19977047203E+02  0.33109824684E+02  0.50528855270E+02  0.29999986079E+02 0.  0.
         12    1    1    2    0    0 -0.12562768191E+02  0.19977047203E+02 -0.33109824684E+02  0.40659144730E+02  0.00000000000E+00 0. -1.
         11    1    3    3    0    0  0.28631884248E+01 -0.95393763736E+01  0.14402396699E+02  0.17510756137E+02  0.51100000000E-03 0.  1.
        -11    1    3    3    0    0 -0.69473282172E+01 -0.73600675086E+00  0.91446653272E+01  0.11507909432E+02  0.51100000000E-03 0. -1.
        -12    1    3    3    0    0  0.16646907984E+02 -0.97016640782E+01  0.95627626579E+01  0.21510189701E+02  0.00000000000E+00 0.  1.
</event>
<event>
 7    1  0.2744502E-011  0.5052889E+02  0.7816164E-02  0.1300439E+00
        -11   -1    0    0    0    0  0.00000000000E+00  0.00000000000E+00  0.45593999997E+02  0.45594000000E+02  0.51100000000E-03 0. -1.
         11   -1    0    0    0    0 -0.00000000000E+00 -0.00000000000E+00 -0.45593999997E+02  0.45594000000E+02  0.51100000000E-03 0.  1.
    9900012    2    1    2    0    0 -0.32894524345E+02 -0.17514502387E+02  0.16259018386E+02  0.50528890263E+02  0.30000092444E+02 0.  0.
         12    1    1    2    0    0  0.32894524345E+02  0.17514502387E+02 -0.16259018386E+02  0.40659109737E+02  0.00000000000E+00 0. -1.
         11    1    3    3    0    0 -0.94811180484E+01 -0.10039461663E+02 -0.71547595115E+01  0.15552265875E+02  0.51100000000E-03 0. -1.
        -11    1    3    3    0    0 -0.67887344977E+01 -0.38807370308E+01  0.29271673461E+01  0.83495715409E+01  0.51100000000E-03 0.  1.
         12    1    3    3    0    0 -0.16624671799E+02 -0.35943036933E+01  0.20486610551E+02  0.26627052847E+02  0.00000000000E+00 0. -1.
</event>
<event>
 7    1  0.2744502E-011  0.5052886E+02  0.7816164E-02  0.1300439E+00
        -11   -1    0    0    0    0  0.00000000000E+00  0.00000000000E+00  0.45593999997E+02  0.45594000000E+02  0.51100000000E-03 0.  1.
         11   -1    0    0    0    0 -0.00000000000E+00 -0.00000000000E+00 -0.45593999997E+02  0.45594000000E+02  0.51100000000E-03 0. -1.
    9900012    2    1    2    0    0 -0.29664813619E+02 -0.25034330603E+02  0.12101518323E+02  0.50528860542E+02  0.30000002103E+02 0.  0.
         12    1    1    2    0    0  0.29664813619E+02  0.25034330603E+02 -0.12101518323E+02  0.40659139458E+02  0.00000000000E+00 0. -1.
         11    1    3    3    0    0 -0.65564908106E+01 -0.22915212219E+02  0.83887595233E+01  0.25267880984E+02  0.51100000000E-03 0. -1.
        -11    1    3    3    0    0  0.87610465646E+00  0.17063363913E+00  0.16523379207E+00  0.90773216041E+00  0.51100000000E-03 0.  1.
        -12    1    3    3    0    0 -0.23984427465E+02 -0.22897520227E+01  0.35475250073E+01  0.24353247398E+02  0.00000000000E+00 0.  1.
</event>
<event>
 7    1  0.2744502E-011  0.5052886E+02  0.7816164E-02  0.1300439E+00
        -11   -1    0    0    0    0  0.00000000000E+00  0.00000000000E+00  0.45593999997E+02  0.45594000000E+02  0.51100000000E-03 0. -1.
         11   -1    0    0    0    0 -0.00000000000E+00 -0.00000000000E+00 -0.45593999997E+02  0.45594000000E+02  0.51100000000E-03 0.  1.
    9900012    2    1    2    0    0 -0.38812745297E+02  0.10064617034E+02  0.67409316534E+01  0.50528857448E+02  0.29999992698E+02 0.  0.
         12    1    1    2    0    0  0.38812745297E+02 -0.10064617034E+02 -0.67409316534E+01  0.40659142552E+02  0.00000000000E+00 0. -1.
         11    1    3    3    0    0  0.93296448066E+00  0.16387408270E+00 -0.12674264642E+01  0.15822918632E+01  0.51100000000E-03 0. -1.
        -11    1    3    3    0    0 -0.19762311005E+02  0.15242293893E+02 -0.36175503419E+01  0.25218309423E+02  0.51100000000E-03 0.  1.
        -12    1    3    3    0    0 -0.19983398773E+02 -0.53415509417E+01  0.11625908460E+02  0.23728256162E+02  0.00000000000E+00 0.  1.
</event>
<event>
 7    1  0.2744502E-011  0.5052886E+02  0.7816164E-02  0.1300439E+00
        -11   -1    0    0    0    0  0.00000000000E+00  0.00000000000E+00  0.45593999997E+02  0.45594000000E+02  0.51100000000E-03 0. -1.
         11   -1    0    0    0    0 -0.00000000000E+00 -0.00000000000E+00 -0.45593999997E+02  0.45594000000E+02  0.51100000000E-03 0.  1.
    9900012    2    1    2    0    0 -0.41580573385E+00  0.33475870224E+02 -0.23072899017E+02  0.50528862641E+02  0.30000008485E+02 0.  0.
         12    1    1    2    0    0  0.41580573385E+00 -0.33475870224E+02  0.23072899017E+02  0.40659137359E+02  0.00000000000E+00 0. -1.
         11    1    3    3    0    0 -0.66272499464E+01  0.18466533897E+02 -0.30918804732E+01  0.19861848886E+02  0.51100000000E-03 0.  1.
        -11    1    3    3    0    0 -0.25334150977E+01  0.23767966459E+01  0.18777742781E+01  0.39488467751E+01  0.51100000000E-03 0. -1.
        -12    1    3    3    0    0  0.87448593103E+01  0.12632539681E+02 -0.21858792822E+02  0.26718166981E+02  0.00000000000E+00 0.  1.
</event>
<event>
 7    1  0.2744502E-011  0.5052886E+02  0.7816164E-02  0.1300439E+00
        -11   -1    0    0    0    0  0.00000000000E+00  0.00000000000E+00  0.45593999997E+02  0.45594000000E+02  0.51100000000E-03 0. -1.
         11   -1    0    0    0    0 -0.00000000000E+00 -0.00000000000E+00 -0.45593999997E+02  0.45594000000E+02  0.51100000000E-03 0.  1.
    9900012    2    1    2    0    0 -0.37243844865E+02 -0.87258564531E+01  0.13781191982E+02  0.50528858302E+02  0.29999995295E+02 0.  0.
         12    1    1    2    0    0  0.37243844865E+02  0.87258564531E+01 -0.13781191982E+02  0.40659141698E+02  0.00000000000E+00 0. -1.
         11    1    3    3    0    0 -0.38731611084E+01 -0.49747748085E+00  0.37106798019E+01  0.53868363321E+01  0.51100000000E-03 0. -1.
        -11    1    3    3    0    0 -0.26295691011E+02 -0.17855471756E+02  0.95287878259E+01  0.33182510981E+02  0.51100000000E-03 0.  1.
         12    1    3    3    0    0 -0.70749927460E+01  0.96270927833E+01  0.54172435436E+00  0.11959510989E+02  0.00000000000E+00 0. -1.
</event>
<event>
 7    1  0.2744502E-011  0.5052886E+02  0.7816164E-02  0.1300439E+00
        -11   -1    0    0    0    0  0.00000000000E+00  0.00000000000E+00  0.45593999997E+02  0.45594000000E+02  0.51100000000E-03 0.  1.
         11   -1    0    0    0    0 -0.00000000000E+00 -0.00000000000E+00 -0.45593999997E+02  0.45594000000E+02  0.51100000000E-03 0. -1.
    9900012    2    1    2    0    0  0.14003078808E+02 -0.33720109861E+02  0.17889485551E+02  0.50528859350E+02  0.29999998480E+02 0.  0.
         12    1    1    2    0    0 -0.14003078808E+02  0.33720109861E+02 -0.17889485551E+02  0.40659140650E+02  0.00000000000E+00 0. -1.
         11    1    3    3    0    0 -0.16156114823E+01 -0.19522129087E+02  0.51149086799E+01  0.20245641892E+02  0.51100000000E-03 0. -1.
        -11    1    3    3    0    0  0.49666229396E+01 -0.15486736056E+02  0.10366590251E+02  0.19286589403E+02  0.51100000000E-03 0.  1.
        -12    1    3    3    0    0  0.10652067351E+02  0.12887552825E+01  0.24079866199E+01  0.10996628055E+02  0.00000000000E+00 0.  1.
</event>
<event>
 7    1  0.2744502E-011  0.5052886E+02  0.7816164E-02  0.1300439E+00
        -11   -1    0    0    0    0  0.00000000000E+00  0.00000000000E+00  0.45593999997E+02  0.45594000000E+02  0.51100000000E-03 0. -1.
         11   -1    0    0    0    0 -0.00000000000E+00 -0.00000000000E+00 -0.45593999997E+02  0.45594000000E+02  0.51100000000E-03 0.  1.
    9900012    2    1    2    0    0 -0.23183735930E+02  0.38597521395E+01 -0.33178042472E+02  0.50528858340E+02  0.29999995409E+02 0.  0.
         12    1    1    2    0    0  0.23183735930E+02 -0.38597521395E+01  0.33178042472E+02  0.40659141660E+02  0.00000000000E+00 0. -1.
         11    1    3    3    0    0  0.12645599543E+01 -0.55545967978E+01 -0.63844614149E+01  0.85565182922E+01  0.51100000000E-03 0. -1.
        -11    1    3    3    0    0 -0.12196845352E+02  0.33548936910E+01 -0.88652369488E+00  0.12680862461E+02  0.51100000000E-03 0.  1.
        -12    1    3    3    0    0 -0.12251450532E+02  0.60594552463E+01 -0.25907057363E+02  0.29291477587E+02  0.00000000000E+00 0.  1.
</event>
<event>
 7    1  0.2744502E-011  0.5052887E+02  0.7816164E-02  0.1300439E+00
        -11   -1    0    0    0    0  0.00000000000E+00  0.00000000000E+00  0.45593999997E+02  0.45594000000E+02  0.51100000000E-03 0.  1.
         11   -1    0    0    0    0 -0.00000000000E+00 -0.00000000000E+00 -0.45593999997E+02  0.45594000000E+02  0.51100000000E-03 0. -1.
    9900012    2    1    2    0    0  0.15380190189E+02 -0.10107609229E+02  0.36255360459E+02  0.50528866012E+02  0.30000018731E+02 0.  0.
         12    1    1    2    0    0 -0.15380190189E+02  0.10107609229E+02 -0.36255360459E+02  0.40659133988E+02  0.00000000000E+00 0. -1.
         11    1    3    3    0    0  0.10363048238E+01 -0.31246147831E+01  0.23139722974E+02  0.23372717531E+02  0.51100000000E-03 0. -1.
        -11    1    3    3    0    0  0.52406010465E+01  0.21648492607E+00  0.14545483452E+02  0.15462271960E+02  0.51100000000E-03 0.  1.
         12    1    3    3    0    0  0.91032843183E+01 -0.71994793723E+01 -0.14298459661E+01  0.11693876521E+02  0.00000000000E+00 0. -1.
</event>
<event>
 7    1  0.2744502E-011  0.5052886E+02  0.7816164E-02  0.1300439E+00
        -11   -1    0    0    0    0  0.00000000000E+00  0.00000000000E+00  0.45593999997E+02  0.45594000000E+02  0.51100000000E-03 0. -1.
         11   -1    0    0    0    0 -0.00000000000E+00 -0.00000000000E+00 -0.45593999997E+02  0.45594000000E+02  0.51100000000E-03 0.  1.
    9900012    2    1    2    0    0 -0.81565937096E+01  0.12017186032E+02 -0.37976605740E+02  0.50528863700E+02  0.30000011704E+02 0.  0.
         12    1    1    2    0    0  0.81565937096E+01 -0.12017186032E+02  0.37976605740E+02  0.40659136300E+02  0.00000000000E+00 0. -1.
         11    1    3    3    0    0  0.45891920043E+01 -0.29703001263E+01  0.12057745067E+00  0.54678977016E+01  0.51100000000E-03 0. -1.
        -11    1    3    3    0    0 -0.28388350591E+01 -0.26176286556E+01 -0.59163389190E+01  0.70649862517E+01  0.51100000000E-03 0.  1.
        -12    1    3    3    0    0 -0.99069506548E+01  0.17605114814E+02 -0.32180844272E+02  0.37995979747E+02  0.00000000000E+00 0.  1.
</event>
<event>
 7    1  0.2744502E-011  0.5052885E+02  0.7816164E-02  0.1300439E+00
        -11   -1    0    0    0    0  0.00000000000E+00  0.00000000000E+00  0.45593999997E+02  0.45594000000E+02  0.51100000000E-03 0.  1.
         11   -1    0    0    0    0 -0.00000000000E+00 -0.00000000000E+00 -0.45593999997E+02  0.45594000000E+02  0.51100000000E-03 0. -1.
    9900012    2    1    2    0    0  0.10201817419E+02  0.26620258900E+02  0.28990531556E+02  0.50528853644E+02  0.29999981135E+02 0.  0.
         12    1    1    2    0    0 -0.10201817419E+02 -0.26620258900E+02 -0.28990531556E+02  0.40659146356E+02  0.00000000000E+00 0. -1.
         11    1    3    3    0    0  0.32748870832E+01  0.30870528751E+02  0.17859685255E+02  0.35814561123E+02  0.51100000000E-03 0.  1.
        -11    1    3    3    0    0  0.36682793594E+00 -0.28996905346E+01  0.32095989408E+01  0.43410014459E+01  0.51100000000E-03 0. -1.
        -12    1    3    3    0    0  0.65601023994E+01 -0.13505793161E+01  0.79212473603E+01  0.10373291075E+02  0.00000000000E+00 0.  1.
</event>
<event>
 7    1  0.2744502E-011  0.5052886E+02  0.7816164E-02  0.1300439E+00
        -11   -1    0    0    0    0  0.00000000000E+00  0.00000000000E+00  0.45593999997E+02  0.45594000000E+02  0.51100000000E-03 0.  1.
         11   -1    0    0    0    0 -0.00000000000E+00 -0.00000000000E+00 -0.45593999997E+02  0.45594000000E+02  0.51100000000E-03 0. -1.
    9900012    2    1    2    0    0  0.11999522005E+02  0.26050030020E+02  0.28819660494E+02  0.50528862978E+02  0.30000009508E+02 0.  0.
         12    1    1    2    0    0 -0.11999522005E+02 -0.26050030020E+02 -0.28819660494E+02  0.40659137022E+02  0.00000000000E+00 0. -1.
         11    1    3    3    0    0 -0.10723212245E+00  0.31208455141E+01  0.12248813991E+02  0.12640594127E+02  0.51100000000E-03 0. -1.
        -11    1    3    3    0    0  0.10892407287E+01  0.16643425773E+02  0.18665708938E+02  0.25031954723E+02  0.51100000000E-03 0.  1.
         12    1    3    3    0    0  0.11017513399E+02  0.62857587325E+01 -0.20948624346E+01  0.12856314128E+02  0.00000000000E+00 0. -1.
</event>
<event>
 7    1  0.2744502E-011  0.5052886E+02  0.7816164E-02  0.1300439E+00
        -11   -1    0    0    0    0  0.00000000000E+00  0.00000000000E+00  0.45593999997E+02  0.45594000000E+02  0.51100000000E-03 0. -1.
         11   -1    0    0    0    0 -0.00000000000E+00 -0.00000000000E+00 -0.45593999997E+02  0.45594000000E+02  0.51100000000E-03 0.  1.
    9900012    2    1    2    0    0 -0.62945806446E+01  0.67533418240E+01 -0.39597177337E+02  0.50528858048E+02  0.29999994521E+02 0.  0.
         12    1    1    2    0    0  0.62945806446E+01 -0.67533418240E+01  0.39597177337E+02  0.40659141952E+02  0.00000000000E+00 0. -1.
         11    1    3    3    0    0 -0.28668070375E+00  0.31636621403E+01 -0.22114819310E+02  0.22341803359E+02  0.51100000000E-03 0. -1.
        -11    1    3    3    0    0 -0.11069913616E+02 -0.45038290503E+01 -0.63885136270E+01  0.13551404732E+02  0.51100000000E-03 0.  1.
         12    1    3    3    0    0  0.50620136757E+01  0.80935087340E+01 -0.11093844400E+02  0.14635649956E+02  0.00000000000E+00 0. -1.
</event>
<event>
 7    1  0.2744502E-011  0.5052885E+02  0.7816164E-02  0.1300439E+00
        -11   -1    0    0    0    0  0.00000000000E+00  0.00000000000E+00  0.45593999997E+02  0.45594000000E+02  0.51100000000E-03 0.  1.
         11   -1    0    0    0    0 -0.00000000000E+00 -0.00000000000E+00 -0.45593999997E+02  0.45594000000E+02  0.51100000000E-03 0. -1.
    9900012    2    1    2    0    0  0.10104955053E+01 -0.39814051084E+02 -0.81845588461E+01  0.50528846438E+02  0.29999959232E+02 0.  0.
         12    1    1    2    0    0 -0.10104955053E+01  0.39814051084E+02  0.81845588461E+01  0.40659153562E+02  0.00000000000E+00 0. -1.
         11    1    3    3    0    0 -0.10438785773E+01  0.31064499908E+01  0.32321699253E+01  0.46028943847E+01  0.51100000000E-03 0. -1.
        -11    1    3    3    0    0  0.58971022532E+00 -0.14509339106E+02 -0.96233188234E+01  0.17420589682E+02  0.51100000000E-03 0.  1.
        -12    1    3    3    0    0  0.14646638573E+01 -0.28411161969E+02 -0.17934099480E+01  0.28505362371E+02  0.00000000000E+00 0.  1.
</event>
<event>
 7    1  0.2744502E-011  0.5052886E+02  0.7816164E-02  0.1300439E+00
        -11   -1    0    0    0    0  0.00000000000E+00  0.00000000000E+00  0.45593999997E+02  0.45594000000E+02  0.51100000000E-03 0.  1.
         11   -1    0    0    0    0 -0.00000000000E+00 -0.00000000000E+00 -0.45593999997E+02  0.45594000000E+02  0.51100000000E-03 0. -1.
    9900012    2    1    2    0    0 -0.35453730657E+02 -0.87257960032E+01  0.17890193870E+02  0.50528861173E+02  0.30000004022E+02 0.  0.
         12    1    1    2    0    0  0.35453730657E+02  0.87257960032E+01 -0.17890193870E+02  0.40659138827E+02  0.00000000000E+00 0. -1.
         11    1    3    3    0    0 -0.92974820928E+01 -0.96012243080E+01  0.12778240221E+02  0.18490811364E+02  0.51100000000E-03 0. -1.
        -11    1    3    3    0    0 -0.11829114753E+02  0.49631020278E+01  0.10099361135E+02  0.16326586697E+02  0.51100000000E-03 0.  1.
         12    1    3    3    0    0 -0.14327133811E+02 -0.40876737229E+01 -0.49874074854E+01  0.15711463112E+02  0.00000000000E+00 0. -1.
</event>
<event>
 7    1  0.2744502E-011  0.5052884E+02  0.7816164E-02  0.1300439E+00
        -11   -1    0    0    0    0  0.00000000000E+00  0.00000000000E+00  0.45593999997E+02  0.45594000000E+02  0.51100000000E-03 0.  1.
         11   -1    0    0    0    0 -0.00000000000E+00 -0.00000000000E+00 -0.45593999997E+02  0.45594000000E+02  0.51100000000E-03 0. -1.
    9900012    2    1    2    0    0  0.17615289066E+02  0.70715869455E+01  0.35956381125E+02  0.50528842429E+02  0.29999947047E+02 0.  0.
         12    1    1    2    0    0 -0.17615289066E+02 -0.70715869455E+01 -0.35956381125E+02  0.40659157571E+02  0.00000000000E+00 0. -1.
         11    1    3    3    0    0  0.17400520825E+02  0.11876825020E+02  0.13079326985E+02  0.24797296066E+02  0.51100000000E-03 0.  1.
        -11    1    3    3    0    0 -0.37862633296E+01 -0.37011397086E+01  0.46782260123E+01  0.70654103934E+01  0.51100000000E-03 0. -1.
        -12    1    3    3    0    0  0.40010315710E+01 -0.11040983663E+01  0.18198828127E+02  0.18666135970E+02  0.00000000000E+00 0.  1.
</event>
<event>
 7    1  0.2744502E-011  0.5052886E+02  0.7816164E-02  0.1300439E+00
        -11   -1    0    0    0    0  0.00000000000E+00  0.00000000000E+00  0.45593999997E+02  0.45594000000E+02  0.51100000000E-03 0. -1.
         11   -1    0    0    0    0 -0.00000000000E+00 -0.00000000000E+00 -0.45593999997E+02  0.45594000000E+02  0.51100000000E-03 0.  1.
    9900012    2    1    2    0    0 -0.17174998494E+02  0.30810446620E+02 -0.20221311798E+02  0.50528860252E+02  0.30000001222E+02 0.  0.
         12    1    1    2    0    0  0.17174998494E+02 -0.30810446620E+02  0.20221311798E+02  0.40659139748E+02  0.00000000000E+00 0. -1.
         11    1    3    3    0    0  0.27055423265E+01  0.40974949664E+00 -0.84089637157E+00  0.28626842123E+01  0.51100000000E-03 0.  1.
        -11    1    3    3    0    0  0.54934034413E+01  0.35924247393E+01 -0.19638097995E+01  0.68512441254E+01  0.51100000000E-03 0. -1.
        -12    1    3    3    0    0 -0.25373944261E+02  0.26808272384E+02 -0.17416605627E+02  0.40814931914E+02  0.00000000000E+00 0.  1.
</event>
<event>
 7    1  0.2744502E-011  0.5052885E+02  0.7816164E-02  0.1300439E+00
        -11   -1    0    0    0    0  0.00000000000E+00  0.00000000000E+00  0.45593999997E+02  0.45594000000E+02  0.51100000000E-03 0.  1.
         11   -1    0    0    0    0 -0.00000000000E+00 -0.00000000000E+00 -0.45593999997E+02  0.45594000000E+02  0.51100000000E-03 0. -1.
    9900012    2    1    2    0    0 -0.19376948599E+02 -0.26918894416E+00  0.35743915586E+02  0.50528854644E+02  0.29999984175E+02 0.  0.
         12    1    1    2    0    0  0.19376948599E+02  0.26918894416E+00 -0.35743915586E+02  0.40659145356E+02  0.00000000000E+00 0. -1.
         11    1    3    3    0    0 -0.39459427313E+01 -0.94326540621E+01  0.13669819870E+02  0.17070717684E+02  0.51100000000E-03 0. -1.
        -11    1    3    3    0    0 -0.62248588357E+01  0.31769279429E+01 -0.17677953195E+01  0.72088028986E+01  0.51100000000E-03 0.  1.
         12    1    3    3    0    0 -0.92061470317E+01  0.59865371751E+01  0.23841891035E+02  0.26249334061E+02  0.00000000000E+00 0. -1.
</event>
<event>
 7    1  0.2744502E-011  0.5052890E+02  0.7816164E-02  0.1300439E+00
        -11   -1    0    0    0    0  0.00000000000E+00  0.00000000000E+00  0.45593999997E+02  0.45594000000E+02  0.51100000000E-03 0. -1.
         11   -1    0    0    0    0 -0.00000000000E+00 -0.00000000000E+00 -0.45593999997E+02  0.45594000000E+02  0.51100000000E-03 0.  1.
    9900012    2    1    2    0    0  0.33702194294E+01  0.31582329483E+02 -0.25384251975E+02  0.50528903073E+02  0.30000131381E+02 0.  0.
         12    1    1    2    0    0 -0.33702194294E+01 -0.31582329483E+02  0.25384251975E+02  0.40659096927E+02  0.00000000000E+00 0. -1.
         11    1    3    3    0    0  0.59137799653E+01  0.11046628117E+02 -0.13821359580E+02  0.18655582734E+02  0.51100000000E-03 0.  1.
        -11    1    3    3    0    0  0.88157944126E+01  0.43065189042E+01 -0.27336300823E+01  0.10185139660E+02  0.51100000000E-03 0. -1.
        -12    1    3    3    0    0 -0.11359354948E+02  0.16229182461E+02 -0.88292623127E+01  0.21688180680E+02  0.00000000000E+00 0.  1.
</event>
<event>
 7    1  0.2744502E-011  0.5052887E+02  0.7816164E-02  0.1300439E+00
        -11   -1    0    0    0    0  0.00000000000E+00  0.00000000000E+00  0.45593999997E+02  0.45594000000E+02  0.51100000000E-03 0. -1.
         11   -1    0    0    0    0 -0.00000000000E+00 -0.00000000000E+00 -0.45593999997E+02  0.45594000000E+02  0.51100000000E-03 0.  1.
    9900012    2    1    2    0    0  0.91730024017E+01 -0.26511755187E+02 -0.29430394497E+02  0.50528865031E+02  0.30000015750E+02 0.  0.
         12    1    1    2    0    0 -0.91730024017E+01  0.26511755187E+02  0.29430394497E+02  0.40659134969E+02  0.00000000000E+00 0. -1.
         11    1    3    3    0    0 -0.28013678595E+01 -0.56024746058E+01 -0.39752745857E+00  0.62764171256E+01  0.51100000000E-03 0. -1.
        -11    1    3    3    0    0 -0.39237003051E+01  0.23981063620E+01 -0.15151599256E+01  0.48416988825E+01  0.51100000000E-03 0.  1.
        -12    1    3    3    0    0  0.15898070566E+02 -0.23307386943E+02 -0.27517707113E+02  0.39410749023E+02  0.00000000000E+00 0.  1.
</event>
<event>
 7    1  0.2744502E-011  0.5052887E+02  0.7816164E-02  0.1300439E+00
        -11   -1    0    0    0    0  0.00000000000E+00  0.00000000000E+00  0.45593999997E+02  0.45594000000E+02  0.51100000000E-03 0.  1.
         11   -1    0    0    0    0 -0.00000000000E+00 -0.00000000000E+00 -0.45593999997E+02  0.45594000000E+02  0.51100000000E-03 0. -1.
    9900012    2    1    2    0    0 -0.21135718267E+02 -0.24530571668E+02  0.24590599120E+02  0.50528866978E+02  0.30000021666E+02 0.  0.
         12    1    1    2    0    0  0.21135718267E+02  0.24530571668E+02 -0.24590599120E+02  0.40659133022E+02  0.00000000000E+00 0. -1.
         11    1    3    3    0    0 -0.74779968857E+01  0.40082008122E+01  0.80896833255E+00  0.85229420506E+01  0.51100000000E-03 0. -1.
        -11    1    3    3    0    0 -0.15607603656E+02 -0.18658694571E+02  0.14555370080E+02  0.28347891869E+02  0.51100000000E-03 0.  1.
        -12    1    3    3    0    0  0.19498822749E+01 -0.98800779089E+01  0.92262607073E+01  0.13658033058E+02  0.00000000000E+00 0.  1.
</event>
<event>
 7    1  0.2744502E-011  0.5052884E+02  0.7816164E-02  0.1300439E+00
        -11   -1    0    0    0    0  0.00000000000E+00  0.00000000000E+00  0.45593999997E+02  0.45594000000E+02  0.51100000000E-03 0.  1.
         11   -1    0    0    0    0 -0.00000000000E+00 -0.00000000000E+00 -0.45593999997E+02  0.45594000000E+02  0.51100000000E-03 0. -1.
    9900012    2    1    2    0    0  0.15950138747E+02  0.36736366868E+02  0.70142286419E+01  0.50528843833E+02  0.29999951316E+02 0.  0.
         12    1    1    2    0    0 -0.15950138747E+02 -0.36736366868E+02 -0.70142286419E+01  0.40659156167E+02  0.00000000000E+00 0. -1.
         11    1    3    3    0    0  0.19050095527E+02  0.14204371110E+02  0.29900690218E+01  0.23950173511E+02  0.51100000000E-03 0. -1.
        -11    1    3    3    0    0  0.15580028820E+01 -0.57241541228E+00 -0.16453103181E+01  0.23371090451E+01  0.51100000000E-03 0.  1.
        -12    1    3    3    0    0 -0.46579596616E+01  0.23104411171E+02  0.56694699381E+01  0.24241561277E+02  0.00000000000E+00 0.  1.
</event>
<event>
 7    1  0.2744502E-011  0.5052887E+02  0.7816164E-02  0.1300439E+00
        -11   -1    0    0    0    0  0.00000000000E+00  0.00000000000E+00  0.45593999997E+02  0.45594000000E+02  0.51100000000E-03 0. -1.
         11   -1    0    0    0    0 -0.00000000000E+00 -0.00000000000E+00 -0.45593999997E+02  0.45594000000E+02  0.51100000000E-03 0.  1.
    9900012    2    1    2    0    0  0.26686940091E+02 -0.47390603631E+01 -0.30306984891E+02  0.50528870671E+02  0.30000032893E+02 0.  0.
         12    1    1    2    0    0 -0.26686940091E+02  0.47390603631E+01  0.30306984891E+02  0.40659129329E+02  0.00000000000E+00 0. -1.
         11    1    3    3    0    0  0.14586551002E+02 -0.40001708700E+01 -0.33411208395E+01  0.15489736145E+02  0.51100000000E-03 0. -1.
        -11    1    3    3    0    0  0.11162455623E+02 -0.45199800250E+00 -0.37230655520E+01  0.11775650092E+02  0.51100000000E-03 0.  1.
        -12    1    3    3    0    0  0.93793346621E+00 -0.28689149057E+00 -0.23242798500E+02  0.23263484434E+02  0.00000000000E+00 0.  1.
</event>
<event>
 7    1  0.2744502E-011  0.5052886E+02  0.7816164E-02  0.1300439E+00
        -11   -1    0    0    0    0  0.00000000000E+00  0.00000000000E+00  0.45593999997E+02  0.45594000000E+02  0.51100000000E-03 0.  1.
         11   -1    0    0    0    0 -0.00000000000E+00 -0.00000000000E+00 -0.45593999997E+02  0.45594000000E+02  0.51100000000E-03 0. -1.
    9900012    2    1    2    0    0 -0.11562941765E+02  0.37277217855E+02  0.11396194557E+02  0.50528857810E+02  0.29999993799E+02 0.  0.
         12    1    1    2    0    0  0.11562941765E+02 -0.37277217855E+02 -0.11396194557E+02  0.40659142190E+02  0.00000000000E+00 0. -1.
         11    1    3    3    0    0 -0.42483084057E+01  0.93949733094E+01  0.88719688563E+01  0.13602407119E+02  0.51100000000E-03 0. -1.
        -11    1    3    3    0    0 -0.11238754046E+02  0.45991840818E+01  0.51081841258E+01  0.13174051467E+02  0.51100000000E-03 0.  1.
         12    1    3    3    0    0  0.39241206872E+01  0.23283060464E+02 -0.25839584251E+01  0.23752399224E+02  0.00000000000E+00 0. -1.
</event>
<event>
 7    1  0.2744502E-011  0.5052886E+02  0.7816164E-02  0.1300439E+00
        -11   -1    0    0    0    0  0.00000000000E+00  0.00000000000E+00  0.45593999997E+02  0.45594000000E+02  0.51100000000E-03 0.  1.
         11   -1    0    0    0    0 -0.00000000000E+00 -0.00000000000E+00 -0.45593999997E+02  0.45594000000E+02  0.51100000000E-03 0. -1.
    9900012    2    1    2    0    0  0.13595926298E+02 -0.15236595705E+01  0.38288307847E+02  0.50528864886E+02  0.30000015307E+02 0.  0.
         12    1    1    2    0    0 -0.13595926298E+02  0.15236595705E+01 -0.38288307847E+02  0.40659135114E+02  0.00000000000E+00 0. -1.
         11    1    3    3    0    0  0.14545029655E+02 -0.12158588611E+02  0.24225852072E+02  0.30761681904E+02  0.51100000000E-03 0. -1.
        -11    1    3    3    0    0  0.31576291897E+01  0.17252204882E+01  0.16849413038E+01  0.39731643927E+01  0.51100000000E-03 0.  1.
        -12    1    3    3    0    0 -0.41067325465E+01  0.89097085526E+01  0.12377514471E+02  0.15794018589E+02  0.00000000000E+00 0.  1.
</event>
<event>
 7    1  0.2744502E-011  0.5052885E+02  0.7816164E-02  0.1300439E+00
        -11   -1    0    0    0    0  0.00000000000E+00  0.00000000000E+00  0.45593999997E+02  0.45594000000E+02  0.51100000000E-03 0.  1.
         11   -1    0    0    0    0 -0.00000000000E+00 -0.00000000000E+00 -0.45593999997E+02  0.45594000000E+02  0.51100000000E-03 0. -1.
    9900012    2    1    2    0    0  0.69580980995E+01  0.39075199639E+02  0.88249506158E+01  0.50528854542E+02  0.29999983865E+02 0.  0.
         12    1    1    2    0    0 -0.69580980995E+01 -0.39075199639E+02 -0.88249506158E+01  0.40659145458E+02  0.00000000000E+00 0. -1.
         11    1    3    3    0    0 -0.18073039758E+01  0.27444796820E+01  0.71598017876E+01  0.78778980880E+01  0.51100000000E-03 0. -1.
        -11    1    3    3    0    0  0.21580219252E+01 -0.39289731353E+00 -0.43349634747E+01  0.48583264111E+01  0.51100000000E-03 0.  1.
        -12    1    3    3    0    0  0.66073801501E+01  0.36723617271E+02  0.60001123028E+01  0.37792630043E+02  0.00000000000E+00 0.  1.
</event>
<event>
 7    1  0.2744502E-011  0.5052887E+02  0.7816164E-02  0.1300439E+00
        -11   -1    0    0    0    0  0.00000000000E+00  0.00000000000E+00  0.45593999997E+02  0.45594000000E+02  0.51100000000E-03 0. -1.
         11   -1    0    0    0    0 -0.00000000000E+00 -0.00000000000E+00 -0.45593999997E+02  0.45594000000E+02  0.51100000000E-03 0.  1.
    9900012    2    1    2    0    0 -0.25900410928E+02  0.30675055525E+02 -0.64322883422E+01  0.50528872475E+02  0.30000038376E+02 0.  0.
         12    1    1    2    0    0  0.25900410928E+02 -0.30675055525E+02  0.64322883422E+01  0.40659127525E+02  0.00000000000E+00 0. -1.
         11    1    3    3    0    0 -0.11085359130E+02  0.71416274911E+01  0.56322572476E+01  0.14339119646E+02  0.51100000000E-03 0. -1.
        -11    1    3    3    0    0 -0.84192260473E+01 -0.70796277518E+00 -0.19543780079E+00  0.84511996025E+01  0.51100000000E-03 0.  1.
         12    1    3    3    0    0 -0.63958257516E+01  0.24241390810E+02 -0.11869107789E+02  0.27738553227E+02  0.00000000000E+00 0. -1.
</event>
<event>
 7    1  0.2744502E-011  0.5052886E+02  0.7816164E-02  0.1300439E+00
        -11   -1    0    0    0    0  0.00000000000E+00  0.00000000000E+00  0.45593999997E+02  0.45594000000E+02  0.51100000000E-03 0.  1.
         11   -1    0    0    0    0 -0.00000000000E+00 -0.00000000000E+00 -0.45593999997E+02  0.45594000000E+02  0.51100000000E-03 0. -1.
    9900012    2    1    2    0    0  0.64638662677E+01 -0.38377438207E+02  0.11770987344E+02  0.50528862361E+02  0.30000007634E+02 0.  0.
         12    1    1    2    0    0 -0.64638662677E+01  0.38377438207E+02 -0.11770987344E+02  0.40659137639E+02  0.00000000000E+00 0. -1.
         11    1    3    3    0    0 -0.23628492653E+01 -0.40397302634E+01  0.32915351392E+01  0.57215977738E+01  0.51100000000E-03 0. -1.
        -11    1    3    3    0    0 -0.80666486112E+01 -0.64540442999E+01  0.63707875898E+01  0.12137233722E+02  0.51100000000E-03 0.  1.
        -12    1    3    3    0    0  0.16893364144E+02 -0.27883663644E+02  0.21086646147E+01  0.32670030866E+02  0.00000000000E+00 0.  1.
</event>
<event>
 7    1  0.2744502E-011  0.5052886E+02  0.7816164E-02  0.1300439E+00
        -11   -1    0    0    0    0  0.00000000000E+00  0.00000000000E+00  0.45593999997E+02  0.45594000000E+02  0.51100000000E-03 0. -1.
         11   -1    0    0    0    0 -0.00000000000E+00 -0.00000000000E+00 -0.45593999997E+02  0.45594000000E+02  0.51100000000E-03 0.  1.
    9900012    2    1    2    0    0  0.28541967759E+02 -0.26155229274E+02 -0.12426809412E+02  0.50528861616E+02  0.30000005369E+02 0.  0.
         12    1    1    2    0    0 -0.28541967759E+02  0.26155229274E+02  0.12426809412E+02  0.40659138384E+02  0.00000000000E+00 0. -1.
         11    1    3    3    0    0 -0.67518657288E+00 -0.14478078226E+01  0.21500062092E+01  0.26785353013E+01  0.51100000000E-03 0. -1.
        -11    1    3    3    0    0  0.73877721351E+01 -0.21505916355E+02 -0.30057814527E+01  0.22937269624E+02  0.51100000000E-03 0.  1.
        -12    1    3    3    0    0  0.21829382196E+02 -0.32015050963E+01 -0.11571034169E+02  0.24913056691E+02  0.00000000000E+00 0.  1.
</event>
<event>
 7    1  0.2744502E-011  0.5052890E+02  0.7816164E-02  0.1300439E+00
        -11   -1    0    0    0    0  0.00000000000E+00  0.00000000000E+00  0.45593999997E+02  0.45594000000E+02  0.51100000000E-03 0.  1.
         11   -1    0    0    0    0 -0.00000000000E+00 -0.00000000000E+00 -0.45593999997E+02  0.45594000000E+02  0.51100000000E-03 0. -1.
    9900012    2    1    2    0    0 -0.14361572784E+02 -0.37904722238E+02  0.31842903388E+01  0.50528899595E+02  0.30000120808E+02 0.  0.
         12    1    1    2    0    0  0.14361572784E+02  0.37904722238E+02 -0.31842903388E+01  0.40659100405E+02  0.00000000000E+00 0. -1.
         11    1    3    3    0    0 -0.15729685995E+02 -0.39396958072E+02 -0.39341306257E+00  0.42422848808E+02  0.51100000000E-03 0.  1.
        -11    1    3    3    0    0 -0.17689445175E+01 -0.77014773233E+00 -0.95059938538E+00  0.21507979189E+01  0.51100000000E-03 0. -1.
        -12    1    3    3    0    0  0.31370577285E+01  0.22623835663E+01  0.45283027868E+01  0.59552528680E+01  0.00000000000E+00 0.  1.
</event>
<event>
 7    1  0.2744502E-011  0.5052884E+02  0.7816164E-02  0.1300439E+00
        -11   -1    0    0    0    0  0.00000000000E+00  0.00000000000E+00  0.45593999997E+02  0.45594000000E+02  0.51100000000E-03 0.  1.
         11   -1    0    0    0    0 -0.00000000000E+00 -0.00000000000E+00 -0.45593999997E+02  0.45594000000E+02  0.51100000000E-03 0. -1.
    9900012    2    1    2    0    0  0.21336923956E+01  0.16766174539E+02  0.36979857185E+02  0.50528842491E+02  0.29999947236E+02 0.  0.
         12    1    1    2    0    0 -0.21336923956E+01 -0.16766174539E+02 -0.36979857185E+02  0.40659157509E+02  0.00000000000E+00 0. -1.
         11    1    3    3    0    0 -0.28480251901E+01  0.50077429229E+01  0.43924774200E+01  0.72444872015E+01  0.51100000000E-03 0. -1.
        -11    1    3    3    0    0 -0.50796686113E+01  0.15486004025E+02  0.26024840909E+02  0.30706867285E+02  0.51100000000E-03 0.  1.
        -12    1    3    3    0    0  0.10061386197E+02 -0.37275724089E+01  0.65625388558E+01  0.12577488004E+02  0.00000000000E+00 0.  1.
</event>
<event>
 7    1  0.2744502E-011  0.5052890E+02  0.7816164E-02  0.1300439E+00
        -11   -1    0    0    0    0  0.00000000000E+00  0.00000000000E+00  0.45593999997E+02  0.45594000000E+02  0.51100000000E-03 0.  1.
         11   -1    0    0    0    0 -0.00000000000E+00 -0.00000000000E+00 -0.45593999997E+02  0.45594000000E+02  0.51100000000E-03 0. -1.
    9900012    2    1    2    0    0 -0.17669500002E+02  0.62783145888E+01  0.36076779954E+02  0.50528898728E+02  0.30000118172E+02 0.  0.
         12    1    1    2    0    0  0.17669500002E+02 -0.62783145888E+01 -0.36076779954E+02  0.40659101272E+02  0.00000000000E+00 0. -1.
         11    1    3    3    0    0  0.42754537140E+01 -0.23658155028E+01  0.26894730013E+01  0.55776207060E+01  0.51100000000E-03 0. -1.
        -11    1    3    3    0    0 -0.50614672869E+01  0.62597654131E+01  0.69554050431E+00  0.80800303822E+01  0.51100000000E-03 0.  1.
        -12    1    3    3    0    0 -0.16883486430E+02  0.23843646786E+01  0.32691766449E+02  0.36871247639E+02  0.00000000000E+00 0.  1.
</event>
<event>
 7    1  0.2744502E-011  0.5052886E+02  0.7816164E-02  0.1300439E+00
        -11   -1    0    0    0    0  0.00000000000E+00  0.00000000000E+00  0.45593999997E+02  0.45594000000E+02  0.51100000000E-03 0. -1.
         11   -1    0    0    0    0 -0.00000000000E+00 -0.00000000000E+00 -0.45593999997E+02  0.45594000000E+02  0.51100000000E-03 0.  1.
    9900012    2    1    2    0    0 -0.26180324927E+02  0.30772438079E+02  0.45621710532E+01  0.50528858797E+02  0.29999996800E+02 0.  0.
         12    1    1    2    0    0  0.26180324927E+02 -0.30772438079E+02 -0.45621710532E+01  0.40659141203E+02  0.00000000000E+00 0. -1.
         11    1    3    3    0    0 -0.19526328600E+02  0.12563042059E+02  0.11960442077E+01  0.23249474325E+02  0.51100000000E-03 0.  1.
        -11    1    3    3    0    0 -0.60616754639E+01 -0.67629894066E+00  0.55654363015E+01  0.82568378435E+01  0.51100000000E-03 0. -1.
        -12    1    3    3    0    0 -0.59232086280E+00  0.18885694961E+02 -0.21993094561E+01  0.19022546629E+02  0.00000000000E+00 0.  1.
</event>
<event>
 7    1  0.2744502E-011  0.5052889E+02  0.7816164E-02  0.1300439E+00
        -11   -1    0    0    0    0  0.00000000000E+00  0.00000000000E+00  0.45593999997E+02  0.45594000000E+02  0.51100000000E-03 0.  1.
         11   -1    0    0    0    0 -0.00000000000E+00 -0.00000000000E+00 -0.45593999997E+02  0.45594000000E+02  0.51100000000E-03 0. -1.
    9900012    2    1    2    0    0 -0.16390124347E+02  0.46097491282E+01  0.36922588261E+02  0.50528886790E+02  0.30000081888E+02 0.  0.
         12    1    1    2    0    0  0.16390124347E+02 -0.46097491282E+01 -0.36922588261E+02  0.40659113210E+02  0.00000000000E+00 0. -1.
         11    1    3    3    0    0 -0.10040247553E+01 -0.29129234797E+01  0.50075378159E+01  0.58795088355E+01  0.51100000000E-03 0. -1.
        -11    1    3    3    0    0 -0.12393979032E+01  0.59897937113E+01  0.29609030112E+02  0.30234225644E+02  0.51100000000E-03 0.  1.
         12    1    3    3    0    0 -0.14146701688E+02  0.15328788965E+01  0.23060203330E+01  0.14415152311E+02  0.00000000000E+00 0. -1.
</event>
<event>
 7    1  0.2744502E-011  0.5052885E+02  0.7816164E-02  0.1300439E+00
        -11   -1    0    0    0    0  0.00000000000E+00  0.00000000000E+00  0.45593999997E+02  0.45594000000E+02  0.51100000000E-03 0. -1.
         11   -1    0    0    0    0 -0.00000000000E+00 -0.00000000000E+00 -0.45593999997E+02  0.45594000000E+02  0.51100000000E-03 0.  1.
    9900012    2    1    2    0    0  0.39438977658E+02 -0.93308533850E+01  0.32662371668E+01  0.50528854795E+02  0.29999984635E+02 0.  0.
         12    1    1    2    0    0 -0.39438977658E+02  0.93308533850E+01 -0.32662371668E+01  0.40659145205E+02  0.00000000000E+00 0. -1.
         11    1    3    3    0    0  0.75932377419E+01 -0.50582634742E+01 -0.32399627039E+01  0.96819753853E+01  0.51100000000E-03 0. -1.
        -11    1    3    3    0    0  0.71796585933E+01  0.18029813644E+00 -0.88919651053E+01  0.11430093990E+02  0.51100000000E-03 0.  1.
        -12    1    3    3    0    0  0.24666081322E+02 -0.44528880473E+01  0.15398164976E+02  0.29416785419E+02  0.00000000000E+00 0.  1.
</event>
<event>
 7    1  0.2744502E-011  0.5052886E+02  0.7816164E-02  0.1300439E+00
        -11   -1    0    0    0    0  0.00000000000E+00  0.00000000000E+00  0.45593999997E+02  0.45594000000E+02  0.51100000000E-03 0.  1.
         11   -1    0    0    0    0 -0.00000000000E+00 -0.00000000000E+00 -0.45593999997E+02  0.45594000000E+02  0.51100000000E-03 0. -1.
    9900012    2    1    2    0    0 -0.20893313697E+02 -0.13597272256E+02  0.32120855497E+02  0.50528859233E+02  0.29999998125E+02 0.  0.
         12    1    1    2    0    0  0.20893313697E+02  0.13597272256E+02 -0.32120855497E+02  0.40659140767E+02  0.00000000000E+00 0. -1.
         11    1    3    3    0    0 -0.96842692310E+01 -0.69263966628E+01  0.17438418797E+02  0.21115361510E+02  0.51100000000E-03 0. -1.
        -11    1    3    3    0    0 -0.15487883209E+02 -0.97943806967E+01  0.15564637696E+02  0.24042927575E+02  0.51100000000E-03 0.  1.
         12    1    3    3    0    0  0.42788387428E+01  0.31235051033E+01 -0.88220099674E+00  0.53705701481E+01  0.00000000000E+00 0. -1.
</event>
<event>
 7    1  0.2744502E-011  0.5052887E+02  0.7816164E-02  0.1300439E+00
        -11   -1    0    0    0    0  0.00000000000E+00  0.00000000000E+00  0.45593999997E+02  0.45594000000E+02  0.51100000000E-03 0.  1.
         11   -1    0    0    0    0 -0.00000000000E+00 -0.00000000000E+00 -0.45593999997E+02  0.45594000000E+02  0.51100000000E-03 0. -1.
    9900012    2    1    2    0    0  0.21786379192E+02 -0.15914488686E+02  0.30417889091E+02  0.50528865169E+02  0.30000016169E+02 0.  0.
         12    1    1    2    0    0 -0.21786379192E+02  0.15914488686E+02 -0.30417889091E+02  0.40659134831E+02  0.00000000000E+00 0. -1.
         11    1    3    3    0    0  0.51148662441E-01 -0.12739145223E+01  0.16098234443E+02  0.16148641641E+02  0.51100000000E-03 0. -1.
        -11    1    3    3    0    0  0.97816440260E+01 -0.50304239509E+01  0.15489941672E+02  0.18998000375E+02  0.51100000000E-03 0.  1.
         12    1    3    3    0    0  0.11953586504E+02 -0.96101502132E+01 -0.11702870249E+01  0.15382223153E+02  0.00000000000E+00 0. -1.
</event>
<event>
 7    1  0.2744502E-011  0.5052885E+02  0.7816164E-02  0.1300439E+00
        -11   -1    0    0    0    0  0.00000000000E+00  0.00000000000E+00  0.45593999997E+02  0.45594000000E+02  0.51100000000E-03 0.  1.
         11   -1    0    0    0    0 -0.00000000000E+00 -0.00000000000E+00 -0.45593999997E+02  0.45594000000E+02  0.51100000000E-03 0. -1.
    9900012    2    1    2    0    0  0.29984098018E+02 -0.24444618129E+02 -0.12513217206E+02  0.50528854728E+02  0.29999984431E+02 0.  0.
         12    1    1    2    0    0 -0.29984098018E+02  0.24444618129E+02  0.12513217206E+02  0.40659145272E+02  0.00000000000E+00 0. -1.
         11    1    3    3    0    0  0.24840200510E+01 -0.38699837124E+01 -0.82818458271E+00  0.46725816752E+01  0.51100000000E-03 0. -1.
        -11    1    3    3    0    0 -0.73187600528E+00 -0.15641081325E+02 -0.48593759598E+01  0.16394895622E+02  0.51100000000E-03 0.  1.
         12    1    3    3    0    0  0.28231953972E+02 -0.49335530917E+01 -0.68256566635E+01  0.29461377430E+02  0.00000000000E+00 0. -1.
</event>
<event>
 7    1  0.2744502E-011  0.5052886E+02  0.7816164E-02  0.1300439E+00
        -11   -1    0    0    0    0  0.00000000000E+00  0.00000000000E+00  0.45593999997E+02  0.45594000000E+02  0.51100000000E-03 0. -1.
         11   -1    0    0    0    0 -0.00000000000E+00 -0.00000000000E+00 -0.45593999997E+02  0.45594000000E+02  0.51100000000E-03 0.  1.
    9900012    2    1    2    0    0  0.10960845989E+01 -0.28372180677E+02 -0.29102983583E+02  0.50528859684E+02  0.29999999496E+02 0.  0.
         12    1    1    2    0    0 -0.10960845989E+01  0.28372180677E+02  0.29102983583E+02  0.40659140316E+02  0.00000000000E+00 0. -1.
         11    1    3    3    0    0 -0.88056312551E+01 -0.40140368377E+01 -0.17119671412E+02  0.19665573550E+02  0.51100000000E-03 0. -1.
        -11    1    3    3    0    0 -0.14469425106E+01 -0.51334346221E+01 -0.53965617090E+01  0.75874022029E+01  0.51100000000E-03 0.  1.
         12    1    3    3    0    0  0.11348658365E+02 -0.19224709217E+02 -0.65867504623E+01  0.23275883932E+02  0.00000000000E+00 0. -1.
</event>
<event>
 7    1  0.2744502E-011  0.5052885E+02  0.7816164E-02  0.1300439E+00
        -11   -1    0    0    0    0  0.00000000000E+00  0.00000000000E+00  0.45593999997E+02  0.45594000000E+02  0.51100000000E-03 0.  1.
         11   -1    0    0    0    0 -0.00000000000E+00 -0.00000000000E+00 -0.45593999997E+02  0.45594000000E+02  0.51100000000E-03 0. -1.
    9900012    2    1    2    0    0  0.40109554221E+02  0.60852220979E+01  0.27129127885E+01  0.50528853876E+02  0.29999981840E+02 0.  0.
         12    1    1    2    0    0 -0.40109554221E+02 -0.60852220979E+01 -0.27129127885E+01  0.40659146124E+02  0.00000000000E+00 0. -1.
         11    1    3    3    0    0  0.18409233873E+02 -0.42238321845E+01 -0.37426728685E+01  0.19254824085E+02  0.51100000000E-03 0. -1.
        -11    1    3    3    0    0  0.16069252975E+02 -0.17987087303E+01 -0.58153050259E+00  0.16180062493E+02  0.51100000000E-03 0.  1.
         12    1    3    3    0    0  0.56310673727E+01  0.12107763013E+02  0.70371161596E+01  0.15093967297E+02  0.00000000000E+00 0. -1.
</event>
<event>
 7    1  0.2744502E-011  0.5052886E+02  0.7816164E-02  0.1300439E+00
        -11   -1    0    0    0    0  0.00000000000E+00  0.00000000000E+00  0.45593999997E+02  0.45594000000E+02  0.51100000000E-03 0.  1.
         11   -1    0    0    0    0 -0.00000000000E+00 -0.00000000000E+00 -0.45593999997E+02  0.45594000000E+02  0.51100000000E-03 0. -1.
    9900012    2    1    2    0    0  0.16942724315E+02  0.35806242684E+02  0.91664086436E+01  0.50528856259E+02  0.29999989085E+02 0.  0.
         12    1    1    2    0    0 -0.16942724315E+02 -0.35806242684E+02 -0.91664086436E+01  0.40659143741E+02  0.00000000000E+00 0. -1.
         11    1    3    3    0    0 -0.16436053950E+01  0.12092889338E+02 -0.55387020977E+01  0.13402112983E+02  0.51100000000E-03 0. -1.
        -11    1    3    3    0    0 -0.11624697873E+01  0.83617968171E-01  0.45544510070E+01  0.47012075265E+01  0.51100000000E-03 0.  1.
         12    1    3    3    0    0  0.19748799497E+02  0.23629735378E+02  0.10150659734E+02  0.32425535749E+02  0.00000000000E+00 0. -1.
</event>
<event>
 7    1  0.2744502E-011  0.5052886E+02  0.7816164E-02  0.1300439E+00
        -11   -1    0    0    0    0  0.00000000000E+00  0.00000000000E+00  0.45593999997E+02  0.45594000000E+02  0.51100000000E-03 0.  1.
         11   -1    0    0    0    0 -0.00000000000E+00 -0.00000000000E+00 -0.45593999997E+02  0.45594000000E+02  0.51100000000E-03 0. -1.
    9900012    2    1    2    0    0 -0.22112357303E+02  0.20878030869E+02  0.26987344758E+02  0.50528864550E+02  0.30000014285E+02 0.  0.
         12    1    1    2    0    0  0.22112357303E+02 -0.20878030869E+02 -0.26987344758E+02  0.40659135450E+02  0.00000000000E+00 0. -1.
         11    1    3    3    0    0  0.74171698948E+00  0.14204155923E+01  0.89869038311E+01  0.91286453145E+01  0.51100000000E-03 0. -1.
        -11    1    3    3    0    0 -0.59858437798E+01  0.16211555086E+02  0.16925024929E+02  0.24188867546E+02  0.51100000000E-03 0.  1.
        -12    1    3    3    0    0 -0.16868230513E+02  0.32460601904E+01  0.10754159987E+01  0.17211351689E+02  0.00000000000E+00 0.  1.
</event>
<event>
 7    1  0.2744502E-011  0.5052883E+02  0.7816164E-02  0.1300439E+00
        -11   -1    0    0    0    0  0.00000000000E+00  0.00000000000E+00  0.45593999997E+02  0.45594000000E+02  0.51100000000E-03 0.  1.
         11   -1    0    0    0    0 -0.00000000000E+00 -0.00000000000E+00 -0.45593999997E+02  0.45594000000E+02  0.51100000000E-03 0. -1.
    9900012    2    1    2    0    0 -0.21254060968E+02 -0.21212346959E+02  0.27412941147E+02  0.50528829897E+02  0.29999908955E+02 0.  0.
         12    1    1    2    0    0  0.21254060968E+02  0.21212346959E+02 -0.27412941147E+02  0.40659170103E+02  0.00000000000E+00 0. -1.
         11    1    3    3    0    0  0.19886514496E+01 -0.10706060527E+01 -0.12468099659E+01  0.25798192302E+01  0.51100000000E-03 0. -1.
        -11    1    3    3    0    0  0.24428838589E+01 -0.36700076799E+01  0.12845556924E+02  0.13581051906E+02  0.51100000000E-03 0.  1.
        -12    1    3    3    0    0 -0.25685596277E+02 -0.16471733226E+02  0.15814194189E+02  0.34367958761E+02  0.00000000000E+00 0.  1.
</event>
<event>
 7    1  0.2744502E-011  0.5052886E+02  0.7816164E-02  0.1300439E+00
        -11   -1    0    0    0    0  0.00000000000E+00  0.00000000000E+00  0.45593999997E+02  0.45594000000E+02  0.51100000000E-03 0. -1.
         11   -1    0    0    0    0 -0.00000000000E+00 -0.00000000000E+00 -0.45593999997E+02  0.45594000000E+02  0.51100000000E-03 0.  1.
    9900012    2    1    2    0    0  0.19948316287E+02 -0.35192336371E+02 -0.40902016543E+01  0.50528860665E+02  0.30000002476E+02 0.  0.
         12    1    1    2    0    0 -0.19948316287E+02  0.35192336371E+02  0.40902016543E+01  0.40659139335E+02  0.00000000000E+00 0. -1.
         11    1    3    3    0    0 -0.64790251312E+00  0.76766854136E+00  0.99871218258E+00  0.14165164809E+01  0.51100000000E-03 0. -1.
        -11    1    3    3    0    0 -0.10130188638E+01 -0.11216364236E+02  0.79316893914E+01  0.13774786051E+02  0.51100000000E-03 0.  1.
        -12    1    3    3    0    0  0.21609237664E+02 -0.24743640676E+02 -0.13020603228E+02  0.35337558132E+02  0.00000000000E+00 0.  1.
</event>
<event>
 7    1  0.2744502E-011  0.5052886E+02  0.7816164E-02  0.1300439E+00
        -11   -1    0    0    0    0  0.00000000000E+00  0.00000000000E+00  0.45593999997E+02  0.45594000000E+02  0.51100000000E-03 0.  1.
         11   -1    0    0    0    0 -0.00000000000E+00 -0.00000000000E+00 -0.45593999997E+02  0.45594000000E+02  0.51100000000E-03 0. -1.
    9900012    2    1    2    0    0 -0.52399949620E+01 -0.30716943658E+02  0.26118533999E+02  0.50528855972E+02  0.29999988212E+02 0.  0.
         12    1    1    2    0    0  0.52399949620E+01  0.30716943658E+02 -0.26118533999E+02  0.40659144028E+02  0.00000000000E+00 0. -1.
         11    1    3    3    0    0 -0.56662218189E+01 -0.38203871985E+01  0.11682474146E+02  0.13534460850E+02  0.51100000000E-03 0. -1.
        -11    1    3    3    0    0 -0.49794111399E+01 -0.70833518773E+01  0.13989465418E+02  0.16452159496E+02  0.51100000000E-03 0.  1.
        -12    1    3    3    0    0  0.54056379969E+01 -0.19813204582E+02  0.44659443410E+00  0.20542235627E+02  0.00000000000E+00 0.  1.
</event>
<event>
 7    1  0.2744502E-011  0.5052886E+02  0.7816164E-02  0.1300439E+00
        -11   -1    0    0    0    0  0.00000000000E+00  0.00000000000E+00  0.45593999997E+02  0.45594000000E+02  0.51100000000E-03 0. -1.
         11   -1    0    0    0    0 -0.00000000000E+00 -0.00000000000E+00 -0.45593999997E+02  0.45594000000E+02  0.51100000000E-03 0.  1.
    9900012    2    1    2    0    0  0.11480277365E+01 -0.14639160350E+02 -0.37914941236E+02  0.50528858932E+02  0.29999997211E+02 0.  0.
         12    1    1    2    0    0 -0.11480277365E+01  0.14639160350E+02  0.37914941236E+02  0.40659141068E+02  0.00000000000E+00 0. -1.
         11    1    3    3    0    0  0.35642168085E+01 -0.57282398571E+01 -0.21366688890E+01  0.70768444607E+01  0.51100000000E-03 0. -1.
        -11    1    3    3    0    0  0.65106495411E+00 -0.96361175921E+01 -0.24352748816E+01  0.99603821128E+01  0.51100000000E-03 0.  1.
        -12    1    3    3    0    0 -0.30672540261E+01  0.72519709906E+00 -0.33342997465E+02  0.33491632359E+02  0.00000000000E+00 0.  1.
</event>
<event>
 7    1  0.2744502E-011  0.5052886E+02  0.7816164E-02  0.1300439E+00
        -11   -1    0    0    0    0  0.00000000000E+00  0.00000000000E+00  0.45593999997E+02  0.45594000000E+02  0.51100000000E-03 0. -1.
         11   -1    0    0    0    0 -0.00000000000E+00 -0.00000000000E+00 -0.45593999997E+02  0.45594000000E+02  0.51100000000E-03 0.  1.
    9900012    2    1    2    0    0  0.39284307370E+02 -0.10482467197E+02  0.16426544023E+00  0.50528857028E+02  0.29999991423E+02 0.  0.
         12    1    1    2    0    0 -0.39284307370E+02  0.10482467197E+02 -0.16426544023E+00  0.40659142972E+02  0.00000000000E+00 0. -1.
         11    1    3    3    0    0 -0.42759274857E+00  0.18263608329E+01  0.11139436403E+01  0.21815820281E+01  0.51100000000E-03 0. -1.
        -11    1    3    3    0    0  0.21261228504E+02  0.67431637992E+00  0.97238338604E+01  0.23389046267E+02  0.51100000000E-03 0.  1.
        -12    1    3    3    0    0  0.18450671615E+02 -0.12983144410E+02 -0.10673512060E+02  0.24958228733E+02  0.00000000000E+00 0.  1.
</event>
<event>
 7    1  0.2744502E-011  0.5052885E+02  0.7816164E-02  0.1300439E+00
        -11   -1    0    0    0    0  0.00000000000E+00  0.00000000000E+00  0.45593999997E+02  0.45594000000E+02  0.51100000000E-03 0.  1.
         11   -1    0    0    0    0 -0.00000000000E+00 -0.00000000000E+00 -0.45593999997E+02  0.45594000000E+02  0.51100000000E-03 0. -1.
    9900012    2    1    2    0    0 -0.32424550590E+02 -0.20055416535E+02  0.14127832714E+02  0.50528845182E+02  0.29999955415E+02 0.  0.
         12    1    1    2    0    0  0.32424550590E+02  0.20055416535E+02 -0.14127832714E+02  0.40659154818E+02  0.00000000000E+00 0. -1.
         11    1    3    3    0    0  0.42143796977E+01 -0.53211919934E+01 -0.52301636259E-01  0.67881379029E+01  0.51100000000E-03 0. -1.
        -11    1    3    3    0    0 -0.17047423084E+02 -0.41027160112E+00  0.47283930524E+01  0.17695780789E+02  0.51100000000E-03 0.  1.
        -12    1    3    3    0    0 -0.19591507203E+02 -0.14323952940E+02  0.94517412978E+01  0.26044926490E+02  0.00000000000E+00 0.  1.
</event>
<event>
 7    1  0.2744502E-011  0.5052888E+02  0.7816164E-02  0.1300439E+00
        -11   -1    0    0    0    0  0.00000000000E+00  0.00000000000E+00  0.45593999997E+02  0.45594000000E+02  0.51100000000E-03 0.  1.
         11   -1    0    0    0    0 -0.00000000000E+00 -0.00000000000E+00 -0.45593999997E+02  0.45594000000E+02  0.51100000000E-03 0. -1.
    9900012    2    1    2    0    0  0.15878854557E+02  0.70268434667E+01  0.36764786871E+02  0.50528879192E+02  0.30000058793E+02 0.  0.
         12    1    1    2    0    0 -0.15878854557E+02 -0.70268434667E+01 -0.36764786871E+02  0.40659120808E+02  0.00000000000E+00 0. -1.
         11    1    3    3    0    0 -0.10061707125E+01  0.13965029017E+01 -0.21369579979E+01  0.27439368803E+01  0.51100000000E-03 0. -1.
        -11    1    3    3    0    0  0.78455116579E+01  0.74883947364E+01  0.38027377389E+01  0.11492994539E+02  0.51100000000E-03 0.  1.
        -12    1    3    3    0    0  0.90395136120E+01 -0.18580541714E+01  0.35099007130E+02  0.36291947773E+02  0.00000000000E+00 0.  1.
</event>
<event>
 7    1  0.2744502E-011  0.5052886E+02  0.7816164E-02  0.1300439E+00
        -11   -1    0    0    0    0  0.00000000000E+00  0.00000000000E+00  0.45593999997E+02  0.45594000000E+02  0.51100000000E-03 0. -1.
         11   -1    0    0    0    0 -0.00000000000E+00 -0.00000000000E+00 -0.45593999997E+02  0.45594000000E+02  0.51100000000E-03 0.  1.
    9900012    2    1    2    0    0 -0.17184852515E+02  0.29507022654E+02 -0.22072194381E+02  0.50528864413E+02  0.30000013871E+02 0.  0.
         12    1    1    2    0    0  0.17184852515E+02 -0.29507022654E+02  0.22072194381E+02  0.40659135587E+02  0.00000000000E+00 0. -1.
         11    1    3    3    0    0 -0.67743669227E+01  0.52465343319E+01 -0.76204028251E+01  0.11466852627E+02  0.51100000000E-03 0. -1.
        -11    1    3    3    0    0 -0.14261745035E+02  0.19406035628E+02 -0.19564564478E+02  0.31028434923E+02  0.51100000000E-03 0.  1.
         12    1    3    3    0    0  0.38512594434E+01  0.48544526943E+01  0.51127729227E+01  0.80335768634E+01  0.00000000000E+00 0. -1.
</event>
<event>
 7    1  0.2744502E-011  0.5052886E+02  0.7816164E-02  0.1300439E+00
        -11   -1    0    0    0    0  0.00000000000E+00  0.00000000000E+00  0.45593999997E+02  0.45594000000E+02  0.51100000000E-03 0.  1.
         11   -1    0    0    0    0 -0.00000000000E+00 -0.00000000000E+00 -0.45593999997E+02  0.45594000000E+02  0.51100000000E-03 0. -1.
    9900012    2    1    2    0    0  0.39530687774E+02 -0.52200866645E+01  0.79524443991E+01  0.50528856470E+02  0.29999989725E+02 0.  0.
         12    1    1    2    0    0 -0.39530687774E+02  0.52200866645E+01 -0.79524443991E+01  0.40659143530E+02  0.00000000000E+00 0. -1.
         11    1    3    3    0    0  0.20686115097E+02 -0.43736027642E+01 -0.24809296450E+01  0.21288465682E+02  0.51100000000E-03 0. -1.
        -11    1    3    3    0    0  0.17796981064E+02 -0.81001227010E+01  0.51952758821E+01  0.20232039307E+02  0.51100000000E-03 0.  1.
         12    1    3    3    0    0  0.10475916133E+01  0.72536388007E+01  0.52380981619E+01  0.90083514804E+01  0.00000000000E+00 0. -1.
</event>
<event>
 7    1  0.2744502E-011  0.5052886E+02  0.7816164E-02  0.1300439E+00
        -11   -1    0    0    0    0  0.00000000000E+00  0.00000000000E+00  0.45593999997E+02  0.45594000000E+02  0.51100000000E-03 0.  1.
         11   -1    0    0    0    0 -0.00000000000E+00 -0.00000000000E+00 -0.45593999997E+02  0.45594000000E+02  0.51100000000E-03 0. -1.
    9900012    2    1    2    0    0  0.27594027557E+02  0.29566693256E+02 -0.41888303218E+01  0.50528855808E+02  0.29999987715E+02 0.  0.
         12    1    1    2    0    0 -0.27594027557E+02 -0.29566693256E+02  0.41888303218E+01  0.40659144192E+02  0.00000000000E+00 0. -1.
         11    1    3    3    0    0  0.13927275887E+02  0.10316417043E+02  0.54851704874E+01  0.18179234576E+02  0.51100000000E-03 0. -1.
        -11    1    3    3    0    0  0.13151500857E+02  0.17683300371E+02  0.49938467909E+00  0.22043377058E+02  0.51100000000E-03 0.  1.
         12    1    3    3    0    0  0.51525081341E+00  0.15669758426E+01 -0.10173385488E+02  0.10306244175E+02  0.00000000000E+00 0. -1.
</event>
<event>
 7    1  0.2744502E-011  0.5052886E+02  0.7816164E-02  0.1300439E+00
        -11   -1    0    0    0    0  0.00000000000E+00  0.00000000000E+00  0.45593999997E+02  0.45594000000E+02  0.51100000000E-03 0.  1.
         11   -1    0    0    0    0 -0.00000000000E+00 -0.00000000000E+00 -0.45593999997E+02  0.45594000000E+02  0.51100000000E-03 0. -1.
    9900012    2    1    2    0    0 -0.13976404275E+02 -0.32113331168E+02 -0.20653325817E+02  0.50528858562E+02  0.29999996084E+02 0.  0.
         12    1    1    2    0    0  0.13976404275E+02  0.32113331168E+02  0.20653325817E+02  0.40659141438E+02  0.00000000000E+00 0. -1.
         11    1    3    3    0    0 -0.15283707220E+00 -0.16588506518E+02 -0.17661971578E+01  0.16682966173E+02  0.51100000000E-03 0. -1.
        -11    1    3    3    0    0  0.38412495294E+01 -0.76024414500E+01 -0.39277853959E+01  0.93797554512E+01  0.51100000000E-03 0.  1.
         12    1    3    3    0    0 -0.17664816733E+02 -0.79223832001E+01 -0.14959343263E+02  0.24466136937E+02  0.00000000000E+00 0. -1.
</event>
<event>
 7    1  0.2744502E-011  0.5052886E+02  0.7816164E-02  0.1300439E+00
        -11   -1    0    0    0    0  0.00000000000E+00  0.00000000000E+00  0.45593999997E+02  0.45594000000E+02  0.51100000000E-03 0.  1.
         11   -1    0    0    0    0 -0.00000000000E+00 -0.00000000000E+00 -0.45593999997E+02  0.45594000000E+02  0.51100000000E-03 0. -1.
    9900012    2    1    2    0    0 -0.28432421130E+02 -0.14064572494E+01  0.29030752424E+02  0.50528864746E+02  0.30000014882E+02 0.  0.
         12    1    1    2    0    0  0.28432421130E+02  0.14064572494E+01 -0.29030752424E+02  0.40659135254E+02  0.00000000000E+00 0. -1.
         11    1    3    3    0    0 -0.16726044676E+02 -0.21828800012E+01  0.18214906841E+02  0.24825558746E+02  0.51100000000E-03 0. -1.
        -11    1    3    3    0    0 -0.84585559222E+01 -0.29518990843E+01  0.16126036481E+02  0.18447491139E+02  0.51100000000E-03 0.  1.
         12    1    3    3    0    0 -0.32478205317E+01  0.37283218361E+01 -0.53101908973E+01  0.72558148602E+01  0.00000000000E+00 0. -1.
</event>
<event>
 7    1  0.2744502E-011  0.5052889E+02  0.7816164E-02  0.1300439E+00
        -11   -1    0    0    0    0  0.00000000000E+00  0.00000000000E+00  0.45593999997E+02  0.45594000000E+02  0.51100000000E-03 0.  1.
         11   -1    0    0    0    0 -0.00000000000E+00 -0.00000000000E+00 -0.45593999997E+02  0.45594000000E+02  0.51100000000E-03 0. -1.
    9900012    2    1    2    0    0 -0.10096083844E+02  0.37319791635E+02 -0.12588305368E+02  0.50528890459E+02  0.30000093038E+02 0.  0.
         12    1    1    2    0    0  0.10096083844E+02 -0.37319791635E+02  0.12588305368E+02  0.40659109541E+02  0.00000000000E+00 0. -1.
         11    1    3    3    0    0 -0.53805700385E+01  0.37319329714E+01 -0.73853368726E+00  0.65896350362E+01  0.51100000000E-03 0. -1.
        -11    1    3    3    0    0 -0.10458131163E+02  0.31250264307E+02 -0.29402468341E+01  0.33084687975E+02  0.51100000000E-03 0.  1.
         12    1    3    3    0    0  0.57426173568E+01  0.23375943563E+01 -0.89095248468E+01  0.10854567448E+02  0.00000000000E+00 0. -1.
</event>
<event>
 7    1  0.2744502E-011  0.5052887E+02  0.7816164E-02  0.1300439E+00
        -11   -1    0    0    0    0  0.00000000000E+00  0.00000000000E+00  0.45593999997E+02  0.45594000000E+02  0.51100000000E-03 0.  1.
         11   -1    0    0    0    0 -0.00000000000E+00 -0.00000000000E+00 -0.45593999997E+02  0.45594000000E+02  0.51100000000E-03 0. -1.
    9900012    2    1    2    0    0  0.18763515388E+02 -0.15916494446E+02  0.32369127602E+02  0.50528871543E+02  0.30000035542E+02 0.  0.
         12    1    1    2    0    0 -0.18763515388E+02  0.15916494446E+02 -0.32369127602E+02  0.40659128457E+02  0.00000000000E+00 0. -1.
         11    1    3    3    0    0  0.20069731280E+02 -0.19804307128E+01  0.14151423977E+02  0.24636944215E+02  0.51100000000E-03 0. -1.
        -11    1    3    3    0    0  0.49646255642E+01 -0.38750022684E+01  0.43852676947E+01  0.76742245595E+01  0.51100000000E-03 0.  1.
        -12    1    3    3    0    0 -0.62708414561E+01 -0.10061061465E+02  0.13832435931E+02  0.18217702768E+02  0.00000000000E+00 0.  1.
</event>
<event>
 7    1  0.2744502E-011  0.5052884E+02  0.7816164E-02  0.1300439E+00
        -11   -1    0    0    0    0  0.00000000000E+00  0.00000000000E+00  0.45593999997E+02  0.45594000000E+02  0.51100000000E-03 0. -1.
         11   -1    0    0    0    0 -0.00000000000E+00 -0.00000000000E+00 -0.45593999997E+02  0.45594000000E+02  0.51100000000E-03 0.  1.
    9900012    2    1    2    0    0  0.22080074834E+01  0.27889199510E+01 -0.40503262072E+02  0.50528836088E+02  0.29999927775E+02 0.  0.
         12    1    1    2    0    0 -0.22080074834E+01 -0.27889199510E+01  0.40503262072E+02  0.40659163912E+02  0.00000000000E+00 0. -1.
         11    1    3    3    0    0  0.33213350829E+01  0.78994701273E+01 -0.33756353452E+02  0.34827062662E+02  0.51100000000E-03 0.  1.
        -11    1    3    3    0    0  0.16806722746E+00 -0.57544608217E+00 -0.99727819319E+01  0.99907839787E+01  0.51100000000E-03 0. -1.
         12    1    3    3    0    0 -0.12813948270E+01 -0.45351040941E+01  0.32258733122E+01  0.57109894479E+01  0.00000000000E+00 0. -1.
</event>
<event>
 7    1  0.2744502E-011  0.5052887E+02  0.7816164E-02  0.1300439E+00
        -11   -1    0    0    0    0  0.00000000000E+00  0.00000000000E+00  0.45593999997E+02  0.45594000000E+02  0.51100000000E-03 0. -1.
         11   -1    0    0    0    0 -0.00000000000E+00 -0.00000000000E+00 -0.45593999997E+02  0.45594000000E+02  0.51100000000E-03 0.  1.
    9900012    2    1    2    0    0 -0.81402353878E+01 -0.36965784845E+02  0.14846964756E+02  0.50528867645E+02  0.30000023694E+02 0.  0.
         12    1    1    2    0    0  0.81402353878E+01  0.36965784845E+02 -0.14846964756E+02  0.40659132355E+02  0.00000000000E+00 0. -1.
         11    1    3    3    0    0  0.55067879401E+01 -0.32631102777E+01  0.12943610555E+01  0.65305415476E+01  0.51100000000E-03 0. -1.
        -11    1    3    3    0    0 -0.19825163994E+01  0.22811926831E+01  0.39457844038E+01  0.49702541337E+01  0.51100000000E-03 0.  1.
        -12    1    3    3    0    0 -0.11664506928E+02 -0.35983867251E+02  0.96068192966E+01  0.39028071964E+02  0.00000000000E+00 0.  1.
</event>
<event>
 7    1  0.2744502E-011  0.5052890E+02  0.7816164E-02  0.1300439E+00
        -11   -1    0    0    0    0  0.00000000000E+00  0.00000000000E+00  0.45593999997E+02  0.45594000000E+02  0.51100000000E-03 0.  1.
         11   -1    0    0    0    0 -0.00000000000E+00 -0.00000000000E+00 -0.45593999997E+02  0.45594000000E+02  0.51100000000E-03 0. -1.
    9900012    2    1    2    0    0 -0.50464651844E+01 -0.85837417818E+01  0.39420999100E+02  0.50528897651E+02  0.30000114899E+02 0.  0.
         12    1    1    2    0    0  0.50464651844E+01  0.85837417818E+01 -0.39420999100E+02  0.40659102349E+02  0.00000000000E+00 0. -1.
         11    1    3    3    0    0 -0.51710198995E+00 -0.29342152978E+01  0.13990478775E+01  0.32915572464E+01  0.51100000000E-03 0. -1.
        -11    1    3    3    0    0 -0.55096530715E+01 -0.15940043744E+02  0.17766987560E+02  0.24497083883E+02  0.51100000000E-03 0.  1.
         12    1    3    3    0    0  0.98028987703E+00  0.10290517260E+02  0.20254963662E+02  0.22740256522E+02  0.00000000000E+00 0. -1.
</event>
<event>
 7    1  0.2744502E-011  0.5052886E+02  0.7816164E-02  0.1300439E+00
        -11   -1    0    0    0    0  0.00000000000E+00  0.00000000000E+00  0.45593999997E+02  0.45594000000E+02  0.51100000000E-03 0.  1.
         11   -1    0    0    0    0 -0.00000000000E+00 -0.00000000000E+00 -0.45593999997E+02  0.45594000000E+02  0.51100000000E-03 0. -1.
    9900012    2    1    2    0    0 -0.64530597858E+01  0.17515419048E+01  0.40105553153E+02  0.50528864823E+02  0.30000015117E+02 0.  0.
         12    1    1    2    0    0  0.64530597858E+01 -0.17515419048E+01 -0.40105553153E+02  0.40659135177E+02  0.00000000000E+00 0. -1.
         11    1    3    3    0    0 -0.48247042476E+00  0.48174845465E+01  0.59791986807E+01  0.76936176270E+01  0.51100000000E-03 0. -1.
        -11    1    3    3    0    0  0.35092701885E+01  0.59843593687E+01  0.27080671364E+02  0.27955147935E+02  0.51100000000E-03 0.  1.
         12    1    3    3    0    0 -0.94798595496E+01 -0.90503020104E+01  0.70456831081E+01  0.14880099261E+02  0.00000000000E+00 0. -1.
</event>
<event>
 7    1  0.2744502E-011  0.5052886E+02  0.7816164E-02  0.1300439E+00
        -11   -1    0    0    0    0  0.00000000000E+00  0.00000000000E+00  0.45593999997E+02  0.45594000000E+02  0.51100000000E-03 0.  1.
         11   -1    0    0    0    0 -0.00000000000E+00 -0.00000000000E+00 -0.45593999997E+02  0.45594000000E+02  0.51100000000E-03 0. -1.
    9900012    2    1    2    0    0  0.13375652878E+02 -0.24765487082E+01  0.38316106165E+02  0.50528863572E+02  0.30000011314E+02 0.  0.
         12    1    1    2    0    0 -0.13375652878E+02  0.24765487082E+01 -0.38316106165E+02  0.40659136428E+02  0.00000000000E+00 0. -1.
         11    1    3    3    0    0  0.94420107320E+01 -0.36819743297E+01  0.26055522750E+01  0.10464100752E+02  0.51100000000E-03 0. -1.
        -11    1    3    3    0    0  0.87095219164E+01  0.71939961337E+00  0.77050566996E+01  0.11650802840E+02  0.51100000000E-03 0.  1.
        -12    1    3    3    0    0 -0.47758797703E+01  0.48602600814E+00  0.28005497190E+02  0.28413959980E+02  0.00000000000E+00 0.  1.
</event>
<event>
 7    1  0.2744502E-011  0.5052886E+02  0.7816164E-02  0.1300439E+00
        -11   -1    0    0    0    0  0.00000000000E+00  0.00000000000E+00  0.45593999997E+02  0.45594000000E+02  0.51100000000E-03 0.  1.
         11   -1    0    0    0    0 -0.00000000000E+00 -0.00000000000E+00 -0.45593999997E+02  0.45594000000E+02  0.51100000000E-03 0. -1.
    9900012    2    1    2    0    0  0.72736456068E+01  0.39305990988E+02  0.74363309121E+01  0.50528857542E+02  0.29999992985E+02 0.  0.
         12    1    1    2    0    0 -0.72736456068E+01 -0.39305990988E+02 -0.74363309121E+01  0.40659142458E+02  0.00000000000E+00 0. -1.
         11    1    3    3    0    0 -0.46837094820E+00  0.21034950704E+01 -0.14685758973E+01  0.26078301869E+01  0.51100000000E-03 0. -1.
        -11    1    3    3    0    0  0.22116428460E+01  0.38516623003E+02  0.15309504996E+01  0.38610431509E+02  0.51100000000E-03 0.  1.
         12    1    3    3    0    0  0.55303737090E+01 -0.13141270847E+01  0.73739563098E+01  0.93105958464E+01  0.00000000000E+00 0. -1.
</event>
<event>
 7    1  0.2744502E-011  0.5052887E+02  0.7816164E-02  0.1300439E+00
        -11   -1    0    0    0    0  0.00000000000E+00  0.00000000000E+00  0.45593999997E+02  0.45594000000E+02  0.51100000000E-03 0. -1.
         11   -1    0    0    0    0 -0.00000000000E+00 -0.00000000000E+00 -0.45593999997E+02  0.45594000000E+02  0.51100000000E-03 0.  1.
    9900012    2    1    2    0    0  0.35178727653E+02  0.10275234760E+02 -0.17607992948E+02  0.50528871329E+02  0.30000034891E+02 0.  0.
         12    1    1    2    0    0 -0.35178727653E+02 -0.10275234760E+02  0.17607992948E+02  0.40659128671E+02  0.00000000000E+00 0. -1.
         11    1    3    3    0    0 -0.38942704849E+01 -0.70453392342E+00 -0.43325452730E+00  0.39811330555E+01  0.51100000000E-03 0. -1.
        -11    1    3    3    0    0  0.30515041024E+02  0.39848113703E+01 -0.70785198479E+01  0.31577711979E+02  0.51100000000E-03 0.  1.
        -12    1    3    3    0    0  0.85579571143E+01  0.69949573133E+01 -0.10096218572E+02  0.14970026294E+02  0.00000000000E+00 0.  1.
</event>
<event>
 7    1  0.2744502E-011  0.5052888E+02  0.7816164E-02  0.1300439E+00
        -11   -1    0    0    0    0  0.00000000000E+00  0.00000000000E+00  0.45593999997E+02  0.45594000000E+02  0.51100000000E-03 0.  1.
         11   -1    0    0    0    0 -0.00000000000E+00 -0.00000000000E+00 -0.45593999997E+02  0.45594000000E+02  0.51100000000E-03 0. -1.
    9900012    2    1    2    0    0 -0.70977799305E+01  0.32483018264E+02  0.23401694684E+02  0.50528877167E+02  0.30000052637E+02 0.  0.
         12    1    1    2    0    0  0.70977799305E+01 -0.32483018264E+02 -0.23401694684E+02  0.40659122833E+02  0.00000000000E+00 0. -1.
         11    1    3    3    0    0 -0.40070936197E+01  0.13841009924E+01  0.74689533267E+01  0.85882360756E+01  0.51100000000E-03 0. -1.
        -11    1    3    3    0    0  0.43079546427E+01 -0.10345570443E+01  0.60855384027E+01  0.75274537124E+01  0.51100000000E-03 0.  1.
         12    1    3    3    0    0 -0.73986409535E+01  0.32133474315E+02  0.98472029549E+01  0.34413187379E+02  0.00000000000E+00 0. -1.
</event>
<event>
 7    1  0.2744502E-011  0.5052882E+02  0.7816164E-02  0.1300439E+00
        -11   -1    0    0    0    0  0.00000000000E+00  0.00000000000E+00  0.45593999997E+02  0.45594000000E+02  0.51100000000E-03 0.  1.
         11   -1    0    0    0    0 -0.00000000000E+00 -0.00000000000E+00 -0.45593999997E+02  0.45594000000E+02  0.51100000000E-03 0. -1.
    9900012    2    1    2    0    0  0.15090003517E+02  0.14536626811E+02  0.34844613767E+02  0.50528821039E+02  0.29999882031E+02 0.  0.
         12    1    1    2    0    0 -0.15090003517E+02 -0.14536626811E+02 -0.34844613767E+02  0.40659178961E+02  0.00000000000E+00 0. -1.
         11    1    3    3    0    0  0.59509630565E+01  0.46422563752E+00  0.27006322002E+01  0.65515556385E+01  0.51100000000E-03 0. -1.
        -11    1    3    3    0    0  0.16554434857E+02  0.39473852109E+01  0.22156242199E+02  0.27937971152E+02  0.51100000000E-03 0.  1.
         12    1    3    3    0    0 -0.74153943974E+01  0.10125015963E+02  0.99877393683E+01  0.16039294249E+02  0.00000000000E+00 0. -1.
</event>
<event>
 7    1  0.2744502E-011  0.5052886E+02  0.7816164E-02  0.1300439E+00
        -11   -1    0    0    0    0  0.00000000000E+00  0.00000000000E+00  0.45593999997E+02  0.45594000000E+02  0.51100000000E-03 0.  1.
         11   -1    0    0    0    0 -0.00000000000E+00 -0.00000000000E+00 -0.45593999997E+02  0.45594000000E+02  0.51100000000E-03 0. -1.
    9900012    2    1    2    0    0 -0.14364731793E+02  0.12403825380E+01  0.38016864426E+02  0.50528855283E+02  0.29999986119E+02 0.  0.
         12    1    1    2    0    0  0.14364731793E+02 -0.12403825380E+01 -0.38016864426E+02  0.40659144717E+02  0.00000000000E+00 0. -1.
         11    1    3    3    0    0 -0.19151300552E+01  0.51307985184E+01 -0.13834020596E+01  0.56485943458E+01  0.51100000000E-03 0. -1.
        -11    1    3    3    0    0 -0.10861096661E+02 -0.55864339747E+01  0.11159541057E+02  0.16544093269E+02  0.51100000000E-03 0.  1.
        -12    1    3    3    0    0 -0.15885050777E+01  0.16960179943E+01  0.28240725428E+02  0.28336167669E+02  0.00000000000E+00 0.  1.
</event>
<event>
 7    1  0.2744502E-011  0.5052886E+02  0.7816164E-02  0.1300439E+00
        -11   -1    0    0    0    0  0.00000000000E+00  0.00000000000E+00  0.45593999997E+02  0.45594000000E+02  0.51100000000E-03 0.  1.
         11   -1    0    0    0    0 -0.00000000000E+00 -0.00000000000E+00 -0.45593999997E+02  0.45594000000E+02  0.51100000000E-03 0. -1.
    9900012    2    1    2    0    0 -0.16324501545E+02 -0.33495611880E+02  0.16270218228E+02  0.50528863670E+02  0.30000011610E+02 0.  0.
         12    1    1    2    0    0  0.16324501545E+02  0.33495611880E+02 -0.16270218228E+02  0.40659136330E+02  0.00000000000E+00 0. -1.
         11    1    3    3    0    0 -0.16293196095E+02 -0.84856391792E+01  0.10823177212E+02  0.21321713733E+02  0.51100000000E-03 0. -1.
        -11    1    3    3    0    0  0.16629721137E+01 -0.79964150501E+01  0.85566486577E+01  0.11828963032E+02  0.51100000000E-03 0.  1.
         12    1    3    3    0    0 -0.16942775634E+01 -0.17013557651E+02 -0.31096076413E+01  0.17378186905E+02  0.00000000000E+00 0. -1.
</event>
<event>
 7    1  0.2744502E-011  0.5052886E+02  0.7816164E-02  0.1300439E+00
        -11   -1    0    0    0    0  0.00000000000E+00  0.00000000000E+00  0.45593999997E+02  0.45594000000E+02  0.51100000000E-03 0.  1.
         11   -1    0    0    0    0 -0.00000000000E+00 -0.00000000000E+00 -0.45593999997E+02  0.45594000000E+02  0.51100000000E-03 0. -1.
    9900012    2    1    2    0    0 -0.15577476014E+02 -0.30919325470E+02  0.21319087181E+02  0.50528856813E+02  0.29999990768E+02 0.  0.
         12    1    1    2    0    0  0.15577476014E+02  0.30919325470E+02 -0.21319087181E+02  0.40659143187E+02  0.00000000000E+00 0. -1.
         11    1    3    3    0    0 -0.42087268841E+01 -0.35717522663E+01  0.24473216310E+01  0.60382265330E+01  0.51100000000E-03 0. -1.
        -11    1    3    3    0    0 -0.12627890035E+02 -0.31559941521E+02  0.20621717686E+02  0.39758631216E+02  0.51100000000E-03 0.  1.
         12    1    3    3    0    0  0.12591409050E+01  0.42123683173E+01 -0.17499521366E+01  0.47319990638E+01  0.00000000000E+00 0. -1.
</event>
<event>
 7    1  0.2744502E-011  0.5052880E+02  0.7816164E-02  0.1300439E+00
        -11   -1    0    0    0    0  0.00000000000E+00  0.00000000000E+00  0.45593999997E+02  0.45594000000E+02  0.51100000000E-03 0.  1.
         11   -1    0    0    0    0 -0.00000000000E+00 -0.00000000000E+00 -0.45593999997E+02  0.45594000000E+02  0.51100000000E-03 0. -1.
    9900012    2    1    2    0    0  0.29857222880E+02 -0.18275566969E+02  0.20681406329E+02  0.50528798410E+02  0.29999813248E+02 0.  0.
         12    1    1    2    0    0 -0.29857222880E+02  0.18275566969E+02 -0.20681406329E+02  0.40659201590E+02  0.00000000000E+00 0. -1.
         11    1    3    3    0    0  0.13245791999E+01 -0.53987996032E+01  0.90376060449E+01  0.10610366181E+02  0.51100000000E-03 0. -1.
        -11    1    3    3    0    0  0.54963512792E+00 -0.85876526656E+01 -0.14511407011E+01  0.87267225620E+01  0.51100000000E-03 0.  1.
        -12    1    3    3    0    0  0.27983008552E+02 -0.42891146999E+01  0.13094940986E+02  0.31191709667E+02  0.00000000000E+00 0.  1.
</event>
<event>
 7    1  0.2744502E-011  0.5052885E+02  0.7816164E-02  0.1300439E+00
        -11   -1    0    0    0    0  0.00000000000E+00  0.00000000000E+00  0.45593999997E+02  0.45594000000E+02  0.51100000000E-03 0.  1.
         11   -1    0    0    0    0 -0.00000000000E+00 -0.00000000000E+00 -0.45593999997E+02  0.45594000000E+02  0.51100000000E-03 0. -1.
    9900012    2    1    2    0    0  0.22259546447E+01  0.10748975359E+02  0.39149339349E+02  0.50528854450E+02  0.29999983587E+02 0.  0.
         12    1    1    2    0    0 -0.22259546447E+01 -0.10748975359E+02 -0.39149339349E+02  0.40659145550E+02  0.00000000000E+00 0. -1.
         11    1    3    3    0    0  0.92213420528E+00  0.10976654646E+02  0.56496712296E+01  0.12379663322E+02  0.51100000000E-03 0. -1.
        -11    1    3    3    0    0  0.63498934949E+01  0.25403673997E+01  0.36549119718E+01  0.77545467762E+01  0.51100000000E-03 0.  1.
        -12    1    3    3    0    0 -0.50460730555E+01 -0.27680466868E+01  0.29844756148E+02  0.30394644352E+02  0.00000000000E+00 0.  1.
</event>
<event>
 7    1  0.2744502E-011  0.5052886E+02  0.7816164E-02  0.1300439E+00
        -11   -1    0    0    0    0  0.00000000000E+00  0.00000000000E+00  0.45593999997E+02  0.45594000000E+02  0.51100000000E-03 0.  1.
         11   -1    0    0    0    0 -0.00000000000E+00 -0.00000000000E+00 -0.45593999997E+02  0.45594000000E+02  0.51100000000E-03 0. -1.
    9900012    2    1    2    0    0  0.81141522438E+01  0.28622211379E+02  0.27714532594E+02  0.50528858743E+02  0.29999996636E+02 0.  0.
         12    1    1    2    0    0 -0.81141522438E+01 -0.28622211379E+02 -0.27714532594E+02  0.40659141257E+02  0.00000000000E+00 0. -1.
         11    1    3    3    0    0 -0.45693324817E+00  0.11857215889E+02  0.38645330870E+01  0.12479462042E+02  0.51100000000E-03 0. -1.
        -11    1    3    3    0    0  0.57256175033E+01  0.17266315472E+02  0.48436616853E+01  0.18824701978E+02  0.51100000000E-03 0.  1.
         12    1    3    3    0    0  0.28454679887E+01 -0.50131998243E+00  0.19006337822E+02  0.19224694723E+02  0.00000000000E+00 0. -1.
</event>
<event>
 7    1  0.2744502E-011  0.5052882E+02  0.7816164E-02  0.1300439E+00
        -11   -1    0    0    0    0  0.00000000000E+00  0.00000000000E+00  0.45593999997E+02  0.45594000000E+02  0.51100000000E-03 0.  1.
         11   -1    0    0    0    0 -0.00000000000E+00 -0.00000000000E+00 -0.45593999997E+02  0.45594000000E+02  0.51100000000E-03 0. -1.
    9900012    2    1    2    0    0 -0.16662249446E+02  0.91451843171E+01  0.35943061434E+02  0.50528823692E+02  0.29999890094E+02 0.  0.
         12    1    1    2    0    0  0.16662249446E+02 -0.91451843171E+01 -0.35943061434E+02  0.40659176308E+02  0.00000000000E+00 0. -1.
         11    1    3    3    0    0  0.10724163564E+01  0.91173043505E+01  0.94756090622E+01  0.13193274151E+02  0.51100000000E-03 0. -1.
        -11    1    3    3    0    0 -0.10219160878E+02  0.96764662203E+01  0.15033432857E+02  0.20592944211E+02  0.51100000000E-03 0.  1.
         12    1    3    3    0    0 -0.75155049244E+01 -0.96485862538E+01  0.11434019515E+02  0.16742605330E+02  0.00000000000E+00 0. -1.
</event>
<event>
 7    1  0.2744502E-011  0.5052886E+02  0.7816164E-02  0.1300439E+00
        -11   -1    0    0    0    0  0.00000000000E+00  0.00000000000E+00  0.45593999997E+02  0.45594000000E+02  0.51100000000E-03 0. -1.
         11   -1    0    0    0    0 -0.00000000000E+00 -0.00000000000E+00 -0.45593999997E+02  0.45594000000E+02  0.51100000000E-03 0.  1.
    9900012    2    1    2    0    0 -0.82891714272E+01 -0.10208426483E+02 -0.38473926958E+02  0.50528863391E+02  0.30000010764E+02 0.  0.
         12    1    1    2    0    0  0.82891714272E+01  0.10208426483E+02  0.38473926958E+02  0.40659136609E+02  0.00000000000E+00 0. -1.
         11    1    3    3    0    0 -0.42843644357E+01  0.14820220960E+01 -0.21075348647E+02  0.21557423060E+02  0.51100000000E-03 0. -1.
        -11    1    3    3    0    0 -0.11558632664E+02 -0.90408381836E+01 -0.13977663302E+02  0.20266075490E+02  0.51100000000E-03 0.  1.
         12    1    3    3    0    0  0.75538256722E+01 -0.26496103954E+01 -0.34209150084E+01  0.87053648418E+01  0.00000000000E+00 0. -1.
</event>
<event>
 7    1  0.2744502E-011  0.5052880E+02  0.7816164E-02  0.1300439E+00
        -11   -1    0    0    0    0  0.00000000000E+00  0.00000000000E+00  0.45593999997E+02  0.45594000000E+02  0.51100000000E-03 0. -1.
         11   -1    0    0    0    0 -0.00000000000E+00 -0.00000000000E+00 -0.45593999997E+02  0.45594000000E+02  0.51100000000E-03 0.  1.
    9900012    2    1    2    0    0 -0.21898263341E+02 -0.23543588873E+02 -0.24886457896E+02  0.50528802996E+02  0.29999827186E+02 0.  0.
         12    1    1    2    0    0  0.21898263341E+02  0.23543588873E+02  0.24886457896E+02  0.40659197004E+02  0.00000000000E+00 0. -1.
         11    1    3    3    0    0 -0.38798925378E+00 -0.17451738013E+01  0.94605709333E+00  0.20226694101E+01  0.51100000000E-03 0. -1.
        -11    1    3    3    0    0 -0.26930074468E+02 -0.21852888683E+02 -0.18261982018E+02  0.39195377816E+02  0.51100000000E-03 0.  1.
        -12    1    3    3    0    0  0.54198003803E+01  0.54473611795E-01 -0.75705329714E+01  0.93107557700E+01  0.00000000000E+00 0.  1.
</event>
<event>
 7    1  0.2744502E-011  0.5052887E+02  0.7816164E-02  0.1300439E+00
        -11   -1    0    0    0    0  0.00000000000E+00  0.00000000000E+00  0.45593999997E+02  0.45594000000E+02  0.51100000000E-03 0.  1.
         11   -1    0    0    0    0 -0.00000000000E+00 -0.00000000000E+00 -0.45593999997E+02  0.45594000000E+02  0.51100000000E-03 0. -1.
    9900012    2    1    2    0    0 -0.44282957571E+01  0.10325643641E+02  0.39076030099E+02  0.50528870051E+02  0.30000031008E+02 0.  0.
         12    1    1    2    0    0  0.44282957571E+01 -0.10325643641E+02 -0.39076030099E+02  0.40659129949E+02  0.00000000000E+00 0. -1.
         11    1    3    3    0    0 -0.37413235724E+00 -0.54055595785E+01  0.10640659420E+01  0.55219820687E+01  0.51100000000E-03 0. -1.
        -11    1    3    3    0    0  0.12607989045E+01  0.40721402471E+01  0.29072334825E+02  0.29383202557E+02  0.51100000000E-03 0.  1.
         12    1    3    3    0    0 -0.53149623043E+01  0.11659062972E+02  0.89396293316E+01  0.15623685425E+02  0.00000000000E+00 0. -1.
</event>
<event>
 7    1  0.2744502E-011  0.5052890E+02  0.7816164E-02  0.1300439E+00
        -11   -1    0    0    0    0  0.00000000000E+00  0.00000000000E+00  0.45593999997E+02  0.45594000000E+02  0.51100000000E-03 0.  1.
         11   -1    0    0    0    0 -0.00000000000E+00 -0.00000000000E+00 -0.45593999997E+02  0.45594000000E+02  0.51100000000E-03 0. -1.
    9900012    2    1    2    0    0  0.33857207254E+02  0.89295998827E+01  0.20666741913E+02  0.50528899440E+02  0.30000120337E+02 0.  0.
         12    1    1    2    0    0 -0.33857207254E+02 -0.89295998827E+01 -0.20666741913E+02  0.40659100560E+02  0.00000000000E+00 0. -1.
         11    1    3    3    0    0  0.12661202694E+02  0.61571498503E+01  0.95548077613E+01  0.17015019823E+02  0.51100000000E-03 0. -1.
        -11    1    3    3    0    0  0.14843127491E+02  0.10305776128E+02  0.14420566880E+02  0.23118827927E+02  0.51100000000E-03 0.  1.
         12    1    3    3    0    0  0.63528770686E+01 -0.75333260955E+01 -0.33086327286E+01  0.10395051690E+02  0.00000000000E+00 0. -1.
</event>
<event>
 7    1  0.2744502E-011  0.5052884E+02  0.7816164E-02  0.1300439E+00
        -11   -1    0    0    0    0  0.00000000000E+00  0.00000000000E+00  0.45593999997E+02  0.45594000000E+02  0.51100000000E-03 0.  1.
         11   -1    0    0    0    0 -0.00000000000E+00 -0.00000000000E+00 -0.45593999997E+02  0.45594000000E+02  0.51100000000E-03 0. -1.
    9900012    2    1    2    0    0  0.18585802630E+02  0.34454479004E+02  0.10982888864E+02  0.50528843213E+02  0.29999949431E+02 0.  0.
         12    1    1    2    0    0 -0.18585802630E+02 -0.34454479004E+02 -0.10982888864E+02  0.40659156787E+02  0.00000000000E+00 0. -1.
         11    1    3    3    0    0  0.12262714574E+02  0.13232031205E+02 -0.27920441247E+01  0.18255309616E+02  0.51100000000E-03 0. -1.
        -11    1    3    3    0    0  0.10784398148E+02  0.42800325040E+01  0.44519789481E+01  0.12427471122E+02  0.51100000000E-03 0.  1.
        -12    1    3    3    0    0 -0.44613100919E+01  0.16942415294E+02  0.93229540403E+01  0.19846062475E+02  0.00000000000E+00 0.  1.
</event>
<event>
 7    1  0.2744502E-011  0.5052888E+02  0.7816164E-02  0.1300439E+00
        -11   -1    0    0    0    0  0.00000000000E+00  0.00000000000E+00  0.45593999997E+02  0.45594000000E+02  0.51100000000E-03 0.  1.
         11   -1    0    0    0    0 -0.00000000000E+00 -0.00000000000E+00 -0.45593999997E+02  0.45594000000E+02  0.51100000000E-03 0. -1.
    9900012    2    1    2    0    0 -0.32319230634E+02  0.18096750076E+02  0.16767200655E+02  0.50528879868E+02  0.30000060847E+02 0.  0.
         12    1    1    2    0    0  0.32319230634E+02 -0.18096750076E+02 -0.16767200655E+02  0.40659120132E+02  0.00000000000E+00 0. -1.
         11    1    3    3    0    0  0.26550102193E+01  0.64186157447E+01  0.80851847214E+01  0.10659170680E+02  0.51100000000E-03 0. -1.
        -11    1    3    3    0    0 -0.14378193905E+02 -0.46524668031E+00  0.67260466496E+01  0.15880447671E+02  0.51100000000E-03 0.  1.
        -12    1    3    3    0    0 -0.20596046949E+02  0.12143381012E+02  0.19559692845E+01  0.23989261517E+02  0.00000000000E+00 0.  1.
</event>
<event>
 7    1  0.2744502E-011  0.5052889E+02  0.7816164E-02  0.1300439E+00
        -11   -1    0    0    0    0  0.00000000000E+00  0.00000000000E+00  0.45593999997E+02  0.45594000000E+02  0.51100000000E-03 0. -1.
         11   -1    0    0    0    0 -0.00000000000E+00 -0.00000000000E+00 -0.45593999997E+02  0.45594000000E+02  0.51100000000E-03 0.  1.
    9900012    2    1    2    0    0 -0.12880962142E+02  0.29657351143E+02 -0.24651287342E+02  0.50528885030E+02  0.30000076538E+02 0.  0.
         12    1    1    2    0    0  0.12880962142E+02 -0.29657351143E+02  0.24651287342E+02  0.40659114970E+02  0.00000000000E+00 0. -1.
         11    1    3    3    0    0  0.31911744966E+01  0.97890874195E+00 -0.52260336187E+01  0.62010712493E+01  0.51100000000E-03 0. -1.
        -11    1    3    3    0    0 -0.10771455766E+02  0.17461666439E+02  0.87661422743E+00  0.20535396440E+02  0.51100000000E-03 0.  1.
         12    1    3    3    0    0 -0.53006808725E+01  0.11216775961E+02 -0.20301867950E+02  0.23792417341E+02  0.00000000000E+00 0. -1.
</event>
<event>
 7    1  0.2744502E-011  0.5052886E+02  0.7816164E-02  0.1300439E+00
        -11   -1    0    0    0    0  0.00000000000E+00  0.00000000000E+00  0.45593999997E+02  0.45594000000E+02  0.51100000000E-03 0. -1.
         11   -1    0    0    0    0 -0.00000000000E+00 -0.00000000000E+00 -0.45593999997E+02  0.45594000000E+02  0.51100000000E-03 0.  1.
    9900012    2    1    2    0    0 -0.19697033676E+02 -0.13022055188E+02 -0.33100135010E+02  0.50528855953E+02  0.29999988156E+02 0.  0.
         12    1    1    2    0    0  0.19697033676E+02  0.13022055188E+02  0.33100135010E+02  0.40659144047E+02  0.00000000000E+00 0. -1.
         11    1    3    3    0    0  0.61935103738E+00 -0.76628226773E+01 -0.11343418751E+02  0.13703123597E+02  0.51100000000E-03 0. -1.
        -11    1    3    3    0    0 -0.26861245664E+01 -0.10425678463E+02 -0.11724919439E+02  0.15918032940E+02  0.51100000000E-03 0.  1.
         12    1    3    3    0    0 -0.17630260147E+02  0.50664459520E+01 -0.10031796820E+02  0.20907699416E+02  0.00000000000E+00 0. -1.
</event>
<event>
 7    1  0.2744502E-011  0.5052886E+02  0.7816164E-02  0.1300439E+00
        -11   -1    0    0    0    0  0.00000000000E+00  0.00000000000E+00  0.45593999997E+02  0.45594000000E+02  0.51100000000E-03 0.  1.
         11   -1    0    0    0    0 -0.00000000000E+00 -0.00000000000E+00 -0.45593999997E+02  0.45594000000E+02  0.51100000000E-03 0. -1.
    9900012    2    1    2    0    0 -0.14978646641E+02  0.36357691114E+02  0.10340400018E+02  0.50528862886E+02  0.30000009228E+02 0.  0.
         12    1    1    2    0    0  0.14978646641E+02 -0.36357691114E+02 -0.10340400018E+02  0.40659137114E+02  0.00000000000E+00 0. -1.
         11    1    3    3    0    0 -0.36962989813E+01  0.67278429138E+01 -0.61543616670E+01  0.98388344951E+01  0.51100000000E-03 0. -1.
        -11    1    3    3    0    0  0.50544201762E+01  0.11561114409E+02  0.35633184153E+01  0.13111207728E+02  0.51100000000E-03 0.  1.
        -12    1    3    3    0    0 -0.16336767836E+02  0.18068733791E+02  0.12931443270E+02  0.27578820663E+02  0.00000000000E+00 0.  1.
</event>
<event>
 7    1  0.2744502E-011  0.5052886E+02  0.7816164E-02  0.1300439E+00
        -11   -1    0    0    0    0  0.00000000000E+00  0.00000000000E+00  0.45593999997E+02  0.45594000000E+02  0.51100000000E-03 0. -1.
         11   -1    0    0    0    0 -0.00000000000E+00 -0.00000000000E+00 -0.45593999997E+02  0.45594000000E+02  0.51100000000E-03 0.  1.
    9900012    2    1    2    0    0 -0.17693188468E+02 -0.36507845113E+02 -0.27008079014E+01  0.50528855441E+02  0.29999986600E+02 0.  0.
         12    1    1    2    0    0  0.17693188468E+02  0.36507845113E+02  0.27008079014E+01  0.40659144559E+02  0.00000000000E+00 0. -1.
         11    1    3    3    0    0 -0.25319535474E+00 -0.11925030506E+02 -0.13959241918E+01  0.12009124242E+02  0.51100000000E-03 0. -1.
        -11    1    3    3    0    0 -0.15804158746E+02 -0.19950216146E+02 -0.10940913226E+02  0.27703540215E+02  0.51100000000E-03 0.  1.
         12    1    3    3    0    0 -0.16358343669E+01 -0.46325984606E+01  0.96360295164E+01  0.10816190985E+02  0.00000000000E+00 0. -1.
</event>
<event>
 7    1  0.2744502E-011  0.5052886E+02  0.7816164E-02  0.1300439E+00
        -11   -1    0    0    0    0  0.00000000000E+00  0.00000000000E+00  0.45593999997E+02  0.45594000000E+02  0.51100000000E-03 0.  1.
         11   -1    0    0    0    0 -0.00000000000E+00 -0.00000000000E+00 -0.45593999997E+02  0.45594000000E+02  0.51100000000E-03 0. -1.
    9900012    2    1    2    0    0 -0.27412613594E+02 -0.50441545153E+01  0.29601872750E+02  0.50528858971E+02  0.29999997330E+02 0.  0.
         12    1    1    2    0    0  0.27412613594E+02  0.50441545153E+01 -0.29601872750E+02  0.40659141029E+02  0.00000000000E+00 0. -1.
         11    1    3    3    0    0 -0.22523819202E+02 -0.23225041909E+01  0.17280755040E+02  0.28484047328E+02  0.51100000000E-03 0.  1.
        -11    1    3    3    0    0 -0.23564747912E+01  0.57575370524E+01  0.11604143843E+02  0.13166562229E+02  0.51100000000E-03 0. -1.
        -12    1    3    3    0    0 -0.25323196013E+01 -0.84791873768E+01  0.71697386731E+00  0.88782494142E+01  0.00000000000E+00 0.  1.
</event>
<event>
 7    1  0.2744502E-011  0.5052884E+02  0.7816164E-02  0.1300439E+00
        -11   -1    0    0    0    0  0.00000000000E+00  0.00000000000E+00  0.45593999997E+02  0.45594000000E+02  0.51100000000E-03 0. -1.
         11   -1    0    0    0    0 -0.00000000000E+00 -0.00000000000E+00 -0.45593999997E+02  0.45594000000E+02  0.51100000000E-03 0.  1.
    9900012    2    1    2    0    0 -0.24594530816E+02  0.15059068493E+02 -0.28661835417E+02  0.50528839908E+02  0.29999939384E+02 0.  0.
         12    1    1    2    0    0  0.24594530816E+02 -0.15059068493E+02  0.28661835417E+02  0.40659160092E+02  0.00000000000E+00 0. -1.
         11    1    3    3    0    0  0.15953207091E+01  0.10538126308E+01  0.33095760435E+01  0.38221542452E+01  0.51100000000E-03 0.  1.
        -11    1    3    3    0    0 -0.81810976641E+01  0.13645433060E+02 -0.12992787876E+02  0.20541196154E+02  0.51100000000E-03 0. -1.
        -12    1    3    3    0    0 -0.18008753861E+02  0.35982280230E+00 -0.18978623584E+02  0.26165489509E+02  0.00000000000E+00 0.  1.
</event>
<event>
 7    1  0.2744502E-011  0.5052886E+02  0.7816164E-02  0.1300439E+00
        -11   -1    0    0    0    0  0.00000000000E+00  0.00000000000E+00  0.45593999997E+02  0.45594000000E+02  0.51100000000E-03 0.  1.
         11   -1    0    0    0    0 -0.00000000000E+00 -0.00000000000E+00 -0.45593999997E+02  0.45594000000E+02  0.51100000000E-03 0. -1.
    9900012    2    1    2    0    0 -0.15185653063E+01 -0.40232130187E+02  0.56775896921E+01  0.50528863699E+02  0.30000011700E+02 0.  0.
         12    1    1    2    0    0  0.15185653063E+01  0.40232130187E+02 -0.56775896921E+01  0.40659136301E+02  0.00000000000E+00 0. -1.
         11    1    3    3    0    0 -0.13730275111E+01 -0.45242707211E+01  0.62023641464E+01  0.77989455293E+01  0.51100000000E-03 0. -1.
        -11    1    3    3    0    0 -0.95600156206E+01 -0.91451859539E+01  0.47540802160E+01  0.14058079661E+02  0.51100000000E-03 0.  1.
        -12    1    3    3    0    0  0.94144778253E+01 -0.26562673512E+02 -0.52788546702E+01  0.28671838509E+02  0.00000000000E+00 0.  1.
</event>
<event>
 7    1  0.2744502E-011  0.5052886E+02  0.7816164E-02  0.1300439E+00
        -11   -1    0    0    0    0  0.00000000000E+00  0.00000000000E+00  0.45593999997E+02  0.45594000000E+02  0.51100000000E-03 0. -1.
         11   -1    0    0    0    0 -0.00000000000E+00 -0.00000000000E+00 -0.45593999997E+02  0.45594000000E+02  0.51100000000E-03 0.  1.
    9900012    2    1    2    0    0 -0.48145766111E+01 -0.37291473825E+02 -0.15470346675E+02  0.50528858417E+02  0.29999995646E+02 0.  0.
         12    1    1    2    0    0  0.48145766111E+01  0.37291473825E+02  0.15470346675E+02  0.40659141583E+02  0.00000000000E+00 0. -1.
         11    1    3    3    0    0  0.43434459645E+01 -0.42621853910E+01 -0.57668257933E+01  0.83837955095E+01  0.51100000000E-03 0. -1.
        -11    1    3    3    0    0  0.63621829048E+01 -0.13384505949E+02  0.11365401855E+01  0.14863179157E+02  0.51100000000E-03 0.  1.
        -12    1    3    3    0    0 -0.15520205480E+02 -0.19644782485E+02 -0.10840061067E+02  0.27281883751E+02  0.00000000000E+00 0.  1.
</event>
<event>
 7    1  0.2744502E-011  0.5052887E+02  0.7816164E-02  0.1300439E+00
        -11   -1    0    0    0    0  0.00000000000E+00  0.00000000000E+00  0.45593999997E+02  0.45594000000E+02  0.51100000000E-03 0.  1.
         11   -1    0    0    0    0 -0.00000000000E+00 -0.00000000000E+00 -0.45593999997E+02  0.45594000000E+02  0.51100000000E-03 0. -1.
    9900012    2    1    2    0    0 -0.88345527434E+01 -0.37024265873E+02  0.14294038068E+02  0.50528866833E+02  0.30000021226E+02 0.  0.
         12    1    1    2    0    0  0.88345527434E+01  0.37024265873E+02 -0.14294038068E+02  0.40659133167E+02  0.00000000000E+00 0. -1.
         11    1    3    3    0    0 -0.10460687941E+02 -0.31025182079E+01 -0.65298756444E+00  0.10930599455E+02  0.51100000000E-03 0. -1.
        -11    1    3    3    0    0 -0.54559654080E+01 -0.76523620600E+01  0.48675611504E+01  0.10583919664E+02  0.51100000000E-03 0.  1.
         12    1    3    3    0    0  0.70821006056E+01 -0.26269385605E+02  0.10079464482E+02  0.29014347714E+02  0.00000000000E+00 0. -1.
</event>
<event>
 7    1  0.2744502E-011  0.5052885E+02  0.7816164E-02  0.1300439E+00
        -11   -1    0    0    0    0  0.00000000000E+00  0.00000000000E+00  0.45593999997E+02  0.45594000000E+02  0.51100000000E-03 0. -1.
         11   -1    0    0    0    0 -0.00000000000E+00 -0.00000000000E+00 -0.45593999997E+02  0.45594000000E+02  0.51100000000E-03 0.  1.
    9900012    2    1    2    0    0  0.20411193812E+02 -0.26658155288E+02 -0.22932338024E+02  0.50528853385E+02  0.29999980350E+02 0.  0.
         12    1    1    2    0    0 -0.20411193812E+02  0.26658155288E+02  0.22932338024E+02  0.40659146615E+02  0.00000000000E+00 0. -1.
         11    1    3    3    0    0  0.81980253155E+01  0.32628041404E+01 -0.21953142659E+01  0.90924647329E+01  0.51100000000E-03 0. -1.
        -11    1    3    3    0    0  0.75177755657E+01 -0.65449264846E+01 -0.12975321840E+02  0.16361906651E+02  0.51100000000E-03 0.  1.
         12    1    3    3    0    0  0.46953929306E+01 -0.23376032944E+02 -0.77617019177E+01  0.25074482001E+02  0.00000000000E+00 0. -1.
</event>
<event>
 7    1  0.2744502E-011  0.5052886E+02  0.7816164E-02  0.1300439E+00
        -11   -1    0    0    0    0  0.00000000000E+00  0.00000000000E+00  0.45593999997E+02  0.45594000000E+02  0.51100000000E-03 0. -1.
         11   -1    0    0    0    0 -0.00000000000E+00 -0.00000000000E+00 -0.45593999997E+02  0.45594000000E+02  0.51100000000E-03 0.  1.
    9900012    2    1    2    0    0  0.76238086020E+01 -0.38569565189E+02 -0.10364926086E+02  0.50528861922E+02  0.30000006299E+02 0.  0.
         12    1    1    2    0    0 -0.76238086020E+01  0.38569565189E+02  0.10364926086E+02  0.40659138078E+02  0.00000000000E+00 0. -1.
         11    1    3    3    0    0  0.13846560839E+00 -0.20229703145E+02  0.37345008828E+01  0.20571984814E+02  0.51100000000E-03 0. -1.
        -11    1    3    3    0    0  0.10310766075E+01 -0.10994096409E+02  0.19012524959E+01  0.11204822003E+02  0.51100000000E-03 0.  1.
         12    1    3    3    0    0  0.64542663862E+01 -0.73457656352E+01 -0.16000679464E+02  0.18752055105E+02  0.00000000000E+00 0. -1.
</event>
<event>
 7    1  0.2744502E-011  0.5052886E+02  0.7816164E-02  0.1300439E+00
        -11   -1    0    0    0    0  0.00000000000E+00  0.00000000000E+00  0.45593999997E+02  0.45594000000E+02  0.51100000000E-03 0.  1.
         11   -1    0    0    0    0 -0.00000000000E+00 -0.00000000000E+00 -0.45593999997E+02  0.45594000000E+02  0.51100000000E-03 0. -1.
    9900012    2    1    2    0    0  0.26954583670E+02  0.23315323492E+02  0.19570686519E+02  0.50528860054E+02  0.30000000619E+02 0.  0.
         12    1    1    2    0    0 -0.26954583670E+02 -0.23315323492E+02 -0.19570686519E+02  0.40659139946E+02  0.00000000000E+00 0. -1.
         11    1    3    3    0    0  0.39586991984E+01 -0.45240760988E+01  0.78106969524E+01  0.98562442662E+01  0.51100000000E-03 0. -1.
        -11    1    3    3    0    0  0.83443880317E+01  0.11561994901E+01  0.35677072733E+01  0.91484503788E+01  0.51100000000E-03 0.  1.
        -12    1    3    3    0    0  0.14651496440E+02  0.26683200101E+02  0.81922822932E+01  0.31524165409E+02  0.00000000000E+00 0.  1.
</event>
<event>
 7    1  0.2744502E-011  0.5052886E+02  0.7816164E-02  0.1300439E+00
        -11   -1    0    0    0    0  0.00000000000E+00  0.00000000000E+00  0.45593999997E+02  0.45594000000E+02  0.51100000000E-03 0. -1.
         11   -1    0    0    0    0 -0.00000000000E+00 -0.00000000000E+00 -0.45593999997E+02  0.45594000000E+02  0.51100000000E-03 0.  1.
    9900012    2    1    2    0    0 -0.19771951176E+02 -0.11530373030E+02 -0.33604853790E+02  0.50528858915E+02  0.29999997158E+02 0.  0.
         12    1    1    2    0    0  0.19771951176E+02  0.11530373030E+02  0.33604853790E+02  0.40659141085E+02  0.00000000000E+00 0. -1.
         11    1    3    3    0    0  0.18722969913E+01 -0.50517180765E+01 -0.74177370037E+00  0.54383435007E+01  0.51100000000E-03 0. -1.
        -11    1    3    3    0    0 -0.40559771530E+01 -0.11489437932E+02 -0.96746211123E+01  0.15558162764E+02  0.51100000000E-03 0.  1.
         12    1    3    3    0    0 -0.17588271014E+02  0.50107829780E+01 -0.23188458978E+02  0.29532352651E+02  0.00000000000E+00 0. -1.
</event>
<event>
 7    1  0.2744502E-011  0.5052887E+02  0.7816164E-02  0.1300439E+00
        -11   -1    0    0    0    0  0.00000000000E+00  0.00000000000E+00  0.45593999997E+02  0.45594000000E+02  0.51100000000E-03 0.  1.
         11   -1    0    0    0    0 -0.00000000000E+00 -0.00000000000E+00 -0.45593999997E+02  0.45594000000E+02  0.51100000000E-03 0. -1.
    9900012    2    1    2    0    0  0.12218162273E+02  0.84217511846E+01  0.37854402659E+02  0.50528865934E+02  0.30000018493E+02 0.  0.
         12    1    1    2    0    0 -0.12218162273E+02 -0.84217511846E+01 -0.37854402659E+02  0.40659134066E+02  0.00000000000E+00 0. -1.
         11    1    3    3    0    0  0.11667249050E+02  0.26832177429E+01  0.13737995630E+02  0.18222427995E+02  0.51100000000E-03 0. -1.
        -11    1    3    3    0    0  0.82850617524E+01  0.69080451370E+01  0.21506934015E+02  0.24060580767E+02  0.51100000000E-03 0.  1.
         12    1    3    3    0    0 -0.77341485298E+01 -0.11695116953E+01  0.26094730140E+01  0.82458571717E+01  0.00000000000E+00 0. -1.
</event>
<event>
 7    1  0.2744502E-011  0.5052887E+02  0.7816164E-02  0.1300439E+00
        -11   -1    0    0    0    0  0.00000000000E+00  0.00000000000E+00  0.45593999997E+02  0.45594000000E+02  0.51100000000E-03 0.  1.
         11   -1    0    0    0    0 -0.00000000000E+00 -0.00000000000E+00 -0.45593999997E+02  0.45594000000E+02  0.51100000000E-03 0. -1.
    9900012    2    1    2    0    0  0.21066305009E+02 -0.29984580977E+02  0.17615355547E+02  0.50528867518E+02  0.30000023307E+02 0.  0.
         12    1    1    2    0    0 -0.21066305009E+02  0.29984580977E+02 -0.17615355547E+02  0.40659132482E+02  0.00000000000E+00 0. -1.
         11    1    3    3    0    0  0.78455428874E+01 -0.55266634433E+01  0.26691582443E+00  0.96004060503E+01  0.51100000000E-03 0. -1.
        -11    1    3    3    0    0  0.63066663658E+01 -0.20428383588E+02 -0.48128977499E+00  0.21385147575E+02  0.51100000000E-03 0.  1.
         12    1    3    3    0    0  0.69140957563E+01 -0.40295339459E+01  0.17829729498E+02  0.19543313893E+02  0.00000000000E+00 0. -1.
</event>
<event>
 7    1  0.2744502E-011  0.5052882E+02  0.7816164E-02  0.1300439E+00
        -11   -1    0    0    0    0  0.00000000000E+00  0.00000000000E+00  0.45593999997E+02  0.45594000000E+02  0.51100000000E-03 0.  1.
         11   -1    0    0    0    0 -0.00000000000E+00 -0.00000000000E+00 -0.45593999997E+02  0.45594000000E+02  0.51100000000E-03 0. -1.
    9900012    2    1    2    0    0 -0.10650098481E+02  0.35333934649E+02  0.17066256809E+02  0.50528823214E+02  0.29999888640E+02 0.  0.
         12    1    1    2    0    0  0.10650098481E+02 -0.35333934649E+02 -0.17066256809E+02  0.40659176786E+02  0.00000000000E+00 0. -1.
         11    1    3    3    0    0  0.18741835765E+01  0.94649991802E+01  0.95898819382E+01  0.13603845390E+02  0.51100000000E-03 0. -1.
        -11    1    3    3    0    0 -0.66257336041E+01  0.18770024009E+02  0.15075333296E+02  0.24969577917E+02  0.51100000000E-03 0.  1.
         12    1    3    3    0    0 -0.58985484537E+01  0.70989114598E+01 -0.75989584251E+01  0.11955399906E+02  0.00000000000E+00 0. -1.
</event>
<event>
 7    1  0.2744502E-011  0.5052885E+02  0.7816164E-02  0.1300439E+00
        -11   -1    0    0    0    0  0.00000000000E+00  0.00000000000E+00  0.45593999997E+02  0.45594000000E+02  0.51100000000E-03 0.  1.
         11   -1    0    0    0    0 -0.00000000000E+00 -0.00000000000E+00 -0.45593999997E+02  0.45594000000E+02  0.51100000000E-03 0. -1.
    9900012    2    1    2    0    0 -0.19908835383E+02 -0.35443032657E+02 -0.77195839911E+00  0.50528853305E+02  0.29999980106E+02 0.  0.
         12    1    1    2    0    0  0.19908835383E+02  0.35443032657E+02  0.77195839911E+00  0.40659146695E+02  0.00000000000E+00 0. -1.
         11    1    3    3    0    0 -0.14649258168E+02 -0.12330356470E+02  0.25794466741E+01  0.19320766056E+02  0.51100000000E-03 0. -1.
        -11    1    3    3    0    0 -0.10420086762E+02 -0.14986292427E+02  0.44843731407E+01  0.18795658317E+02  0.51100000000E-03 0.  1.
         12    1    3    3    0    0  0.51605095475E+01 -0.81263837592E+01 -0.78357782140E+01  0.12412428933E+02  0.00000000000E+00 0. -1.
</event>
<event>
 7    1  0.2744502E-011  0.5052886E+02  0.7816164E-02  0.1300439E+00
        -11   -1    0    0    0    0  0.00000000000E+00  0.00000000000E+00  0.45593999997E+02  0.45594000000E+02  0.51100000000E-03 0.  1.
         11   -1    0    0    0    0 -0.00000000000E+00 -0.00000000000E+00 -0.45593999997E+02  0.45594000000E+02  0.51100000000E-03 0. -1.
    9900012    2    1    2    0    0 -0.13939984926E+02  0.24708336812E+02  0.29126282123E+02  0.50528863289E+02  0.30000010454E+02 0.  0.
         12    1    1    2    0    0  0.13939984926E+02 -0.24708336812E+02 -0.29126282123E+02  0.40659136711E+02  0.00000000000E+00 0. -1.
         11    1    3    3    0    0 -0.18895862130E+02  0.81207793110E+01  0.15753945061E+02  0.25907285606E+02  0.51100000000E-03 0. -1.
        -11    1    3    3    0    0 -0.28528877367E+01  0.48920786191E+01  0.72719568844E+00  0.57096598396E+01  0.51100000000E-03 0.  1.
        -12    1    3    3    0    0  0.78087649401E+01  0.11695478882E+02  0.12645141373E+02  0.18911917843E+02  0.00000000000E+00 0.  1.
</event>
<event>
 7    1  0.2744502E-011  0.5052886E+02  0.7816164E-02  0.1300439E+00
        -11   -1    0    0    0    0  0.00000000000E+00  0.00000000000E+00  0.45593999997E+02  0.45594000000E+02  0.51100000000E-03 0.  1.
         11   -1    0    0    0    0 -0.00000000000E+00 -0.00000000000E+00 -0.45593999997E+02  0.45594000000E+02  0.51100000000E-03 0. -1.
    9900012    2    1    2    0    0 -0.31289326092E+02  0.12179534581E+01  0.25935701306E+02  0.50528856623E+02  0.29999990191E+02 0.  0.
         12    1    1    2    0    0  0.31289326092E+02 -0.12179534581E+01 -0.25935701306E+02  0.40659143377E+02  0.00000000000E+00 0. -1.
         11    1    3    3    0    0  0.29024593245E+01 -0.19047738910E+01 -0.12565509630E+00  0.34739348253E+01  0.51100000000E-03 0. -1.
        -11    1    3    3    0    0 -0.17626635108E+02  0.26667189938E+01  0.24653565591E+02  0.30423805680E+02  0.51100000000E-03 0.  1.
         12    1    3    3    0    0 -0.16565150308E+02  0.45600835522E+00  0.14077908115E+01  0.16631116118E+02  0.00000000000E+00 0. -1.
</event>
<event>
 7    1  0.2744502E-011  0.5052886E+02  0.7816164E-02  0.1300439E+00
        -11   -1    0    0    0    0  0.00000000000E+00  0.00000000000E+00  0.45593999997E+02  0.45594000000E+02  0.51100000000E-03 0.  1.
         11   -1    0    0    0    0 -0.00000000000E+00 -0.00000000000E+00 -0.45593999997E+02  0.45594000000E+02  0.51100000000E-03 0. -1.
    9900012    2    1    2    0    0 -0.39954264374E+01  0.33016150195E+02  0.23390946957E+02  0.50528855818E+02  0.29999987744E+02 0.  0.
         12    1    1    2    0    0  0.39954264374E+01 -0.33016150195E+02 -0.23390946957E+02  0.40659144182E+02  0.00000000000E+00 0. -1.
         11    1    3    3    0    0  0.47130209046E+01  0.15154170768E+02  0.18202400168E+02  0.24149302886E+02  0.51100000000E-03 0. -1.
        -11    1    3    3    0    0  0.32176189548E+01  0.61218255505E+00  0.42791163873E+01  0.53887546368E+01  0.51100000000E-03 0.  1.
         12    1    3    3    0    0 -0.11926066297E+02  0.17249796871E+02  0.90943040139E+00  0.20990798295E+02  0.00000000000E+00 0. -1.
</event>
<event>
 7    1  0.2744502E-011  0.5052886E+02  0.7816164E-02  0.1300439E+00
        -11   -1    0    0    0    0  0.00000000000E+00  0.00000000000E+00  0.45593999997E+02  0.45594000000E+02  0.51100000000E-03 0.  1.
         11   -1    0    0    0    0 -0.00000000000E+00 -0.00000000000E+00 -0.45593999997E+02  0.45594000000E+02  0.51100000000E-03 0. -1.
    9900012    2    1    2    0    0 -0.22329587084E+02 -0.16836048672E+02  0.29514450301E+02  0.50528858706E+02  0.29999996522E+02 0.  0.
         12    1    1    2    0    0  0.22329587084E+02  0.16836048672E+02 -0.29514450301E+02  0.40659141294E+02  0.00000000000E+00 0. -1.
         11    1    3    3    0    0 -0.51980404296E+00  0.20743191898E+01 -0.20132077912E+01  0.29370056548E+01  0.51100000000E-03 0. -1.
        -11    1    3    3    0    0 -0.19802581005E+02 -0.44638997648E+01  0.13392582994E+02  0.24319331716E+02  0.51100000000E-03 0.  1.
         12    1    3    3    0    0 -0.20072020356E+01 -0.14446468097E+02  0.18135075098E+02  0.23272521335E+02  0.00000000000E+00 0. -1.
</event>
<event>
 7    1  0.2744502E-011  0.5052886E+02  0.7816164E-02  0.1300439E+00
        -11   -1    0    0    0    0  0.00000000000E+00  0.00000000000E+00  0.45593999997E+02  0.45594000000E+02  0.51100000000E-03 0. -1.
         11   -1    0    0    0    0 -0.00000000000E+00 -0.00000000000E+00 -0.45593999997E+02  0.45594000000E+02  0.51100000000E-03 0.  1.
    9900012    2    1    2    0    0 -0.39751847931E+02  0.40032422088E+00 -0.85320478510E+01  0.50528861864E+02  0.30000006122E+02 0.  0.
         12    1    1    2    0    0  0.39751847931E+02 -0.40032422088E+00  0.85320478510E+01  0.40659138136E+02  0.00000000000E+00 0. -1.
         11    1    3    3    0    0 -0.10929758138E+00 -0.20979595729E+01  0.22387723656E+01  0.30700948352E+01  0.51100000000E-03 0. -1.
        -11    1    3    3    0    0  0.20872408364E+00  0.72664442548E+00  0.46352641038E+01  0.46965148182E+01  0.51100000000E-03 0.  1.
        -12    1    3    3    0    0 -0.39851274434E+02  0.17716393683E+01 -0.15406084320E+02  0.42762252211E+02  0.00000000000E+00 0.  1.
</event>
<event>
 7    1  0.2744502E-011  0.5052886E+02  0.7816164E-02  0.1300439E+00
        -11   -1    0    0    0    0  0.00000000000E+00  0.00000000000E+00  0.45593999997E+02  0.45594000000E+02  0.51100000000E-03 0.  1.
         11   -1    0    0    0    0 -0.00000000000E+00 -0.00000000000E+00 -0.45593999997E+02  0.45594000000E+02  0.51100000000E-03 0. -1.
    9900012    2    1    2    0    0 -0.77689877035E+01  0.64364077040E+01  0.39387579323E+02  0.50528856884E+02  0.29999990983E+02 0.  0.
         12    1    1    2    0    0  0.77689877035E+01 -0.64364077040E+01 -0.39387579323E+02  0.40659143116E+02  0.00000000000E+00 0. -1.
         11    1    3    3    0    0 -0.24100218069E+01 -0.81043937000E+01  0.10488734785E+02  0.13472303441E+02  0.51100000000E-03 0. -1.
        -11    1    3    3    0    0 -0.63479271143E+00 -0.39774583900E+01  0.60594728758E+01  0.72760118763E+01  0.51100000000E-03 0.  1.
        -12    1    3    3    0    0 -0.47241731852E+01  0.18518259794E+02  0.22839371662E+02  0.29780541566E+02  0.00000000000E+00 0.  1.
</event>
<event>
 7    1  0.2744502E-011  0.5052893E+02  0.7816164E-02  0.1300439E+00
        -11   -1    0    0    0    0  0.00000000000E+00  0.00000000000E+00  0.45593999997E+02  0.45594000000E+02  0.51100000000E-03 0.  1.
         11   -1    0    0    0    0 -0.00000000000E+00 -0.00000000000E+00 -0.45593999997E+02  0.45594000000E+02  0.51100000000E-03 0. -1.
    9900012    2    1    2    0    0  0.18791465084E+02  0.29074457484E+02  0.21324086072E+02  0.50528931088E+02  0.30000216535E+02 0.  0.
         12    1    1    2    0    0 -0.18791465084E+02 -0.29074457484E+02 -0.21324086072E+02  0.40659068912E+02  0.00000000000E+00 0. -1.
         11    1    3    3    0    0  0.18580341543E+02  0.10543930073E+02  0.60052575898E+00  0.21372042127E+02  0.51100000000E-03 0. -1.
        -11    1    3    3    0    0  0.34093986656E+01  0.66135006028E+01  0.42304852699E+01  0.85591702497E+01  0.51100000000E-03 0.  1.
         12    1    3    3    0    0 -0.31982751249E+01  0.11917026808E+02  0.16493075043E+02  0.20597718711E+02  0.00000000000E+00 0. -1.
</event>
<event>
 7    1  0.2744502E-011  0.5052886E+02  0.7816164E-02  0.1300439E+00
        -11   -1    0    0    0    0  0.00000000000E+00  0.00000000000E+00  0.45593999997E+02  0.45594000000E+02  0.51100000000E-03 0. -1.
         11   -1    0    0    0    0 -0.00000000000E+00 -0.00000000000E+00 -0.45593999997E+02  0.45594000000E+02  0.51100000000E-03 0.  1.
    9900012    2    1    2    0    0  0.89500912774E+01  0.32211364067E+02 -0.23140641339E+02  0.50528863382E+02  0.30000010735E+02 0.  0.
         12    1    1    2    0    0 -0.89500912774E+01 -0.32211364067E+02  0.23140641339E+02  0.40659136618E+02  0.00000000000E+00 0. -1.
         11    1    3    3    0    0  0.55792735107E+01  0.20133948470E+02  0.17277294575E+01  0.20963998264E+02  0.51100000000E-03 0. -1.
        -11    1    3    3    0    0  0.42483304638E+01  0.32603110626E+01 -0.34090485602E+01  0.63481928375E+01  0.51100000000E-03 0.  1.
         12    1    3    3    0    0 -0.87751269706E+00  0.88171045351E+01 -0.21459322237E+02  0.23216672280E+02  0.00000000000E+00 0. -1.
</event>
<event>
 7    1  0.2744502E-011  0.5052887E+02  0.7816164E-02  0.1300439E+00
        -11   -1    0    0    0    0  0.00000000000E+00  0.00000000000E+00  0.45593999997E+02  0.45594000000E+02  0.51100000000E-03 0.  1.
         11   -1    0    0    0    0 -0.00000000000E+00 -0.00000000000E+00 -0.45593999997E+02  0.45594000000E+02  0.51100000000E-03 0. -1.
    9900012    2    1    2    0    0 -0.14052569087E+02  0.35804749105E+02  0.13179919555E+02  0.50528867743E+02  0.30000023992E+02 0.  0.
         12    1    1    2    0    0  0.14052569087E+02 -0.35804749105E+02 -0.13179919555E+02  0.40659132257E+02  0.00000000000E+00 0. -1.
         11    1    3    3    0    0 -0.13464142932E+02  0.34233514077E+01  0.73732380836E+01  0.15727908947E+02  0.51100000000E-03 0. -1.
        -11    1    3    3    0    0  0.35555757314E+01  0.70955515796E+01  0.45470720182E+01  0.91468483753E+01  0.51100000000E-03 0.  1.
        -12    1    3    3    0    0 -0.41440018867E+01  0.25285846117E+02  0.12596094532E+01  0.25654110421E+02  0.00000000000E+00 0.  1.
</event>
<event>
 7    1  0.2744502E-011  0.5052888E+02  0.7816164E-02  0.1300439E+00
        -11   -1    0    0    0    0  0.00000000000E+00  0.00000000000E+00  0.45593999997E+02  0.45594000000E+02  0.51100000000E-03 0. -1.
         11   -1    0    0    0    0 -0.00000000000E+00 -0.00000000000E+00 -0.45593999997E+02  0.45594000000E+02  0.51100000000E-03 0.  1.
    9900012    2    1    2    0    0  0.31102568391E+02  0.74986118345E+00  0.26176941797E+02  0.50528876373E+02  0.30000050223E+02 0.  0.
         12    1    1    2    0    0 -0.31102568391E+02 -0.74986118345E+00 -0.26176941797E+02  0.40659123627E+02  0.00000000000E+00 0. -1.
         11    1    3    3    0    0  0.16239854568E+02 -0.61363364594E+01  0.71712712438E+01  0.18783360537E+02  0.51100000000E-03 0. -1.
        -11    1    3    3    0    0 -0.85455425789E+00 -0.22914465237E+01  0.11994371893E+02  0.12241157932E+02  0.51100000000E-03 0.  1.
        -12    1    3    3    0    0  0.15717268080E+02  0.91776441665E+01  0.70112986603E+01  0.19504357904E+02  0.00000000000E+00 0.  1.
</event>
<event>
 7    1  0.2744502E-011  0.5052889E+02  0.7816164E-02  0.1300439E+00
        -11   -1    0    0    0    0  0.00000000000E+00  0.00000000000E+00  0.45593999997E+02  0.45594000000E+02  0.51100000000E-03 0. -1.
         11   -1    0    0    0    0 -0.00000000000E+00 -0.00000000000E+00 -0.45593999997E+02  0.45594000000E+02  0.51100000000E-03 0.  1.
    9900012    2    1    2    0    0  0.79655958984E+01  0.15120222692E+02 -0.36892976784E+02  0.50528885545E+02  0.30000078103E+02 0.  0.
         12    1    1    2    0    0 -0.79655958984E+01 -0.15120222692E+02  0.36892976784E+02  0.40659114455E+02  0.00000000000E+00 0. -1.
         11    1    3    3    0    0  0.13693093605E+01 -0.44308737567E+01 -0.23376713995E+02  0.23832297578E+02  0.51100000000E-03 0. -1.
        -11    1    3    3    0    0 -0.15410854460E+01  0.10837248290E+00  0.18774645557E+00  0.15562576713E+01  0.51100000000E-03 0.  1.
        -12    1    3    3    0    0  0.81373719838E+01  0.19442723966E+02 -0.13704009245E+02  0.25140330296E+02  0.00000000000E+00 0.  1.
</event>
<event>
 7    1  0.2744502E-011  0.5052885E+02  0.7816164E-02  0.1300439E+00
        -11   -1    0    0    0    0  0.00000000000E+00  0.00000000000E+00  0.45593999997E+02  0.45594000000E+02  0.51100000000E-03 0.  1.
         11   -1    0    0    0    0 -0.00000000000E+00 -0.00000000000E+00 -0.45593999997E+02  0.45594000000E+02  0.51100000000E-03 0. -1.
    9900012    2    1    2    0    0 -0.36414660728E+02 -0.33232094985E+01  0.17779066491E+02  0.50528850445E+02  0.29999971411E+02 0.  0.
         12    1    1    2    0    0  0.36414660728E+02  0.33232094985E+01 -0.17779066491E+02  0.40659149555E+02  0.00000000000E+00 0. -1.
         11    1    3    3    0    0 -0.78067781921E+01 -0.15739687192E+00  0.51425427831E+01  0.93496687670E+01  0.51100000000E-03 0. -1.
        -11    1    3    3    0    0 -0.28129329350E+02 -0.73718246011E+01  0.18111720886E+02  0.34258391692E+02  0.51100000000E-03 0.  1.
         12    1    3    3    0    0 -0.47855318597E+00  0.42060119745E+01 -0.54751971784E+01  0.69207899855E+01  0.00000000000E+00 0. -1.
</event>
<event>
 7    1  0.2744502E-011  0.5052887E+02  0.7816164E-02  0.1300439E+00
        -11   -1    0    0    0    0  0.00000000000E+00  0.00000000000E+00  0.45593999997E+02  0.45594000000E+02  0.51100000000E-03 0.  1.
         11   -1    0    0    0    0 -0.00000000000E+00 -0.00000000000E+00 -0.45593999997E+02  0.45594000000E+02  0.51100000000E-03 0. -1.
    9900012    2    1    2    0    0 -0.34796195339E+02 -0.14614144952E+02  0.15126675010E+02  0.50528871387E+02  0.30000035068E+02 0.  0.
         12    1    1    2    0    0  0.34796195339E+02  0.14614144952E+02 -0.15126675010E+02  0.40659128613E+02  0.00000000000E+00 0. -1.
         11    1    3    3    0    0 -0.55181440545E+01 -0.12403768263E+02 -0.20358795777E+00  0.13577364591E+02  0.51100000000E-03 0. -1.
        -11    1    3    3    0    0 -0.13628094477E+02 -0.58748443811E+01  0.14665943397E+02  0.20864530945E+02  0.51100000000E-03 0.  1.
        -12    1    3    3    0    0 -0.15649956807E+02  0.36644676917E+01  0.66431957061E+00  0.16086975851E+02  0.00000000000E+00 0.  1.
</event>
<event>
 7    1  0.2744502E-011  0.5052887E+02  0.7816164E-02  0.1300439E+00
        -11   -1    0    0    0    0  0.00000000000E+00  0.00000000000E+00  0.45593999997E+02  0.45594000000E+02  0.51100000000E-03 0.  1.
         11   -1    0    0    0    0 -0.00000000000E+00 -0.00000000000E+00 -0.45593999997E+02  0.45594000000E+02  0.51100000000E-03 0. -1.
    9900012    2    1    2    0    0 -0.19333223580E+02  0.98537655928E+01  0.34384512959E+02  0.50528868654E+02  0.30000026762E+02 0.  0.
         12    1    1    2    0    0  0.19333223580E+02 -0.98537655928E+01 -0.34384512959E+02  0.40659131346E+02  0.00000000000E+00 0. -1.
         11    1    3    3    0    0 -0.65741852932E+01  0.15848511424E+01  0.42432991320E+01  0.79835614357E+01  0.51100000000E-03 0. -1.
        -11    1    3    3    0    0 -0.17371356214E+02  0.55996936951E+00  0.89950995265E+01  0.19570114925E+02  0.51100000000E-03 0.  1.
        -12    1    3    3    0    0  0.46123179276E+01  0.77089450809E+01  0.21146114301E+02  0.22975192294E+02  0.00000000000E+00 0.  1.
</event>
<event>
 7    1  0.2744502E-011  0.5052885E+02  0.7816164E-02  0.1300439E+00
        -11   -1    0    0    0    0  0.00000000000E+00  0.00000000000E+00  0.45593999997E+02  0.45594000000E+02  0.51100000000E-03 0. -1.
         11   -1    0    0    0    0 -0.00000000000E+00 -0.00000000000E+00 -0.45593999997E+02  0.45594000000E+02  0.51100000000E-03 0.  1.
    9900012    2    1    2    0    0  0.28864883654E+02  0.36338621984E+01 -0.28403876703E+02  0.50528847592E+02  0.29999962739E+02 0.  0.
         12    1    1    2    0    0 -0.28864883654E+02 -0.36338621984E+01  0.28403876703E+02  0.40659152408E+02  0.00000000000E+00 0. -1.
         11    1    3    3    0    0  0.16335169720E+00  0.94027127188E+01 -0.72469299217E+01  0.11872475892E+02  0.51100000000E-03 0. -1.
        -11    1    3    3    0    0  0.75419867514E+01  0.43205101960E+01 -0.77864102715E+01  0.11669471183E+02  0.51100000000E-03 0.  1.
        -12    1    3    3    0    0  0.21159545205E+02 -0.10089360716E+02 -0.13370536510E+02  0.26986900517E+02  0.00000000000E+00 0.  1.
</event>
<event>
 7    1  0.2744502E-011  0.5052887E+02  0.7816164E-02  0.1300439E+00
        -11   -1    0    0    0    0  0.00000000000E+00  0.00000000000E+00  0.45593999997E+02  0.45594000000E+02  0.51100000000E-03 0. -1.
         11   -1    0    0    0    0 -0.00000000000E+00 -0.00000000000E+00 -0.45593999997E+02  0.45594000000E+02  0.51100000000E-03 0.  1.
    9900012    2    1    2    0    0 -0.30999008600E+02 -0.22935281257E+02 -0.12891813824E+02  0.50528874035E+02  0.30000043116E+02 0.  0.
         12    1    1    2    0    0  0.30999008600E+02  0.22935281257E+02  0.12891813824E+02  0.40659125965E+02  0.00000000000E+00 0. -1.
         11    1    3    3    0    0 -0.57118468721E+01  0.47796891171E+00  0.48482532078E+01  0.75072770296E+01  0.51100000000E-03 0. -1.
        -11    1    3    3    0    0 -0.25578737424E+02 -0.13335131529E+02 -0.10894176653E+02  0.30834730846E+02  0.51100000000E-03 0.  1.
        -12    1    3    3    0    0  0.29157569599E+00 -0.10078118640E+02 -0.68458903794E+01  0.12186866160E+02  0.00000000000E+00 0.  1.
</event>
<event>
 7    1  0.2744502E-011  0.5052884E+02  0.7816164E-02  0.1300439E+00
        -11   -1    0    0    0    0  0.00000000000E+00  0.00000000000E+00  0.45593999997E+02  0.45594000000E+02  0.51100000000E-03 0.  1.
         11   -1    0    0    0    0 -0.00000000000E+00 -0.00000000000E+00 -0.45593999997E+02  0.45594000000E+02  0.51100000000E-03 0. -1.
    9900012    2    1    2    0    0 -0.41803306983E+01  0.28079308403E+02  0.29107458918E+02  0.50528844945E+02  0.29999954695E+02 0.  0.
         12    1    1    2    0    0  0.41803306983E+01 -0.28079308403E+02 -0.29107458918E+02  0.40659155055E+02  0.00000000000E+00 0. -1.
         11    1    3    3    0    0 -0.63991248436E+00  0.25939962005E+01 -0.34537230348E+01  0.43665211941E+01  0.51100000000E-03 0. -1.
        -11    1    3    3    0    0  0.14938188820E+01  0.15435030571E-01  0.14402061763E+02  0.14479334114E+02  0.51100000000E-03 0.  1.
         12    1    3    3    0    0 -0.50342370960E+01  0.25469877172E+02  0.18159120189E+02  0.31682989637E+02  0.00000000000E+00 0. -1.
</event>
<event>
 7    1  0.2744502E-011  0.5052886E+02  0.7816164E-02  0.1300439E+00
        -11   -1    0    0    0    0  0.00000000000E+00  0.00000000000E+00  0.45593999997E+02  0.45594000000E+02  0.51100000000E-03 0.  1.
         11   -1    0    0    0    0 -0.00000000000E+00 -0.00000000000E+00 -0.45593999997E+02  0.45594000000E+02  0.51100000000E-03 0. -1.
    9900012    2    1    2    0    0 -0.88916718721E+00 -0.19685967280E+02  0.35564557883E+02  0.50528859534E+02  0.29999999040E+02 0.  0.
         12    1    1    2    0    0  0.88916718721E+00  0.19685967280E+02 -0.35564557883E+02  0.40659140466E+02  0.00000000000E+00 0. -1.
         11    1    3    3    0    0  0.11702478986E+02 -0.62022853809E+01  0.17451500556E+02  0.21908245715E+02  0.51100000000E-03 0. -1.
        -11    1    3    3    0    0 -0.13704849947E+00  0.35504230310E+00  0.68507655006E+01  0.68613282631E+01  0.51100000000E-03 0.  1.
        -12    1    3    3    0    0 -0.12454597674E+02 -0.13838724202E+02  0.11262291826E+02  0.21759285556E+02  0.00000000000E+00 0.  1.
</event>
<event>
 7    1  0.2744502E-011  0.5052886E+02  0.7816164E-02  0.1300439E+00
        -11   -1    0    0    0    0  0.00000000000E+00  0.00000000000E+00  0.45593999997E+02  0.45594000000E+02  0.51100000000E-03 0. -1.
         11   -1    0    0    0    0 -0.00000000000E+00 -0.00000000000E+00 -0.45593999997E+02  0.45594000000E+02  0.51100000000E-03 0.  1.
    9900012    2    1    2    0    0  0.26207552089E+02 -0.30648310201E+02  0.51972125511E+01  0.50528859293E+02  0.29999998308E+02 0.  0.
         12    1    1    2    0    0 -0.26207552089E+02  0.30648310201E+02 -0.51972125511E+01  0.40659140707E+02  0.00000000000E+00 0. -1.
         11    1    3    3    0    0  0.12573453210E+01  0.33592269534E+01 -0.89724265243E+00  0.36973460237E+01  0.51100000000E-03 0. -1.
        -11    1    3    3    0    0  0.25063047454E+02 -0.29873273150E+02 -0.55775130910E+00  0.38998460010E+02  0.51100000000E-03 0.  1.
         12    1    3    3    0    0 -0.11284068569E+00 -0.41342640045E+01  0.66522065126E+01  0.78330532595E+01  0.00000000000E+00 0. -1.
</event>
<event>
 7    1  0.2744502E-011  0.5052886E+02  0.7816164E-02  0.1300439E+00
        -11   -1    0    0    0    0  0.00000000000E+00  0.00000000000E+00  0.45593999997E+02  0.45594000000E+02  0.51100000000E-03 0.  1.
         11   -1    0    0    0    0 -0.00000000000E+00 -0.00000000000E+00 -0.45593999997E+02  0.45594000000E+02  0.51100000000E-03 0. -1.
    9900012    2    1    2    0    0  0.25966645345E+01  0.19973673317E+02  0.35319622882E+02  0.50528855235E+02  0.29999985973E+02 0.  0.
         12    1    1    2    0    0 -0.25966645345E+01 -0.19973673317E+02 -0.35319622882E+02  0.40659144765E+02  0.00000000000E+00 0. -1.
         11    1    3    3    0    0  0.20942368698E+01  0.21770959881E+01  0.80782732742E+01  0.86246202445E+01  0.51100000000E-03 0. -1.
        -11    1    3    3    0    0 -0.50624375041E+00  0.31987414540E+01  0.27077695739E+02  0.27270677227E+02  0.51100000000E-03 0.  1.
         12    1    3    3    0    0  0.10086714152E+01  0.14597835875E+02  0.16365386907E+00  0.14633557764E+02  0.00000000000E+00 0. -1.
</event>
<event>
 7    1  0.2744502E-011  0.5052886E+02  0.7816164E-02  0.1300439E+00
        -11   -1    0    0    0    0  0.00000000000E+00  0.00000000000E+00  0.45593999997E+02  0.45594000000E+02  0.51100000000E-03 0.  1.
         11   -1    0    0    0    0 -0.00000000000E+00 -0.00000000000E+00 -0.45593999997E+02  0.45594000000E+02  0.51100000000E-03 0. -1.
    9900012    2    1    2    0    0 -0.35266730146E+02 -0.15849576593E+02 -0.12578320320E+02  0.50528862337E+02  0.30000007560E+02 0.  0.
         12    1    1    2    0    0  0.35266730146E+02  0.15849576593E+02  0.12578320320E+02  0.40659137663E+02  0.00000000000E+00 0. -1.
         11    1    3    3    0    0 -0.30504567875E+01  0.24878700045E+01 -0.13940804481E+01  0.41759123948E+01  0.51100000000E-03 0. -1.
        -11    1    3    3    0    0 -0.10812580415E+02  0.53968931595E+01  0.10528145868E+01  0.12130406829E+02  0.51100000000E-03 0.  1.
         12    1    3    3    0    0 -0.21403692944E+02 -0.23734339757E+02 -0.12237054459E+02  0.34222543114E+02  0.00000000000E+00 0. -1.
</event>
<event>
 7    1  0.2744502E-011  0.5052886E+02  0.7816164E-02  0.1300439E+00
        -11   -1    0    0    0    0  0.00000000000E+00  0.00000000000E+00  0.45593999997E+02  0.45594000000E+02  0.51100000000E-03 0.  1.
         11   -1    0    0    0    0 -0.00000000000E+00 -0.00000000000E+00 -0.45593999997E+02  0.45594000000E+02  0.51100000000E-03 0. -1.
    9900012    2    1    2    0    0  0.28869031050E+02  0.20920084899E+02  0.19547234759E+02  0.50528864585E+02  0.30000014393E+02 0.  0.
         12    1    1    2    0    0 -0.28869031050E+02 -0.20920084899E+02 -0.19547234759E+02  0.40659135415E+02  0.00000000000E+00 0. -1.
         11    1    3    3    0    0  0.74201310790E+01  0.21859146928E+01  0.96920448030E+01  0.12400495998E+02  0.51100000000E-03 0. -1.
        -11    1    3    3    0    0  0.11096884829E+02 -0.24122952137E+01  0.91329150153E+01  0.14572925515E+02  0.51100000000E-03 0.  1.
         12    1    3    3    0    0  0.10352015142E+02  0.21146465420E+02  0.72227494057E+00  0.23555443073E+02  0.00000000000E+00 0. -1.
</event>
<event>
 7    1  0.2744502E-011  0.5052887E+02  0.7816164E-02  0.1300439E+00
        -11   -1    0    0    0    0  0.00000000000E+00  0.00000000000E+00  0.45593999997E+02  0.45594000000E+02  0.51100000000E-03 0. -1.
         11   -1    0    0    0    0 -0.00000000000E+00 -0.00000000000E+00 -0.45593999997E+02  0.45594000000E+02  0.51100000000E-03 0.  1.
    9900012    2    1    2    0    0 -0.30021499465E+02  0.26674158179E+02  0.63532741866E+01  0.50528865263E+02  0.30000016453E+02 0.  0.
         12    1    1    2    0    0  0.30021499465E+02 -0.26674158179E+02 -0.63532741866E+01  0.40659134737E+02  0.00000000000E+00 0. -1.
         11    1    3    3    0    0 -0.15404651924E+02  0.19554093714E+02  0.99267387074E+01  0.26799366103E+02  0.51100000000E-03 0. -1.
        -11    1    3    3    0    0 -0.14199522968E+02  0.10279384908E+02 -0.71565306437E+01  0.18934311124E+02  0.51100000000E-03 0.  1.
        -12    1    3    3    0    0 -0.41732457191E+00 -0.31593204432E+01  0.35830661229E+01  0.47951880362E+01  0.00000000000E+00 0.  1.
</event>
<event>
 7    1  0.2744502E-011  0.5052885E+02  0.7816164E-02  0.1300439E+00
        -11   -1    0    0    0    0  0.00000000000E+00  0.00000000000E+00  0.45593999997E+02  0.45594000000E+02  0.51100000000E-03 0.  1.
         11   -1    0    0    0    0 -0.00000000000E+00 -0.00000000000E+00 -0.45593999997E+02  0.45594000000E+02  0.51100000000E-03 0. -1.
    9900012    2    1    2    0    0  0.48455482693E+01 -0.13863866845E+02  0.37914114796E+02  0.50528852903E+02  0.29999978882E+02 0.  0.
         12    1    1    2    0    0 -0.48455482693E+01  0.13863866845E+02 -0.37914114796E+02  0.40659147097E+02  0.00000000000E+00 0. -1.
         11    1    3    3    0    0 -0.52461799615E+01 -0.64690349743E+01  0.19516850843E+02  0.21219761657E+02  0.51100000000E-03 0. -1.
        -11    1    3    3    0    0 -0.20956665408E-01 -0.65818925851E+00  0.17073412561E+02  0.17086107486E+02  0.51100000000E-03 0.  1.
         12    1    3    3    0    0  0.10112684896E+02 -0.67366426126E+01  0.13238513927E+01  0.12222983760E+02  0.00000000000E+00 0. -1.
</event>
<event>
 7    1  0.2744502E-011  0.5052885E+02  0.7816164E-02  0.1300439E+00
        -11   -1    0    0    0    0  0.00000000000E+00  0.00000000000E+00  0.45593999997E+02  0.45594000000E+02  0.51100000000E-03 0.  1.
         11   -1    0    0    0    0 -0.00000000000E+00 -0.00000000000E+00 -0.45593999997E+02  0.45594000000E+02  0.51100000000E-03 0. -1.
    9900012    2    1    2    0    0  0.27826011655E+02  0.10699891390E+02  0.27647632097E+02  0.50528853908E+02  0.29999981938E+02 0.  0.
         12    1    1    2    0    0 -0.27826011655E+02 -0.10699891390E+02 -0.27647632097E+02  0.40659146092E+02  0.00000000000E+00 0. -1.
         11    1    3    3    0    0  0.75209472015E+01 -0.73206655842E+01  0.15428794126E+02  0.18660237936E+02  0.51100000000E-03 0. -1.
        -11    1    3    3    0    0  0.54494508007E+01  0.28286793711E+01  0.81997713343E+01  0.10243739123E+02  0.51100000000E-03 0.  1.
         12    1    3    3    0    0  0.14855613653E+02  0.15191877603E+02  0.40190666367E+01  0.21624876849E+02  0.00000000000E+00 0. -1.
</event>
<event>
 7    1  0.2744502E-011  0.5052886E+02  0.7816164E-02  0.1300439E+00
        -11   -1    0    0    0    0  0.00000000000E+00  0.00000000000E+00  0.45593999997E+02  0.45594000000E+02  0.51100000000E-03 0.  1.
         11   -1    0    0    0    0 -0.00000000000E+00 -0.00000000000E+00 -0.45593999997E+02  0.45594000000E+02  0.51100000000E-03 0. -1.
    9900012    2    1    2    0    0 -0.36985115446E+02  0.16333746594E+02  0.42983680945E+01  0.50528855756E+02  0.29999987557E+02 0.  0.
         12    1    1    2    0    0  0.36985115446E+02 -0.16333746594E+02 -0.42983680945E+01  0.40659144244E+02  0.00000000000E+00 0. -1.
         11    1    3    3    0    0  0.21233737753E+01 -0.27454500332E+01 -0.63431714597E+00  0.35282531906E+01  0.51100000000E-03 0. -1.
        -11    1    3    3    0    0 -0.15382212144E+02  0.54451116251E+00  0.68172864037E+01  0.16834023198E+02  0.51100000000E-03 0.  1.
         12    1    3    3    0    0 -0.23726277077E+02  0.18534685465E+02 -0.18846011633E+01  0.30166579368E+02  0.00000000000E+00 0. -1.
</event>
<event>
 7    1  0.2744502E-011  0.5052886E+02  0.7816164E-02  0.1300439E+00
        -11   -1    0    0    0    0  0.00000000000E+00  0.00000000000E+00  0.45593999997E+02  0.45594000000E+02  0.51100000000E-03 0.  1.
         11   -1    0    0    0    0 -0.00000000000E+00 -0.00000000000E+00 -0.45593999997E+02  0.45594000000E+02  0.51100000000E-03 0. -1.
    9900012    2    1    2    0    0 -0.31513174043E+02 -0.20040269529E+02 -0.16077102452E+02  0.50528858785E+02  0.29999996763E+02 0.  0.
         12    1    1    2    0    0  0.31513174043E+02  0.20040269529E+02  0.16077102452E+02  0.40659141215E+02  0.00000000000E+00 0. -1.
         11    1    3    3    0    0 -0.15424034918E+01  0.36849889468E+01  0.20981061432E+01  0.45122280216E+01  0.51100000000E-03 0.  1.
        -11    1    3    3    0    0  0.15295970759E+01 -0.51620225620E+01 -0.50509038000E+00  0.54075189041E+01  0.51100000000E-03 0. -1.
        -12    1    3    3    0    0 -0.31500367628E+02 -0.18563235914E+02 -0.17670118215E+02  0.40609111859E+02  0.00000000000E+00 0.  1.
</event>
<event>
 7    1  0.2744502E-011  0.5052888E+02  0.7816164E-02  0.1300439E+00
        -11   -1    0    0    0    0  0.00000000000E+00  0.00000000000E+00  0.45593999997E+02  0.45594000000E+02  0.51100000000E-03 0. -1.
         11   -1    0    0    0    0 -0.00000000000E+00 -0.00000000000E+00 -0.45593999997E+02  0.45594000000E+02  0.51100000000E-03 0.  1.
    9900012    2    1    2    0    0  0.30602945822E+02  0.16532702863E+02 -0.21054545000E+02  0.50528875291E+02  0.30000046936E+02 0.  0.
         12    1    1    2    0    0 -0.30602945822E+02 -0.16532702863E+02  0.21054545000E+02  0.40659124709E+02  0.00000000000E+00 0. -1.
         11    1    3    3    0    0  0.84088162717E+01  0.30524921879E+01 -0.15670062827E+02  0.18043745978E+02  0.51100000000E-03 0. -1.
        -11    1    3    3    0    0  0.10128779808E+02 -0.27535180030E+01  0.24769800533E+01  0.10784686932E+02  0.51100000000E-03 0.  1.
        -12    1    3    3    0    0  0.12065349742E+02  0.16233728678E+02 -0.78614622257E+01  0.21700442381E+02  0.00000000000E+00 0.  1.
</event>
<event>
 7    1  0.2744502E-011  0.5052886E+02  0.7816164E-02  0.1300439E+00
        -11   -1    0    0    0    0  0.00000000000E+00  0.00000000000E+00  0.45593999997E+02  0.45594000000E+02  0.51100000000E-03 0. -1.
         11   -1    0    0    0    0 -0.00000000000E+00 -0.00000000000E+00 -0.45593999997E+02  0.45594000000E+02  0.51100000000E-03 0.  1.
    9900012    2    1    2    0    0  0.10003872602E+02 -0.38185911610E+02 -0.97429188887E+01  0.50528858581E+02  0.29999996141E+02 0.  0.
         12    1    1    2    0    0 -0.10003872602E+02  0.38185911610E+02  0.97429188887E+01  0.40659141419E+02  0.00000000000E+00 0. -1.
         11    1    3    3    0    0  0.31296986393E+01  0.21600544024E+01 -0.74189148996E+00  0.38744356800E+01  0.51100000000E-03 0. -1.
        -11    1    3    3    0    0  0.76802192430E+01 -0.90951594884E+01 -0.97453050278E+01  0.15384364273E+02  0.51100000000E-03 0.  1.
        -12    1    3    3    0    0 -0.80604528079E+00 -0.31250806524E+02  0.74427762911E+00  0.31270058628E+02  0.00000000000E+00 0.  1.
</event>
<event>
 7    1  0.2744502E-011  0.5052885E+02  0.7816164E-02  0.1300439E+00
        -11   -1    0    0    0    0  0.00000000000E+00  0.00000000000E+00  0.45593999997E+02  0.45594000000E+02  0.51100000000E-03 0. -1.
         11   -1    0    0    0    0 -0.00000000000E+00 -0.00000000000E+00 -0.45593999997E+02  0.45594000000E+02  0.51100000000E-03 0.  1.
    9900012    2    1    2    0    0  0.21733561941E+02  0.23424268696E+02 -0.25142041177E+02  0.50528852037E+02  0.29999976250E+02 0.  0.
         12    1    1    2    0    0 -0.21733561941E+02 -0.23424268696E+02  0.25142041177E+02  0.40659147963E+02  0.00000000000E+00 0. -1.
         11    1    3    3    0    0  0.41587913190E+01  0.67966567013E+01 -0.55512448513E+01  0.97111486040E+01  0.51100000000E-03 0. -1.
        -11    1    3    3    0    0  0.12356282893E+02  0.21508294009E+02 -0.22122886652E+02  0.33237126111E+02  0.51100000000E-03 0.  1.
         12    1    3    3    0    0  0.52184877292E+01 -0.48806820143E+01  0.25320903258E+01  0.75805773212E+01  0.00000000000E+00 0. -1.
</event>
<event>
 7    1  0.2744502E-011  0.5052883E+02  0.7816164E-02  0.1300439E+00
        -11   -1    0    0    0    0  0.00000000000E+00  0.00000000000E+00  0.45593999997E+02  0.45594000000E+02  0.51100000000E-03 0. -1.
         11   -1    0    0    0    0 -0.00000000000E+00 -0.00000000000E+00 -0.45593999997E+02  0.45594000000E+02  0.51100000000E-03 0.  1.
    9900012    2    1    2    0    0  0.10558017301E+02 -0.74560802628E+01 -0.38550013501E+02  0.50528826335E+02  0.29999898126E+02 0.  0.
         12    1    1    2    0    0 -0.10558017301E+02  0.74560802628E+01  0.38550013501E+02  0.40659173665E+02  0.00000000000E+00 0. -1.
         11    1    3    3    0    0  0.91702847790E+00  0.31228123989E+01 -0.51272396300E+01  0.60730128431E+01  0.51100000000E-03 0. -1.
        -11    1    3    3    0    0  0.13614608766E+02 -0.76622000483E+00 -0.30597613937E+02  0.33498636447E+02  0.51100000000E-03 0.  1.
         12    1    3    3    0    0 -0.39736199426E+01 -0.98126726569E+01 -0.28251599342E+01  0.10957177044E+02  0.00000000000E+00 0. -1.
</event>
<event>
 7    1  0.2744502E-011  0.5052887E+02  0.7816164E-02  0.1300439E+00
        -11   -1    0    0    0    0  0.00000000000E+00  0.00000000000E+00  0.45593999997E+02  0.45594000000E+02  0.51100000000E-03 0. -1.
         11   -1    0    0    0    0 -0.00000000000E+00 -0.00000000000E+00 -0.45593999997E+02  0.45594000000E+02  0.51100000000E-03 0.  1.
    9900012    2    1    2    0    0 -0.90205993690E+01  0.35508435924E+02 -0.17633627732E+02  0.50528867425E+02  0.30000023025E+02 0.  0.
         12    1    1    2    0    0  0.90205993690E+01 -0.35508435924E+02  0.17633627732E+02  0.40659132575E+02  0.00000000000E+00 0. -1.
         11    1    3    3    0    0  0.10002565565E+01  0.75877869525E+01 -0.64604793900E+01  0.10015628698E+02  0.51100000000E-03 0. -1.
        -11    1    3    3    0    0  0.75759701246E+01  0.14507766794E+02 -0.17349907813E+01  0.16458457217E+02  0.51100000000E-03 0.  1.
         12    1    3    3    0    0 -0.17596826050E+02  0.13412882177E+02 -0.94381575609E+01  0.24054781510E+02  0.00000000000E+00 0. -1.
</event>
<event>
 7    1  0.2744502E-011  0.5052884E+02  0.7816164E-02  0.1300439E+00
        -11   -1    0    0    0    0  0.00000000000E+00  0.00000000000E+00  0.45593999997E+02  0.45594000000E+02  0.51100000000E-03 0.  1.
         11   -1    0    0    0    0 -0.00000000000E+00 -0.00000000000E+00 -0.45593999997E+02  0.45594000000E+02  0.51100000000E-03 0. -1.
    9900012    2    1    2    0    0  0.10585827055E+02 -0.37708704865E+02  0.10916078122E+02  0.50528844591E+02  0.29999953619E+02 0.  0.
         12    1    1    2    0    0 -0.10585827055E+02  0.37708704865E+02 -0.10916078122E+02  0.40659155409E+02  0.00000000000E+00 0. -1.
         11    1    3    3    0    0  0.83337388216E+01 -0.31276481404E+02  0.12353893957E+01  0.32391290172E+02  0.51100000000E-03 0. -1.
        -11    1    3    3    0    0  0.26853663625E+01 -0.10381258986E+02  0.92133038069E+01  0.14137421898E+02  0.51100000000E-03 0.  1.
        -12    1    3    3    0    0 -0.43327812923E+00  0.39490355256E+01  0.46738491893E+00  0.40001325206E+01  0.00000000000E+00 0.  1.
</event>
<event>
 7    1  0.2744502E-011  0.5052886E+02  0.7816164E-02  0.1300439E+00
        -11   -1    0    0    0    0  0.00000000000E+00  0.00000000000E+00  0.45593999997E+02  0.45594000000E+02  0.51100000000E-03 0.  1.
         11   -1    0    0    0    0 -0.00000000000E+00 -0.00000000000E+00 -0.45593999997E+02  0.45594000000E+02  0.51100000000E-03 0. -1.
    9900012    2    1    2    0    0 -0.32400649371E+02 -0.53177710181E+01  0.23980933282E+02  0.50528856756E+02  0.29999990596E+02 0.  0.
         12    1    1    2    0    0  0.32400649371E+02  0.53177710181E+01 -0.23980933282E+02  0.40659143244E+02  0.00000000000E+00 0. -1.
         11    1    3    3    0    0 -0.12402377810E+02  0.78603593260E+01  0.13195292390E+02  0.19741326339E+02  0.51100000000E-03 0.  1.
        -11    1    3    3    0    0 -0.49041435455E+01  0.30071769302E+00 -0.34863748331E+01  0.60246049484E+01  0.51100000000E-03 0. -1.
        -12    1    3    3    0    0 -0.15094128015E+02 -0.13478848037E+02  0.14272015724E+02  0.24762925469E+02  0.00000000000E+00 0.  1.
</event>
<event>
 7    1  0.2744502E-011  0.5052886E+02  0.7816164E-02  0.1300439E+00
        -11   -1    0    0    0    0  0.00000000000E+00  0.00000000000E+00  0.45593999997E+02  0.45594000000E+02  0.51100000000E-03 0.  1.
         11   -1    0    0    0    0 -0.00000000000E+00 -0.00000000000E+00 -0.45593999997E+02  0.45594000000E+02  0.51100000000E-03 0. -1.
    9900012    2    1    2    0    0 -0.37510866215E+02  0.66792368109E+01  0.14194652420E+02  0.50528862701E+02  0.30000008666E+02 0.  0.
         12    1    1    2    0    0  0.37510866215E+02 -0.66792368109E+01 -0.14194652420E+02  0.40659137299E+02  0.00000000000E+00 0. -1.
         11    1    3    3    0    0 -0.76212739133E+01 -0.57972920542E+01  0.80929283072E+01  0.12537459873E+02  0.51100000000E-03 0. -1.
        -11    1    3    3    0    0 -0.18208562015E+02 -0.89005655091E+00  0.84353252979E+01  0.20087275685E+02  0.51100000000E-03 0.  1.
         12    1    3    3    0    0 -0.11681030287E+02  0.13366585416E+02 -0.23336011848E+01  0.17904127142E+02  0.00000000000E+00 0. -1.
</event>
<event>
 7    1  0.2744502E-011  0.5052885E+02  0.7816164E-02  0.1300439E+00
        -11   -1    0    0    0    0  0.00000000000E+00  0.00000000000E+00  0.45593999997E+02  0.45594000000E+02  0.51100000000E-03 0.  1.
         11   -1    0    0    0    0 -0.00000000000E+00 -0.00000000000E+00 -0.45593999997E+02  0.45594000000E+02  0.51100000000E-03 0. -1.
    9900012    2    1    2    0    0  0.36450882297E+02  0.17840670758E+02  0.24919331980E+01  0.50528854849E+02  0.29999984798E+02 0.  0.
         12    1    1    2    0    0 -0.36450882297E+02 -0.17840670758E+02 -0.24919331980E+01  0.40659145151E+02  0.00000000000E+00 0. -1.
         11    1    3    3    0    0  0.15452975300E+02  0.55482415349E+01  0.12042029533E+02  0.20361431808E+02  0.51100000000E-03 0. -1.
        -11    1    3    3    0    0  0.11843062665E+02  0.87635440897E+01  0.21599088141E+01  0.14890367512E+02  0.51100000000E-03 0.  1.
         12    1    3    3    0    0  0.91548443333E+01  0.35288851339E+01 -0.11710005149E+02  0.15277055529E+02  0.00000000000E+00 0. -1.
</event>
<event>
 7    1  0.2744502E-011  0.5052886E+02  0.7816164E-02  0.1300439E+00
        -11   -1    0    0    0    0  0.00000000000E+00  0.00000000000E+00  0.45593999997E+02  0.45594000000E+02  0.51100000000E-03 0. -1.
         11   -1    0    0    0    0 -0.00000000000E+00 -0.00000000000E+00 -0.45593999997E+02  0.45594000000E+02  0.51100000000E-03 0.  1.
    9900012    2    1    2    0    0  0.22105207096E+02 -0.31612940637E+02  0.12850982818E+02  0.50528856430E+02  0.29999989604E+02 0.  0.
         12    1    1    2    0    0 -0.22105207096E+02  0.31612940637E+02 -0.12850982818E+02  0.40659143570E+02  0.00000000000E+00 0. -1.
         11    1    3    3    0    0  0.11097772316E+02 -0.10109640855E+02  0.16448081990E+02  0.22268919821E+02  0.51100000000E-03 0. -1.
        -11    1    3    3    0    0 -0.58211035218E+00 -0.64376164894E+01  0.42071650307E+01  0.77124572208E+01  0.51100000000E-03 0.  1.
         12    1    3    3    0    0  0.11589545132E+02 -0.15065683293E+02 -0.78042642022E+01  0.20547479388E+02  0.00000000000E+00 0. -1.
</event>
<event>
 7    1  0.2744502E-011  0.5052887E+02  0.7816164E-02  0.1300439E+00
        -11   -1    0    0    0    0  0.00000000000E+00  0.00000000000E+00  0.45593999997E+02  0.45594000000E+02  0.51100000000E-03 0.  1.
         11   -1    0    0    0    0 -0.00000000000E+00 -0.00000000000E+00 -0.45593999997E+02  0.45594000000E+02  0.51100000000E-03 0. -1.
    9900012    2    1    2    0    0  0.14614035459E+02 -0.32557371566E+02  0.19483642383E+02  0.50528870691E+02  0.30000032953E+02 0.  0.
         12    1    1    2    0    0 -0.14614035459E+02  0.32557371566E+02 -0.19483642383E+02  0.40659129309E+02  0.00000000000E+00 0. -1.
         11    1    3    3    0    0 -0.40348798163E+01 -0.64599505406E+01  0.29177796709E+01  0.81562647449E+01  0.51100000000E-03 0. -1.
        -11    1    3    3    0    0  0.37583628118E+01 -0.23588398937E+02  0.10695988913E+02  0.26171397259E+02  0.51100000000E-03 0.  1.
         12    1    3    3    0    0  0.14890552463E+02 -0.25090220887E+01  0.58698737989E+01  0.16201208687E+02  0.00000000000E+00 0. -1.
</event>
<event>
 7    1  0.2744502E-011  0.5052886E+02  0.7816164E-02  0.1300439E+00
        -11   -1    0    0    0    0  0.00000000000E+00  0.00000000000E+00  0.45593999997E+02  0.45594000000E+02  0.51100000000E-03 0. -1.
         11   -1    0    0    0    0 -0.00000000000E+00 -0.00000000000E+00 -0.45593999997E+02  0.45594000000E+02  0.51100000000E-03 0.  1.
    9900012    2    1    2    0    0 -0.69802675214E+01  0.14227311443E+01 -0.40030206764E+02  0.50528858935E+02  0.29999997218E+02 0.  0.
         12    1    1    2    0    0  0.69802675214E+01 -0.14227311443E+01  0.40030206764E+02  0.40659141065E+02  0.00000000000E+00 0. -1.
         11    1    3    3    0    0  0.33102541393E+01 -0.97233025788E+01 -0.40105832464E+01  0.11026566725E+02  0.51100000000E-03 0. -1.
        -11    1    3    3    0    0 -0.46610352279E+01  0.33046957462E+01 -0.19990844353E+02  0.20791347277E+02  0.51100000000E-03 0.  1.
        -12    1    3    3    0    0 -0.56294864329E+01  0.78413379768E+01 -0.16028779164E+02  0.18710944933E+02  0.00000000000E+00 0.  1.
</event>
<event>
 7    1  0.2744502E-011  0.5052886E+02  0.7816164E-02  0.1300439E+00
        -11   -1    0    0    0    0  0.00000000000E+00  0.00000000000E+00  0.45593999997E+02  0.45594000000E+02  0.51100000000E-03 0.  1.
         11   -1    0    0    0    0 -0.00000000000E+00 -0.00000000000E+00 -0.45593999997E+02  0.45594000000E+02  0.51100000000E-03 0. -1.
    9900012    2    1    2    0    0  0.14609234706E+02  0.53753968200E+01  0.37561165159E+02  0.50528858865E+02  0.29999997008E+02 0.  0.
         12    1    1    2    0    0 -0.14609234706E+02 -0.53753968200E+01 -0.37561165159E+02  0.40659141135E+02  0.00000000000E+00 0. -1.
         11    1    3    3    0    0  0.12159138940E+02  0.74366269973E+01  0.27550302344E+02  0.31018820744E+02  0.51100000000E-03 0. -1.
        -11    1    3    3    0    0  0.74014871937E+01 -0.18408861289E+00  0.11791669208E+02  0.13923338833E+02  0.51100000000E-03 0.  1.
         12    1    3    3    0    0 -0.49513914277E+01 -0.18771415644E+01 -0.17808063927E+01  0.55866992878E+01  0.00000000000E+00 0. -1.
</event>
<event>
 7    1  0.2744502E-011  0.5052886E+02  0.7816164E-02  0.1300439E+00
        -11   -1    0    0    0    0  0.00000000000E+00  0.00000000000E+00  0.45593999997E+02  0.45594000000E+02  0.51100000000E-03 0. -1.
         11   -1    0    0    0    0 -0.00000000000E+00 -0.00000000000E+00 -0.45593999997E+02  0.45594000000E+02  0.51100000000E-03 0.  1.
    9900012    2    1    2    0    0  0.17003840322E+02 -0.33861683957E+02 -0.14745217281E+02  0.50528860083E+02  0.30000000709E+02 0.  0.
         12    1    1    2    0    0 -0.17003840322E+02  0.33861683957E+02  0.14745217281E+02  0.40659139917E+02  0.00000000000E+00 0. -1.
         11    1    3    3    0    0  0.13578135617E+01 -0.64583339298E+00  0.23933339924E+01  0.28264476468E+01  0.51100000000E-03 0. -1.
        -11    1    3    3    0    0 -0.57725114341E+01 -0.52503777201E+01  0.13513937151E+01  0.79192562589E+01  0.51100000000E-03 0.  1.
        -12    1    3    3    0    0  0.21418538194E+02 -0.27965472844E+02 -0.18489944988E+02  0.39783156178E+02  0.00000000000E+00 0.  1.
</event>
<event>
 7    1  0.2744502E-011  0.5052885E+02  0.7816164E-02  0.1300439E+00
        -11   -1    0    0    0    0  0.00000000000E+00  0.00000000000E+00  0.45593999997E+02  0.45594000000E+02  0.51100000000E-03 0.  1.
         11   -1    0    0    0    0 -0.00000000000E+00 -0.00000000000E+00 -0.45593999997E+02  0.45594000000E+02  0.51100000000E-03 0. -1.
    9900012    2    1    2    0    0 -0.48632102108E+01 -0.28018673110E+02  0.29059764620E+02  0.50528846342E+02  0.29999958941E+02 0.  0.
         12    1    1    2    0    0  0.48632102108E+01  0.28018673110E+02 -0.29059764620E+02  0.40659153658E+02  0.00000000000E+00 0. -1.
         11    1    3    3    0    0  0.20348663776E+01  0.17401279396E+01  0.25049976435E+01  0.36665705879E+01  0.51100000000E-03 0. -1.
        -11    1    3    3    0    0  0.76612594067E+01 -0.13992031101E+02  0.17177494793E+02  0.23442230219E+02  0.51100000000E-03 0.  1.
        -12    1    3    3    0    0 -0.14559335995E+02 -0.15766769949E+02  0.93772721835E+01  0.23420045535E+02  0.00000000000E+00 0.  1.
</event>
<event>
 7    1  0.2744502E-011  0.5052886E+02  0.7816164E-02  0.1300439E+00
        -11   -1    0    0    0    0  0.00000000000E+00  0.00000000000E+00  0.45593999997E+02  0.45594000000E+02  0.51100000000E-03 0. -1.
         11   -1    0    0    0    0 -0.00000000000E+00 -0.00000000000E+00 -0.45593999997E+02  0.45594000000E+02  0.51100000000E-03 0.  1.
    9900012    2    1    2    0    0 -0.36560524345E+02 -0.17277207731E+02 -0.42416534204E+01  0.50528862391E+02  0.30000007725E+02 0.  0.
         12    1    1    2    0    0  0.36560524345E+02  0.17277207731E+02  0.42416534204E+01  0.40659137609E+02  0.00000000000E+00 0. -1.
         11    1    3    3    0    0 -0.18766886198E+02 -0.78371808829E+01 -0.59283846423E+00  0.20346225190E+02  0.51100000000E-03 0. -1.
        -11    1    3    3    0    0 -0.14507082647E+02 -0.48603915225E+01  0.79828908212E+01  0.17257039109E+02  0.51100000000E-03 0.  1.
         12    1    3    3    0    0 -0.32865554997E+01 -0.45796353253E+01 -0.11631705777E+02  0.12925598093E+02  0.00000000000E+00 0. -1.
</event>
<event>
 7    1  0.2744502E-011  0.5052886E+02  0.7816164E-02  0.1300439E+00
        -11   -1    0    0    0    0  0.00000000000E+00  0.00000000000E+00  0.45593999997E+02  0.45594000000E+02  0.51100000000E-03 0.  1.
         11   -1    0    0    0    0 -0.00000000000E+00 -0.00000000000E+00 -0.45593999997E+02  0.45594000000E+02  0.51100000000E-03 0. -1.
    9900012    2    1    2    0    0  0.42252839698E+00  0.40655972313E+02 -0.28119616558E+00  0.50528859745E+02  0.29999999682E+02 0.  0.
         12    1    1    2    0    0 -0.42252839698E+00 -0.40655972313E+02  0.28119616558E+00  0.40659140255E+02  0.00000000000E+00 0. -1.
         11    1    3    3    0    0  0.21367401608E+01  0.11190540953E+02 -0.12663109272E+01  0.11462870887E+02  0.51100000000E-03 0. -1.
        -11    1    3    3    0    0  0.22474233663E+01  0.29763302843E+02 -0.65403835028E+01  0.30556205991E+02  0.51100000000E-03 0.  1.
         12    1    3    3    0    0 -0.39616351301E+01 -0.29787148351E+00  0.75254982645E+01  0.85097828676E+01  0.00000000000E+00 0. -1.
</event>
<event>
 7    1  0.2744502E-011  0.5052887E+02  0.7816164E-02  0.1300439E+00
        -11   -1    0    0    0    0  0.00000000000E+00  0.00000000000E+00  0.45593999997E+02  0.45594000000E+02  0.51100000000E-03 0. -1.
         11   -1    0    0    0    0 -0.00000000000E+00 -0.00000000000E+00 -0.45593999997E+02  0.45594000000E+02  0.51100000000E-03 0.  1.
    9900012    2    1    2    0    0 -0.16926255850E+01 -0.40570820547E+02 -0.20757526882E+01  0.50528865597E+02  0.30000017468E+02 0.  0.
         12    1    1    2    0    0  0.16926255850E+01  0.40570820547E+02  0.20757526882E+01  0.40659134403E+02  0.00000000000E+00 0. -1.
         11    1    3    3    0    0  0.24832612617E+01 -0.22048415620E+02  0.30764550242E+01  0.22400084679E+02  0.51100000000E-03 0. -1.
        -11    1    3    3    0    0 -0.56299594229E+01 -0.22568532507E+02 -0.34963650961E+01  0.23521472568E+02  0.51100000000E-03 0.  1.
         12    1    3    3    0    0  0.14540725763E+01  0.40461275807E+01 -0.16558426163E+01  0.46073083494E+01  0.00000000000E+00 0. -1.
</event>
<event>
 7    1  0.2744502E-011  0.5052886E+02  0.7816164E-02  0.1300439E+00
        -11   -1    0    0    0    0  0.00000000000E+00  0.00000000000E+00  0.45593999997E+02  0.45594000000E+02  0.51100000000E-03 0.  1.
         11   -1    0    0    0    0 -0.00000000000E+00 -0.00000000000E+00 -0.45593999997E+02  0.45594000000E+02  0.51100000000E-03 0. -1.
    9900012    2    1    2    0    0  0.30446604247E+02  0.14837752533E+02  0.22494687280E+02  0.50528861221E+02  0.30000004167E+02 0.  0.
         12    1    1    2    0    0 -0.30446604247E+02 -0.14837752533E+02 -0.22494687280E+02  0.40659138779E+02  0.00000000000E+00 0. -1.
         11    1    3    3    0    0  0.98245573503E-01  0.80928619299E+01  0.14570306106E+02  0.16667269923E+02  0.51100000000E-03 0. -1.
        -11    1    3    3    0    0  0.75316506027E+01  0.60143451248E+01  0.49654614743E+01  0.10842228369E+02  0.51100000000E-03 0.  1.
         12    1    3    3    0    0  0.22816708071E+02  0.73054547876E+00  0.29589196999E+01  0.23019362930E+02  0.00000000000E+00 0. -1.
</event>
<event>
 7    1  0.2744502E-011  0.5052886E+02  0.7816164E-02  0.1300439E+00
        -11   -1    0    0    0    0  0.00000000000E+00  0.00000000000E+00  0.45593999997E+02  0.45594000000E+02  0.51100000000E-03 0. -1.
         11   -1    0    0    0    0 -0.00000000000E+00 -0.00000000000E+00 -0.45593999997E+02  0.45594000000E+02  0.51100000000E-03 0.  1.
    9900012    2    1    2    0    0 -0.37529646818E+02 -0.37306365307E+01 -0.15191237772E+02  0.50528859032E+02  0.29999997512E+02 0.  0.
         12    1    1    2    0    0  0.37529646818E+02  0.37306365307E+01  0.15191237772E+02  0.40659140968E+02  0.00000000000E+00 0. -1.
         11    1    3    3    0    0 -0.12534934404E+02 -0.61734971690E+01 -0.51498311892E+01  0.14891521391E+02  0.51100000000E-03 0. -1.
        -11    1    3    3    0    0 -0.24057148611E+02  0.63654415990E+01 -0.15145906258E+02  0.29131833493E+02  0.51100000000E-03 0.  1.
         12    1    3    3    0    0 -0.93756380290E+00 -0.39225809608E+01  0.51044996744E+01  0.65055041468E+01  0.00000000000E+00 0. -1.
</event>
<event>
 7    1  0.2744502E-011  0.5052886E+02  0.7816164E-02  0.1300439E+00
        -11   -1    0    0    0    0  0.00000000000E+00  0.00000000000E+00  0.45593999997E+02  0.45594000000E+02  0.51100000000E-03 0.  1.
         11   -1    0    0    0    0 -0.00000000000E+00 -0.00000000000E+00 -0.45593999997E+02  0.45594000000E+02  0.51100000000E-03 0. -1.
    9900012    2    1    2    0    0  0.35177357841E+02 -0.16476061766E+02  0.12010757567E+02  0.50528863101E+02  0.30000009882E+02 0.  0.
         12    1    1    2    0    0 -0.35177357841E+02  0.16476061766E+02 -0.12010757567E+02  0.40659136899E+02  0.00000000000E+00 0. -1.
         11    1    3    3    0    0  0.43199669297E+01 -0.35224434227E+01 -0.88675571506E+01  0.10473933932E+02  0.51100000000E-03 0. -1.
        -11    1    3    3    0    0  0.43187218672E+01 -0.20361127866E+01  0.38111666662E+00  0.47898187879E+01  0.51100000000E-03 0.  1.
        -12    1    3    3    0    0  0.26538669044E+02 -0.10917505557E+02  0.20497198051E+02  0.35265110381E+02  0.00000000000E+00 0.  1.
</event>
<event>
 7    1  0.2744502E-011  0.5052886E+02  0.7816164E-02  0.1300439E+00
        -11   -1    0    0    0    0  0.00000000000E+00  0.00000000000E+00  0.45593999997E+02  0.45594000000E+02  0.51100000000E-03 0.  1.
         11   -1    0    0    0    0 -0.00000000000E+00 -0.00000000000E+00 -0.45593999997E+02  0.45594000000E+02  0.51100000000E-03 0. -1.
    9900012    2    1    2    0    0 -0.19212341176E+02 -0.10655715841E+02  0.34212672302E+02  0.50528864746E+02  0.30000014882E+02 0.  0.
         12    1    1    2    0    0  0.19212341176E+02  0.10655715841E+02 -0.34212672302E+02  0.40659135254E+02  0.00000000000E+00 0. -1.
         11    1    3    3    0    0  0.66725169161E+01 -0.37867861815E+01  0.28596613183E+01  0.81877893657E+01  0.51100000000E-03 0. -1.
        -11    1    3    3    0    0 -0.72583095364E+01 -0.59721789778E+01  0.72738879195E+01  0.11885260822E+02  0.51100000000E-03 0.  1.
        -12    1    3    3    0    0 -0.18626548556E+02 -0.89675068150E+00  0.24079123065E+02  0.30455814559E+02  0.00000000000E+00 0.  1.
</event>
<event>
 7    1  0.2744502E-011  0.5052888E+02  0.7816164E-02  0.1300439E+00
        -11   -1    0    0    0    0  0.00000000000E+00  0.00000000000E+00  0.45593999997E+02  0.45594000000E+02  0.51100000000E-03 0. -1.
         11   -1    0    0    0    0 -0.00000000000E+00 -0.00000000000E+00 -0.45593999997E+02  0.45594000000E+02  0.51100000000E-03 0.  1.
    9900012    2    1    2    0    0 -0.32248331360E+02 -0.23966833379E+02  0.62289633476E+01  0.50528880948E+02  0.30000064129E+02 0.  0.
         12    1    1    2    0    0  0.32248331360E+02  0.23966833379E+02 -0.62289633476E+01  0.40659119052E+02  0.00000000000E+00 0. -1.
         11    1    3    3    0    0 -0.16980393220E+02 -0.56572516265E+01 -0.42055398898E+01  0.18385451202E+02  0.51100000000E-03 0. -1.
        -11    1    3    3    0    0 -0.17509532643E+02 -0.11009316770E+02  0.20219280597E+01  0.20781650138E+02  0.51100000000E-03 0.  1.
         12    1    3    3    0    0  0.22415945035E+01 -0.73002649830E+01  0.84125751777E+01  0.11361779608E+02  0.00000000000E+00 0. -1.
</event>
<event>
 7    1  0.2744502E-011  0.5052886E+02  0.7816164E-02  0.1300439E+00
        -11   -1    0    0    0    0  0.00000000000E+00  0.00000000000E+00  0.45593999997E+02  0.45594000000E+02  0.51100000000E-03 0.  1.
         11   -1    0    0    0    0 -0.00000000000E+00 -0.00000000000E+00 -0.45593999997E+02  0.45594000000E+02  0.51100000000E-03 0. -1.
    9900012    2    1    2    0    0  0.74389918667E+01  0.25395318717E+01  0.39892076197E+02  0.50528861231E+02  0.30000004198E+02 0.  0.
         12    1    1    2    0    0 -0.74389918667E+01 -0.25395318717E+01 -0.39892076197E+02  0.40659138769E+02  0.00000000000E+00 0. -1.
         11    1    3    3    0    0  0.10977563389E+02  0.37496309986E+01  0.13352138480E+02  0.17687459762E+02  0.51100000000E-03 0. -1.
        -11    1    3    3    0    0  0.71040166447E+01 -0.40979311645E+01  0.13113868482E+02  0.15467179418E+02  0.51100000000E-03 0.  1.
        -12    1    3    3    0    0 -0.10642588167E+02  0.28878320376E+01  0.13426069235E+02  0.17374222051E+02  0.00000000000E+00 0.  1.
</event>
<event>
 7    1  0.2744502E-011  0.5052887E+02  0.7816164E-02  0.1300439E+00
        -11   -1    0    0    0    0  0.00000000000E+00  0.00000000000E+00  0.45593999997E+02  0.45594000000E+02  0.51100000000E-03 0.  1.
         11   -1    0    0    0    0 -0.00000000000E+00 -0.00000000000E+00 -0.45593999997E+02  0.45594000000E+02  0.51100000000E-03 0. -1.
    9900012    2    1    2    0    0  0.22462569682E+02 -0.25311043436E+02  0.22537715037E+02  0.50528873649E+02  0.30000041944E+02 0.  0.
         12    1    1    2    0    0 -0.22462569682E+02  0.25311043436E+02 -0.22537715037E+02  0.40659126351E+02  0.00000000000E+00 0. -1.
         11    1    3    3    0    0 -0.12884789542E+01 -0.48738836170E+01 -0.23367696865E+01  0.55565647982E+01  0.51100000000E-03 0. -1.
        -11    1    3    3    0    0  0.86594969735E+01 -0.13388076300E+02  0.11519771607E+01  0.15986072891E+02  0.51100000000E-03 0.  1.
        -12    1    3    3    0    0  0.15091551662E+02 -0.70490835196E+01  0.23722507563E+02  0.28986235960E+02  0.00000000000E+00 0.  1.
</event>
<event>
 7    1  0.2744502E-011  0.5052890E+02  0.7816164E-02  0.1300439E+00
        -11   -1    0    0    0    0  0.00000000000E+00  0.00000000000E+00  0.45593999997E+02  0.45594000000E+02  0.51100000000E-03 0.  1.
         11   -1    0    0    0    0 -0.00000000000E+00 -0.00000000000E+00 -0.45593999997E+02  0.45594000000E+02  0.51100000000E-03 0. -1.
    9900012    2    1    2    0    0  0.31390566781E+02  0.24430333343E+02  0.84233898951E+01  0.50528900559E+02  0.30000123738E+02 0.  0.
         12    1    1    2    0    0 -0.31390566781E+02 -0.24430333343E+02 -0.84233898951E+01  0.40659099441E+02  0.00000000000E+00 0. -1.
         11    1    3    3    0    0  0.75493730729E+01 -0.46609578209E+01  0.21833548548E+00  0.88749778731E+01  0.51100000000E-03 0. -1.
        -11    1    3    3    0    0  0.10564779884E+02  0.30510292932E+01 -0.91560771249E+00  0.11034568025E+02  0.51100000000E-03 0.  1.
        -12    1    3    3    0    0  0.13276413824E+02  0.26040261870E+02  0.91206621221E+01  0.30619354661E+02  0.00000000000E+00 0.  1.
</event>
<event>
 7    1  0.2744502E-011  0.5052886E+02  0.7816164E-02  0.1300439E+00
        -11   -1    0    0    0    0  0.00000000000E+00  0.00000000000E+00  0.45593999997E+02  0.45594000000E+02  0.51100000000E-03 0. -1.
         11   -1    0    0    0    0 -0.00000000000E+00 -0.00000000000E+00 -0.45593999997E+02  0.45594000000E+02  0.51100000000E-03 0.  1.
    9900012    2    1    2    0    0 -0.32011005112E+02 -0.16428389745E+02 -0.18935914097E+02  0.50528864733E+02  0.30000014844E+02 0.  0.
         12    1    1    2    0    0  0.32011005112E+02  0.16428389745E+02  0.18935914097E+02  0.40659135267E+02  0.00000000000E+00 0. -1.
         11    1    3    3    0    0 -0.18371679281E+01 -0.41726135950E+01 -0.26917156941E+01  0.52944521764E+01  0.51100000000E-03 0.  1.
        -11    1    3    3    0    0 -0.16588783320E+02 -0.16674783889E+02  0.10760485723E+00  0.23521218694E+02  0.51100000000E-03 0. -1.
        -12    1    3    3    0    0 -0.13585053865E+02  0.44190077383E+01 -0.16351803260E+02  0.21713193864E+02  0.00000000000E+00 0.  1.
</event>
<event>
 7    1  0.2744502E-011  0.5052886E+02  0.7816164E-02  0.1300439E+00
        -11   -1    0    0    0    0  0.00000000000E+00  0.00000000000E+00  0.45593999997E+02  0.45594000000E+02  0.51100000000E-03 0.  1.
         11   -1    0    0    0    0 -0.00000000000E+00 -0.00000000000E+00 -0.45593999997E+02  0.45594000000E+02  0.51100000000E-03 0. -1.
    9900012    2    1    2    0    0 -0.34124891862E+02  0.34457406855E+01  0.21835392990E+02  0.50528858832E+02  0.29999996906E+02 0.  0.
         12    1    1    2    0    0  0.34124891862E+02 -0.34457406855E+01 -0.21835392990E+02  0.40659141168E+02  0.00000000000E+00 0. -1.
         11    1    3    3    0    0 -0.11209613526E+02  0.10967230210E+02  0.10102108946E+02  0.18654441275E+02  0.51100000000E-03 0. -1.
        -11    1    3    3    0    0 -0.17486524598E+02  0.25886944700E+01  0.98782957606E+01  0.20249953308E+02  0.51100000000E-03 0.  1.
        -12    1    3    3    0    0 -0.54287537384E+01 -0.10110183994E+02  0.18549882834E+01  0.11624464249E+02  0.00000000000E+00 0.  1.
</event>
<event>
 7    1  0.2744502E-011  0.5052886E+02  0.7816164E-02  0.1300439E+00
        -11   -1    0    0    0    0  0.00000000000E+00  0.00000000000E+00  0.45593999997E+02  0.45594000000E+02  0.51100000000E-03 0. -1.
         11   -1    0    0    0    0 -0.00000000000E+00 -0.00000000000E+00 -0.45593999997E+02  0.45594000000E+02  0.51100000000E-03 0.  1.
    9900012    2    1    2    0    0 -0.57872631043E+01  0.33298321676E+02 -0.22602982480E+02  0.50528862556E+02  0.30000008225E+02 0.  0.
         12    1    1    2    0    0  0.57872631043E+01 -0.33298321676E+02  0.22602982480E+02  0.40659137444E+02  0.00000000000E+00 0. -1.
         11    1    3    3    0    0  0.50740343570E+01  0.13079119905E+02 -0.17921062292E+02  0.22759035043E+02  0.51100000000E-03 0. -1.
        -11    1    3    3    0    0 -0.23740744250E+01  0.10878039388E+02 -0.91187469648E+01  0.14391647465E+02  0.51100000000E-03 0.  1.
         12    1    3    3    0    0 -0.84872230363E+01  0.93411623837E+01  0.44368267766E+01  0.13378180048E+02  0.00000000000E+00 0. -1.
</event>
<event>
 7    1  0.2744502E-011  0.5052886E+02  0.7816164E-02  0.1300439E+00
        -11   -1    0    0    0    0  0.00000000000E+00  0.00000000000E+00  0.45593999997E+02  0.45594000000E+02  0.51100000000E-03 0.  1.
         11   -1    0    0    0    0 -0.00000000000E+00 -0.00000000000E+00 -0.45593999997E+02  0.45594000000E+02  0.51100000000E-03 0. -1.
    9900012    2    1    2    0    0  0.30485919650E+02  0.13427566244E+02  0.23312543700E+02  0.50528861717E+02  0.30000005675E+02 0.  0.
         12    1    1    2    0    0 -0.30485919650E+02 -0.13427566244E+02 -0.23312543700E+02  0.40659138283E+02  0.00000000000E+00 0. -1.
         11    1    3    3    0    0  0.35492035815E-01 -0.11573134307E+01  0.91884361556E+01  0.92611010851E+01  0.51100000000E-03 0. -1.
        -11    1    3    3    0    0 -0.14663682179E+01  0.20966638523E+01  0.52873951994E+01  0.58739069891E+01  0.51100000000E-03 0.  1.
         12    1    3    3    0    0  0.31916795832E+02  0.12488215822E+02  0.88367123448E+01  0.35393853643E+02  0.00000000000E+00 0. -1.
</event>
<event>
 7    1  0.2744502E-011  0.5052886E+02  0.7816164E-02  0.1300439E+00
        -11   -1    0    0    0    0  0.00000000000E+00  0.00000000000E+00  0.45593999997E+02  0.45594000000E+02  0.51100000000E-03 0.  1.
         11   -1    0    0    0    0 -0.00000000000E+00 -0.00000000000E+00 -0.45593999997E+02  0.45594000000E+02  0.51100000000E-03 0. -1.
    9900012    2    1    2    0    0  0.39952853865E+02 -0.69722731986E+01  0.28849305411E+01  0.50528856505E+02  0.29999989833E+02 0.  0.
         12    1    1    2    0    0 -0.39952853865E+02  0.69722731986E+01 -0.28849305411E+01  0.40659143495E+02  0.00000000000E+00 0. -1.
         11    1    3    3    0    0 -0.84266753716E+00 -0.41620212985E+01 -0.40907789441E+01  0.58963533220E+01  0.51100000000E-03 0. -1.
        -11    1    3    3    0    0 -0.14628758251E+01  0.60901399339E+00  0.84261750314E+00  0.17946888982E+01  0.51100000000E-03 0.  1.
        -12    1    3    3    0    0  0.42258397227E+02 -0.34192658935E+01  0.61330919820E+01  0.42837814285E+02  0.00000000000E+00 0.  1.
</event>
<event>
 7    1  0.2744502E-011  0.5052881E+02  0.7816164E-02  0.1300439E+00
        -11   -1    0    0    0    0  0.00000000000E+00  0.00000000000E+00  0.45593999997E+02  0.45594000000E+02  0.51100000000E-03 0. -1.
         11   -1    0    0    0    0 -0.00000000000E+00 -0.00000000000E+00 -0.45593999997E+02  0.45594000000E+02  0.51100000000E-03 0.  1.
    9900012    2    1    2    0    0  0.20622453777E+01 -0.36811110841E+02 -0.17142306366E+02  0.50528814016E+02  0.29999860682E+02 0.  0.
         12    1    1    2    0    0 -0.20622453777E+01  0.36811110841E+02  0.17142306366E+02  0.40659185984E+02  0.00000000000E+00 0. -1.
         11    1    3    3    0    0  0.47368444264E+00  0.48601396230E+00  0.58082548115E+00  0.89327768551E+00  0.51100000000E-03 0. -1.
        -11    1    3    3    0    0 -0.25044377208E+01 -0.37261045668E+02 -0.67847843738E+01  0.37956435974E+02  0.51100000000E-03 0.  1.
        -12    1    3    3    0    0  0.40929986559E+01 -0.36079135606E-01 -0.10938347473E+02  0.11679100357E+02  0.00000000000E+00 0.  1.
</event>
<event>
 7    1  0.2744502E-011  0.5052886E+02  0.7816164E-02  0.1300439E+00
        -11   -1    0    0    0    0  0.00000000000E+00  0.00000000000E+00  0.45593999997E+02  0.45594000000E+02  0.51100000000E-03 0.  1.
         11   -1    0    0    0    0 -0.00000000000E+00 -0.00000000000E+00 -0.45593999997E+02  0.45594000000E+02  0.51100000000E-03 0. -1.
    9900012    2    1    2    0    0 -0.43857644644E+01 -0.33343768403E+02  0.22850037853E+02  0.50528855258E+02  0.29999986043E+02 0.  0.
         12    1    1    2    0    0  0.43857644644E+01  0.33343768403E+02 -0.22850037853E+02  0.40659144742E+02  0.00000000000E+00 0. -1.
         11    1    3    3    0    0 -0.75851178725E+01 -0.34563431158E+01  0.50064522848E+01  0.97234194404E+01  0.51100000000E-03 0. -1.
        -11    1    3    3    0    0 -0.34085744563E+01 -0.21996359146E+02  0.25968260470E+01  0.22409857235E+02  0.51100000000E-03 0.  1.
         12    1    3    3    0    0  0.66079278643E+01 -0.78910661410E+01  0.15246759521E+02  0.18395578583E+02  0.00000000000E+00 0. -1.
</event>
<event>
 7    1  0.2744502E-011  0.5052889E+02  0.7816164E-02  0.1300439E+00
        -11   -1    0    0    0    0  0.00000000000E+00  0.00000000000E+00  0.45593999997E+02  0.45594000000E+02  0.51100000000E-03 0.  1.
         11   -1    0    0    0    0 -0.00000000000E+00 -0.00000000000E+00 -0.45593999997E+02  0.45594000000E+02  0.51100000000E-03 0. -1.
    9900012    2    1    2    0    0  0.31104399548E+01 -0.17350857376E+02  0.36639272079E+02  0.50528888513E+02  0.30000087124E+02 0.  0.
         12    1    1    2    0    0 -0.31104399548E+01  0.17350857376E+02 -0.36639272079E+02  0.40659111487E+02  0.00000000000E+00 0. -1.
         11    1    3    3    0    0  0.34077102285E+01 -0.83865695333E+01  0.94528828911E+01  0.13088316651E+02  0.51100000000E-03 0. -1.
        -11    1    3    3    0    0  0.89551838299E+01 -0.12618550176E+02  0.19355633806E+02  0.24780308438E+02  0.51100000000E-03 0.  1.
        -12    1    3    3    0    0 -0.92524541036E+01  0.36542623324E+01  0.78307553816E+01  0.12660263425E+02  0.00000000000E+00 0.  1.
</event>
<event>
 7    1  0.2744502E-011  0.5052881E+02  0.7816164E-02  0.1300439E+00
        -11   -1    0    0    0    0  0.00000000000E+00  0.00000000000E+00  0.45593999997E+02  0.45594000000E+02  0.51100000000E-03 0.  1.
         11   -1    0    0    0    0 -0.00000000000E+00 -0.00000000000E+00 -0.45593999997E+02  0.45594000000E+02  0.51100000000E-03 0. -1.
    9900012    2    1    2    0    0 -0.23205182971E+02 -0.26457986290E+02 -0.20363303658E+02  0.50528810496E+02  0.29999849984E+02 0.  0.
         12    1    1    2    0    0  0.23205182971E+02  0.26457986290E+02  0.20363303658E+02  0.40659189504E+02  0.00000000000E+00 0. -1.
         11    1    3    3    0    0 -0.11758444877E+02 -0.28214020655E+01 -0.24041337717E+01  0.12328876469E+02  0.51100000000E-03 0.  1.
        -11    1    3    3    0    0 -0.16937623887E+02 -0.12318077262E+02 -0.13164850619E+02  0.24737247673E+02  0.51100000000E-03 0. -1.
        -12    1    3    3    0    0  0.54908857921E+01 -0.11318506962E+02 -0.47943192675E+01  0.13462686354E+02  0.00000000000E+00 0.  1.
</event>
<event>
 7    1  0.2744502E-011  0.5052886E+02  0.7816164E-02  0.1300439E+00
        -11   -1    0    0    0    0  0.00000000000E+00  0.00000000000E+00  0.45593999997E+02  0.45594000000E+02  0.51100000000E-03 0.  1.
         11   -1    0    0    0    0 -0.00000000000E+00 -0.00000000000E+00 -0.45593999997E+02  0.45594000000E+02  0.51100000000E-03 0. -1.
    9900012    2    1    2    0    0  0.13245165312E+02  0.25802841071E+02  0.28494647998E+02  0.50528856182E+02  0.29999988851E+02 0.  0.
         12    1    1    2    0    0 -0.13245165312E+02 -0.25802841071E+02 -0.28494647998E+02  0.40659143818E+02  0.00000000000E+00 0. -1.
         11    1    3    3    0    0  0.10350015646E+02  0.14820508975E+02  0.18346970496E+02  0.25756196086E+02  0.51100000000E-03 0. -1.
        -11    1    3    3    0    0  0.69260543685E+01  0.86212753793E+01  0.14602566826E+02  0.18317521024E+02  0.51100000000E-03 0.  1.
         12    1    3    3    0    0 -0.40309047028E+01  0.23610567169E+01 -0.44548893250E+01  0.64551390722E+01  0.00000000000E+00 0. -1.
</event>
<event>
 7    1  0.2744502E-011  0.5052888E+02  0.7816164E-02  0.1300439E+00
        -11   -1    0    0    0    0  0.00000000000E+00  0.00000000000E+00  0.45593999997E+02  0.45594000000E+02  0.51100000000E-03 0.  1.
         11   -1    0    0    0    0 -0.00000000000E+00 -0.00000000000E+00 -0.45593999997E+02  0.45594000000E+02  0.51100000000E-03 0. -1.
    9900012    2    1    2    0    0  0.72050628905E+01 -0.22991154580E+02  0.32751456754E+02  0.50528879994E+02  0.30000061228E+02 0.  0.
         12    1    1    2    0    0 -0.72050628905E+01  0.22991154580E+02 -0.32751456754E+02  0.40659120006E+02  0.00000000000E+00 0. -1.
         11    1    3    3    0    0  0.14185504439E+01 -0.13456588837E+02  0.15924987664E+01  0.13624541133E+02  0.51100000000E-03 0.  1.
        -11    1    3    3    0    0 -0.13910071711E+01 -0.33932009711E+01 -0.64820253165E+00  0.37240945965E+01  0.51100000000E-03 0. -1.
        -12    1    3    3    0    0  0.71775196178E+01 -0.61413647716E+01  0.31807160519E+02  0.33180244264E+02  0.00000000000E+00 0.  1.
</event>
<event>
 7    1  0.2744502E-011  0.5052886E+02  0.7816164E-02  0.1300439E+00
        -11   -1    0    0    0    0  0.00000000000E+00  0.00000000000E+00  0.45593999997E+02  0.45594000000E+02  0.51100000000E-03 0.  1.
         11   -1    0    0    0    0 -0.00000000000E+00 -0.00000000000E+00 -0.45593999997E+02  0.45594000000E+02  0.51100000000E-03 0. -1.
    9900012    2    1    2    0    0  0.99742338751E+01  0.21741722082E+02  0.32878228536E+02  0.50528859181E+02  0.29999997966E+02 0.  0.
         12    1    1    2    0    0 -0.99742338751E+01 -0.21741722082E+02 -0.32878228536E+02  0.40659140819E+02  0.00000000000E+00 0. -1.
         11    1    3    3    0    0  0.11968979103E+02  0.18822217199E+02  0.11978078987E+02  0.25318110071E+02  0.51100000000E-03 0. -1.
        -11    1    3    3    0    0  0.38056688158E+01  0.25832498189E+01  0.13178296947E+01  0.47846598759E+01  0.51100000000E-03 0.  1.
         12    1    3    3    0    0 -0.58004140440E+01  0.33625506409E+00  0.19582319854E+02  0.20426089234E+02  0.00000000000E+00 0. -1.
</event>
<event>
 7    1  0.2744502E-011  0.5052886E+02  0.7816164E-02  0.1300439E+00
        -11   -1    0    0    0    0  0.00000000000E+00  0.00000000000E+00  0.45593999997E+02  0.45594000000E+02  0.51100000000E-03 0.  1.
         11   -1    0    0    0    0 -0.00000000000E+00 -0.00000000000E+00 -0.45593999997E+02  0.45594000000E+02  0.51100000000E-03 0. -1.
    9900012    2    1    2    0    0 -0.25952127825E+02 -0.20383449521E+01  0.31232960537E+02  0.50528860650E+02  0.30000002432E+02 0.  0.
         12    1    1    2    0    0  0.25952127825E+02  0.20383449521E+01 -0.31232960537E+02  0.40659139350E+02  0.00000000000E+00 0. -1.
         11    1    3    3    0    0  0.18099277198E+01 -0.58501967447E+01  0.10262319310E+02  0.11950558070E+02  0.51100000000E-03 0. -1.
        -11    1    3    3    0    0 -0.42958883916E+01 -0.47478221010E+00  0.12562760376E+02  0.13285444056E+02  0.51100000000E-03 0.  1.
        -12    1    3    3    0    0 -0.23466167153E+02  0.42866340026E+01  0.84078808503E+01  0.25292858524E+02  0.00000000000E+00 0.  1.
</event>
<event>
 7    1  0.2744502E-011  0.5052886E+02  0.7816164E-02  0.1300439E+00
        -11   -1    0    0    0    0  0.00000000000E+00  0.00000000000E+00  0.45593999997E+02  0.45594000000E+02  0.51100000000E-03 0. -1.
         11   -1    0    0    0    0 -0.00000000000E+00 -0.00000000000E+00 -0.45593999997E+02  0.45594000000E+02  0.51100000000E-03 0.  1.
    9900012    2    1    2    0    0  0.22228122988E+01 -0.10984640215E+01 -0.40583471258E+02  0.50528860104E+02  0.30000000773E+02 0.  0.
         12    1    1    2    0    0 -0.22228122988E+01  0.10984640215E+01  0.40583471258E+02  0.40659139896E+02  0.00000000000E+00 0. -1.
         11    1    3    3    0    0  0.51172441776E+01 -0.85236828001E+01 -0.90868914318E+01  0.13468888321E+02  0.51100000000E-03 0. -1.
        -11    1    3    3    0    0  0.51814671161E+01  0.81817844836E+01 -0.92960812841E+01  0.13424094990E+02  0.51100000000E-03 0.  1.
        -12    1    3    3    0    0 -0.80758989949E+01 -0.75656570500E+00 -0.22200498542E+02  0.23635876793E+02  0.00000000000E+00 0.  1.
</event>
<event>
 7    1  0.2744502E-011  0.5052884E+02  0.7816164E-02  0.1300439E+00
        -11   -1    0    0    0    0  0.00000000000E+00  0.00000000000E+00  0.45593999997E+02  0.45594000000E+02  0.51100000000E-03 0.  1.
         11   -1    0    0    0    0 -0.00000000000E+00 -0.00000000000E+00 -0.45593999997E+02  0.45594000000E+02  0.51100000000E-03 0. -1.
    9900012    2    1    2    0    0  0.15758050605E+02  0.37426562408E+02 -0.20257677605E+01  0.50528837840E+02  0.29999933097E+02 0.  0.
         12    1    1    2    0    0 -0.15758050605E+02 -0.37426562408E+02  0.20257677605E+01  0.40659162160E+02  0.00000000000E+00 0. -1.
         11    1    3    3    0    0  0.11243794433E+02  0.19342595158E+02  0.80686534847E+01  0.23783651318E+02  0.51100000000E-03 0. -1.
        -11    1    3    3    0    0  0.71377376399E+01  0.12047153506E+02  0.79010767303E+00  0.14025172962E+02  0.51100000000E-03 0.  1.
         12    1    3    3    0    0 -0.26234814679E+01  0.60368137446E+01 -0.10884528918E+02  0.12720013560E+02  0.00000000000E+00 0. -1.
</event>
<event>
 7    1  0.2744502E-011  0.5052886E+02  0.7816164E-02  0.1300439E+00
        -11   -1    0    0    0    0  0.00000000000E+00  0.00000000000E+00  0.45593999997E+02  0.45594000000E+02  0.51100000000E-03 0. -1.
         11   -1    0    0    0    0 -0.00000000000E+00 -0.00000000000E+00 -0.45593999997E+02  0.45594000000E+02  0.51100000000E-03 0.  1.
    9900012    2    1    2    0    0 -0.76970861132E+01  0.35635992703E+02 -0.17999906665E+02  0.50528858955E+02  0.29999997278E+02 0.  0.
         12    1    1    2    0    0  0.76970861132E+01 -0.35635992703E+02  0.17999906665E+02  0.40659141045E+02  0.00000000000E+00 0. -1.
         11    1    3    3    0    0 -0.60211697408E+01  0.94941513847E+01  0.62071563234E+01  0.12842203294E+02  0.51100000000E-03 0. -1.
        -11    1    3    3    0    0 -0.36681975014E+01  0.20594620325E+02 -0.11963261763E+02  0.24098001816E+02  0.51100000000E-03 0.  1.
        -12    1    3    3    0    0  0.19922811289E+01  0.55472209931E+01 -0.12243801226E+02  0.13588653845E+02  0.00000000000E+00 0.  1.
</event>
<event>
 7    1  0.2744502E-011  0.5052885E+02  0.7816164E-02  0.1300439E+00
        -11   -1    0    0    0    0  0.00000000000E+00  0.00000000000E+00  0.45593999997E+02  0.45594000000E+02  0.51100000000E-03 0. -1.
         11   -1    0    0    0    0 -0.00000000000E+00 -0.00000000000E+00 -0.45593999997E+02  0.45594000000E+02  0.51100000000E-03 0.  1.
    9900012    2    1    2    0    0  0.16465799502E+02 -0.34167672944E+02  0.14649717924E+02  0.50528847735E+02  0.29999963175E+02 0.  0.
         12    1    1    2    0    0 -0.16465799502E+02  0.34167672944E+02 -0.14649717924E+02  0.40659152265E+02  0.00000000000E+00 0. -1.
         11    1    3    3    0    0 -0.66772662075E+01 -0.29975347551E+01  0.32490472107E+01  0.80079589567E+01  0.51100000000E-03 0. -1.
        -11    1    3    3    0    0  0.77240806673E+00 -0.10088656054E+02  0.41653567284E+01  0.10942019564E+02  0.51100000000E-03 0.  1.
        -12    1    3    3    0    0  0.22370657643E+02 -0.21081482135E+02  0.72353139852E+01  0.31578869214E+02  0.00000000000E+00 0.  1.
</event>
<event>
 7    1  0.2744502E-011  0.5052886E+02  0.7816164E-02  0.1300439E+00
        -11   -1    0    0    0    0  0.00000000000E+00  0.00000000000E+00  0.45593999997E+02  0.45594000000E+02  0.51100000000E-03 0. -1.
         11   -1    0    0    0    0 -0.00000000000E+00 -0.00000000000E+00 -0.45593999997E+02  0.45594000000E+02  0.51100000000E-03 0.  1.
    9900012    2    1    2    0    0  0.29393644466E+02  0.16626602503E+02 -0.22643663924E+02  0.50528858817E+02  0.29999996861E+02 0.  0.
         12    1    1    2    0    0 -0.29393644466E+02 -0.16626602503E+02  0.22643663924E+02  0.40659141183E+02  0.00000000000E+00 0. -1.
         11    1    3    3    0    0  0.16190421713E+02  0.17515137473E+02 -0.18096442377E+02  0.29939789961E+02  0.51100000000E-03 0. -1.
        -11    1    3    3    0    0  0.87320823267E+01  0.46476414019E+01 -0.79599297671E+01  0.12696862389E+02  0.51100000000E-03 0.  1.
        -12    1    3    3    0    0  0.44711404260E+01 -0.55361763715E+01  0.34127082198E+01  0.78922064671E+01  0.00000000000E+00 0.  1.
</event>
<event>
 7    1  0.2744502E-011  0.5052886E+02  0.7816164E-02  0.1300439E+00
        -11   -1    0    0    0    0  0.00000000000E+00  0.00000000000E+00  0.45593999997E+02  0.45594000000E+02  0.51100000000E-03 0. -1.
         11   -1    0    0    0    0 -0.00000000000E+00 -0.00000000000E+00 -0.45593999997E+02  0.45594000000E+02  0.51100000000E-03 0.  1.
    9900012    2    1    2    0    0  0.23697611253E+02 -0.22911732444E+02 -0.23804237481E+02  0.50528856075E+02  0.29999988524E+02 0.  0.
         12    1    1    2    0    0 -0.23697611253E+02  0.22911732444E+02  0.23804237481E+02  0.40659143925E+02  0.00000000000E+00 0. -1.
         11    1    3    3    0    0  0.56783683922E+01 -0.32796885454E+00  0.28230351233E+01  0.63498786394E+01  0.51100000000E-03 0. -1.
        -11    1    3    3    0    0 -0.20460696376E+01  0.23960055218E+01 -0.31695617870E+01  0.44691571470E+01  0.51100000000E-03 0.  1.
         12    1    3    3    0    0  0.20065312498E+02 -0.24979769111E+02 -0.23457710818E+02  0.39709820288E+02  0.00000000000E+00 0. -1.
</event>
<event>
 7    1  0.2744502E-011  0.5052886E+02  0.7816164E-02  0.1300439E+00
        -11   -1    0    0    0    0  0.00000000000E+00  0.00000000000E+00  0.45593999997E+02  0.45594000000E+02  0.51100000000E-03 0. -1.
         11   -1    0    0    0    0 -0.00000000000E+00 -0.00000000000E+00 -0.45593999997E+02  0.45594000000E+02  0.51100000000E-03 0.  1.
    9900012    2    1    2    0    0 -0.20593307144E+02 -0.26806280529E+02 -0.22594356865E+02  0.50528856661E+02  0.29999990307E+02 0.  0.
         12    1    1    2    0    0  0.20593307144E+02  0.26806280529E+02  0.22594356865E+02  0.40659143339E+02  0.00000000000E+00 0. -1.
         11    1    3    3    0    0  0.86687084358E+00 -0.47323166658E+00  0.79322948399E+00  0.12667385465E+01  0.51100000000E-03 0. -1.
        -11    1    3    3    0    0 -0.35405433996E+01  0.52360725421E+01 -0.70078832830E+01  0.94372841220E+01  0.51100000000E-03 0.  1.
        -12    1    3    3    0    0 -0.17919634588E+02 -0.31569121404E+02 -0.16379703066E+02  0.39824833993E+02  0.00000000000E+00 0.  1.
</event>
<event>
 7    1  0.2744502E-011  0.5052886E+02  0.7816164E-02  0.1300439E+00
        -11   -1    0    0    0    0  0.00000000000E+00  0.00000000000E+00  0.45593999997E+02  0.45594000000E+02  0.51100000000E-03 0.  1.
         11   -1    0    0    0    0 -0.00000000000E+00 -0.00000000000E+00 -0.45593999997E+02  0.45594000000E+02  0.51100000000E-03 0. -1.
    9900012    2    1    2    0    0 -0.26638853825E+02  0.24988231355E+02  0.17864075510E+02  0.50528862857E+02  0.30000009140E+02 0.  0.
         12    1    1    2    0    0  0.26638853825E+02 -0.24988231355E+02 -0.17864075510E+02  0.40659137143E+02  0.00000000000E+00 0. -1.
         11    1    3    3    0    0 -0.73669358133E+01  0.16406409349E+02  0.82730119627E+01  0.19796078859E+02  0.51100000000E-03 0. -1.
        -11    1    3    3    0    0 -0.17733961781E+02  0.98178701856E+01  0.14842196584E+02  0.25123191977E+02  0.51100000000E-03 0.  1.
        -12    1    3    3    0    0 -0.15379562305E+01 -0.12360481792E+01 -0.52511330362E+01  0.56095920201E+01  0.00000000000E+00 0.  1.
</event>
<event>
 7    1  0.2744502E-011  0.5052886E+02  0.7816164E-02  0.1300439E+00
        -11   -1    0    0    0    0  0.00000000000E+00  0.00000000000E+00  0.45593999997E+02  0.45594000000E+02  0.51100000000E-03 0.  1.
         11   -1    0    0    0    0 -0.00000000000E+00 -0.00000000000E+00 -0.45593999997E+02  0.45594000000E+02  0.51100000000E-03 0. -1.
    9900012    2    1    2    0    0  0.31678025888E+02 -0.20780235483E+02  0.14759755685E+02  0.50528857131E+02  0.29999991737E+02 0.  0.
         12    1    1    2    0    0 -0.31678025888E+02  0.20780235483E+02 -0.14759755685E+02  0.40659142869E+02  0.00000000000E+00 0. -1.
         11    1    3    3    0    0  0.94552867652E+01  0.17451871908E+01 -0.50771687585E+01  0.10873167386E+02  0.51100000000E-03 0. -1.
        -11    1    3    3    0    0  0.35656312476E+01 -0.13752309257E+01 -0.16871257371E+01  0.41774848661E+01  0.51100000000E-03 0.  1.
        -12    1    3    3    0    0  0.18657107876E+02 -0.21150191748E+02  0.21524050181E+02  0.35478204879E+02  0.00000000000E+00 0.  1.
</event>
<event>
 7    1  0.2744502E-011  0.5052885E+02  0.7816164E-02  0.1300439E+00
        -11   -1    0    0    0    0  0.00000000000E+00  0.00000000000E+00  0.45593999997E+02  0.45594000000E+02  0.51100000000E-03 0.  1.
         11   -1    0    0    0    0 -0.00000000000E+00 -0.00000000000E+00 -0.45593999997E+02  0.45594000000E+02  0.51100000000E-03 0. -1.
    9900012    2    1    2    0    0  0.15706475716E+02  0.64920069010E+01  0.36936800234E+02  0.50528846731E+02  0.29999960123E+02 0.  0.
         12    1    1    2    0    0 -0.15706475716E+02 -0.64920069010E+01 -0.36936800234E+02  0.40659153269E+02  0.00000000000E+00 0. -1.
         11    1    3    3    0    0  0.53915943670E+01  0.10189373886E+02  0.54910058072E+00  0.11540976636E+02  0.51100000000E-03 0. -1.
        -11    1    3    3    0    0  0.46822264189E+01 -0.18587731153E+01  0.51913998845E+01  0.72338727355E+01  0.51100000000E-03 0.  1.
        -12    1    3    3    0    0  0.56326549303E+01 -0.18385938700E+01  0.31196299769E+02  0.31753997359E+02  0.00000000000E+00 0.  1.
</event>
<event>
 7    1  0.2744502E-011  0.5052886E+02  0.7816164E-02  0.1300439E+00
        -11   -1    0    0    0    0  0.00000000000E+00  0.00000000000E+00  0.45593999997E+02  0.45594000000E+02  0.51100000000E-03 0.  1.
         11   -1    0    0    0    0 -0.00000000000E+00 -0.00000000000E+00 -0.45593999997E+02  0.45594000000E+02  0.51100000000E-03 0. -1.
    9900012    2    1    2    0    0 -0.31006019857E+02 -0.16634241074E+02  0.20373862839E+02  0.50528861661E+02  0.30000005504E+02 0.  0.
         12    1    1    2    0    0  0.31006019857E+02  0.16634241074E+02 -0.20373862839E+02  0.40659138339E+02  0.00000000000E+00 0. -1.
         11    1    3    3    0    0 -0.12934217405E+02 -0.10260437885E+02 -0.32410761856E+01  0.16824837015E+02  0.51100000000E-03 0. -1.
        -11    1    3    3    0    0  0.17724844035E+01  0.18023433499E+01  0.32491576356E+01  0.41166938329E+01  0.51100000000E-03 0.  1.
        -12    1    3    3    0    0 -0.19844286856E+02 -0.81761465386E+01  0.20365781389E+02  0.29587330813E+02  0.00000000000E+00 0.  1.
</event>
<event>
 7    1  0.2744502E-011  0.5052887E+02  0.7816164E-02  0.1300439E+00
        -11   -1    0    0    0    0  0.00000000000E+00  0.00000000000E+00  0.45593999997E+02  0.45594000000E+02  0.51100000000E-03 0.  1.
         11   -1    0    0    0    0 -0.00000000000E+00 -0.00000000000E+00 -0.45593999997E+02  0.45594000000E+02  0.51100000000E-03 0. -1.
    9900012    2    1    2    0    0  0.15478357238E+02 -0.19357302884E+02  0.32231667990E+02  0.50528866473E+02  0.30000020133E+02 0.  0.
         12    1    1    2    0    0 -0.15478357238E+02  0.19357302884E+02 -0.32231667990E+02  0.40659133527E+02  0.00000000000E+00 0. -1.
         11    1    3    3    0    0  0.13488384125E+01  0.21468775145E+01  0.14090028642E+01  0.29006443177E+01  0.51100000000E-03 0. -1.
        -11    1    3    3    0    0  0.18692751595E+02 -0.57531920797E+01  0.13438429213E+02  0.23729929652E+02  0.51100000000E-03 0.  1.
        -12    1    3    3    0    0 -0.45632327700E+01 -0.15750988319E+02  0.17384235912E+02  0.23898292504E+02  0.00000000000E+00 0.  1.
</event>
<event>
 7    1  0.2744502E-011  0.5052886E+02  0.7816164E-02  0.1300439E+00
        -11   -1    0    0    0    0  0.00000000000E+00  0.00000000000E+00  0.45593999997E+02  0.45594000000E+02  0.51100000000E-03 0. -1.
         11   -1    0    0    0    0 -0.00000000000E+00 -0.00000000000E+00 -0.45593999997E+02  0.45594000000E+02  0.51100000000E-03 0.  1.
    9900012    2    1    2    0    0 -0.18940772589E+02  0.26856974836E+01  0.35877569686E+02  0.50528857808E+02  0.29999993793E+02 0.  0.
         12    1    1    2    0    0  0.18940772589E+02 -0.26856974836E+01 -0.35877569686E+02  0.40659142192E+02  0.00000000000E+00 0. -1.
         11    1    3    3    0    0 -0.11681065224E+02  0.26068027650E-02  0.13623992610E+02  0.17946043198E+02  0.51100000000E-03 0. -1.
        -11    1    3    3    0    0 -0.13490606213E+02 -0.25944649733E+00  0.21849719694E+02  0.25680226234E+02  0.51100000000E-03 0.  1.
         12    1    3    3    0    0  0.62308988479E+01  0.29425371782E+01  0.40385738172E+00  0.69025883755E+01  0.00000000000E+00 0. -1.
</event>
<event>
 7    1  0.2744502E-011  0.5052886E+02  0.7816164E-02  0.1300439E+00
        -11   -1    0    0    0    0  0.00000000000E+00  0.00000000000E+00  0.45593999997E+02  0.45594000000E+02  0.51100000000E-03 0.  1.
         11   -1    0    0    0    0 -0.00000000000E+00 -0.00000000000E+00 -0.45593999997E+02  0.45594000000E+02  0.51100000000E-03 0. -1.
    9900012    2    1    2    0    0 -0.34346886260E+02 -0.80799977931E+01  0.20203227393E+02  0.50528863792E+02  0.30000011983E+02 0.  0.
         12    1    1    2    0    0  0.34346886260E+02  0.80799977931E+01 -0.20203227393E+02  0.40659136208E+02  0.00000000000E+00 0. -1.
         11    1    3    3    0    0 -0.12734771341E+02 -0.19217559359E+01  0.92334591585E-01  0.12879288525E+02  0.51100000000E-03 0. -1.
        -11    1    3    3    0    0 -0.17196947379E+02 -0.99947322737E+00  0.87250250772E+00  0.17248049362E+02  0.51100000000E-03 0.  1.
         12    1    3    3    0    0 -0.44151675396E+01 -0.51587686298E+01  0.19238390294E+02  0.20401525905E+02  0.00000000000E+00 0. -1.
</event>
<event>
 7    1  0.2744502E-011  0.5052885E+02  0.7816164E-02  0.1300439E+00
        -11   -1    0    0    0    0  0.00000000000E+00  0.00000000000E+00  0.45593999997E+02  0.45594000000E+02  0.51100000000E-03 0. -1.
         11   -1    0    0    0    0 -0.00000000000E+00 -0.00000000000E+00 -0.45593999997E+02  0.45594000000E+02  0.51100000000E-03 0.  1.
    9900012    2    1    2    0    0  0.87376197412E+01 -0.39192845990E+02 -0.63828989191E+01  0.50528848826E+02  0.29999966492E+02 0.  0.
         12    1    1    2    0    0 -0.87376197412E+01  0.39192845990E+02  0.63828989191E+01  0.40659151174E+02  0.00000000000E+00 0. -1.
         11    1    3    3    0    0 -0.42032889074E+01 -0.50465362170E+01 -0.92825861698E+01  0.11371084895E+02  0.51100000000E-03 0. -1.
        -11    1    3    3    0    0 -0.13220416039E+01 -0.54288782163E+01 -0.33147143122E+01  0.64967564155E+01  0.51100000000E-03 0.  1.
        -12    1    3    3    0    0  0.14262950253E+02 -0.28717431557E+02  0.62144015629E+01  0.32661007516E+02  0.00000000000E+00 0.  1.
</event>
<event>
 7    1  0.2744502E-011  0.5052884E+02  0.7816164E-02  0.1300439E+00
        -11   -1    0    0    0    0  0.00000000000E+00  0.00000000000E+00  0.45593999997E+02  0.45594000000E+02  0.51100000000E-03 0.  1.
         11   -1    0    0    0    0 -0.00000000000E+00 -0.00000000000E+00 -0.45593999997E+02  0.45594000000E+02  0.51100000000E-03 0. -1.
    9900012    2    1    2    0    0  0.24980161287E+02  0.20056709454E+02  0.25037708588E+02  0.50528844778E+02  0.29999954187E+02 0.  0.
         12    1    1    2    0    0 -0.24980161287E+02 -0.20056709454E+02 -0.25037708588E+02  0.40659155222E+02  0.00000000000E+00 0. -1.
         11    1    3    3    0    0  0.16260935565E+02  0.14636411024E+02  0.20816432161E+02  0.30198781454E+02  0.51100000000E-03 0. -1.
        -11    1    3    3    0    0  0.63389385809E+01  0.11284789308E+02  0.51556708966E+01  0.13932320507E+02  0.51100000000E-03 0.  1.
         12    1    3    3    0    0  0.23802871407E+01 -0.58644908778E+01 -0.93439446989E+00  0.63977428170E+01  0.00000000000E+00 0. -1.
</event>
<event>
 7    1  0.2744502E-011  0.5052886E+02  0.7816164E-02  0.1300439E+00
        -11   -1    0    0    0    0  0.00000000000E+00  0.00000000000E+00  0.45593999997E+02  0.45594000000E+02  0.51100000000E-03 0.  1.
         11   -1    0    0    0    0 -0.00000000000E+00 -0.00000000000E+00 -0.45593999997E+02  0.45594000000E+02  0.51100000000E-03 0. -1.
    9900012    2    1    2    0    0 -0.22773516003E+02 -0.30114805065E+02  0.15087445308E+02  0.50528861776E+02  0.30000005853E+02 0.  0.
         12    1    1    2    0    0  0.22773516003E+02  0.30114805065E+02 -0.15087445308E+02  0.40659138224E+02  0.00000000000E+00 0. -1.
         11    1    3    3    0    0  0.86489122941E+00  0.21311831273E+01  0.62246949545E+00  0.23827393678E+01  0.51100000000E-03 0.  1.
        -11    1    3    3    0    0 -0.78641274975E+01 -0.12789076590E+02 -0.56292916067E+01  0.16034148109E+02  0.51100000000E-03 0. -1.
        -12    1    3    3    0    0 -0.15774279735E+02 -0.19456911602E+02  0.20094267419E+02  0.32111974299E+02  0.00000000000E+00 0.  1.
</event>
<event>
 7    1  0.2744502E-011  0.5052887E+02  0.7816164E-02  0.1300439E+00
        -11   -1    0    0    0    0  0.00000000000E+00  0.00000000000E+00  0.45593999997E+02  0.45594000000E+02  0.51100000000E-03 0.  1.
         11   -1    0    0    0    0 -0.00000000000E+00 -0.00000000000E+00 -0.45593999997E+02  0.45594000000E+02  0.51100000000E-03 0. -1.
    9900012    2    1    2    0    0  0.19368663260E+02  0.18291053752E+02  0.30715748969E+02  0.50528868202E+02  0.30000025388E+02 0.  0.
         12    1    1    2    0    0 -0.19368663260E+02 -0.18291053752E+02 -0.30715748969E+02  0.40659131798E+02  0.00000000000E+00 0. -1.
         11    1    3    3    0    0  0.10304778828E+02  0.10716407189E+02  0.27238158252E+02  0.31031389189E+02  0.51100000000E-03 0. -1.
        -11    1    3    3    0    0  0.24686417897E+01  0.40770722060E+01  0.90185736088E+01  0.10200557840E+02  0.51100000000E-03 0.  1.
         12    1    3    3    0    0  0.65952426423E+01  0.34975743567E+01 -0.55409828923E+01  0.92969211734E+01  0.00000000000E+00 0. -1.
</event>
<event>
 7    1  0.2744502E-011  0.5052878E+02  0.7816164E-02  0.1300439E+00
        -11   -1    0    0    0    0  0.00000000000E+00  0.00000000000E+00  0.45593999997E+02  0.45594000000E+02  0.51100000000E-03 0. -1.
         11   -1    0    0    0    0 -0.00000000000E+00 -0.00000000000E+00 -0.45593999997E+02  0.45594000000E+02  0.51100000000E-03 0.  1.
    9900012    2    1    2    0    0  0.19616614138E+02 -0.21909326005E+02 -0.28077428301E+02  0.50528780919E+02  0.29999760081E+02 0.  0.
         12    1    1    2    0    0 -0.19616614138E+02  0.21909326005E+02  0.28077428301E+02  0.40659219081E+02  0.00000000000E+00 0. -1.
         11    1    3    3    0    0 -0.19260662520E+00  0.49624626891E+01 -0.25360190079E+01  0.55762465801E+01  0.51100000000E-03 0. -1.
        -11    1    3    3    0    0  0.55647580873E+01  0.90203350338E+00 -0.53880334486E+01  0.77981473258E+01  0.51100000000E-03 0.  1.
         12    1    3    3    0    0  0.14244462676E+02 -0.27773822198E+02 -0.20153375845E+02  0.37154387013E+02  0.00000000000E+00 0. -1.
</event>
<event>
 7    1  0.2744502E-011  0.5052886E+02  0.7816164E-02  0.1300439E+00
        -11   -1    0    0    0    0  0.00000000000E+00  0.00000000000E+00  0.45593999997E+02  0.45594000000E+02  0.51100000000E-03 0.  1.
         11   -1    0    0    0    0 -0.00000000000E+00 -0.00000000000E+00 -0.45593999997E+02  0.45594000000E+02  0.51100000000E-03 0. -1.
    9900012    2    1    2    0    0 -0.19563479713E+02  0.34876217857E+02  0.73542940929E+01  0.50528856476E+02  0.29999989746E+02 0.  0.
         12    1    1    2    0    0  0.19563479713E+02 -0.34876217857E+02 -0.73542940929E+01  0.40659143524E+02  0.00000000000E+00 0. -1.
         11    1    3    3    0    0 -0.76201085117E+00 -0.13661814145E+01  0.82066860874E+01  0.83544484553E+01  0.51100000000E-03 0.  1.
        -11    1    3    3    0    0  0.95660531710E+00  0.40933766093E+01 -0.14139156912E+01  0.44350855281E+01  0.51100000000E-03 0. -1.
        -12    1    3    3    0    0 -0.19758074179E+02  0.32149022662E+02  0.56152369672E+00  0.37739322493E+02  0.00000000000E+00 0.  1.
</event>
<event>
 7    1  0.2744502E-011  0.5052885E+02  0.7816164E-02  0.1300439E+00
        -11   -1    0    0    0    0  0.00000000000E+00  0.00000000000E+00  0.45593999997E+02  0.45594000000E+02  0.51100000000E-03 0.  1.
         11   -1    0    0    0    0 -0.00000000000E+00 -0.00000000000E+00 -0.45593999997E+02  0.45594000000E+02  0.51100000000E-03 0. -1.
    9900012    2    1    2    0    0  0.79116920842E+01  0.21000183147E+02  0.33905223352E+02  0.50528846856E+02  0.29999960505E+02 0.  0.
         12    1    1    2    0    0 -0.79116920842E+01 -0.21000183147E+02 -0.33905223352E+02  0.40659153144E+02  0.00000000000E+00 0. -1.
         11    1    3    3    0    0  0.31757413824E+01  0.13311116126E+02  0.17678532261E+02  0.22356244072E+02  0.51100000000E-03 0.  1.
        -11    1    3    3    0    0  0.11333425519E+02  0.98073388860E+01  0.14868265053E+02  0.21111507193E+02  0.51100000000E-03 0. -1.
         12    1    3    3    0    0 -0.65974748168E+01 -0.21182718649E+01  0.13584260375E+01  0.70610955914E+01  0.00000000000E+00 0. -1.
</event>
<event>
 7    1  0.2744502E-011  0.5052886E+02  0.7816164E-02  0.1300439E+00
        -11   -1    0    0    0    0  0.00000000000E+00  0.00000000000E+00  0.45593999997E+02  0.45594000000E+02  0.51100000000E-03 0.  1.
         11   -1    0    0    0    0 -0.00000000000E+00 -0.00000000000E+00 -0.45593999997E+02  0.45594000000E+02  0.51100000000E-03 0. -1.
    9900012    2    1    2    0    0 -0.22777078274E+02  0.33315455398E+02  0.49447762875E+01  0.50528859876E+02  0.30000000079E+02 0.  0.
         12    1    1    2    0    0  0.22777078274E+02 -0.33315455398E+02 -0.49447762875E+01  0.40659140124E+02  0.00000000000E+00 0. -1.
         11    1    3    3    0    0 -0.56064606623E+01  0.32907441208E+00 -0.40065612394E+01  0.68987842663E+01  0.51100000000E-03 0. -1.
        -11    1    3    3    0    0 -0.11042991335E+02  0.29934593109E+02 -0.55996165592E+00  0.31911456869E+02  0.51100000000E-03 0.  1.
         12    1    3    3    0    0 -0.61276262769E+01  0.30517878773E+01  0.95112991828E+01  0.11718618740E+02  0.00000000000E+00 0. -1.
</event>
<event>
 7    1  0.2744502E-011  0.5052885E+02  0.7816164E-02  0.1300439E+00
        -11   -1    0    0    0    0  0.00000000000E+00  0.00000000000E+00  0.45593999997E+02  0.45594000000E+02  0.51100000000E-03 0. -1.
         11   -1    0    0    0    0 -0.00000000000E+00 -0.00000000000E+00 -0.45593999997E+02  0.45594000000E+02  0.51100000000E-03 0.  1.
    9900012    2    1    2    0    0  0.39942453648E+02  0.17346325710E+01 -0.73998590203E+01  0.50528850143E+02  0.29999970494E+02 0.  0.
         12    1    1    2    0    0 -0.39942453648E+02 -0.17346325710E+01  0.73998590203E+01  0.40659149857E+02  0.00000000000E+00 0. -1.
         11    1    3    3    0    0  0.74449412225E+01 -0.52468886746E+01  0.24725465693E+01  0.94377156859E+01  0.51100000000E-03 0. -1.
        -11    1    3    3    0    0  0.17584101391E+01 -0.61964178430E+01 -0.14537758555E+01  0.66031102370E+01  0.51100000000E-03 0.  1.
        -12    1    3    3    0    0  0.30739102286E+02  0.13177939089E+02 -0.84186297341E+01  0.34488024220E+02  0.00000000000E+00 0.  1.
</event>
<event>
 7    1  0.2744502E-011  0.5052887E+02  0.7816164E-02  0.1300439E+00
        -11   -1    0    0    0    0  0.00000000000E+00  0.00000000000E+00  0.45593999997E+02  0.45594000000E+02  0.51100000000E-03 0.  1.
         11   -1    0    0    0    0 -0.00000000000E+00 -0.00000000000E+00 -0.45593999997E+02  0.45594000000E+02  0.51100000000E-03 0. -1.
    9900012    2    1    2    0    0 -0.36878133938E+02 -0.11038031527E+02  0.13089320837E+02  0.50528865445E+02  0.30000017007E+02 0.  0.
         12    1    1    2    0    0  0.36878133938E+02  0.11038031527E+02 -0.13089320837E+02  0.40659134555E+02  0.00000000000E+00 0. -1.
         11    1    3    3    0    0 -0.96620489722E+01  0.12436616218E+01 -0.51705093772E+01  0.11028873562E+02  0.51100000000E-03 0. -1.
        -11    1    3    3    0    0 -0.10952202844E+02 -0.14903091502E+02  0.85250476926E+01  0.20364904171E+02  0.51100000000E-03 0.  1.
         12    1    3    3    0    0 -0.16263882122E+02  0.26213983535E+01  0.97347825219E+01  0.19135087712E+02  0.00000000000E+00 0. -1.
</event>
<event>
 7    1  0.2744502E-011  0.5052886E+02  0.7816164E-02  0.1300439E+00
        -11   -1    0    0    0    0  0.00000000000E+00  0.00000000000E+00  0.45593999997E+02  0.45594000000E+02  0.51100000000E-03 0. -1.
         11   -1    0    0    0    0 -0.00000000000E+00 -0.00000000000E+00 -0.45593999997E+02  0.45594000000E+02  0.51100000000E-03 0.  1.
    9900012    2    1    2    0    0  0.25193320441E+02  0.15326840652E+02 -0.27991969410E+02  0.50528858462E+02  0.29999995780E+02 0.  0.
         12    1    1    2    0    0 -0.25193320441E+02 -0.15326840652E+02  0.27991969410E+02  0.40659141538E+02  0.00000000000E+00 0. -1.
         11    1    3    3    0    0  0.13594301637E+02 -0.17625214691E+01 -0.81986587332E+01  0.15972774468E+02  0.51100000000E-03 0. -1.
        -11    1    3    3    0    0  0.74928919157E+01 -0.26192637135E+01 -0.77683115312E+01  0.11106333147E+02  0.51100000000E-03 0.  1.
        -12    1    3    3    0    0  0.41061268878E+01  0.19708625835E+02 -0.12024999145E+02  0.23449750846E+02  0.00000000000E+00 0.  1.
</event>
<event>
 7    1  0.2744502E-011  0.5052881E+02  0.7816164E-02  0.1300439E+00
        -11   -1    0    0    0    0  0.00000000000E+00  0.00000000000E+00  0.45593999997E+02  0.45594000000E+02  0.51100000000E-03 0.  1.
         11   -1    0    0    0    0 -0.00000000000E+00 -0.00000000000E+00 -0.45593999997E+02  0.45594000000E+02  0.51100000000E-03 0. -1.
    9900012    2    1    2    0    0  0.12387558057E+02  0.53686842108E+01  0.38352251114E+02  0.50528812474E+02  0.29999855996E+02 0.  0.
         12    1    1    2    0    0 -0.12387558057E+02 -0.53686842108E+01 -0.38352251114E+02  0.40659187526E+02  0.00000000000E+00 0. -1.
         11    1    3    3    0    0  0.24057929346E+01 -0.29891763933E+01  0.24134629998E+02  0.24437744997E+02  0.51100000000E-03 0. -1.
        -11    1    3    3    0    0 -0.31470369711E+00 -0.30289193054E+01 -0.20906768191E+01  0.36938219229E+01  0.51100000000E-03 0.  1.
        -12    1    3    3    0    0  0.10296468820E+02  0.11386779909E+02  0.16308297935E+02  0.22397245554E+02  0.00000000000E+00 0.  1.
</event>
<event>
 7    1  0.2744502E-011  0.5052886E+02  0.7816164E-02  0.1300439E+00
        -11   -1    0    0    0    0  0.00000000000E+00  0.00000000000E+00  0.45593999997E+02  0.45594000000E+02  0.51100000000E-03 0. -1.
         11   -1    0    0    0    0 -0.00000000000E+00 -0.00000000000E+00 -0.45593999997E+02  0.45594000000E+02  0.51100000000E-03 0.  1.
    9900012    2    1    2    0    0  0.82023740622E+01  0.39698335962E+02  0.31510589779E+01  0.50528855996E+02  0.29999988286E+02 0.  0.
         12    1    1    2    0    0 -0.82023740622E+01 -0.39698335962E+02 -0.31510589779E+01  0.40659144004E+02  0.00000000000E+00 0. -1.
         11    1    3    3    0    0  0.40949880978E+01  0.10113271488E+02  0.42449991019E+01  0.11707570429E+02  0.51100000000E-03 0. -1.
        -11    1    3    3    0    0  0.12646995017E+02  0.15078685841E+02  0.59700714232E+01  0.20565869851E+02  0.51100000000E-03 0.  1.
         12    1    3    3    0    0 -0.85396090530E+01  0.14506378633E+02 -0.70640115472E+01  0.18255415716E+02  0.00000000000E+00 0. -1.
</event>
<event>
 7    1  0.2744502E-011  0.5052886E+02  0.7816164E-02  0.1300439E+00
        -11   -1    0    0    0    0  0.00000000000E+00  0.00000000000E+00  0.45593999997E+02  0.45594000000E+02  0.51100000000E-03 0.  1.
         11   -1    0    0    0    0 -0.00000000000E+00 -0.00000000000E+00 -0.45593999997E+02  0.45594000000E+02  0.51100000000E-03 0. -1.
    9900012    2    1    2    0    0  0.18948562637E+02  0.67958486032E+01  0.35326109718E+02  0.50528860658E+02  0.30000002455E+02 0.  0.
         12    1    1    2    0    0 -0.18948562637E+02 -0.67958486032E+01 -0.35326109718E+02  0.40659139342E+02  0.00000000000E+00 0. -1.
         11    1    3    3    0    0  0.30556418060E+01  0.10002427988E+02  0.83926485079E+01  0.13409774858E+02  0.51100000000E-03 0. -1.
        -11    1    3    3    0    0  0.67848319548E+01  0.82215675855E+01  0.14058497724E+02  0.17642830746E+02  0.51100000000E-03 0.  1.
         12    1    3    3    0    0  0.91080888767E+01 -0.11428146970E+02  0.12874963486E+02  0.19476255054E+02  0.00000000000E+00 0. -1.
</event>
<event>
 7    1  0.2744502E-011  0.5052886E+02  0.7816164E-02  0.1300439E+00
        -11   -1    0    0    0    0  0.00000000000E+00  0.00000000000E+00  0.45593999997E+02  0.45594000000E+02  0.51100000000E-03 0. -1.
         11   -1    0    0    0    0 -0.00000000000E+00 -0.00000000000E+00 -0.45593999997E+02  0.45594000000E+02  0.51100000000E-03 0.  1.
    9900012    2    1    2    0    0 -0.37066675471E+02  0.11793802663E+01 -0.16668423953E+02  0.50528859264E+02  0.29999998219E+02 0.  0.
         12    1    1    2    0    0  0.37066675471E+02 -0.11793802663E+01  0.16668423953E+02  0.40659140736E+02  0.00000000000E+00 0. -1.
         11    1    3    3    0    0 -0.11466961222E+01 -0.77877931776E+01  0.77483661360E-01  0.78721431994E+01  0.51100000000E-03 0. -1.
        -11    1    3    3    0    0 -0.87832106648E+01  0.81691921013E+01 -0.38237628128E+01  0.12589743901E+02  0.51100000000E-03 0.  1.
        -12    1    3    3    0    0 -0.27136768684E+02  0.79798134254E+00 -0.12922144801E+02  0.30066972164E+02  0.00000000000E+00 0.  1.
</event>
<event>
 7    1  0.2744502E-011  0.5052886E+02  0.7816164E-02  0.1300439E+00
        -11   -1    0    0    0    0  0.00000000000E+00  0.00000000000E+00  0.45593999997E+02  0.45594000000E+02  0.51100000000E-03 0. -1.
         11   -1    0    0    0    0 -0.00000000000E+00 -0.00000000000E+00 -0.45593999997E+02  0.45594000000E+02  0.51100000000E-03 0.  1.
    9900012    2    1    2    0    0 -0.26216934506E+02 -0.28554034262E+02 -0.12268053094E+02  0.50528860139E+02  0.30000000879E+02 0.  0.
         12    1    1    2    0    0  0.26216934506E+02  0.28554034262E+02  0.12268053094E+02  0.40659139861E+02  0.00000000000E+00 0. -1.
         11    1    3    3    0    0 -0.11910619905E+02 -0.36507812659E+01  0.44559503013E+01  0.13230516381E+02  0.51100000000E-03 0. -1.
        -11    1    3    3    0    0 -0.61574630540E+01 -0.86865941299E+01  0.24197118032E+01  0.10919078455E+02  0.51100000000E-03 0.  1.
         12    1    3    3    0    0 -0.81488515473E+01 -0.16216658866E+02 -0.19143715198E+02  0.26379265303E+02  0.00000000000E+00 0. -1.
</event>
<event>
 7    1  0.2744502E-011  0.5052885E+02  0.7816164E-02  0.1300439E+00
        -11   -1    0    0    0    0  0.00000000000E+00  0.00000000000E+00  0.45593999997E+02  0.45594000000E+02  0.51100000000E-03 0. -1.
         11   -1    0    0    0    0 -0.00000000000E+00 -0.00000000000E+00 -0.45593999997E+02  0.45594000000E+02  0.51100000000E-03 0.  1.
    9900012    2    1    2    0    0  0.57856373157E+01 -0.16511263080E+02 -0.36702470877E+02  0.50528846343E+02  0.29999958943E+02 0.  0.
         12    1    1    2    0    0 -0.57856373157E+01  0.16511263080E+02  0.36702470877E+02  0.40659153657E+02  0.00000000000E+00 0. -1.
         11    1    3    3    0    0  0.31939782819E+01  0.14329874906E+01 -0.56759000799E+01  0.66686424699E+01  0.51100000000E-03 0. -1.
        -11    1    3    3    0    0 -0.48066313375E+01 -0.13600408865E+01 -0.23794997543E+02  0.24313685947E+02  0.51100000000E-03 0.  1.
        -12    1    3    3    0    0  0.73982903713E+01 -0.16584209684E+02 -0.72315732547E+01  0.19546517925E+02  0.00000000000E+00 0.  1.
</event>
<event>
 7    1  0.2744502E-011  0.5052886E+02  0.7816164E-02  0.1300439E+00
        -11   -1    0    0    0    0  0.00000000000E+00  0.00000000000E+00  0.45593999997E+02  0.45594000000E+02  0.51100000000E-03 0.  1.
         11   -1    0    0    0    0 -0.00000000000E+00 -0.00000000000E+00 -0.45593999997E+02  0.45594000000E+02  0.51100000000E-03 0. -1.
    9900012    2    1    2    0    0 -0.38359161747E+02  0.12142350082E+02  0.58569148080E+01  0.50528863186E+02  0.30000010139E+02 0.  0.
         12    1    1    2    0    0  0.38359161747E+02 -0.12142350082E+02 -0.58569148080E+01  0.40659136814E+02  0.00000000000E+00 0. -1.
         11    1    3    3    0    0 -0.26472672093E+02  0.12037424105E+02  0.10677828684E+02  0.30979315236E+02  0.51100000000E-03 0. -1.
        -11    1    3    3    0    0 -0.78754297894E+01  0.32298863766E+01  0.39713513504E+01  0.93928798663E+01  0.51100000000E-03 0.  1.
         12    1    3    3    0    0 -0.40110598646E+01 -0.31249603997E+01 -0.87922652266E+01  0.10156668083E+02  0.00000000000E+00 0. -1.
</event>
<event>
 7    1  0.2744502E-011  0.5052885E+02  0.7816164E-02  0.1300439E+00
        -11   -1    0    0    0    0  0.00000000000E+00  0.00000000000E+00  0.45593999997E+02  0.45594000000E+02  0.51100000000E-03 0.  1.
         11   -1    0    0    0    0 -0.00000000000E+00 -0.00000000000E+00 -0.45593999997E+02  0.45594000000E+02  0.51100000000E-03 0. -1.
    9900012    2    1    2    0    0  0.22011650989E+02  0.83744969922E+01  0.33143951209E+02  0.50528849974E+02  0.29999969980E+02 0.  0.
         12    1    1    2    0    0 -0.22011650989E+02 -0.83744969922E+01 -0.33143951209E+02  0.40659150026E+02  0.00000000000E+00 0. -1.
         11    1    3    3    0    0  0.14919723661E+02  0.48289906378E+01  0.30236830400E+01  0.15970596861E+02  0.51100000000E-03 0. -1.
        -11    1    3    3    0    0  0.36449722272E+01  0.87699757201E+01  0.23970999369E+02  0.25783853624E+02  0.51100000000E-03 0.  1.
         12    1    3    3    0    0  0.34469551006E+01 -0.52244693657E+01  0.61492687996E+01  0.87743994887E+01  0.00000000000E+00 0. -1.
</event>
<event>
 7    1  0.2744502E-011  0.5052886E+02  0.7816164E-02  0.1300439E+00
        -11   -1    0    0    0    0  0.00000000000E+00  0.00000000000E+00  0.45593999997E+02  0.45594000000E+02  0.51100000000E-03 0.  1.
         11   -1    0    0    0    0 -0.00000000000E+00 -0.00000000000E+00 -0.45593999997E+02  0.45594000000E+02  0.51100000000E-03 0. -1.
    9900012    2    1    2    0    0 -0.17592350916E+02 -0.25715583591E+02  0.26122480717E+02  0.50528855285E+02  0.29999986123E+02 0.  0.
         12    1    1    2    0    0  0.17592350916E+02  0.25715583591E+02 -0.26122480717E+02  0.40659144715E+02  0.00000000000E+00 0. -1.
         11    1    3    3    0    0 -0.75331147738E+00  0.70913716048E-01  0.18366201850E+01  0.19863738073E+01  0.51100000000E-03 0. -1.
        -11    1    3    3    0    0 -0.17735899257E+02 -0.27144445130E+01  0.15911136861E+02  0.23981130248E+02  0.51100000000E-03 0.  1.
         12    1    3    3    0    0  0.89685981829E+00 -0.23072052794E+02  0.83747236703E+01  0.24561351230E+02  0.00000000000E+00 0. -1.
</event>
<event>
 7    1  0.2744502E-011  0.5052886E+02  0.7816164E-02  0.1300439E+00
        -11   -1    0    0    0    0  0.00000000000E+00  0.00000000000E+00  0.45593999997E+02  0.45594000000E+02  0.51100000000E-03 0.  1.
         11   -1    0    0    0    0 -0.00000000000E+00 -0.00000000000E+00 -0.45593999997E+02  0.45594000000E+02  0.51100000000E-03 0. -1.
    9900012    2    1    2    0    0  0.39784580812E+02 -0.76584291302E+01 -0.34206641223E+01  0.50528863879E+02  0.30000012245E+02 0.  0.
         12    1    1    2    0    0 -0.39784580812E+02  0.76584291302E+01  0.34206641223E+01  0.40659136121E+02  0.00000000000E+00 0. -1.
         11    1    3    3    0    0  0.10021305903E+02  0.36053699613E+01  0.15037140807E+01  0.10755762217E+02  0.51100000000E-03 0. -1.
        -11    1    3    3    0    0  0.10352247118E+02  0.32990198158E+01  0.68052014453E+01  0.12820425855E+02  0.51100000000E-03 0.  1.
         12    1    3    3    0    0  0.19411027791E+02 -0.14562818907E+02 -0.11729579648E+02  0.26952675807E+02  0.00000000000E+00 0. -1.
</event>
<event>
 7    1  0.2744502E-011  0.5052887E+02  0.7816164E-02  0.1300439E+00
        -11   -1    0    0    0    0  0.00000000000E+00  0.00000000000E+00  0.45593999997E+02  0.45594000000E+02  0.51100000000E-03 0.  1.
         11   -1    0    0    0    0 -0.00000000000E+00 -0.00000000000E+00 -0.45593999997E+02  0.45594000000E+02  0.51100000000E-03 0. -1.
    9900012    2    1    2    0    0 -0.22773542327E+02 -0.11135002183E+02  0.31789032641E+02  0.50528866955E+02  0.30000021596E+02 0.  0.
         12    1    1    2    0    0  0.22773542327E+02  0.11135002183E+02 -0.31789032641E+02  0.40659133045E+02  0.00000000000E+00 0. -1.
         11    1    3    3    0    0 -0.10575175115E+02 -0.51851185736E+01  0.99435431289E+01  0.15414079069E+02  0.51100000000E-03 0. -1.
        -11    1    3    3    0    0 -0.19188752525E+02 -0.23334132242E+01  0.17745879136E+02  0.26240603410E+02  0.51100000000E-03 0.  1.
         12    1    3    3    0    0  0.69903853133E+01 -0.36164703854E+01  0.40996103766E+01  0.88741844761E+01  0.00000000000E+00 0. -1.
</event>
<event>
 7    1  0.2744502E-011  0.5052875E+02  0.7816164E-02  0.1300439E+00
        -11   -1    0    0    0    0  0.00000000000E+00  0.00000000000E+00  0.45593999997E+02  0.45594000000E+02  0.51100000000E-03 0.  1.
         11   -1    0    0    0    0 -0.00000000000E+00 -0.00000000000E+00 -0.45593999997E+02  0.45594000000E+02  0.51100000000E-03 0. -1.
    9900012    2    1    2    0    0  0.17422212752E+02 -0.10037419228E+02  0.35339660788E+02  0.50528746360E+02  0.29999655035E+02 0.  0.
         12    1    1    2    0    0 -0.17422212752E+02  0.10037419228E+02 -0.35339660788E+02  0.40659253640E+02  0.00000000000E+00 0. -1.
         11    1    3    3    0    0  0.83594168255E+01 -0.53581150638E+01  0.21443686886E+02  0.23630932149E+02  0.51100000000E-03 0.  1.
        -11    1    3    3    0    0  0.14931603925E+02 -0.22961734819E+01  0.13950871534E+02  0.20563366097E+02  0.51100000000E-03 0. -1.
        -12    1    3    3    0    0 -0.58688079984E+01 -0.23831306819E+01 -0.54897631829E-01  0.63344481148E+01  0.00000000000E+00 0.  1.
</event>
<event>
 7    1  0.2744502E-011  0.5052885E+02  0.7816164E-02  0.1300439E+00
        -11   -1    0    0    0    0  0.00000000000E+00  0.00000000000E+00  0.45593999997E+02  0.45594000000E+02  0.51100000000E-03 0. -1.
         11   -1    0    0    0    0 -0.00000000000E+00 -0.00000000000E+00 -0.45593999997E+02  0.45594000000E+02  0.51100000000E-03 0.  1.
    9900012    2    1    2    0    0 -0.10115669193E+02  0.16637917041E+02 -0.35693408154E+02  0.50528850570E+02  0.29999971794E+02 0.  0.
         12    1    1    2    0    0  0.10115669193E+02 -0.16637917041E+02  0.35693408154E+02  0.40659149430E+02  0.00000000000E+00 0. -1.
         11    1    3    3    0    0 -0.13889853764E+01 -0.26855364670E+01 -0.63909402563E+01  0.70700427235E+01  0.51100000000E-03 0. -1.
        -11    1    3    3    0    0 -0.69723640301E+01  0.81123932167E+01 -0.30236544612E+02  0.32072938970E+02  0.51100000000E-03 0.  1.
        -12    1    3    3    0    0 -0.17543197862E+01  0.11211060292E+02  0.93407671376E+00  0.11385868877E+02  0.00000000000E+00 0.  1.
</event>
<event>
 7    1  0.2744502E-011  0.5052894E+02  0.7816164E-02  0.1300439E+00
        -11   -1    0    0    0    0  0.00000000000E+00  0.00000000000E+00  0.45593999997E+02  0.45594000000E+02  0.51100000000E-03 0.  1.
         11   -1    0    0    0    0 -0.00000000000E+00 -0.00000000000E+00 -0.45593999997E+02  0.45594000000E+02  0.51100000000E-03 0. -1.
    9900012    2    1    2    0    0 -0.83066724768E+01  0.62134632813E+01  0.39313503657E+02  0.50528935779E+02  0.30000230792E+02 0.  0.
         12    1    1    2    0    0  0.83066724768E+01 -0.62134632813E+01 -0.39313503657E+02  0.40659064221E+02  0.00000000000E+00 0. -1.
         11    1    3    3    0    0  0.16402323662E+01  0.38864442776E+01 -0.16245128461E+01  0.45203820177E+01  0.51100000000E-03 0. -1.
        -11    1    3    3    0    0 -0.62778705658E+01 -0.61250108076E+01  0.82299844997E+01  0.12027471112E+02  0.51100000000E-03 0.  1.
        -12    1    3    3    0    0 -0.36690342773E+01  0.84520298113E+01  0.32708032003E+02  0.33981082649E+02  0.00000000000E+00 0.  1.
</event>
<event>
 7    1  0.2744502E-011  0.5052884E+02  0.7816164E-02  0.1300439E+00
        -11   -1    0    0    0    0  0.00000000000E+00  0.00000000000E+00  0.45593999997E+02  0.45594000000E+02  0.51100000000E-03 0. -1.
         11   -1    0    0    0    0 -0.00000000000E+00 -0.00000000000E+00 -0.45593999997E+02  0.45594000000E+02  0.51100000000E-03 0.  1.
    9900012    2    1    2    0    0  0.21803824332E+02  0.27354623169E+02 -0.20724026310E+02  0.50528838294E+02  0.29999934477E+02 0.  0.
         12    1    1    2    0    0 -0.21803824332E+02 -0.27354623169E+02  0.20724026310E+02  0.40659161706E+02  0.00000000000E+00 0. -1.
         11    1    3    3    0    0  0.94805693466E+01  0.14712376874E+02 -0.16598173323E+02  0.24121247612E+02  0.51100000000E-03 0. -1.
        -11    1    3    3    0    0  0.10873341998E+01  0.55890463389E+01 -0.10304588342E+02  0.11773031717E+02  0.51100000000E-03 0.  1.
         12    1    3    3    0    0  0.11235920785E+02  0.70531999554E+01  0.61787353556E+01  0.14634558965E+02  0.00000000000E+00 0. -1.
</event>
<event>
 7    1  0.2744502E-011  0.5052884E+02  0.7816164E-02  0.1300439E+00
        -11   -1    0    0    0    0  0.00000000000E+00  0.00000000000E+00  0.45593999997E+02  0.45594000000E+02  0.51100000000E-03 0.  1.
         11   -1    0    0    0    0 -0.00000000000E+00 -0.00000000000E+00 -0.45593999997E+02  0.45594000000E+02  0.51100000000E-03 0. -1.
    9900012    2    1    2    0    0  0.11253301400E+02 -0.18571677834E+02  0.34374743508E+02  0.50528843575E+02  0.29999950531E+02 0.  0.
         12    1    1    2    0    0 -0.11253301400E+02  0.18571677834E+02 -0.34374743508E+02  0.40659156425E+02  0.00000000000E+00 0. -1.
         11    1    3    3    0    0  0.94267817305E+01 -0.17816738984E+02  0.95147123935E+01  0.22289687167E+02  0.51100000000E-03 0. -1.
        -11    1    3    3    0    0  0.69295411028E+01  0.11431342395E+01  0.86673189615E+01  0.11155613566E+02  0.51100000000E-03 0.  1.
         12    1    3    3    0    0 -0.51030214332E+01 -0.18980730897E+01  0.16192712153E+02  0.17083542843E+02  0.00000000000E+00 0. -1.
</event>
<event>
 7    1  0.2744502E-011  0.5052885E+02  0.7816164E-02  0.1300439E+00
        -11   -1    0    0    0    0  0.00000000000E+00  0.00000000000E+00  0.45593999997E+02  0.45594000000E+02  0.51100000000E-03 0. -1.
         11   -1    0    0    0    0 -0.00000000000E+00 -0.00000000000E+00 -0.45593999997E+02  0.45594000000E+02  0.51100000000E-03 0.  1.
    9900012    2    1    2    0    0  0.84914896771E+01  0.23090255211E+02 -0.32371299615E+02  0.50528851934E+02  0.29999975939E+02 0.  0.
         12    1    1    2    0    0 -0.84914896771E+01 -0.23090255211E+02  0.32371299615E+02  0.40659148066E+02  0.00000000000E+00 0. -1.
         11    1    3    3    0    0  0.34775836655E+01 -0.49725080231E+01 -0.94047452923E+01  0.11192348211E+02  0.51100000000E-03 0. -1.
        -11    1    3    3    0    0  0.66941094352E+01  0.44094617870E+01 -0.78229141017E+01  0.11200555329E+02  0.51100000000E-03 0.  1.
        -12    1    3    3    0    0 -0.16802034236E+01  0.23653301447E+02 -0.15143640221E+02  0.28135948394E+02  0.00000000000E+00 0.  1.
</event>
<event>
 7    1  0.2744502E-011  0.5052886E+02  0.7816164E-02  0.1300439E+00
        -11   -1    0    0    0    0  0.00000000000E+00  0.00000000000E+00  0.45593999997E+02  0.45594000000E+02  0.51100000000E-03 0.  1.
         11   -1    0    0    0    0 -0.00000000000E+00 -0.00000000000E+00 -0.45593999997E+02  0.45594000000E+02  0.51100000000E-03 0. -1.
    9900012    2    1    2    0    0 -0.17196264913E+02 -0.31995460266E+02  0.18268683493E+02  0.50528858332E+02  0.29999995386E+02 0.  0.
         12    1    1    2    0    0  0.17196264913E+02  0.31995460266E+02 -0.18268683493E+02  0.40659141668E+02  0.00000000000E+00 0. -1.
         11    1    3    3    0    0 -0.15455608253E+00 -0.12497854626E+02  0.13337081224E+02  0.18278347673E+02  0.51100000000E-03 0. -1.
        -11    1    3    3    0    0 -0.94060318762E+01 -0.16934232021E+02  0.10898579495E+02  0.22226576098E+02  0.51100000000E-03 0.  1.
         12    1    3    3    0    0 -0.76356769544E+01 -0.25633736191E+01 -0.59669772253E+01  0.10023934560E+02  0.00000000000E+00 0. -1.
</event>
<event>
 7    1  0.2744502E-011  0.5052881E+02  0.7816164E-02  0.1300439E+00
        -11   -1    0    0    0    0  0.00000000000E+00  0.00000000000E+00  0.45593999997E+02  0.45594000000E+02  0.51100000000E-03 0. -1.
         11   -1    0    0    0    0 -0.00000000000E+00 -0.00000000000E+00 -0.45593999997E+02  0.45594000000E+02  0.51100000000E-03 0.  1.
    9900012    2    1    2    0    0 -0.29212525356E+02  0.28033767709E+02 -0.37291196509E+01  0.50528805430E+02  0.29999834585E+02 0.  0.
         12    1    1    2    0    0  0.29212525356E+02 -0.28033767709E+02  0.37291196509E+01  0.40659194570E+02  0.00000000000E+00 0. -1.
         11    1    3    3    0    0 -0.53217423557E+01  0.19399884744E+01  0.12058911296E+01  0.57912581240E+01  0.51100000000E-03 0. -1.
        -11    1    3    3    0    0 -0.17954775336E+02  0.13835129731E+02 -0.15534286662E+02  0.27479061745E+02  0.51100000000E-03 0.  1.
         12    1    3    3    0    0 -0.59360076650E+01  0.12258649504E+02  0.10599275881E+02  0.17258485561E+02  0.00000000000E+00 0. -1.
</event>
<event>
 7    1  0.2744502E-011  0.5052887E+02  0.7816164E-02  0.1300439E+00
        -11   -1    0    0    0    0  0.00000000000E+00  0.00000000000E+00  0.45593999997E+02  0.45594000000E+02  0.51100000000E-03 0.  1.
         11   -1    0    0    0    0 -0.00000000000E+00 -0.00000000000E+00 -0.45593999997E+02  0.45594000000E+02  0.51100000000E-03 0. -1.
    9900012    2    1    2    0    0 -0.35049504432E+02  0.13806829771E+02  0.15299311250E+02  0.50528865307E+02  0.30000016586E+02 0.  0.
         12    1    1    2    0    0  0.35049504432E+02 -0.13806829771E+02 -0.15299311250E+02  0.40659134693E+02  0.00000000000E+00 0. -1.
         11    1    3    3    0    0  0.27857672156E+00  0.29675959496E+01 -0.89621026419E+00  0.31124626598E+01  0.51100000000E-03 0. -1.
        -11    1    3    3    0    0 -0.10690535866E+02  0.17428635094E+01 -0.65626125928E+01  0.12664636379E+02  0.51100000000E-03 0.  1.
        -12    1    3    3    0    0 -0.24637545288E+02  0.90963703117E+01  0.22758134107E+02  0.34751766267E+02  0.00000000000E+00 0.  1.
</event>
<event>
 7    1  0.2744502E-011  0.5052888E+02  0.7816164E-02  0.1300439E+00
        -11   -1    0    0    0    0  0.00000000000E+00  0.00000000000E+00  0.45593999997E+02  0.45594000000E+02  0.51100000000E-03 0. -1.
         11   -1    0    0    0    0 -0.00000000000E+00 -0.00000000000E+00 -0.45593999997E+02  0.45594000000E+02  0.51100000000E-03 0.  1.
    9900012    2    1    2    0    0  0.58163777120E+01  0.23884988280E+02 -0.32385814112E+02  0.50528882074E+02  0.30000067552E+02 0.  0.
         12    1    1    2    0    0 -0.58163777120E+01 -0.23884988280E+02  0.32385814112E+02  0.40659117926E+02  0.00000000000E+00 0. -1.
         11    1    3    3    0    0 -0.91265332064E+01  0.12421589141E+02 -0.17522047343E+02  0.23336915574E+02  0.51100000000E-03 0. -1.
        -11    1    3    3    0    0  0.49147981460E+01  0.10851711259E+02 -0.44363585643E+01  0.12712047657E+02  0.51100000000E-03 0.  1.
        -12    1    3    3    0    0  0.10028112772E+02  0.61168788026E+00 -0.10427408205E+02  0.14479918843E+02  0.00000000000E+00 0.  1.
</event>
<event>
 7    1  0.2744502E-011  0.5052888E+02  0.7816164E-02  0.1300439E+00
        -11   -1    0    0    0    0  0.00000000000E+00  0.00000000000E+00  0.45593999997E+02  0.45594000000E+02  0.51100000000E-03 0. -1.
         11   -1    0    0    0    0 -0.00000000000E+00 -0.00000000000E+00 -0.45593999997E+02  0.45594000000E+02  0.51100000000E-03 0.  1.
    9900012    2    1    2    0    0  0.22557252816E+02 -0.33487178345E+02  0.47899477623E+01  0.50528875960E+02  0.30000048968E+02 0.  0.
         12    1    1    2    0    0 -0.22557252816E+02  0.33487178345E+02 -0.47899477623E+01  0.40659124040E+02  0.00000000000E+00 0. -1.
         11    1    3    3    0    0  0.20598512165E+02 -0.93444284258E+01  0.45236385391E+01  0.23066866972E+02  0.51100000000E-03 0. -1.
        -11    1    3    3    0    0  0.25780207615E+01 -0.45263630849E+01  0.50565985794E+01  0.72597068313E+01  0.51100000000E-03 0.  1.
         12    1    3    3    0    0 -0.61928011043E+00 -0.19616386835E+02 -0.47902893562E+01  0.20202302156E+02  0.00000000000E+00 0. -1.
</event>
<event>
 7    1  0.2744502E-011  0.5052886E+02  0.7816164E-02  0.1300439E+00
        -11   -1    0    0    0    0  0.00000000000E+00  0.00000000000E+00  0.45593999997E+02  0.45594000000E+02  0.51100000000E-03 0. -1.
         11   -1    0    0    0    0 -0.00000000000E+00 -0.00000000000E+00 -0.45593999997E+02  0.45594000000E+02  0.51100000000E-03 0.  1.
    9900012    2    1    2    0    0 -0.75020887084E+01 -0.39807856022E+02  0.34955586767E+01  0.50528859988E+02  0.30000000421E+02 0.  0.
         12    1    1    2    0    0  0.75020887084E+01  0.39807856022E+02 -0.34955586767E+01  0.40659140012E+02  0.00000000000E+00 0. -1.
         11    1    3    3    0    0 -0.13526778652E+02 -0.10817231122E+02  0.18332635264E+01  0.17416862096E+02  0.51100000000E-03 0.  1.
        -11    1    3    3    0    0 -0.21334845956E+01 -0.22513200044E+02  0.18866876358E+01  0.22692631474E+02  0.51100000000E-03 0. -1.
         12    1    3    3    0    0  0.81581745391E+01 -0.64774248559E+01 -0.22439248546E+00  0.10419366418E+02  0.00000000000E+00 0. -1.
</event>
<event>
 7    1  0.2744502E-011  0.5052886E+02  0.7816164E-02  0.1300439E+00
        -11   -1    0    0    0    0  0.00000000000E+00  0.00000000000E+00  0.45593999997E+02  0.45594000000E+02  0.51100000000E-03 0.  1.
         11   -1    0    0    0    0 -0.00000000000E+00 -0.00000000000E+00 -0.45593999997E+02  0.45594000000E+02  0.51100000000E-03 0. -1.
    9900012    2    1    2    0    0 -0.10163536963E+02  0.21720939302E+02  0.32833957541E+02  0.50528862582E+02  0.30000008304E+02 0.  0.
         12    1    1    2    0    0  0.10163536963E+02 -0.21720939302E+02 -0.32833957541E+02  0.40659137418E+02  0.00000000000E+00 0. -1.
         11    1    3    3    0    0 -0.28532003716E+01  0.13431004865E+02  0.83838846747E+01  0.16087950974E+02  0.51100000000E-03 0. -1.
        -11    1    3    3    0    0 -0.88129505332E+01  0.14382849200E+02  0.12680492450E+02  0.21102827707E+02  0.51100000000E-03 0.  1.
         12    1    3    3    0    0  0.15026139422E+01 -0.60929147623E+01  0.11769580417E+02  0.13338083901E+02  0.00000000000E+00 0. -1.
</event>
<event>
 7    1  0.2744502E-011  0.5052885E+02  0.7816164E-02  0.1300439E+00
        -11   -1    0    0    0    0  0.00000000000E+00  0.00000000000E+00  0.45593999997E+02  0.45594000000E+02  0.51100000000E-03 0. -1.
         11   -1    0    0    0    0 -0.00000000000E+00 -0.00000000000E+00 -0.45593999997E+02  0.45594000000E+02  0.51100000000E-03 0.  1.
    9900012    2    1    2    0    0  0.11871748462E+02  0.27228506192E+01 -0.38791933753E+02  0.50528850337E+02  0.29999971084E+02 0.  0.
         12    1    1    2    0    0 -0.11871748462E+02 -0.27228506192E+01  0.38791933753E+02  0.40659149663E+02  0.00000000000E+00 0. -1.
         11    1    3    3    0    0 -0.25729208691E+01 -0.88453313822E+00 -0.10262947514E+02  0.10617457916E+02  0.51100000000E-03 0. -1.
        -11    1    3    3    0    0  0.40932177211E+01 -0.84411979890E+01 -0.19501800615E+02  0.21640898371E+02  0.51100000000E-03 0.  1.
         12    1    3    3    0    0  0.10351451610E+02  0.12048581746E+02 -0.90271856236E+01  0.18270494049E+02  0.00000000000E+00 0. -1.
</event>
<event>
 7    1  0.2744502E-011  0.5052885E+02  0.7816164E-02  0.1300439E+00
        -11   -1    0    0    0    0  0.00000000000E+00  0.00000000000E+00  0.45593999997E+02  0.45594000000E+02  0.51100000000E-03 0.  1.
         11   -1    0    0    0    0 -0.00000000000E+00 -0.00000000000E+00 -0.45593999997E+02  0.45594000000E+02  0.51100000000E-03 0. -1.
    9900012    2    1    2    0    0 -0.10729913696E+02 -0.17922996822E+02  0.34882679403E+02  0.50528853608E+02  0.29999981026E+02 0.  0.
         12    1    1    2    0    0  0.10729913696E+02  0.17922996822E+02 -0.34882679403E+02  0.40659146392E+02  0.00000000000E+00 0. -1.
         11    1    3    3    0    0 -0.52013517606E+01 -0.38151350247E+01 -0.30874532461E+01  0.71513413568E+01  0.51100000000E-03 0. -1.
        -11    1    3    3    0    0 -0.24447169956E+01 -0.19314935514E+01 -0.26994221248E+00  0.31273275471E+01  0.51100000000E-03 0.  1.
        -12    1    3    3    0    0 -0.30838449394E+01 -0.12176368246E+02  0.38240074862E+02  0.40250184704E+02  0.00000000000E+00 0.  1.
</event>
<event>
 7    1  0.2744502E-011  0.5052890E+02  0.7816164E-02  0.1300439E+00
        -11   -1    0    0    0    0  0.00000000000E+00  0.00000000000E+00  0.45593999997E+02  0.45594000000E+02  0.51100000000E-03 0.  1.
         11   -1    0    0    0    0 -0.00000000000E+00 -0.00000000000E+00 -0.45593999997E+02  0.45594000000E+02  0.51100000000E-03 0. -1.
    9900012    2    1    2    0    0 -0.24436369156E+02  0.28107600812E+02  0.16309179842E+02  0.50528896369E+02  0.30000111002E+02 0.  0.
         12    1    1    2    0    0  0.24436369156E+02 -0.28107600812E+02 -0.16309179842E+02  0.40659103631E+02  0.00000000000E+00 0. -1.
         11    1    3    3    0    0 -0.19997464369E+02  0.12264796073E+02  0.24525442207E+01  0.23586834830E+02  0.51100000000E-03 0. -1.
        -11    1    3    3    0    0 -0.94698859571E+01  0.11595191708E+02  0.13794909239E+02  0.20357473614E+02  0.51100000000E-03 0.  1.
        -12    1    3    3    0    0  0.50309811693E+01  0.42476130314E+01  0.61726383053E-01  0.65845879246E+01  0.00000000000E+00 0.  1.
</event>
<event>
 7    1  0.2744502E-011  0.5052886E+02  0.7816164E-02  0.1300439E+00
        -11   -1    0    0    0    0  0.00000000000E+00  0.00000000000E+00  0.45593999997E+02  0.45594000000E+02  0.51100000000E-03 0.  1.
         11   -1    0    0    0    0 -0.00000000000E+00 -0.00000000000E+00 -0.45593999997E+02  0.45594000000E+02  0.51100000000E-03 0. -1.
    9900012    2    1    2    0    0  0.32434673278E+02  0.20388294004E+01  0.24433598838E+02  0.50528860706E+02  0.30000002601E+02 0.  0.
         12    1    1    2    0    0 -0.32434673278E+02 -0.20388294004E+01 -0.24433598838E+02  0.40659139294E+02  0.00000000000E+00 0. -1.
         11    1    3    3    0    0 -0.29538488526E+01 -0.60222496046E+00 -0.19149803937E+01  0.35714210220E+01  0.51100000000E-03 0. -1.
        -11    1    3    3    0    0 -0.49572557214E+00 -0.70179895713E+00  0.49916280387E+01  0.50650386333E+01  0.51100000000E-03 0.  1.
         12    1    3    3    0    0  0.35884247703E+02  0.33428533180E+01  0.21356951193E+02  0.41892401050E+02  0.00000000000E+00 0. -1.
</event>
<event>
 7    1  0.2744502E-011  0.5052887E+02  0.7816164E-02  0.1300439E+00
        -11   -1    0    0    0    0  0.00000000000E+00  0.00000000000E+00  0.45593999997E+02  0.45594000000E+02  0.51100000000E-03 0. -1.
         11   -1    0    0    0    0 -0.00000000000E+00 -0.00000000000E+00 -0.45593999997E+02  0.45594000000E+02  0.51100000000E-03 0.  1.
    9900012    2    1    2    0    0  0.15710130111E+02 -0.25035417831E+02 -0.27921041736E+02  0.50528869345E+02  0.30000028860E+02 0.  0.
         12    1    1    2    0    0 -0.15710130111E+02  0.25035417831E+02  0.27921041736E+02  0.40659130655E+02  0.00000000000E+00 0. -1.
         11    1    3    3    0    0 -0.51846391688E+01 -0.65298515292E+01 -0.18152584831E+01  0.85331475978E+01  0.51100000000E-03 0. -1.
        -11    1    3    3    0    0 -0.18275331406E+00 -0.97990897120E+01 -0.10493825117E+02  0.14358827383E+02  0.51100000000E-03 0.  1.
         12    1    3    3    0    0  0.21077522594E+02 -0.87064765894E+01 -0.15611958135E+02  0.27636894364E+02  0.00000000000E+00 0. -1.
</event>
<event>
 7    1  0.2744502E-011  0.5052886E+02  0.7816164E-02  0.1300439E+00
        -11   -1    0    0    0    0  0.00000000000E+00  0.00000000000E+00  0.45593999997E+02  0.45594000000E+02  0.51100000000E-03 0.  1.
         11   -1    0    0    0    0 -0.00000000000E+00 -0.00000000000E+00 -0.45593999997E+02  0.45594000000E+02  0.51100000000E-03 0. -1.
    9900012    2    1    2    0    0 -0.30289014905E+02 -0.26058740165E+02  0.75288282104E+01  0.50528860596E+02  0.30000002267E+02 0.  0.
         12    1    1    2    0    0  0.30289014905E+02  0.26058740165E+02 -0.75288282104E+01  0.40659139404E+02  0.00000000000E+00 0. -1.
         11    1    3    3    0    0 -0.82312263015E+01  0.34237653795E+01 -0.20769540036E+01  0.91536328304E+01  0.51100000000E-03 0. -1.
        -11    1    3    3    0    0 -0.65572144308E+00  0.16616925586E+01 -0.11013572063E+01  0.20986140015E+01  0.51100000000E-03 0.  1.
        -12    1    3    3    0    0 -0.21402067160E+02 -0.31144198103E+02  0.10707139420E+02  0.39276613764E+02  0.00000000000E+00 0.  1.
</event>
<event>
 7    1  0.2744502E-011  0.5052887E+02  0.7816164E-02  0.1300439E+00
        -11   -1    0    0    0    0  0.00000000000E+00  0.00000000000E+00  0.45593999997E+02  0.45594000000E+02  0.51100000000E-03 0.  1.
         11   -1    0    0    0    0 -0.00000000000E+00 -0.00000000000E+00 -0.45593999997E+02  0.45594000000E+02  0.51100000000E-03 0. -1.
    9900012    2    1    2    0    0 -0.23573527282E+02 -0.28971876656E+02  0.16065003566E+02  0.50528866155E+02  0.30000019165E+02 0.  0.
         12    1    1    2    0    0  0.23573527282E+02  0.28971876656E+02 -0.16065003566E+02  0.40659133845E+02  0.00000000000E+00 0. -1.
         11    1    3    3    0    0  0.26573463434E+01 -0.32722351608E+00  0.75779643307E+00  0.27825924088E+01  0.51100000000E-03 0. -1.
        -11    1    3    3    0    0 -0.22546296279E+02 -0.86745300282E+01  0.39478855064E+01  0.24477923673E+02  0.51100000000E-03 0.  1.
         12    1    3    3    0    0 -0.36845773459E+01 -0.19970123112E+02  0.11359321626E+02  0.23268350073E+02  0.00000000000E+00 0. -1.
</event>
<event>
 7    1  0.2744502E-011  0.5052886E+02  0.7816164E-02  0.1300439E+00
        -11   -1    0    0    0    0  0.00000000000E+00  0.00000000000E+00  0.45593999997E+02  0.45594000000E+02  0.51100000000E-03 0.  1.
         11   -1    0    0    0    0 -0.00000000000E+00 -0.00000000000E+00 -0.45593999997E+02  0.45594000000E+02  0.51100000000E-03 0. -1.
    9900012    2    1    2    0    0 -0.12506812414E+02 -0.56507891707E+01  0.38272889223E+02  0.50528858045E+02  0.29999994515E+02 0.  0.
         12    1    1    2    0    0  0.12506812414E+02  0.56507891707E+01 -0.38272889223E+02  0.40659141955E+02  0.00000000000E+00 0. -1.
         11    1    3    3    0    0 -0.10515465098E+02 -0.57159052156E+01  0.24190568299E+02  0.26989445596E+02  0.51100000000E-03 0. -1.
        -11    1    3    3    0    0 -0.17214537661E+00  0.93521541296E+01  0.78143588117E+01  0.12188380729E+02  0.51100000000E-03 0.  1.
         12    1    3    3    0    0 -0.18192019393E+01 -0.92870380847E+01  0.62679621119E+01  0.11351031720E+02  0.00000000000E+00 0. -1.
</event>
<event>
 7    1  0.2744502E-011  0.5052886E+02  0.7816164E-02  0.1300439E+00
        -11   -1    0    0    0    0  0.00000000000E+00  0.00000000000E+00  0.45593999997E+02  0.45594000000E+02  0.51100000000E-03 0. -1.
         11   -1    0    0    0    0 -0.00000000000E+00 -0.00000000000E+00 -0.45593999997E+02  0.45594000000E+02  0.51100000000E-03 0.  1.
    9900012    2    1    2    0    0 -0.25296165351E+02  0.13200994298E+02 -0.28965548985E+02  0.50528864988E+02  0.30000015618E+02 0.  0.
         12    1    1    2    0    0  0.25296165351E+02 -0.13200994298E+02  0.28965548985E+02  0.40659135012E+02  0.00000000000E+00 0. -1.
         11    1    3    3    0    0 -0.91289643257E+01  0.11887981632E+02 -0.12543270270E+01  0.15041124741E+02  0.51100000000E-03 0.  1.
        -11    1    3    3    0    0 -0.53863401921E+01  0.44805540926E+01 -0.17832763358E+01  0.72296680693E+01  0.51100000000E-03 0. -1.
        -12    1    3    3    0    0 -0.10780860833E+02 -0.31675414264E+01 -0.25927945622E+02  0.28258072177E+02  0.00000000000E+00 0.  1.
</event>
<event>
 7    1  0.2744502E-011  0.5052886E+02  0.7816164E-02  0.1300439E+00
        -11   -1    0    0    0    0  0.00000000000E+00  0.00000000000E+00  0.45593999997E+02  0.45594000000E+02  0.51100000000E-03 0. -1.
         11   -1    0    0    0    0 -0.00000000000E+00 -0.00000000000E+00 -0.45593999997E+02  0.45594000000E+02  0.51100000000E-03 0.  1.
    9900012    2    1    2    0    0 -0.36091107997E+02 -0.64641428462E+01 -0.17573060250E+02  0.50528859997E+02  0.30000000448E+02 0.  0.
         12    1    1    2    0    0  0.36091107997E+02  0.64641428462E+01  0.17573060250E+02  0.40659140003E+02  0.00000000000E+00 0. -1.
         11    1    3    3    0    0 -0.76071534649E+01 -0.10940742481E+02 -0.40719919173E+00  0.13331708117E+02  0.51100000000E-03 0. -1.
        -11    1    3    3    0    0 -0.12745364075E+02 -0.40196656959E+01 -0.15499118897E+01  0.13453781804E+02  0.51100000000E-03 0.  1.
         12    1    3    3    0    0 -0.15738590458E+02  0.84962653306E+01 -0.15615949168E+02  0.23743370076E+02  0.00000000000E+00 0. -1.
</event>
<event>
 7    1  0.2744502E-011  0.5052886E+02  0.7816164E-02  0.1300439E+00
        -11   -1    0    0    0    0  0.00000000000E+00  0.00000000000E+00  0.45593999997E+02  0.45594000000E+02  0.51100000000E-03 0.  1.
         11   -1    0    0    0    0 -0.00000000000E+00 -0.00000000000E+00 -0.45593999997E+02  0.45594000000E+02  0.51100000000E-03 0. -1.
    9900012    2    1    2    0    0 -0.25225374633E+02 -0.10691506656E+02  0.30042270107E+02  0.50528857939E+02  0.29999994191E+02 0.  0.
         12    1    1    2    0    0  0.25225374633E+02  0.10691506656E+02 -0.30042270107E+02  0.40659142061E+02  0.00000000000E+00 0. -1.
         11    1    3    3    0    0 -0.17212178649E+02 -0.78454473292E+00  0.16175750807E+02  0.23633229122E+02  0.51100000000E-03 0. -1.
        -11    1    3    3    0    0 -0.11568451680E+02  0.69029217374E+00  0.49706328625E+01  0.12610026521E+02  0.51100000000E-03 0.  1.
         12    1    3    3    0    0  0.35552556958E+01 -0.10597254096E+02  0.88958864378E+01  0.14285602296E+02  0.00000000000E+00 0. -1.
</event>
<event>
 7    1  0.2744502E-011  0.5052886E+02  0.7816164E-02  0.1300439E+00
        -11   -1    0    0    0    0  0.00000000000E+00  0.00000000000E+00  0.45593999997E+02  0.45594000000E+02  0.51100000000E-03 0.  1.
         11   -1    0    0    0    0 -0.00000000000E+00 -0.00000000000E+00 -0.45593999997E+02  0.45594000000E+02  0.51100000000E-03 0. -1.
    9900012    2    1    2    0    0 -0.23435010965E+02 -0.31829296471E+01  0.33073174174E+02  0.50528860437E+02  0.30000001784E+02 0.  0.
         12    1    1    2    0    0  0.23435010965E+02  0.31829296471E+01 -0.33073174174E+02  0.40659139563E+02  0.00000000000E+00 0. -1.
         11    1    3    3    0    0 -0.46422429182E+01  0.67743758629E+01  0.81295215994E+01  0.11555592124E+02  0.51100000000E-03 0. -1.
        -11    1    3    3    0    0  0.11648928724E+01 -0.37382829304E+01  0.15585804956E+02  0.16070129155E+02  0.51100000000E-03 0.  1.
        -12    1    3    3    0    0 -0.19957660919E+02 -0.62190225795E+01  0.93578476184E+01  0.22903139157E+02  0.00000000000E+00 0.  1.
</event>
<event>
 7    1  0.2744502E-011  0.5052886E+02  0.7816164E-02  0.1300439E+00
        -11   -1    0    0    0    0  0.00000000000E+00  0.00000000000E+00  0.45593999997E+02  0.45594000000E+02  0.51100000000E-03 0. -1.
         11   -1    0    0    0    0 -0.00000000000E+00 -0.00000000000E+00 -0.45593999997E+02  0.45594000000E+02  0.51100000000E-03 0.  1.
    9900012    2    1    2    0    0 -0.15552410078E+02 -0.30741358222E+02  0.21592981469E+02  0.50528863102E+02  0.30000009885E+02 0.  0.
         12    1    1    2    0    0  0.15552410078E+02  0.30741358222E+02 -0.21592981469E+02  0.40659136898E+02  0.00000000000E+00 0. -1.
         11    1    3    3    0    0  0.49113210632E+01 -0.20213308526E+01 -0.36000112644E+01  0.64161463798E+01  0.51100000000E-03 0. -1.
        -11    1    3    3    0    0 -0.89588920829E+01 -0.94666013940E+01  0.50873060655E+01  0.13991389229E+02  0.51100000000E-03 0.  1.
        -12    1    3    3    0    0 -0.11504839058E+02 -0.19253425975E+02  0.20105686668E+02  0.30121327493E+02  0.00000000000E+00 0.  1.
</event>
<event>
 7    1  0.2744502E-011  0.5052886E+02  0.7816164E-02  0.1300439E+00
        -11   -1    0    0    0    0  0.00000000000E+00  0.00000000000E+00  0.45593999997E+02  0.45594000000E+02  0.51100000000E-03 0. -1.
         11   -1    0    0    0    0 -0.00000000000E+00 -0.00000000000E+00 -0.45593999997E+02  0.45594000000E+02  0.51100000000E-03 0.  1.
    9900012    2    1    2    0    0  0.89054324461E+01 -0.10985975366E+02 -0.38120429272E+02  0.50528861917E+02  0.30000006282E+02 0.  0.
         12    1    1    2    0    0 -0.89054324461E+01  0.10985975366E+02  0.38120429272E+02  0.40659138083E+02  0.00000000000E+00 0. -1.
         11    1    3    3    0    0  0.72227846665E+01 -0.96859699076E+00 -0.54844745715E+01  0.91206501992E+01  0.51100000000E-03 0. -1.
        -11    1    3    3    0    0  0.12388797366E+02 -0.32106973413E+01 -0.16588297232E+02  0.20951431524E+02  0.51100000000E-03 0.  1.
        -12    1    3    3    0    0 -0.10706149586E+02 -0.68066810340E+01 -0.16047657468E+02  0.20456780193E+02  0.00000000000E+00 0.  1.
</event>
<event>
 7    1  0.2744502E-011  0.5052887E+02  0.7816164E-02  0.1300439E+00
        -11   -1    0    0    0    0  0.00000000000E+00  0.00000000000E+00  0.45593999997E+02  0.45594000000E+02  0.51100000000E-03 0. -1.
         11   -1    0    0    0    0 -0.00000000000E+00 -0.00000000000E+00 -0.45593999997E+02  0.45594000000E+02  0.51100000000E-03 0.  1.
    9900012    2    1    2    0    0  0.26792784148E+01 -0.21121396479E+02 -0.34639186670E+02  0.50528866030E+02  0.30000018783E+02 0.  0.
         12    1    1    2    0    0 -0.26792784148E+01  0.21121396479E+02  0.34639186670E+02  0.40659133970E+02  0.00000000000E+00 0. -1.
         11    1    3    3    0    0 -0.15247647800E+00  0.60920644941E+01 -0.73870077181E+01  0.95762405027E+01  0.51100000000E-03 0. -1.
        -11    1    3    3    0    0  0.17178451996E+01 -0.29361050214E+01 -0.11496793979E+02  0.11989494438E+02  0.51100000000E-03 0.  1.
         12    1    3    3    0    0  0.11139096932E+01 -0.24277355952E+02 -0.15755384974E+02  0.28963131089E+02  0.00000000000E+00 0. -1.
</event>
<event>
 7    1  0.2744502E-011  0.5052885E+02  0.7816164E-02  0.1300439E+00
        -11   -1    0    0    0    0  0.00000000000E+00  0.00000000000E+00  0.45593999997E+02  0.45594000000E+02  0.51100000000E-03 0. -1.
         11   -1    0    0    0    0 -0.00000000000E+00 -0.00000000000E+00 -0.45593999997E+02  0.45594000000E+02  0.51100000000E-03 0.  1.
    9900012    2    1    2    0    0 -0.38869246272E+02  0.60335456459E+00 -0.11915699682E+02  0.50528852918E+02  0.29999978931E+02 0.  0.
         12    1    1    2    0    0  0.38869246272E+02 -0.60335456459E+00  0.11915699682E+02  0.40659147082E+02  0.00000000000E+00 0. -1.
         11    1    3    3    0    0 -0.11170558374E+02  0.11117644518E+02  0.18496830561E+01  0.15868355986E+02  0.51100000000E-03 0. -1.
        -11    1    3    3    0    0 -0.71388281890E+01  0.66651416502E+00 -0.76218089860E+01  0.10464180882E+02  0.51100000000E-03 0.  1.
        -12    1    3    3    0    0 -0.20559859709E+02 -0.11180804119E+02 -0.61435737525E+01  0.24196316051E+02  0.00000000000E+00 0.  1.
</event>
<event>
 7    1  0.2744502E-011  0.5052887E+02  0.7816164E-02  0.1300439E+00
        -11   -1    0    0    0    0  0.00000000000E+00  0.00000000000E+00  0.45593999997E+02  0.45594000000E+02  0.51100000000E-03 0.  1.
         11   -1    0    0    0    0 -0.00000000000E+00 -0.00000000000E+00 -0.45593999997E+02  0.45594000000E+02  0.51100000000E-03 0. -1.
    9900012    2    1    2    0    0 -0.16862799040E+01 -0.23001054451E+02  0.33485408725E+02  0.50528872572E+02  0.30000038669E+02 0.  0.
         12    1    1    2    0    0  0.16862799040E+01  0.23001054451E+02 -0.33485408725E+02  0.40659127428E+02  0.00000000000E+00 0. -1.
         11    1    3    3    0    0 -0.31316179358E+01  0.17665257498E+01  0.36301089629E+01  0.51093380652E+01  0.51100000000E-03 0. -1.
        -11    1    3    3    0    0 -0.30061824953E+01  0.32811451081E+01  0.94619917088E+01  0.10456210297E+02  0.51100000000E-03 0.  1.
        -12    1    3    3    0    0  0.44515205271E+01 -0.28048725309E+02  0.20393308053E+02  0.34963324210E+02  0.00000000000E+00 0.  1.
</event>
<event>
 7    1  0.2744502E-011  0.5052885E+02  0.7816164E-02  0.1300439E+00
        -11   -1    0    0    0    0  0.00000000000E+00  0.00000000000E+00  0.45593999997E+02  0.45594000000E+02  0.51100000000E-03 0.  1.
         11   -1    0    0    0    0 -0.00000000000E+00 -0.00000000000E+00 -0.45593999997E+02  0.45594000000E+02  0.51100000000E-03 0. -1.
    9900012    2    1    2    0    0 -0.72880692139E+01 -0.87531002361E+00  0.39991050047E+02  0.50528853374E+02  0.29999980316E+02 0.  0.
         12    1    1    2    0    0  0.72880692139E+01  0.87531002361E+00 -0.39991050047E+02  0.40659146626E+02  0.00000000000E+00 0. -1.
         11    1    3    3    0    0  0.36891901933E+01  0.94158583888E+01  0.20179917331E+02  0.22572053014E+02  0.51100000000E-03 0. -1.
        -11    1    3    3    0    0 -0.38850381047E+01  0.97510734258E+00 -0.98080210025E-01  0.40067412436E+01  0.51100000000E-03 0.  1.
        -12    1    3    3    0    0 -0.70922213025E+01 -0.11266275755E+02  0.19909212925E+02  0.23950059117E+02  0.00000000000E+00 0.  1.
</event>
<event>
 7    1  0.2744502E-011  0.5052886E+02  0.7816164E-02  0.1300439E+00
        -11   -1    0    0    0    0  0.00000000000E+00  0.00000000000E+00  0.45593999997E+02  0.45594000000E+02  0.51100000000E-03 0.  1.
         11   -1    0    0    0    0 -0.00000000000E+00 -0.00000000000E+00 -0.45593999997E+02  0.45594000000E+02  0.51100000000E-03 0. -1.
    9900012    2    1    2    0    0 -0.30841766832E+02  0.25563717362E+02  0.69604291137E+01  0.50528858344E+02  0.29999995424E+02 0.  0.
         12    1    1    2    0    0  0.30841766832E+02 -0.25563717362E+02 -0.69604291137E+01  0.40659141656E+02  0.00000000000E+00 0. -1.
         11    1    3    3    0    0 -0.16794849178E+02  0.23259036093E+02 -0.12679836630E+01  0.28716850484E+02  0.51100000000E-03 0. -1.
        -11    1    3    3    0    0 -0.10722614621E+02  0.73277192847E+01  0.19876110656E+01  0.13138513319E+02  0.51100000000E-03 0.  1.
        -12    1    3    3    0    0 -0.33243030337E+01 -0.50230380154E+01  0.62408017111E+01  0.86734945415E+01  0.00000000000E+00 0.  1.
</event>
<event>
 7    1  0.2744502E-011  0.5052885E+02  0.7816164E-02  0.1300439E+00
        -11   -1    0    0    0    0  0.00000000000E+00  0.00000000000E+00  0.45593999997E+02  0.45594000000E+02  0.51100000000E-03 0.  1.
         11   -1    0    0    0    0 -0.00000000000E+00 -0.00000000000E+00 -0.45593999997E+02  0.45594000000E+02  0.51100000000E-03 0. -1.
    9900012    2    1    2    0    0 -0.16226749925E+02 -0.36736227682E+02 -0.63488879920E+01  0.50528853228E+02  0.29999979873E+02 0.  0.
         12    1    1    2    0    0  0.16226749925E+02  0.36736227682E+02  0.63488879920E+01  0.40659146772E+02  0.00000000000E+00 0. -1.
         11    1    3    3    0    0 -0.11811582875E+02 -0.22056717782E+02 -0.11022711502E+02  0.27340674067E+02  0.51100000000E-03 0. -1.
        -11    1    3    3    0    0 -0.83522770773E+01 -0.71107942014E+01 -0.33570929103E+01  0.11471442787E+02  0.51100000000E-03 0.  1.
        -12    1    3    3    0    0  0.39371100278E+01 -0.75687156991E+01  0.80309164204E+01  0.11716736374E+02  0.00000000000E+00 0.  1.
</event>
<event>
 7    1  0.2744502E-011  0.5052886E+02  0.7816164E-02  0.1300439E+00
        -11   -1    0    0    0    0  0.00000000000E+00  0.00000000000E+00  0.45593999997E+02  0.45594000000E+02  0.51100000000E-03 0.  1.
         11   -1    0    0    0    0 -0.00000000000E+00 -0.00000000000E+00 -0.45593999997E+02  0.45594000000E+02  0.51100000000E-03 0. -1.
    9900012    2    1    2    0    0 -0.80713309069E+01  0.13186403191E+01  0.39828134431E+02  0.50528862194E+02  0.30000007125E+02 0.  0.
         12    1    1    2    0    0  0.80713309069E+01 -0.13186403191E+01 -0.39828134431E+02  0.40659137806E+02  0.00000000000E+00 0. -1.
         11    1    3    3    0    0  0.24523775011E+00  0.30383564465E+01 -0.24532663791E+01  0.39128337095E+01  0.51100000000E-03 0. -1.
        -11    1    3    3    0    0  0.24210107262E+01  0.11177396938E+01  0.29758585410E+02  0.29877818542E+02  0.51100000000E-03 0.  1.
         12    1    3    3    0    0 -0.10737579383E+02 -0.28374558212E+01  0.12522815400E+02  0.16738209943E+02  0.00000000000E+00 0. -1.
</event>
<event>
 7    1  0.2744502E-011  0.5052886E+02  0.7816164E-02  0.1300439E+00
        -11   -1    0    0    0    0  0.00000000000E+00  0.00000000000E+00  0.45593999997E+02  0.45594000000E+02  0.51100000000E-03 0.  1.
         11   -1    0    0    0    0 -0.00000000000E+00 -0.00000000000E+00 -0.45593999997E+02  0.45594000000E+02  0.51100000000E-03 0. -1.
    9900012    2    1    2    0    0  0.19913241370E+01 -0.21083005133E+02  0.34708890051E+02  0.50528861719E+02  0.30000005680E+02 0.  0.
         12    1    1    2    0    0 -0.19913241370E+01  0.21083005133E+02 -0.34708890051E+02  0.40659138281E+02  0.00000000000E+00 0. -1.
         11    1    3    3    0    0 -0.16560148192E+01 -0.98023963486E+01  0.36791110655E+01  0.10600246117E+02  0.51100000000E-03 0. -1.
        -11    1    3    3    0    0  0.10362597005E+02  0.71430866002E+00  0.19034268842E+02  0.21684027397E+02  0.51100000000E-03 0.  1.
         12    1    3    3    0    0 -0.67152580484E+01 -0.11994917444E+02  0.11995510143E+02  0.18244588204E+02  0.00000000000E+00 0. -1.
</event>
<event>
 7    1  0.2744502E-011  0.5052884E+02  0.7816164E-02  0.1300439E+00
        -11   -1    0    0    0    0  0.00000000000E+00  0.00000000000E+00  0.45593999997E+02  0.45594000000E+02  0.51100000000E-03 0. -1.
         11   -1    0    0    0    0 -0.00000000000E+00 -0.00000000000E+00 -0.45593999997E+02  0.45594000000E+02  0.51100000000E-03 0.  1.
    9900012    2    1    2    0    0  0.24034272000E+02 -0.22642603390E+02 -0.23724106555E+02  0.50528844196E+02  0.29999952419E+02 0.  0.
         12    1    1    2    0    0 -0.24034272000E+02  0.22642603390E+02  0.23724106555E+02  0.40659155804E+02  0.00000000000E+00 0. -1.
         11    1    3    3    0    0 -0.20911919586E+01  0.23128932875E+00  0.87612193004E+00  0.22790718415E+01  0.51100000000E-03 0. -1.
        -11    1    3    3    0    0  0.12741114457E+02 -0.84327402093E+01 -0.24122493949E+02  0.28554190929E+02  0.51100000000E-03 0.  1.
        -12    1    3    3    0    0  0.13384349502E+02 -0.14441152510E+02 -0.47773453550E+00  0.19695581425E+02  0.00000000000E+00 0.  1.
</event>
<event>
 7    1  0.2744502E-011  0.5052886E+02  0.7816164E-02  0.1300439E+00
        -11   -1    0    0    0    0  0.00000000000E+00  0.00000000000E+00  0.45593999997E+02  0.45594000000E+02  0.51100000000E-03 0.  1.
         11   -1    0    0    0    0 -0.00000000000E+00 -0.00000000000E+00 -0.45593999997E+02  0.45594000000E+02  0.51100000000E-03 0. -1.
    9900012    2    1    2    0    0 -0.72683765093E+01 -0.33693926666E+02  0.21565154307E+02  0.50528857467E+02  0.29999992756E+02 0.  0.
         12    1    1    2    0    0  0.72683765093E+01  0.33693926666E+02 -0.21565154307E+02  0.40659142533E+02  0.00000000000E+00 0. -1.
         11    1    3    3    0    0 -0.65648457239E+01 -0.24511688008E+02  0.18170152813E+02  0.31210166643E+02  0.51100000000E-03 0.  1.
        -11    1    3    3    0    0 -0.54496502414E+01  0.27334765622E+01  0.20023517963E+01  0.64171640814E+01  0.51100000000E-03 0. -1.
         12    1    3    3    0    0  0.47461194561E+01 -0.11915715220E+02  0.13926496975E+01  0.12901526742E+02  0.00000000000E+00 0. -1.
</event>
<event>
 7    1  0.2744502E-011  0.5052886E+02  0.7816164E-02  0.1300439E+00
        -11   -1    0    0    0    0  0.00000000000E+00  0.00000000000E+00  0.45593999997E+02  0.45594000000E+02  0.51100000000E-03 0. -1.
         11   -1    0    0    0    0 -0.00000000000E+00 -0.00000000000E+00 -0.45593999997E+02  0.45594000000E+02  0.51100000000E-03 0.  1.
    9900012    2    1    2    0    0  0.48373412801E+01  0.29937732389E+02 -0.27083163980E+02  0.50528862498E+02  0.30000008050E+02 0.  0.
         12    1    1    2    0    0 -0.48373412801E+01 -0.29937732389E+02  0.27083163980E+02  0.40659137502E+02  0.00000000000E+00 0. -1.
         11    1    3    3    0    0  0.56324356814E+01  0.12524762485E+02 -0.12475412919E+02  0.18553434581E+02  0.51100000000E-03 0. -1.
        -11    1    3    3    0    0  0.96960328754E+00  0.14105577447E+02 -0.20553226671E+02  0.24946794834E+02  0.51100000000E-03 0.  1.
         12    1    3    3    0    0 -0.17646976889E+01  0.33073924563E+01  0.59454756094E+01  0.70286330829E+01  0.00000000000E+00 0. -1.
</event>
<event>
 7    1  0.2744502E-011  0.5052889E+02  0.7816164E-02  0.1300439E+00
        -11   -1    0    0    0    0  0.00000000000E+00  0.00000000000E+00  0.45593999997E+02  0.45594000000E+02  0.51100000000E-03 0.  1.
         11   -1    0    0    0    0 -0.00000000000E+00 -0.00000000000E+00 -0.45593999997E+02  0.45594000000E+02  0.51100000000E-03 0. -1.
    9900012    2    1    2    0    0 -0.37195548260E+00 -0.18375773791E+00  0.40656996553E+02  0.50528886797E+02  0.30000081907E+02 0.  0.
         12    1    1    2    0    0  0.37195548260E+00  0.18375773791E+00 -0.40656996553E+02  0.40659113203E+02  0.00000000000E+00 0. -1.
         11    1    3    3    0    0 -0.79063055073E+01 -0.19547678141E+01  0.30845410734E+01  0.87089137025E+01  0.51100000000E-03 0. -1.
        -11    1    3    3    0    0 -0.37699076143E+01  0.48840695297E+01  0.17722272278E+02  0.18765534193E+02  0.51100000000E-03 0.  1.
         12    1    3    3    0    0  0.11304257639E+02 -0.31130594535E+01  0.19850183201E+02  0.23054438901E+02  0.00000000000E+00 0. -1.
</event>
<event>
 7    1  0.2744502E-011  0.5052885E+02  0.7816164E-02  0.1300439E+00
        -11   -1    0    0    0    0  0.00000000000E+00  0.00000000000E+00  0.45593999997E+02  0.45594000000E+02  0.51100000000E-03 0. -1.
         11   -1    0    0    0    0 -0.00000000000E+00 -0.00000000000E+00 -0.45593999997E+02  0.45594000000E+02  0.51100000000E-03 0.  1.
    9900012    2    1    2    0    0  0.18602696450E+02  0.89218927561E+01 -0.35035780180E+02  0.50528851234E+02  0.29999973810E+02 0.  0.
         12    1    1    2    0    0 -0.18602696450E+02 -0.89218927561E+01  0.35035780180E+02  0.40659148766E+02  0.00000000000E+00 0. -1.
         11    1    3    3    0    0  0.67802077253E+01 -0.36779862074E+01  0.67592114572E+00  0.77431046097E+01  0.51100000000E-03 0. -1.
        -11    1    3    3    0    0  0.87924580708E+01  0.25037944724E+01 -0.52286481580E+01  0.10531622264E+02  0.51100000000E-03 0.  1.
         12    1    3    3    0    0  0.30300306539E+01  0.10096084491E+02 -0.30483053168E+02  0.32254124360E+02  0.00000000000E+00 0. -1.
</event>
<event>
 7    1  0.2744502E-011  0.5052887E+02  0.7816164E-02  0.1300439E+00
        -11   -1    0    0    0    0  0.00000000000E+00  0.00000000000E+00  0.45593999997E+02  0.45594000000E+02  0.51100000000E-03 0.  1.
         11   -1    0    0    0    0 -0.00000000000E+00 -0.00000000000E+00 -0.45593999997E+02  0.45594000000E+02  0.51100000000E-03 0. -1.
    9900012    2    1    2    0    0  0.36947091479E+02 -0.13217131240E+02  0.10648237682E+02  0.50528867044E+02  0.30000021866E+02 0.  0.
         12    1    1    2    0    0 -0.36947091479E+02  0.13217131240E+02 -0.10648237682E+02  0.40659132956E+02  0.00000000000E+00 0. -1.
         11    1    3    3    0    0  0.21657493788E+02 -0.95239850701E+01  0.63528730935E+01  0.24497190157E+02  0.51100000000E-03 0. -1.
        -11    1    3    3    0    0  0.59027769840E+01 -0.80874660475E+01  0.10041996113E+02  0.14180675914E+02  0.51100000000E-03 0.  1.
         12    1    3    3    0    0  0.93868207070E+01  0.43943198773E+01 -0.57466315240E+01  0.11851000972E+02  0.00000000000E+00 0. -1.
</event>
<event>
 7    1  0.2744502E-011  0.5052881E+02  0.7816164E-02  0.1300439E+00
        -11   -1    0    0    0    0  0.00000000000E+00  0.00000000000E+00  0.45593999997E+02  0.45594000000E+02  0.51100000000E-03 0.  1.
         11   -1    0    0    0    0 -0.00000000000E+00 -0.00000000000E+00 -0.45593999997E+02  0.45594000000E+02  0.51100000000E-03 0. -1.
    9900012    2    1    2    0    0 -0.23944986357E+02 -0.27612000838E+02  0.17815300448E+02  0.50528808026E+02  0.29999842476E+02 0.  0.
         12    1    1    2    0    0  0.23944986357E+02  0.27612000838E+02 -0.17815300448E+02  0.40659191974E+02  0.00000000000E+00 0. -1.
         11    1    3    3    0    0 -0.13680295720E+02 -0.68000197402E+01  0.85078163030E+01  0.17486386075E+02  0.51100000000E-03 0. -1.
        -11    1    3    3    0    0 -0.15805117317E+02 -0.15511004720E+02  0.11653150281E+02  0.25023766954E+02  0.51100000000E-03 0.  1.
         12    1    3    3    0    0  0.55404266796E+01 -0.53009763777E+01 -0.23456661360E+01  0.80186549976E+01  0.00000000000E+00 0. -1.
</event>
<event>
 7    1  0.2744502E-011  0.5052886E+02  0.7816164E-02  0.1300439E+00
        -11   -1    0    0    0    0  0.00000000000E+00  0.00000000000E+00  0.45593999997E+02  0.45594000000E+02  0.51100000000E-03 0.  1.
         11   -1    0    0    0    0 -0.00000000000E+00 -0.00000000000E+00 -0.45593999997E+02  0.45594000000E+02  0.51100000000E-03 0. -1.
    9900012    2    1    2    0    0  0.18324311322E+02 -0.87304327467E+01  0.35230167308E+02  0.50528861668E+02  0.30000005527E+02 0.  0.
         12    1    1    2    0    0 -0.18324311322E+02  0.87304327467E+01 -0.35230167308E+02  0.40659138332E+02  0.00000000000E+00 0. -1.
         11    1    3    3    0    0  0.12816946139E+02 -0.11471306295E+02  0.10180268887E+02  0.19987567418E+02  0.51100000000E-03 0. -1.
        -11    1    3    3    0    0  0.28154799600E+01 -0.68494330475E+01  0.12362674344E+02  0.14411015845E+02  0.51100000000E-03 0.  1.
         12    1    3    3    0    0  0.26918852232E+01  0.95903065959E+01  0.12687224077E+02  0.16130278405E+02  0.00000000000E+00 0. -1.
</event>
<event>
 7    1  0.2744502E-011  0.5052887E+02  0.7816164E-02  0.1300439E+00
        -11   -1    0    0    0    0  0.00000000000E+00  0.00000000000E+00  0.45593999997E+02  0.45594000000E+02  0.51100000000E-03 0.  1.
         11   -1    0    0    0    0 -0.00000000000E+00 -0.00000000000E+00 -0.45593999997E+02  0.45594000000E+02  0.51100000000E-03 0. -1.
    9900012    2    1    2    0    0  0.13714421961E+02 -0.19038059339E+02  0.33205905485E+02  0.50528865329E+02  0.30000016654E+02 0.  0.
         12    1    1    2    0    0 -0.13714421961E+02  0.19038059339E+02 -0.33205905485E+02  0.40659134671E+02  0.00000000000E+00 0. -1.
         11    1    3    3    0    0  0.10340548350E+01 -0.12952121057E+02  0.26927788761E+01  0.13269429815E+02  0.51100000000E-03 0. -1.
        -11    1    3    3    0    0  0.31098557500E+01 -0.56003374392E+01  0.13289812773E+01  0.65422605967E+01  0.51100000000E-03 0.  1.
         12    1    3    3    0    0  0.95705113764E+01 -0.48560084315E+00  0.29184145331E+02  0.30717174918E+02  0.00000000000E+00 0. -1.
</event>
<event>
 7    1  0.2744502E-011  0.5052887E+02  0.7816164E-02  0.1300439E+00
        -11   -1    0    0    0    0  0.00000000000E+00  0.00000000000E+00  0.45593999997E+02  0.45594000000E+02  0.51100000000E-03 0. -1.
         11   -1    0    0    0    0 -0.00000000000E+00 -0.00000000000E+00 -0.45593999997E+02  0.45594000000E+02  0.51100000000E-03 0.  1.
    9900012    2    1    2    0    0 -0.15231576121E+02  0.29049946615E+02 -0.24026335913E+02  0.50528866625E+02  0.30000020592E+02 0.  0.
         12    1    1    2    0    0  0.15231576121E+02 -0.29049946615E+02  0.24026335913E+02  0.40659133375E+02  0.00000000000E+00 0. -1.
         11    1    3    3    0    0  0.55268351394E+01  0.69936581543E+01 -0.37374221142E+01  0.96656859745E+01  0.51100000000E-03 0. -1.
        -11    1    3    3    0    0 -0.12380140898E+02  0.65625682926E+01 -0.18429635028E+02  0.23151385245E+02  0.51100000000E-03 0.  1.
         12    1    3    3    0    0 -0.83782703624E+01  0.15493720168E+02 -0.18592787703E+01  0.17711795405E+02  0.00000000000E+00 0. -1.
</event>
<event>
 7    1  0.2744502E-011  0.5052886E+02  0.7816164E-02  0.1300439E+00
        -11   -1    0    0    0    0  0.00000000000E+00  0.00000000000E+00  0.45593999997E+02  0.45594000000E+02  0.51100000000E-03 0. -1.
         11   -1    0    0    0    0 -0.00000000000E+00 -0.00000000000E+00 -0.45593999997E+02  0.45594000000E+02  0.51100000000E-03 0.  1.
    9900012    2    1    2    0    0  0.25930404958E+02 -0.30966241684E+02  0.46766788362E+01  0.50528863877E+02  0.30000012241E+02 0.  0.
         12    1    1    2    0    0 -0.25930404958E+02  0.30966241684E+02 -0.46766788362E+01  0.40659136123E+02  0.00000000000E+00 0. -1.
         11    1    3    3    0    0  0.20208808571E+00 -0.56085119330E+01 -0.57589263135E+01  0.80412361141E+01  0.51100000000E-03 0. -1.
        -11    1    3    3    0    0  0.41654633058E+01 -0.14801785875E+02  0.10248182198E+02  0.18478884930E+02  0.51100000000E-03 0.  1.
        -12    1    3    3    0    0  0.21562853566E+02 -0.10555943877E+02  0.18742295126E+00  0.24008742833E+02  0.00000000000E+00 0.  1.
</event>
<event>
 7    1  0.2744502E-011  0.5052886E+02  0.7816164E-02  0.1300439E+00
        -11   -1    0    0    0    0  0.00000000000E+00  0.00000000000E+00  0.45593999997E+02  0.45594000000E+02  0.51100000000E-03 0.  1.
         11   -1    0    0    0    0 -0.00000000000E+00 -0.00000000000E+00 -0.45593999997E+02  0.45594000000E+02  0.51100000000E-03 0. -1.
    9900012    2    1    2    0    0 -0.39368953267E+02 -0.90680803660E+01 -0.45849009715E+01  0.50528857366E+02  0.29999992449E+02 0.  0.
         12    1    1    2    0    0  0.39368953267E+02  0.90680803660E+01  0.45849009715E+01  0.40659142634E+02  0.00000000000E+00 0. -1.
         11    1    3    3    0    0 -0.13922660938E+01 -0.30372945670E+01 -0.37189205738E+01  0.49993933290E+01  0.51100000000E-03 0. -1.
        -11    1    3    3    0    0  0.12879390297E+01 -0.40910491083E+00 -0.54365425171E+01  0.56019772022E+01  0.51100000000E-03 0.  1.
        -12    1    3    3    0    0 -0.39264626203E+02 -0.56216808881E+01  0.45705621194E+01  0.39927486835E+02  0.00000000000E+00 0.  1.
</event>
<event>
 7    1  0.2744502E-011  0.5052886E+02  0.7816164E-02  0.1300439E+00
        -11   -1    0    0    0    0  0.00000000000E+00  0.00000000000E+00  0.45593999997E+02  0.45594000000E+02  0.51100000000E-03 0.  1.
         11   -1    0    0    0    0 -0.00000000000E+00 -0.00000000000E+00 -0.45593999997E+02  0.45594000000E+02  0.51100000000E-03 0. -1.
    9900012    2    1    2    0    0  0.37958786210E+02 -0.14507137604E+02 -0.13562007724E+01  0.50528858684E+02  0.29999996456E+02 0.  0.
         12    1    1    2    0    0 -0.37958786210E+02  0.14507137604E+02  0.13562007724E+01  0.40659141316E+02  0.00000000000E+00 0. -1.
         11    1    3    3    0    0  0.22780417336E+01 -0.28717467017E+01 -0.10627602877E+02  0.11241990324E+02  0.51100000000E-03 0. -1.
        -11    1    3    3    0    0  0.26996682017E+01  0.41692504813E+00 -0.62993101614E+00  0.28033637369E+01  0.51100000000E-03 0.  1.
         12    1    3    3    0    0  0.32981076275E+02 -0.12052315951E+02  0.99013331211E+01  0.36483504623E+02  0.00000000000E+00 0. -1.
</event>
<event>
 7    1  0.2744502E-011  0.5052887E+02  0.7816164E-02  0.1300439E+00
        -11   -1    0    0    0    0  0.00000000000E+00  0.00000000000E+00  0.45593999997E+02  0.45594000000E+02  0.51100000000E-03 0.  1.
         11   -1    0    0    0    0 -0.00000000000E+00 -0.00000000000E+00 -0.45593999997E+02  0.45594000000E+02  0.51100000000E-03 0. -1.
    9900012    2    1    2    0    0  0.36850005486E+02 -0.67840682866E+01  0.15786645381E+02  0.50528872375E+02  0.30000038071E+02 0.  0.
         12    1    1    2    0    0 -0.36850005486E+02  0.67840682866E+01 -0.15786645381E+02  0.40659127625E+02  0.00000000000E+00 0. -1.
         11    1    3    3    0    0  0.16323376604E+02  0.28418601419E+01 -0.43336766911E+01  0.17126282339E+02  0.51100000000E-03 0. -1.
        -11    1    3    3    0    0  0.76974658669E+00 -0.47836760083E+01  0.77704322006E-01  0.48458336933E+01  0.51100000000E-03 0.  1.
        -12    1    3    3    0    0  0.19756882295E+02 -0.48422524202E+01  0.20042617750E+02  0.28556756343E+02  0.00000000000E+00 0.  1.
</event>
<event>
 7    1  0.2744502E-011  0.5052886E+02  0.7816164E-02  0.1300439E+00
        -11   -1    0    0    0    0  0.00000000000E+00  0.00000000000E+00  0.45593999997E+02  0.45594000000E+02  0.51100000000E-03 0. -1.
         11   -1    0    0    0    0 -0.00000000000E+00 -0.00000000000E+00 -0.45593999997E+02  0.45594000000E+02  0.51100000000E-03 0.  1.
    9900012    2    1    2    0    0 -0.35859875834E+02 -0.93639588307E+01 -0.16719784984E+02  0.50528860440E+02  0.30000001795E+02 0.  0.
         12    1    1    2    0    0  0.35859875834E+02  0.93639588307E+01  0.16719784984E+02  0.40659139560E+02  0.00000000000E+00 0. -1.
         11    1    3    3    0    0 -0.75923079602E+01 -0.12016643911E+02 -0.18386649585E+01  0.14332604793E+02  0.51100000000E-03 0. -1.
        -11    1    3    3    0    0 -0.12512568201E+02 -0.58728510423E+01 -0.16383601477E+01  0.13919014569E+02  0.51100000000E-03 0.  1.
        -12    1    3    3    0    0 -0.15754999673E+02  0.85255361231E+01 -0.13242759878E+02  0.22277241078E+02  0.00000000000E+00 0.  1.
</event>
<event>
 7    1  0.2744502E-011  0.5052887E+02  0.7816164E-02  0.1300439E+00
        -11   -1    0    0    0    0  0.00000000000E+00  0.00000000000E+00  0.45593999997E+02  0.45594000000E+02  0.51100000000E-03 0.  1.
         11   -1    0    0    0    0 -0.00000000000E+00 -0.00000000000E+00 -0.45593999997E+02  0.45594000000E+02  0.51100000000E-03 0. -1.
    9900012    2    1    2    0    0  0.12028992562E+02  0.24450677439E+02  0.30176692429E+02  0.50528867505E+02  0.30000023268E+02 0.  0.
         12    1    1    2    0    0 -0.12028992562E+02 -0.24450677439E+02 -0.30176692429E+02  0.40659132495E+02  0.00000000000E+00 0. -1.
         11    1    3    3    0    0 -0.16872451109E+01  0.10731322297E+01 -0.52018539386E+00  0.20661563232E+01  0.51100000000E-03 0. -1.
        -11    1    3    3    0    0 -0.74579939605E+01  0.85774749147E+01  0.12300815957E+02  0.16748278219E+02  0.51100000000E-03 0.  1.
         12    1    3    3    0    0  0.21174231633E+02  0.14800070295E+02  0.18396061866E+02  0.31714432963E+02  0.00000000000E+00 0. -1.
</event>
<event>
 7    1  0.2744502E-011  0.5052886E+02  0.7816164E-02  0.1300439E+00
        -11   -1    0    0    0    0  0.00000000000E+00  0.00000000000E+00  0.45593999997E+02  0.45594000000E+02  0.51100000000E-03 0. -1.
         11   -1    0    0    0    0 -0.00000000000E+00 -0.00000000000E+00 -0.45593999997E+02  0.45594000000E+02  0.51100000000E-03 0.  1.
    9900012    2    1    2    0    0 -0.26946690683E+02  0.30129585808E+02 -0.43874370152E+01  0.50528859782E+02  0.29999999793E+02 0.  0.
         12    1    1    2    0    0  0.26946690683E+02 -0.30129585808E+02  0.43874370152E+01  0.40659140218E+02  0.00000000000E+00 0. -1.
         11    1    3    3    0    0 -0.34123863982E+01  0.45615717828E+01  0.67347655873E+01  0.88209628634E+01  0.51100000000E-03 0.  1.
        -11    1    3    3    0    0 -0.30224935096E+01 -0.12280563595E+01  0.36283007240E+01  0.48793601878E+01  0.51100000000E-03 0. -1.
        -12    1    3    3    0    0 -0.20511810775E+02  0.26796070385E+02 -0.14750503326E+02  0.36828536731E+02  0.00000000000E+00 0.  1.
</event>
<event>
 7    1  0.2744502E-011  0.5052886E+02  0.7816164E-02  0.1300439E+00
        -11   -1    0    0    0    0  0.00000000000E+00  0.00000000000E+00  0.45593999997E+02  0.45594000000E+02  0.51100000000E-03 0.  1.
         11   -1    0    0    0    0 -0.00000000000E+00 -0.00000000000E+00 -0.45593999997E+02  0.45594000000E+02  0.51100000000E-03 0. -1.
    9900012    2    1    2    0    0 -0.35726952201E+02 -0.19351028314E+02 -0.15126232630E+01  0.50528862779E+02  0.30000008904E+02 0.  0.
         12    1    1    2    0    0  0.35726952201E+02  0.19351028314E+02  0.15126232630E+01  0.40659137221E+02  0.00000000000E+00 0. -1.
         11    1    3    3    0    0 -0.27897376177E+01 -0.25424204108E+01 -0.45377476460E+01  0.59023462692E+01  0.51100000000E-03 0. -1.
        -11    1    3    3    0    0 -0.22966347357E+02 -0.15589623623E+02 -0.87920724226E+01  0.29116833849E+02  0.51100000000E-03 0.  1.
        -12    1    3    3    0    0 -0.99708672262E+01 -0.12189842801E+01  0.11817196806E+02  0.15509682662E+02  0.00000000000E+00 0.  1.
</event>
<event>
 7    1  0.2744502E-011  0.5052887E+02  0.7816164E-02  0.1300439E+00
        -11   -1    0    0    0    0  0.00000000000E+00  0.00000000000E+00  0.45593999997E+02  0.45594000000E+02  0.51100000000E-03 0.  1.
         11   -1    0    0    0    0 -0.00000000000E+00 -0.00000000000E+00 -0.45593999997E+02  0.45594000000E+02  0.51100000000E-03 0. -1.
    9900012    2    1    2    0    0 -0.11903245766E+02  0.48582652569E+01  0.38572984112E+02  0.50528866901E+02  0.30000021432E+02 0.  0.
         12    1    1    2    0    0  0.11903245766E+02 -0.48582652569E+01 -0.38572984112E+02  0.40659133099E+02  0.00000000000E+00 0. -1.
         11    1    3    3    0    0 -0.76811631634E-01  0.39623521256E+01  0.48343264961E+01  0.62511476807E+01  0.51100000000E-03 0. -1.
        -11    1    3    3    0    0 -0.92569343473E+01  0.92667124677E+01  0.32983330515E+02  0.35488912150E+02  0.51100000000E-03 0.  1.
        -12    1    3    3    0    0 -0.25694997875E+01 -0.83707993364E+01  0.75532710105E+00  0.87888070702E+01  0.00000000000E+00 0.  1.
</event>
<event>
 7    1  0.2744502E-011  0.5052891E+02  0.7816164E-02  0.1300439E+00
        -11   -1    0    0    0    0  0.00000000000E+00  0.00000000000E+00  0.45593999997E+02  0.45594000000E+02  0.51100000000E-03 0.  1.
         11   -1    0    0    0    0 -0.00000000000E+00 -0.00000000000E+00 -0.45593999997E+02  0.45594000000E+02  0.51100000000E-03 0. -1.
    9900012    2    1    2    0    0  0.51831113626E+01  0.86658533272E+01  0.39385274879E+02  0.50528910800E+02  0.30000154868E+02 0.  0.
         12    1    1    2    0    0 -0.51831113626E+01 -0.86658533272E+01 -0.39385274879E+02  0.40659089200E+02  0.00000000000E+00 0. -1.
         11    1    3    3    0    0 -0.35969018951E+01  0.16445576587E+02  0.20605727891E+02  0.26608094909E+02  0.51100000000E-03 0. -1.
        -11    1    3    3    0    0  0.19572527350E+01  0.19630266502E+01  0.50072387892E+01  0.57233515051E+01  0.51100000000E-03 0.  1.
        -12    1    3    3    0    0  0.68227605226E+01 -0.97427499101E+01  0.13772308199E+02  0.18197464386E+02  0.00000000000E+00 0.  1.
</event>
<event>
 7    1  0.2744502E-011  0.5052886E+02  0.7816164E-02  0.1300439E+00
        -11   -1    0    0    0    0  0.00000000000E+00  0.00000000000E+00  0.45593999997E+02  0.45594000000E+02  0.51100000000E-03 0. -1.
         11   -1    0    0    0    0 -0.00000000000E+00 -0.00000000000E+00 -0.45593999997E+02  0.45594000000E+02  0.51100000000E-03 0.  1.
    9900012    2    1    2    0    0  0.26427575633E+02 -0.22455228588E+02 -0.21225254897E+02  0.50528862156E+02  0.30000007010E+02 0.  0.
         12    1    1    2    0    0 -0.26427575633E+02  0.22455228588E+02  0.21225254897E+02  0.40659137844E+02  0.00000000000E+00 0. -1.
         11    1    3    3    0    0  0.53456381094E+01 -0.80130235229E+01 -0.16291242321E+02  0.18925880941E+02  0.51100000000E-03 0. -1.
        -11    1    3    3    0    0  0.10244364757E+02 -0.11189539144E+01 -0.93011068561E+01  0.13881990353E+02  0.51100000000E-03 0.  1.
        -12    1    3    3    0    0  0.10837572766E+02 -0.13323251151E+02  0.43670942802E+01  0.17720990862E+02  0.00000000000E+00 0.  1.
</event>
<event>
 7    1  0.2744502E-011  0.5052884E+02  0.7816164E-02  0.1300439E+00
        -11   -1    0    0    0    0  0.00000000000E+00  0.00000000000E+00  0.45593999997E+02  0.45594000000E+02  0.51100000000E-03 0.  1.
         11   -1    0    0    0    0 -0.00000000000E+00 -0.00000000000E+00 -0.45593999997E+02  0.45594000000E+02  0.51100000000E-03 0. -1.
    9900012    2    1    2    0    0  0.25318447531E+02 -0.22306938433E+02  0.22683563738E+02  0.50528839267E+02  0.29999937436E+02 0.  0.
         12    1    1    2    0    0 -0.25318447531E+02  0.22306938433E+02 -0.22683563738E+02  0.40659160733E+02  0.00000000000E+00 0. -1.
         11    1    3    3    0    0 -0.13573251684E+00  0.87475671516E+00 -0.10589127246E+01  0.13801880475E+01  0.51100000000E-03 0. -1.
        -11    1    3    3    0    0 -0.45349436091E+00 -0.73878943270E+01 -0.36661364143E+01  0.82599755564E+01  0.51100000000E-03 0.  1.
        -12    1    3    3    0    0  0.25907674409E+02 -0.15793800821E+02  0.27408612877E+02  0.40888675663E+02  0.00000000000E+00 0.  1.
</event>
<event>
 7    1  0.2744502E-011  0.5052886E+02  0.7816164E-02  0.1300439E+00
        -11   -1    0    0    0    0  0.00000000000E+00  0.00000000000E+00  0.45593999997E+02  0.45594000000E+02  0.51100000000E-03 0. -1.
         11   -1    0    0    0    0 -0.00000000000E+00 -0.00000000000E+00 -0.45593999997E+02  0.45594000000E+02  0.51100000000E-03 0.  1.
    9900012    2    1    2    0    0  0.29486218494E+02  0.12132018482E+02 -0.25229805589E+02  0.50528855350E+02  0.29999986323E+02 0.  0.
         12    1    1    2    0    0 -0.29486218494E+02 -0.12132018482E+02  0.25229805589E+02  0.40659144650E+02  0.00000000000E+00 0. -1.
         11    1    3    3    0    0  0.78164927134E+01  0.11112300043E+02 -0.97155709961E+01  0.16702487558E+02  0.51100000000E-03 0. -1.
        -11    1    3    3    0    0  0.51163167522E+01  0.37952051987E+01 -0.15803816673E+02  0.17039392633E+02  0.51100000000E-03 0.  1.
         12    1    3    3    0    0  0.16553409029E+02 -0.27754867593E+01  0.28958207964E+00  0.16786975159E+02  0.00000000000E+00 0. -1.
</event>
<event>
 7    1  0.2744502E-011  0.5052886E+02  0.7816164E-02  0.1300439E+00
        -11   -1    0    0    0    0  0.00000000000E+00  0.00000000000E+00  0.45593999997E+02  0.45594000000E+02  0.51100000000E-03 0.  1.
         11   -1    0    0    0    0 -0.00000000000E+00 -0.00000000000E+00 -0.45593999997E+02  0.45594000000E+02  0.51100000000E-03 0. -1.
    9900012    2    1    2    0    0  0.29164602941E+02  0.28237633689E+02  0.22864270302E+01  0.50528858720E+02  0.29999996566E+02 0.  0.
         12    1    1    2    0    0 -0.29164602941E+02 -0.28237633689E+02 -0.22864270302E+01  0.40659141280E+02  0.00000000000E+00 0. -1.
         11    1    3    3    0    0  0.18203190680E+02  0.11670053508E+01  0.11997494943E+01  0.18279974058E+02  0.51100000000E-03 0. -1.
        -11    1    3    3    0    0  0.74606780459E+01  0.37891807596E+01 -0.17083590481E+01  0.85403804735E+01  0.51100000000E-03 0.  1.
         12    1    3    3    0    0  0.35007342144E+01  0.23281447578E+02  0.27950365840E+01  0.23708504189E+02  0.00000000000E+00 0. -1.
</event>
<event>
 7    1  0.2744502E-011  0.5052887E+02  0.7816164E-02  0.1300439E+00
        -11   -1    0    0    0    0  0.00000000000E+00  0.00000000000E+00  0.45593999997E+02  0.45594000000E+02  0.51100000000E-03 0.  1.
         11   -1    0    0    0    0 -0.00000000000E+00 -0.00000000000E+00 -0.45593999997E+02  0.45594000000E+02  0.51100000000E-03 0. -1.
    9900012    2    1    2    0    0 -0.29316837328E+02  0.81265932588E+01  0.26974927362E+02  0.50528866032E+02  0.30000018789E+02 0.  0.
         12    1    1    2    0    0  0.29316837328E+02 -0.81265932588E+01 -0.26974927362E+02  0.40659133968E+02  0.00000000000E+00 0. -1.
         11    1    3    3    0    0 -0.79347532974E+00  0.85401272602E+01  0.82014344743E+01  0.11867051210E+02  0.51100000000E-03 0. -1.
        -11    1    3    3    0    0 -0.10136352509E+02  0.63625443889E+01  0.14141575827E+02  0.18525975829E+02  0.51100000000E-03 0.  1.
         12    1    3    3    0    0 -0.18387009489E+02 -0.67760783902E+01  0.46319170608E+01  0.20135838993E+02  0.00000000000E+00 0. -1.
</event>
<event>
 7    1  0.2744502E-011  0.5052886E+02  0.7816164E-02  0.1300439E+00
        -11   -1    0    0    0    0  0.00000000000E+00  0.00000000000E+00  0.45593999997E+02  0.45594000000E+02  0.51100000000E-03 0.  1.
         11   -1    0    0    0    0 -0.00000000000E+00 -0.00000000000E+00 -0.45593999997E+02  0.45594000000E+02  0.51100000000E-03 0. -1.
    9900012    2    1    2    0    0 -0.40250547959E+02 -0.40578412587E+01 -0.40734287329E+01  0.50528861933E+02  0.30000006333E+02 0.  0.
         12    1    1    2    0    0  0.40250547959E+02  0.40578412587E+01  0.40734287329E+01  0.40659138067E+02  0.00000000000E+00 0. -1.
         11    1    3    3    0    0 -0.50275534770E+00 -0.85981778097E+00 -0.47574979605E+01  0.48606415895E+01  0.51100000000E-03 0. -1.
        -11    1    3    3    0    0 -0.17000080744E+02  0.24277562311E+01 -0.10046138064E+02  0.19895266671E+02  0.51100000000E-03 0.  1.
         12    1    3    3    0    0 -0.22747711867E+02 -0.56257797089E+01  0.10730207292E+02  0.25772953673E+02  0.00000000000E+00 0. -1.
</event>
<event>
 7    1  0.2744502E-011  0.5052890E+02  0.7816164E-02  0.1300439E+00
        -11   -1    0    0    0    0  0.00000000000E+00  0.00000000000E+00  0.45593999997E+02  0.45594000000E+02  0.51100000000E-03 0.  1.
         11   -1    0    0    0    0 -0.00000000000E+00 -0.00000000000E+00 -0.45593999997E+02  0.45594000000E+02  0.51100000000E-03 0. -1.
    9900012    2    1    2    0    0 -0.12785486853E+02  0.38504036257E+02 -0.26707172420E+01  0.50528902460E+02  0.30000129518E+02 0.  0.
         12    1    1    2    0    0  0.12785486853E+02 -0.38504036257E+02  0.26707172420E+01  0.40659097540E+02  0.00000000000E+00 0. -1.
         11    1    3    3    0    0 -0.39316933775E+00  0.77101700391E+01  0.44600864283E+01  0.89159225753E+01  0.51100000000E-03 0. -1.
        -11    1    3    3    0    0 -0.64051393470E+00  0.72476404053E+01  0.83547825998E+01  0.11078851118E+02  0.51100000000E-03 0.  1.
         12    1    3    3    0    0 -0.11751803580E+02  0.23546225813E+02 -0.15485586270E+02  0.30534128767E+02  0.00000000000E+00 0. -1.
</event>
<event>
 7    1  0.2744502E-011  0.5052887E+02  0.7816164E-02  0.1300439E+00
        -11   -1    0    0    0    0  0.00000000000E+00  0.00000000000E+00  0.45593999997E+02  0.45594000000E+02  0.51100000000E-03 0.  1.
         11   -1    0    0    0    0 -0.00000000000E+00 -0.00000000000E+00 -0.45593999997E+02  0.45594000000E+02  0.51100000000E-03 0. -1.
    9900012    2    1    2    0    0  0.35926033727E+02  0.56803497552E+01  0.18171927054E+02  0.50528865657E+02  0.30000017650E+02 0.  0.
         12    1    1    2    0    0 -0.35926033727E+02 -0.56803497552E+01 -0.18171927054E+02  0.40659134343E+02  0.00000000000E+00 0. -1.
         11    1    3    3    0    0  0.13222285283E+02 -0.51203113862E+01  0.33040062810E+01  0.14558944830E+02  0.51100000000E-03 0. -1.
        -11    1    3    3    0    0  0.14264186816E+02 -0.40444647570E+01  0.10998641707E+02  0.18460629467E+02  0.51100000000E-03 0.  1.
         12    1    3    3    0    0  0.84395616284E+01  0.14845125898E+02  0.38692790662E+01  0.17509291360E+02  0.00000000000E+00 0. -1.
</event>
<event>
 7    1  0.2744502E-011  0.5052890E+02  0.7816164E-02  0.1300439E+00
        -11   -1    0    0    0    0  0.00000000000E+00  0.00000000000E+00  0.45593999997E+02  0.45594000000E+02  0.51100000000E-03 0. -1.
         11   -1    0    0    0    0 -0.00000000000E+00 -0.00000000000E+00 -0.45593999997E+02  0.45594000000E+02  0.51100000000E-03 0.  1.
    9900012    2    1    2    0    0  0.17349420356E+02  0.32551121896E+02 -0.17105103660E+02  0.50528898994E+02  0.30000118983E+02 0.  0.
         12    1    1    2    0    0 -0.17349420356E+02 -0.32551121896E+02  0.17105103660E+02  0.40659101006E+02  0.00000000000E+00 0. -1.
         11    1    3    3    0    0  0.15969315313E+02  0.22962103436E+02 -0.22288330669E+02  0.35763765322E+02  0.51100000000E-03 0. -1.
        -11    1    3    3    0    0  0.16649656283E+01  0.20258106323E+01 -0.27506011368E+01  0.38002402735E+01  0.51100000000E-03 0.  1.
         12    1    3    3    0    0 -0.28486058528E+00  0.75632078279E+01  0.79338281458E+01  0.10964893399E+02  0.00000000000E+00 0. -1.
</event>
<event>
 7    1  0.2744502E-011  0.5052885E+02  0.7816164E-02  0.1300439E+00
        -11   -1    0    0    0    0  0.00000000000E+00  0.00000000000E+00  0.45593999997E+02  0.45594000000E+02  0.51100000000E-03 0.  1.
         11   -1    0    0    0    0 -0.00000000000E+00 -0.00000000000E+00 -0.45593999997E+02  0.45594000000E+02  0.51100000000E-03 0. -1.
    9900012    2    1    2    0    0 -0.23877782059E+02  0.21186179645E+01  0.32840971537E+02  0.50528850604E+02  0.29999971897E+02 0.  0.
         12    1    1    2    0    0  0.23877782059E+02 -0.21186179645E+01 -0.32840971537E+02  0.40659149396E+02  0.00000000000E+00 0. -1.
         11    1    3    3    0    0  0.16027620253E+01 -0.52800917216E+01  0.76418767446E+01  0.94258418796E+01  0.51100000000E-03 0. -1.
        -11    1    3    3    0    0 -0.15366064660E+02  0.87253566216E+01  0.25349766548E+02  0.30900784061E+02  0.51100000000E-03 0.  1.
         12    1    3    3    0    0 -0.10114479424E+02 -0.13266469355E+01 -0.15067175573E+00  0.10202224664E+02  0.00000000000E+00 0. -1.
</event>
<event>
 7    1  0.2744502E-011  0.5052887E+02  0.7816164E-02  0.1300439E+00
        -11   -1    0    0    0    0  0.00000000000E+00  0.00000000000E+00  0.45593999997E+02  0.45594000000E+02  0.51100000000E-03 0.  1.
         11   -1    0    0    0    0 -0.00000000000E+00 -0.00000000000E+00 -0.45593999997E+02  0.45594000000E+02  0.51100000000E-03 0. -1.
    9900012    2    1    2    0    0 -0.88821811092E+01  0.77637148603E+01  0.38910112018E+02  0.50528865393E+02  0.30000016849E+02 0.  0.
         12    1    1    2    0    0  0.88821811092E+01 -0.77637148603E+01 -0.38910112018E+02  0.40659134607E+02  0.00000000000E+00 0. -1.
         11    1    3    3    0    0 -0.51003918187E+01 -0.27711923052E+01  0.21155443281E+01  0.61781090604E+01  0.51100000000E-03 0. -1.
        -11    1    3    3    0    0 -0.21927645932E+01  0.87269260688E+00 -0.27430745645E+01  0.36186001817E+01  0.51100000000E-03 0.  1.
        -12    1    3    3    0    0 -0.15890246973E+01  0.96622145586E+01  0.39537642255E+02  0.40732156151E+02  0.00000000000E+00 0.  1.
</event>
<event>
 7    1  0.2744502E-011  0.5052884E+02  0.7816164E-02  0.1300439E+00
        -11   -1    0    0    0    0  0.00000000000E+00  0.00000000000E+00  0.45593999997E+02  0.45594000000E+02  0.51100000000E-03 0.  1.
         11   -1    0    0    0    0 -0.00000000000E+00 -0.00000000000E+00 -0.45593999997E+02  0.45594000000E+02  0.51100000000E-03 0. -1.
    9900012    2    1    2    0    0  0.25666098130E+02  0.22384044683E+02  0.22212007492E+02  0.50528839576E+02  0.29999938374E+02 0.  0.
         12    1    1    2    0    0 -0.25666098130E+02 -0.22384044683E+02 -0.22212007492E+02  0.40659160424E+02  0.00000000000E+00 0. -1.
         11    1    3    3    0    0 -0.15165861176E+01  0.22829350624E+01 -0.18060120105E+01  0.32823018744E+01  0.51100000000E-03 0. -1.
        -11    1    3    3    0    0  0.12929230583E+02  0.11630324245E+02 -0.78922601577E+00  0.17408398073E+02  0.51100000000E-03 0.  1.
        -12    1    3    3    0    0  0.14253453664E+02  0.84707853763E+01  0.24807245518E+02  0.29838139628E+02  0.00000000000E+00 0.  1.
</event>
<event>
 7    1  0.2744502E-011  0.5052886E+02  0.7816164E-02  0.1300439E+00
        -11   -1    0    0    0    0  0.00000000000E+00  0.00000000000E+00  0.45593999997E+02  0.45594000000E+02  0.51100000000E-03 0.  1.
         11   -1    0    0    0    0 -0.00000000000E+00 -0.00000000000E+00 -0.45593999997E+02  0.45594000000E+02  0.51100000000E-03 0. -1.
    9900012    2    1    2    0    0 -0.36688024143E+02 -0.14223019043E+02  0.10240143557E+02  0.50528856793E+02  0.29999990708E+02 0.  0.
         12    1    1    2    0    0  0.36688024143E+02  0.14223019043E+02 -0.10240143557E+02  0.40659143207E+02  0.00000000000E+00 0. -1.
         11    1    3    3    0    0  0.12255266365E+01 -0.52662338636E+01  0.18947778518E+01  0.57293383572E+01  0.51100000000E-03 0. -1.
        -11    1    3    3    0    0  0.16580413899E+00 -0.45965131206E+01  0.42338052421E+01  0.62514423111E+01  0.51100000000E-03 0.  1.
         12    1    3    3    0    0 -0.38079354919E+02 -0.43602720589E+01  0.41115604633E+01  0.38548076125E+02  0.00000000000E+00 0. -1.
</event>
<event>
 7    1  0.2744502E-011  0.5052886E+02  0.7816164E-02  0.1300439E+00
        -11   -1    0    0    0    0  0.00000000000E+00  0.00000000000E+00  0.45593999997E+02  0.45594000000E+02  0.51100000000E-03 0. -1.
         11   -1    0    0    0    0 -0.00000000000E+00 -0.00000000000E+00 -0.45593999997E+02  0.45594000000E+02  0.51100000000E-03 0.  1.
    9900012    2    1    2    0    0 -0.18910729988E+00  0.40346374039E+02  0.50299289179E+01  0.50528857798E+02  0.29999993764E+02 0.  0.
         12    1    1    2    0    0  0.18910729988E+00 -0.40346374039E+02 -0.50299289179E+01  0.40659142202E+02  0.00000000000E+00 0. -1.
         11    1    3    3    0    0 -0.40846970359E+01  0.15414178169E+02  0.81880594079E+01  0.17925567094E+02  0.51100000000E-03 0. -1.
        -11    1    3    3    0    0 -0.51064586119E+00  0.13578755551E+02 -0.11533220453E+02  0.17822977748E+02  0.51100000000E-03 0.  1.
         12    1    3    3    0    0  0.44062355972E+01  0.11353440319E+02  0.83750899634E+01  0.14780312957E+02  0.00000000000E+00 0. -1.
</event>
<event>
 7    1  0.2744502E-011  0.5052886E+02  0.7816164E-02  0.1300439E+00
        -11   -1    0    0    0    0  0.00000000000E+00  0.00000000000E+00  0.45593999997E+02  0.45594000000E+02  0.51100000000E-03 0. -1.
         11   -1    0    0    0    0 -0.00000000000E+00 -0.00000000000E+00 -0.45593999997E+02  0.45594000000E+02  0.51100000000E-03 0.  1.
    9900012    2    1    2    0    0  0.77090996136E+01 -0.11258784864E+02 -0.38301109819E+02  0.50528862443E+02  0.30000007882E+02 0.  0.
         12    1    1    2    0    0 -0.77090996136E+01  0.11258784864E+02  0.38301109819E+02  0.40659137557E+02  0.00000000000E+00 0. -1.
         11    1    3    3    0    0 -0.78702011498E-02 -0.14604541246E+02 -0.15024821384E+02  0.20953232324E+02  0.51100000000E-03 0. -1.
        -11    1    3    3    0    0  0.15405574479E+01 -0.62684074879E+01 -0.57009847260E+01  0.86120541563E+01  0.51100000000E-03 0.  1.
        -12    1    3    3    0    0  0.61764123668E+01  0.96141638702E+01 -0.17575303710E+02  0.20963575963E+02  0.00000000000E+00 0.  1.
</event>
<event>
 7    1  0.2744502E-011  0.5052885E+02  0.7816164E-02  0.1300439E+00
        -11   -1    0    0    0    0  0.00000000000E+00  0.00000000000E+00  0.45593999997E+02  0.45594000000E+02  0.51100000000E-03 0.  1.
         11   -1    0    0    0    0 -0.00000000000E+00 -0.00000000000E+00 -0.45593999997E+02  0.45594000000E+02  0.51100000000E-03 0. -1.
    9900012    2    1    2    0    0 -0.17999225424E+02  0.26432077085E+02  0.25110545124E+02  0.50528852304E+02  0.29999977065E+02 0.  0.
         12    1    1    2    0    0  0.17999225424E+02 -0.26432077085E+02 -0.25110545124E+02  0.40659147696E+02  0.00000000000E+00 0. -1.
         11    1    3    3    0    0 -0.60259675538E+01  0.70608908072E+01 -0.52939786475E+01  0.10686190815E+02  0.51100000000E-03 0. -1.
        -11    1    3    3    0    0  0.14236077630E+01  0.72300887885E+00 -0.17046938482E+00  0.16057586911E+01  0.51100000000E-03 0.  1.
        -12    1    3    3    0    0 -0.13396865633E+02  0.18648177399E+02  0.30574993157E+02  0.38236902798E+02  0.00000000000E+00 0.  1.
</event>
<event>
 7    1  0.2744502E-011  0.5052886E+02  0.7816164E-02  0.1300439E+00
        -11   -1    0    0    0    0  0.00000000000E+00  0.00000000000E+00  0.45593999997E+02  0.45594000000E+02  0.51100000000E-03 0. -1.
         11   -1    0    0    0    0 -0.00000000000E+00 -0.00000000000E+00 -0.45593999997E+02  0.45594000000E+02  0.51100000000E-03 0.  1.
    9900012    2    1    2    0    0  0.17381370218E+02 -0.39483524793E+01 -0.36544006466E+02  0.50528856790E+02  0.29999990699E+02 0.  0.
         12    1    1    2    0    0 -0.17381370218E+02  0.39483524793E+01  0.36544006466E+02  0.40659143210E+02  0.00000000000E+00 0. -1.
         11    1    3    3    0    0 -0.18171504748E+01  0.12087454191E+01  0.32307096870E+01  0.38987929772E+01  0.51100000000E-03 0.  1.
        -11    1    3    3    0    0  0.27395067459E+01 -0.11099835870E+01  0.44099430013E+00  0.29885509881E+01  0.51100000000E-03 0. -1.
        -12    1    3    3    0    0  0.16459013947E+02 -0.40471143114E+01 -0.40215710453E+02  0.43641512825E+02  0.00000000000E+00 0.  1.
</event>
<event>
 7    1  0.2744502E-011  0.5052886E+02  0.7816164E-02  0.1300439E+00
        -11   -1    0    0    0    0  0.00000000000E+00  0.00000000000E+00  0.45593999997E+02  0.45594000000E+02  0.51100000000E-03 0.  1.
         11   -1    0    0    0    0 -0.00000000000E+00 -0.00000000000E+00 -0.45593999997E+02  0.45594000000E+02  0.51100000000E-03 0. -1.
    9900012    2    1    2    0    0 -0.43594028744E+01  0.23186158428E+02  0.33114394655E+02  0.50528862411E+02  0.30000007785E+02 0.  0.
         12    1    1    2    0    0  0.43594028744E+01 -0.23186158428E+02 -0.33114394655E+02  0.40659137589E+02  0.00000000000E+00 0. -1.
         11    1    3    3    0    0  0.71946224227E+01  0.62695732833E+01  0.11413590637E+02  0.14877506258E+02  0.51100000000E-03 0. -1.
        -11    1    3    3    0    0  0.11112591107E+01  0.15280959872E+02  0.13898720437E+02  0.20686156276E+02  0.51100000000E-03 0.  1.
         12    1    3    3    0    0 -0.12665284408E+02  0.16356252728E+01  0.78020835817E+01  0.14965199878E+02  0.00000000000E+00 0. -1.
</event>
<event>
 7    1  0.2744502E-011  0.5052885E+02  0.7816164E-02  0.1300439E+00
        -11   -1    0    0    0    0  0.00000000000E+00  0.00000000000E+00  0.45593999997E+02  0.45594000000E+02  0.51100000000E-03 0.  1.
         11   -1    0    0    0    0 -0.00000000000E+00 -0.00000000000E+00 -0.45593999997E+02  0.45594000000E+02  0.51100000000E-03 0. -1.
    9900012    2    1    2    0    0 -0.20277524788E+02 -0.32767167755E+02  0.12973094027E+02  0.50528850196E+02  0.29999970655E+02 0.  0.
         12    1    1    2    0    0  0.20277524788E+02  0.32767167755E+02 -0.12973094027E+02  0.40659149804E+02  0.00000000000E+00 0. -1.
         11    1    3    3    0    0  0.20089191129E+01 -0.60444760932E+01  0.76922781693E+01  0.99871212538E+01  0.51100000000E-03 0. -1.
        -11    1    3    3    0    0  0.25495190310E+01 -0.93957114422E+01 -0.34125890861E+00  0.97414525969E+01  0.51100000000E-03 0.  1.
        -12    1    3    3    0    0 -0.24835962931E+02 -0.17326980219E+02  0.56220747662E+01  0.30800276345E+02  0.00000000000E+00 0.  1.
</event>
<event>
 7    1  0.2744502E-011  0.5052886E+02  0.7816164E-02  0.1300439E+00
        -11   -1    0    0    0    0  0.00000000000E+00  0.00000000000E+00  0.45593999997E+02  0.45594000000E+02  0.51100000000E-03 0.  1.
         11   -1    0    0    0    0 -0.00000000000E+00 -0.00000000000E+00 -0.45593999997E+02  0.45594000000E+02  0.51100000000E-03 0. -1.
    9900012    2    1    2    0    0  0.14785073997E+02 -0.18116204382E+01  0.37832333298E+02  0.50528858046E+02  0.29999994516E+02 0.  0.
         12    1    1    2    0    0 -0.14785073997E+02  0.18116204382E+01 -0.37832333298E+02  0.40659141954E+02  0.00000000000E+00 0. -1.
         11    1    3    3    0    0  0.52941778902E+01 -0.72764084166E+01  0.16037301382E+01  0.91403714146E+01  0.51100000000E-03 0. -1.
        -11    1    3    3    0    0  0.16942462690E+01 -0.50613006424E+01  0.42226742175E+01  0.68057484835E+01  0.51100000000E-03 0.  1.
         12    1    3    3    0    0  0.77966498382E+01  0.10526088621E+02  0.32005928942E+02  0.34582738148E+02  0.00000000000E+00 0. -1.
</event>
<event>
 7    1  0.2744502E-011  0.5052886E+02  0.7816164E-02  0.1300439E+00
        -11   -1    0    0    0    0  0.00000000000E+00  0.00000000000E+00  0.45593999997E+02  0.45594000000E+02  0.51100000000E-03 0.  1.
         11   -1    0    0    0    0 -0.00000000000E+00 -0.00000000000E+00 -0.45593999997E+02  0.45594000000E+02  0.51100000000E-03 0. -1.
    9900012    2    1    2    0    0  0.13469128136E+02 -0.87223905151E+01  0.37358640302E+02  0.50528861860E+02  0.30000006111E+02 0.  0.
         12    1    1    2    0    0 -0.13469128136E+02  0.87223905151E+01 -0.37358640302E+02  0.40659138140E+02  0.00000000000E+00 0. -1.
         11    1    3    3    0    0  0.63289553053E+01 -0.55652757682E+01 -0.13828171186E+01  0.85405007509E+01  0.51100000000E-03 0. -1.
        -11    1    3    3    0    0  0.45727342438E+01 -0.64476842563E+01  0.90967177460E+01  0.12051257393E+02  0.51100000000E-03 0.  1.
        -12    1    3    3    0    0  0.25674385873E+01  0.32905695094E+01  0.29644739674E+02  0.29937103717E+02  0.00000000000E+00 0.  1.
</event>
<event>
 7    1  0.2744502E-011  0.5052886E+02  0.7816164E-02  0.1300439E+00
        -11   -1    0    0    0    0  0.00000000000E+00  0.00000000000E+00  0.45593999997E+02  0.45594000000E+02  0.51100000000E-03 0.  1.
         11   -1    0    0    0    0 -0.00000000000E+00 -0.00000000000E+00 -0.45593999997E+02  0.45594000000E+02  0.51100000000E-03 0. -1.
    9900012    2    1    2    0    0  0.13393439389E+02  0.50256358235E+01  0.38059481793E+02  0.50528863408E+02  0.30000010814E+02 0.  0.
         12    1    1    2    0    0 -0.13393439389E+02 -0.50256358235E+01 -0.38059481793E+02  0.40659136592E+02  0.00000000000E+00 0. -1.
         11    1    3    3    0    0  0.93269537427E+01  0.51908922213E+00  0.56743690634E+01  0.10929775124E+02  0.51100000000E-03 0. -1.
        -11    1    3    3    0    0 -0.25046337209E+00  0.92177185629E+01  0.32587117881E+01  0.97799933633E+01  0.51100000000E-03 0.  1.
         12    1    3    3    0    0  0.43169490182E+01 -0.47111719616E+01  0.29126400941E+02  0.29819094920E+02  0.00000000000E+00 0. -1.
</event>
<event>
 7    1  0.2744502E-011  0.5052885E+02  0.7816164E-02  0.1300439E+00
        -11   -1    0    0    0    0  0.00000000000E+00  0.00000000000E+00  0.45593999997E+02  0.45594000000E+02  0.51100000000E-03 0.  1.
         11   -1    0    0    0    0 -0.00000000000E+00 -0.00000000000E+00 -0.45593999997E+02  0.45594000000E+02  0.51100000000E-03 0. -1.
    9900012    2    1    2    0    0 -0.93954347989E+00  0.32237834652E+02  0.24758949495E+02  0.50528852135E+02  0.29999976551E+02 0.  0.
         12    1    1    2    0    0  0.93954347989E+00 -0.32237834652E+02 -0.24758949495E+02  0.40659147865E+02  0.00000000000E+00 0. -1.
         11    1    3    3    0    0  0.51118410075E+01  0.50138840238E+01  0.72756875425E+01  0.10208113487E+02  0.51100000000E-03 0. -1.
        -11    1    3    3    0    0 -0.10538171505E+02  0.14407796738E+02  0.19675353624E+02  0.26566091282E+02  0.51100000000E-03 0.  1.
         12    1    3    3    0    0  0.44867870178E+01  0.12816153890E+02 -0.21920916713E+01  0.13754647366E+02  0.00000000000E+00 0. -1.
</event>
<event>
 7    1  0.2744502E-011  0.5052886E+02  0.7816164E-02  0.1300439E+00
        -11   -1    0    0    0    0  0.00000000000E+00  0.00000000000E+00  0.45593999997E+02  0.45594000000E+02  0.51100000000E-03 0. -1.
         11   -1    0    0    0    0 -0.00000000000E+00 -0.00000000000E+00 -0.45593999997E+02  0.45594000000E+02  0.51100000000E-03 0.  1.
    9900012    2    1    2    0    0 -0.17392554493E+01 -0.39529017609E+01 -0.40429135093E+02  0.50528863189E+02  0.30000010150E+02 0.  0.
         12    1    1    2    0    0  0.17392554493E+01  0.39529017609E+01  0.40429135093E+02  0.40659136811E+02  0.00000000000E+00 0. -1.
         11    1    3    3    0    0 -0.44717304885E+01 -0.65102741533E+01 -0.92755088270E+01  0.12182573922E+02  0.51100000000E-03 0. -1.
        -11    1    3    3    0    0 -0.41746722638E+01 -0.71557528136E+01 -0.21392693019E+02  0.22940793397E+02  0.51100000000E-03 0.  1.
         12    1    3    3    0    0  0.69071473029E+01  0.97131252060E+01 -0.97609332472E+01  0.15405495870E+02  0.00000000000E+00 0. -1.
</event>
<event>
 7    1  0.2744502E-011  0.5052886E+02  0.7816164E-02  0.1300439E+00
        -11   -1    0    0    0    0  0.00000000000E+00  0.00000000000E+00  0.45593999997E+02  0.45594000000E+02  0.51100000000E-03 0.  1.
         11   -1    0    0    0    0 -0.00000000000E+00 -0.00000000000E+00 -0.45593999997E+02  0.45594000000E+02  0.51100000000E-03 0. -1.
    9900012    2    1    2    0    0  0.13907316453E+02 -0.20844123432E+02  0.32019911560E+02  0.50528859959E+02  0.30000000330E+02 0.  0.
         12    1    1    2    0    0 -0.13907316453E+02  0.20844123432E+02 -0.32019911560E+02  0.40659140041E+02  0.00000000000E+00 0. -1.
         11    1    3    3    0    0 -0.16948917352E+01 -0.34824293813E+01  0.16821055048E+02  0.17261166403E+02  0.51100000000E-03 0. -1.
        -11    1    3    3    0    0 -0.32195200954E+01 -0.52939781254E+00  0.51386466993E+01  0.60869747699E+01  0.51100000000E-03 0.  1.
         12    1    3    3    0    0  0.18821728283E+02 -0.16832296239E+02  0.10060209813E+02  0.27180718786E+02  0.00000000000E+00 0. -1.
</event>
<event>
 7    1  0.2744502E-011  0.5052886E+02  0.7816164E-02  0.1300439E+00
        -11   -1    0    0    0    0  0.00000000000E+00  0.00000000000E+00  0.45593999997E+02  0.45594000000E+02  0.51100000000E-03 0.  1.
         11   -1    0    0    0    0 -0.00000000000E+00 -0.00000000000E+00 -0.45593999997E+02  0.45594000000E+02  0.51100000000E-03 0. -1.
    9900012    2    1    2    0    0 -0.24520949758E+02  0.19963147131E+01  0.32371338313E+02  0.50528858425E+02  0.29999995667E+02 0.  0.
         12    1    1    2    0    0  0.24520949758E+02 -0.19963147131E+01 -0.32371338313E+02  0.40659141575E+02  0.00000000000E+00 0. -1.
         11    1    3    3    0    0 -0.44447745471E+01  0.55504861215E+01  0.54320541778E+01  0.89482473039E+01  0.51100000000E-03 0.  1.
        -11    1    3    3    0    0 -0.23787069185E+02 -0.70660070047E+00  0.13521077111E+02  0.27370485408E+02  0.51100000000E-03 0. -1.
         12    1    3    3    0    0  0.37108939744E+01 -0.28475707079E+01  0.13418207024E+02  0.14210125713E+02  0.00000000000E+00 0. -1.
</event>
<event>
 7    1  0.2744502E-011  0.5052886E+02  0.7816164E-02  0.1300439E+00
        -11   -1    0    0    0    0  0.00000000000E+00  0.00000000000E+00  0.45593999997E+02  0.45594000000E+02  0.51100000000E-03 0. -1.
         11   -1    0    0    0    0 -0.00000000000E+00 -0.00000000000E+00 -0.45593999997E+02  0.45594000000E+02  0.51100000000E-03 0.  1.
    9900012    2    1    2    0    0  0.22333206565E+02 -0.97774764934E+01 -0.32539116481E+02  0.50528864945E+02  0.30000015487E+02 0.  0.
         12    1    1    2    0    0 -0.22333206565E+02  0.97774764934E+01  0.32539116481E+02  0.40659135055E+02  0.00000000000E+00 0. -1.
         11    1    3    3    0    0 -0.10718069132E+01  0.19229718690E+01  0.13622098391E+01  0.25888620619E+01  0.51100000000E-03 0. -1.
        -11    1    3    3    0    0  0.72432490691E+01 -0.57640802617E+01  0.70862295772E+00  0.92839337082E+01  0.51100000000E-03 0.  1.
        -12    1    3    3    0    0  0.16161764409E+02 -0.59363681008E+01 -0.34609949278E+02  0.38656069175E+02  0.00000000000E+00 0.  1.
</event>
<event>
 7    1  0.2744502E-011  0.5052886E+02  0.7816164E-02  0.1300439E+00
        -11   -1    0    0    0    0  0.00000000000E+00  0.00000000000E+00  0.45593999997E+02  0.45594000000E+02  0.51100000000E-03 0.  1.
         11   -1    0    0    0    0 -0.00000000000E+00 -0.00000000000E+00 -0.45593999997E+02  0.45594000000E+02  0.51100000000E-03 0. -1.
    9900012    2    1    2    0    0  0.18742260737E+02 -0.27953100642E+02  0.22814857920E+02  0.50528856934E+02  0.29999991136E+02 0.  0.
         12    1    1    2    0    0 -0.18742260737E+02  0.27953100642E+02 -0.22814857920E+02  0.40659143066E+02  0.00000000000E+00 0. -1.
         11    1    3    3    0    0  0.42372469835E+01 -0.13169853171E+02  0.45281278091E+01  0.14556896519E+02  0.51100000000E-03 0. -1.
        -11    1    3    3    0    0  0.16495287359E+01 -0.17144936243E+02  0.14062646432E+02  0.22235732701E+02  0.51100000000E-03 0.  1.
         12    1    3    3    0    0  0.12855485017E+02  0.23616887721E+01  0.42240836781E+01  0.13736227714E+02  0.00000000000E+00 0. -1.
</event>
<event>
 7    1  0.2744502E-011  0.5052886E+02  0.7816164E-02  0.1300439E+00
        -11   -1    0    0    0    0  0.00000000000E+00  0.00000000000E+00  0.45593999997E+02  0.45594000000E+02  0.51100000000E-03 0. -1.
         11   -1    0    0    0    0 -0.00000000000E+00 -0.00000000000E+00 -0.45593999997E+02  0.45594000000E+02  0.51100000000E-03 0.  1.
    9900012    2    1    2    0    0  0.29002158030E+02 -0.27072510573E+02 -0.88949313697E+01  0.50528858307E+02  0.29999995310E+02 0.  0.
         12    1    1    2    0    0 -0.29002158030E+02  0.27072510573E+02  0.88949313697E+01  0.40659141693E+02  0.00000000000E+00 0. -1.
         11    1    3    3    0    0  0.13525304550E+02 -0.45360548200E+01  0.78968940201E+01  0.16305538688E+02  0.51100000000E-03 0. -1.
        -11    1    3    3    0    0  0.11077507295E+02 -0.20310824257E+02 -0.86388923193E+01  0.24695570668E+02  0.51100000000E-03 0.  1.
        -12    1    3    3    0    0  0.43993461851E+01 -0.22256314969E+01 -0.81529330705E+01  0.95277489507E+01  0.00000000000E+00 0.  1.
</event>
<event>
 7    1  0.2744502E-011  0.5052885E+02  0.7816164E-02  0.1300439E+00
        -11   -1    0    0    0    0  0.00000000000E+00  0.00000000000E+00  0.45593999997E+02  0.45594000000E+02  0.51100000000E-03 0. -1.
         11   -1    0    0    0    0 -0.00000000000E+00 -0.00000000000E+00 -0.45593999997E+02  0.45594000000E+02  0.51100000000E-03 0.  1.
    9900012    2    1    2    0    0  0.40040920297E+02  0.70580313362E+01  0.27395578121E+00  0.50528853964E+02  0.29999982109E+02 0.  0.
         12    1    1    2    0    0 -0.40040920297E+02 -0.70580313362E+01 -0.27395578121E+00  0.40659146036E+02  0.00000000000E+00 0. -1.
         11    1    3    3    0    0  0.15048589512E+02 -0.39704104252E+01 -0.41506087916E+01  0.16107506289E+02  0.51100000000E-03 0. -1.
        -11    1    3    3    0    0  0.13808456802E+02  0.13624962282E+02 -0.44588084123E+01  0.19904623814E+02  0.51100000000E-03 0.  1.
         12    1    3    3    0    0  0.11183873983E+02 -0.25965205205E+01  0.88833729851E+01  0.14516723861E+02  0.00000000000E+00 0. -1.
</event>
<event>
 7    1  0.2744502E-011  0.5052886E+02  0.7816164E-02  0.1300439E+00
        -11   -1    0    0    0    0  0.00000000000E+00  0.00000000000E+00  0.45593999997E+02  0.45594000000E+02  0.51100000000E-03 0.  1.
         11   -1    0    0    0    0 -0.00000000000E+00 -0.00000000000E+00 -0.45593999997E+02  0.45594000000E+02  0.51100000000E-03 0. -1.
    9900012    2    1    2    0    0 -0.38984140742E+02  0.41197620450E+01  0.10790255739E+02  0.50528864648E+02  0.30000014584E+02 0.  0.
         12    1    1    2    0    0  0.38984140742E+02 -0.41197620450E+01 -0.10790255739E+02  0.40659135352E+02  0.00000000000E+00 0. -1.
         11    1    3    3    0    0 -0.81434632446E+01 -0.47039270718E+01  0.25200195221E+01  0.97361913583E+01  0.51100000000E-03 0. -1.
        -11    1    3    3    0    0  0.32000478837E+01  0.37573838227E+01  0.34943451356E+01  0.60472049607E+01  0.51100000000E-03 0.  1.
         12    1    3    3    0    0 -0.34040725381E+02  0.50663052942E+01  0.47758910813E+01  0.34745468329E+02  0.00000000000E+00 0. -1.
</event>
<event>
 7    1  0.2744502E-011  0.5052886E+02  0.7816164E-02  0.1300439E+00
        -11   -1    0    0    0    0  0.00000000000E+00  0.00000000000E+00  0.45593999997E+02  0.45594000000E+02  0.51100000000E-03 0. -1.
         11   -1    0    0    0    0 -0.00000000000E+00 -0.00000000000E+00 -0.45593999997E+02  0.45594000000E+02  0.51100000000E-03 0.  1.
    9900012    2    1    2    0    0 -0.35435770395E+02  0.15048622748E+02 -0.13077114528E+02  0.50528858414E+02  0.29999995635E+02 0.  0.
         12    1    1    2    0    0  0.35435770395E+02 -0.15048622748E+02  0.13077114528E+02  0.40659141586E+02  0.00000000000E+00 0. -1.
         11    1    3    3    0    0 -0.20224237432E+02  0.10389675307E+02  0.41151474530E+01  0.23106266931E+02  0.51100000000E-03 0. -1.
        -11    1    3    3    0    0 -0.69589775384E+01  0.86643491654E+01 -0.50547672870E+01  0.12208562054E+02  0.51100000000E-03 0.  1.
         12    1    3    3    0    0 -0.82525554253E+01 -0.40054017240E+01 -0.12137494694E+02  0.15214029429E+02  0.00000000000E+00 0. -1.
</event>
<event>
 7    1  0.2744502E-011  0.5052885E+02  0.7816164E-02  0.1300439E+00
        -11   -1    0    0    0    0  0.00000000000E+00  0.00000000000E+00  0.45593999997E+02  0.45594000000E+02  0.51100000000E-03 0.  1.
         11   -1    0    0    0    0 -0.00000000000E+00 -0.00000000000E+00 -0.45593999997E+02  0.45594000000E+02  0.51100000000E-03 0. -1.
    9900012    2    1    2    0    0  0.36491119726E+02  0.17712469131E+02 -0.27986965753E+01  0.50528854853E+02  0.29999984812E+02 0.  0.
         12    1    1    2    0    0 -0.36491119726E+02 -0.17712469131E+02  0.27986965753E+01  0.40659145147E+02  0.00000000000E+00 0. -1.
         11    1    3    3    0    0 -0.27969753210E+01  0.10618311467E+01  0.40944517068E+01  0.50710049665E+01  0.51100000000E-03 0. -1.
        -11    1    3    3    0    0  0.36112816658E+01  0.48122221610E+01  0.28034908547E+01  0.66376500834E+01  0.51100000000E-03 0.  1.
        -12    1    3    3    0    0  0.35676813381E+02  0.11838415823E+02 -0.96966391368E+01  0.38820199803E+02  0.00000000000E+00 0.  1.
</event>
<event>
 7    1  0.2744502E-011  0.5052886E+02  0.7816164E-02  0.1300439E+00
        -11   -1    0    0    0    0  0.00000000000E+00  0.00000000000E+00  0.45593999997E+02  0.45594000000E+02  0.51100000000E-03 0.  1.
         11   -1    0    0    0    0 -0.00000000000E+00 -0.00000000000E+00 -0.45593999997E+02  0.45594000000E+02  0.51100000000E-03 0. -1.
    9900012    2    1    2    0    0  0.22697657596E+02  0.11989267088E+02  0.31531566426E+02  0.50528857523E+02  0.29999992928E+02 0.  0.
         12    1    1    2    0    0 -0.22697657596E+02 -0.11989267088E+02 -0.31531566426E+02  0.40659142477E+02  0.00000000000E+00 0. -1.
         11    1    3    3    0    0  0.59719542223E+01  0.60724431129E+01  0.66211161527E+01  0.10787862715E+02  0.51100000000E-03 0. -1.
        -11    1    3    3    0    0  0.22261888246E+02  0.45163932467E+01  0.25319644183E+02  0.34015788364E+02  0.51100000000E-03 0.  1.
         12    1    3    3    0    0 -0.55361848725E+01  0.14004307284E+01 -0.40919390961E+00  0.57252064438E+01  0.00000000000E+00 0. -1.
</event>
<event>
 7    1  0.2744502E-011  0.5052886E+02  0.7816164E-02  0.1300439E+00
        -11   -1    0    0    0    0  0.00000000000E+00  0.00000000000E+00  0.45593999997E+02  0.45594000000E+02  0.51100000000E-03 0.  1.
         11   -1    0    0    0    0 -0.00000000000E+00 -0.00000000000E+00 -0.45593999997E+02  0.45594000000E+02  0.51100000000E-03 0. -1.
    9900012    2    1    2    0    0 -0.13957030169E+00  0.35553086346E+02  0.19726225795E+02  0.50528863109E+02  0.30000009907E+02 0.  0.
         12    1    1    2    0    0  0.13957030169E+00 -0.35553086346E+02 -0.19726225795E+02  0.40659136891E+02  0.00000000000E+00 0. -1.
         11    1    3    3    0    0  0.35127266586E+01 -0.55642460635E+00 -0.20527129336E+01  0.41063959344E+01  0.51100000000E-03 0. -1.
        -11    1    3    3    0    0 -0.28109348154E+01 -0.14038030853E+01  0.34367912112E+01  0.46565600747E+01  0.51100000000E-03 0.  1.
        -12    1    3    3    0    0 -0.84136214489E+00  0.37513314037E+02  0.18342147518E+02  0.41765907100E+02  0.00000000000E+00 0.  1.
</event>
<event>
 7    1  0.2744502E-011  0.5052884E+02  0.7816164E-02  0.1300439E+00
        -11   -1    0    0    0    0  0.00000000000E+00  0.00000000000E+00  0.45593999997E+02  0.45594000000E+02  0.51100000000E-03 0.  1.
         11   -1    0    0    0    0 -0.00000000000E+00 -0.00000000000E+00 -0.45593999997E+02  0.45594000000E+02  0.51100000000E-03 0. -1.
    9900012    2    1    2    0    0  0.88928576310E+01 -0.62972185350E+00  0.39669732238E+02  0.50528842086E+02  0.29999946003E+02 0.  0.
         12    1    1    2    0    0 -0.88928576310E+01  0.62972185350E+00 -0.39669732238E+02  0.40659157914E+02  0.00000000000E+00 0. -1.
         11    1    3    3    0    0  0.57116181085E+01 -0.43550634371E+01  0.17230116085E+01  0.73863338824E+01  0.51100000000E-03 0.  1.
        -11    1    3    3    0    0  0.46964393801E+01 -0.17932871309E+01  0.27083510230E+00  0.50344586102E+01  0.51100000000E-03 0. -1.
        -12    1    3    3    0    0 -0.15151998575E+01  0.55186287145E+01  0.37675885527E+02  0.38108049593E+02  0.00000000000E+00 0.  1.
</event>
<event>
 7    1  0.2744502E-011  0.5052887E+02  0.7816164E-02  0.1300439E+00
        -11   -1    0    0    0    0  0.00000000000E+00  0.00000000000E+00  0.45593999997E+02  0.45594000000E+02  0.51100000000E-03 0.  1.
         11   -1    0    0    0    0 -0.00000000000E+00 -0.00000000000E+00 -0.45593999997E+02  0.45594000000E+02  0.51100000000E-03 0. -1.
    9900012    2    1    2    0    0  0.35693654660E+01  0.30486802390E+02  0.26664202446E+02  0.50528865947E+02  0.30000018534E+02 0.  0.
         12    1    1    2    0    0 -0.35693654660E+01 -0.30486802390E+02 -0.26664202446E+02  0.40659134053E+02  0.00000000000E+00 0. -1.
         11    1    3    3    0    0  0.20975131992E+01 -0.19744441267E+01  0.10868994745E+01  0.30788540009E+01  0.51100000000E-03 0. -1.
        -11    1    3    3    0    0  0.74078530392E+01  0.50065857845E+00  0.55356473084E+01  0.92612276209E+01  0.51100000000E-03 0.  1.
        -12    1    3    3    0    0 -0.59360007724E+01  0.31960587939E+02  0.20041655663E+02  0.38188784326E+02  0.00000000000E+00 0.  1.
</event>
<event>
 7    1  0.2744502E-011  0.5052886E+02  0.7816164E-02  0.1300439E+00
        -11   -1    0    0    0    0  0.00000000000E+00  0.00000000000E+00  0.45593999997E+02  0.45594000000E+02  0.51100000000E-03 0. -1.
         11   -1    0    0    0    0 -0.00000000000E+00 -0.00000000000E+00 -0.45593999997E+02  0.45594000000E+02  0.51100000000E-03 0.  1.
    9900012    2    1    2    0    0  0.11130285432E+02  0.12751097481E+02 -0.36968800830E+02  0.50528856187E+02  0.29999988867E+02 0.  0.
         12    1    1    2    0    0 -0.11130285432E+02 -0.12751097481E+02  0.36968800830E+02  0.40659143813E+02  0.00000000000E+00 0. -1.
         11    1    3    3    0    0  0.43908344191E+01  0.14587965877E+02 -0.21547334812E+02  0.26388933534E+02  0.51100000000E-03 0. -1.
        -11    1    3    3    0    0  0.40943729370E+01  0.20350084004E+01 -0.18148426983E+02  0.18715516321E+02  0.51100000000E-03 0.  1.
         12    1    3    3    0    0  0.26450780763E+01 -0.38718767962E+01  0.27269609649E+01  0.54244063324E+01  0.00000000000E+00 0. -1.
</event>
<event>
 7    1  0.2744502E-011  0.5052886E+02  0.7816164E-02  0.1300439E+00
        -11   -1    0    0    0    0  0.00000000000E+00  0.00000000000E+00  0.45593999997E+02  0.45594000000E+02  0.51100000000E-03 0.  1.
         11   -1    0    0    0    0 -0.00000000000E+00 -0.00000000000E+00 -0.45593999997E+02  0.45594000000E+02  0.51100000000E-03 0. -1.
    9900012    2    1    2    0    0  0.18322672840E+01 -0.99911350002E+01  0.39369859484E+02  0.50528858128E+02  0.29999994765E+02 0.  0.
         12    1    1    2    0    0 -0.18322672840E+01  0.99911350002E+01 -0.39369859484E+02  0.40659141872E+02  0.00000000000E+00 0. -1.
         11    1    3    3    0    0 -0.14065958925E+01  0.34520296625E+01  0.14704463846E+02  0.15169583978E+02  0.51100000000E-03 0. -1.
        -11    1    3    3    0    0 -0.15632326972E+00 -0.14816851361E+02  0.27152187518E+02  0.30932261613E+02  0.51100000000E-03 0.  1.
        -12    1    3    3    0    0  0.33951864462E+01  0.13736866985E+01 -0.24867918797E+01  0.44270125370E+01  0.00000000000E+00 0.  1.
</event>
<event>
 7    1  0.2744502E-011  0.5052890E+02  0.7816164E-02  0.1300439E+00
        -11   -1    0    0    0    0  0.00000000000E+00  0.00000000000E+00  0.45593999997E+02  0.45594000000E+02  0.51100000000E-03 0.  1.
         11   -1    0    0    0    0 -0.00000000000E+00 -0.00000000000E+00 -0.45593999997E+02  0.45594000000E+02  0.51100000000E-03 0. -1.
    9900012    2    1    2    0    0  0.80352418883E+01 -0.23974772761E+02  0.31840348340E+02  0.50528897409E+02  0.30000114164E+02 0.  0.
         12    1    1    2    0    0 -0.80352418883E+01  0.23974772761E+02 -0.31840348340E+02  0.40659102591E+02  0.00000000000E+00 0. -1.
         11    1    3    3    0    0  0.11568022536E+02 -0.17345230707E+02  0.27712205143E+02  0.34679136204E+02  0.51100000000E-03 0. -1.
        -11    1    3    3    0    0  0.19614658085E+00 -0.29347850405E+00  0.76777060046E+01  0.76858163436E+01  0.51100000000E-03 0.  1.
         12    1    3    3    0    0 -0.37289272281E+01 -0.63360635493E+01 -0.35495628081E+01  0.81639448615E+01  0.00000000000E+00 0. -1.
</event>
<event>
 7    1  0.2744502E-011  0.5052886E+02  0.7816164E-02  0.1300439E+00
        -11   -1    0    0    0    0  0.00000000000E+00  0.00000000000E+00  0.45593999997E+02  0.45594000000E+02  0.51100000000E-03 0. -1.
         11   -1    0    0    0    0 -0.00000000000E+00 -0.00000000000E+00 -0.45593999997E+02  0.45594000000E+02  0.51100000000E-03 0.  1.
    9900012    2    1    2    0    0  0.27123460734E+01  0.16762797363E+02 -0.36943433993E+02  0.50528861891E+02  0.30000006203E+02 0.  0.
         12    1    1    2    0    0 -0.27123460734E+01 -0.16762797363E+02  0.36943433993E+02  0.40659138109E+02  0.00000000000E+00 0. -1.
         11    1    3    3    0    0  0.37357699903E+01  0.72840248187E+01 -0.16462504099E+02  0.18385511591E+02  0.51100000000E-03 0.  1.
        -11    1    3    3    0    0  0.10589516880E+02  0.74811411089E+01 -0.11441746965E+02  0.17292163367E+02  0.51100000000E-03 0. -1.
         12    1    3    3    0    0 -0.11612940797E+02  0.19976314351E+01 -0.90391829285E+01  0.14851186933E+02  0.00000000000E+00 0. -1.
</event>
<event>
 7    1  0.2744502E-011  0.5052885E+02  0.7816164E-02  0.1300439E+00
        -11   -1    0    0    0    0  0.00000000000E+00  0.00000000000E+00  0.45593999997E+02  0.45594000000E+02  0.51100000000E-03 0.  1.
         11   -1    0    0    0    0 -0.00000000000E+00 -0.00000000000E+00 -0.45593999997E+02  0.45594000000E+02  0.51100000000E-03 0. -1.
    9900012    2    1    2    0    0 -0.17051865540E+02 -0.21727762101E+02  0.29837969123E+02  0.50528853849E+02  0.29999981760E+02 0.  0.
         12    1    1    2    0    0  0.17051865540E+02  0.21727762101E+02 -0.29837969123E+02  0.40659146151E+02  0.00000000000E+00 0. -1.
         11    1    3    3    0    0  0.20548960510E+01 -0.14918959550E+01  0.54847296863E+01  0.60440558662E+01  0.51100000000E-03 0. -1.
        -11    1    3    3    0    0 -0.65463400853E+01 -0.10550193316E+02  0.25724818817E+02  0.28564443823E+02  0.51100000000E-03 0.  1.
        -12    1    3    3    0    0 -0.12560421506E+02 -0.96856728300E+01 -0.13715793800E+01  0.15920354160E+02  0.00000000000E+00 0.  1.
</event>
<event>
 7    1  0.2744502E-011  0.5052886E+02  0.7816164E-02  0.1300439E+00
        -11   -1    0    0    0    0  0.00000000000E+00  0.00000000000E+00  0.45593999997E+02  0.45594000000E+02  0.51100000000E-03 0.  1.
         11   -1    0    0    0    0 -0.00000000000E+00 -0.00000000000E+00 -0.45593999997E+02  0.45594000000E+02  0.51100000000E-03 0. -1.
    9900012    2    1    2    0    0  0.19588704372E+02  0.83847735737E+01  0.34628661700E+02  0.50528856158E+02  0.29999988779E+02 0.  0.
         12    1    1    2    0    0 -0.19588704372E+02 -0.83847735737E+01 -0.34628661700E+02  0.40659143842E+02  0.00000000000E+00 0. -1.
         11    1    3    3    0    0  0.66675040315E+01  0.95279385153E+01  0.77943182174E+01  0.13999593533E+02  0.51100000000E-03 0. -1.
        -11    1    3    3    0    0  0.16600648127E+02  0.49586875070E+01  0.16139204148E+02  0.23677922434E+02  0.51100000000E-03 0.  1.
         12    1    3    3    0    0 -0.36794477864E+01 -0.61018524487E+01  0.10695139334E+02  0.12851340191E+02  0.00000000000E+00 0. -1.
</event>
<event>
 7    1  0.2744502E-011  0.5052886E+02  0.7816164E-02  0.1300439E+00
        -11   -1    0    0    0    0  0.00000000000E+00  0.00000000000E+00  0.45593999997E+02  0.45594000000E+02  0.51100000000E-03 0.  1.
         11   -1    0    0    0    0 -0.00000000000E+00 -0.00000000000E+00 -0.45593999997E+02  0.45594000000E+02  0.51100000000E-03 0. -1.
    9900012    2    1    2    0    0  0.21578872442E+02  0.65838656486E+01  0.33825591823E+02  0.50528859761E+02  0.29999999730E+02 0.  0.
         12    1    1    2    0    0 -0.21578872442E+02 -0.65838656486E+01 -0.33825591823E+02  0.40659140239E+02  0.00000000000E+00 0. -1.
         11    1    3    3    0    0  0.79747980649E+01  0.17524198804E+01 -0.25696585087E+01  0.85598787798E+01  0.51100000000E-03 0. -1.
        -11    1    3    3    0    0  0.80596906514E+00 -0.47513561855E+01  0.68537048747E+01  0.83784391450E+01  0.51100000000E-03 0.  1.
        -12    1    3    3    0    0  0.12798105312E+02  0.95828019538E+01  0.29541545457E+02  0.33590541836E+02  0.00000000000E+00 0.  1.
</event>
<event>
 7    1  0.2744502E-011  0.5052887E+02  0.7816164E-02  0.1300439E+00
        -11   -1    0    0    0    0  0.00000000000E+00  0.00000000000E+00  0.45593999997E+02  0.45594000000E+02  0.51100000000E-03 0.  1.
         11   -1    0    0    0    0 -0.00000000000E+00 -0.00000000000E+00 -0.45593999997E+02  0.45594000000E+02  0.51100000000E-03 0. -1.
    9900012    2    1    2    0    0  0.28126761496E+02 -0.42006909454E+01  0.29058632671E+02  0.50528872497E+02  0.30000038440E+02 0.  0.
         12    1    1    2    0    0 -0.28126761496E+02  0.42006909454E+01 -0.29058632671E+02  0.40659127503E+02  0.00000000000E+00 0. -1.
         11    1    3    3    0    0  0.56360170081E+01  0.12244105829E+01 -0.29176435974E+01  0.64634753356E+01  0.51100000000E-03 0. -1.
        -11    1    3    3    0    0  0.25655230222E+02 -0.64757583789E+01  0.25330431787E+02  0.36630002172E+02  0.51100000000E-03 0.  1.
         12    1    3    3    0    0 -0.31644857343E+01  0.10506568506E+01  0.66458444807E+01  0.74353949890E+01  0.00000000000E+00 0. -1.
</event>
<event>
 7    1  0.2744502E-011  0.5052886E+02  0.7816164E-02  0.1300439E+00
        -11   -1    0    0    0    0  0.00000000000E+00  0.00000000000E+00  0.45593999997E+02  0.45594000000E+02  0.51100000000E-03 0. -1.
         11   -1    0    0    0    0 -0.00000000000E+00 -0.00000000000E+00 -0.45593999997E+02  0.45594000000E+02  0.51100000000E-03 0.  1.
    9900012    2    1    2    0    0 -0.93144560051E+01  0.48975739860E+01 -0.39273657454E+02  0.50528862141E+02  0.30000006964E+02 0.  0.
         12    1    1    2    0    0  0.93144560051E+01 -0.48975739860E+01  0.39273657454E+02  0.40659137859E+02  0.00000000000E+00 0. -1.
         11    1    3    3    0    0 -0.97260388567E+01  0.17197041384E+01 -0.15167646874E+01  0.99926868031E+01  0.51100000000E-03 0. -1.
        -11    1    3    3    0    0  0.18083191028E+00 -0.33954355295E+01 -0.15502783196E+01  0.37369835087E+01  0.51100000000E-03 0.  1.
        -12    1    3    3    0    0  0.23075094134E+00  0.65733053771E+01 -0.36206614447E+02  0.36799191829E+02  0.00000000000E+00 0.  1.
</event>
<event>
 7    1  0.2744502E-011  0.5052888E+02  0.7816164E-02  0.1300439E+00
        -11   -1    0    0    0    0  0.00000000000E+00  0.00000000000E+00  0.45593999997E+02  0.45594000000E+02  0.51100000000E-03 0. -1.
         11   -1    0    0    0    0 -0.00000000000E+00 -0.00000000000E+00 -0.45593999997E+02  0.45594000000E+02  0.51100000000E-03 0.  1.
    9900012    2    1    2    0    0 -0.35522411380E+02 -0.18328219934E+02  0.74430541266E+01  0.50528875428E+02  0.30000047352E+02 0.  0.
         12    1    1    2    0    0  0.35522411380E+02  0.18328219934E+02 -0.74430541266E+01  0.40659124572E+02  0.00000000000E+00 0. -1.
         11    1    3    3    0    0 -0.98013422072E+01 -0.14949702683E+02  0.11265107706E+02  0.21129660936E+02  0.51100000000E-03 0. -1.
        -11    1    3    3    0    0 -0.57954283624E+01 -0.55176837402E+01  0.25034867196E+01  0.83844659805E+01  0.51100000000E-03 0.  1.
        -12    1    3    3    0    0 -0.19925640810E+02  0.21391664886E+01 -0.63255402988E+01  0.21014748512E+02  0.00000000000E+00 0.  1.
</event>
<event>
 7    1  0.2744502E-011  0.5052885E+02  0.7816164E-02  0.1300439E+00
        -11   -1    0    0    0    0  0.00000000000E+00  0.00000000000E+00  0.45593999997E+02  0.45594000000E+02  0.51100000000E-03 0.  1.
         11   -1    0    0    0    0 -0.00000000000E+00 -0.00000000000E+00 -0.45593999997E+02  0.45594000000E+02  0.51100000000E-03 0. -1.
    9900012    2    1    2    0    0  0.15935600300E+02 -0.24052182439E+02  0.28648128221E+02  0.50528854810E+02  0.29999984679E+02 0.  0.
         12    1    1    2    0    0 -0.15935600300E+02  0.24052182439E+02 -0.28648128221E+02  0.40659145190E+02  0.00000000000E+00 0. -1.
         11    1    3    3    0    0 -0.63826887391E+01 -0.94052172638E+01  0.15296727993E+02  0.19057458248E+02  0.51100000000E-03 0. -1.
        -11    1    3    3    0    0  0.88090095106E+01 -0.11577100685E+02  0.55355000610E+01  0.15565014295E+02  0.51100000000E-03 0.  1.
        -12    1    3    3    0    0  0.13509279529E+02 -0.30698644906E+01  0.78159001671E+01  0.15906382266E+02  0.00000000000E+00 0.  1.
</event>
<event>
 7    1  0.2744502E-011  0.5052887E+02  0.7816164E-02  0.1300439E+00
        -11   -1    0    0    0    0  0.00000000000E+00  0.00000000000E+00  0.45593999997E+02  0.45594000000E+02  0.51100000000E-03 0.  1.
         11   -1    0    0    0    0 -0.00000000000E+00 -0.00000000000E+00 -0.45593999997E+02  0.45594000000E+02  0.51100000000E-03 0. -1.
    9900012    2    1    2    0    0 -0.36477186932E+02 -0.60369929615E+01  0.16915500274E+02  0.50528873103E+02  0.30000040285E+02 0.  0.
         12    1    1    2    0    0  0.36477186932E+02  0.60369929615E+01 -0.16915500274E+02  0.40659126897E+02  0.00000000000E+00 0. -1.
         11    1    3    3    0    0 -0.11447528982E+02 -0.74296248033E+00 -0.34243283250E+01  0.11971797600E+02  0.51100000000E-03 0. -1.
        -11    1    3    3    0    0 -0.10754768434E+02  0.66943922460E+01  0.28265937964E+01  0.12979582596E+02  0.51100000000E-03 0.  1.
        -12    1    3    3    0    0 -0.14274889517E+02 -0.11988422727E+02  0.17513234803E+02  0.25577492908E+02  0.00000000000E+00 0.  1.
</event>
<event>
 7    1  0.2744502E-011  0.5052886E+02  0.7816164E-02  0.1300439E+00
        -11   -1    0    0    0    0  0.00000000000E+00  0.00000000000E+00  0.45593999997E+02  0.45594000000E+02  0.51100000000E-03 0.  1.
         11   -1    0    0    0    0 -0.00000000000E+00 -0.00000000000E+00 -0.45593999997E+02  0.45594000000E+02  0.51100000000E-03 0. -1.
    9900012    2    1    2    0    0 -0.23531448758E+02 -0.19903023824E+02  0.26519926695E+02  0.50528856503E+02  0.29999989828E+02 0.  0.
         12    1    1    2    0    0  0.23531448758E+02  0.19903023824E+02 -0.26519926695E+02  0.40659143497E+02  0.00000000000E+00 0. -1.
         11    1    3    3    0    0 -0.42644353094E+01  0.15643970185E+01 -0.38677427828E+01  0.59659182894E+01  0.51100000000E-03 0. -1.
        -11    1    3    3    0    0 -0.72523391074E+01  0.52386391984E+00  0.45951454564E+01  0.86015241651E+01  0.51100000000E-03 0.  1.
         12    1    3    3    0    0 -0.12014674341E+02 -0.21991284762E+02  0.25792524021E+02  0.35961414049E+02  0.00000000000E+00 0. -1.
</event>
<event>
 7    1  0.2744502E-011  0.5052892E+02  0.7816164E-02  0.1300439E+00
        -11   -1    0    0    0    0  0.00000000000E+00  0.00000000000E+00  0.45593999997E+02  0.45594000000E+02  0.51100000000E-03 0. -1.
         11   -1    0    0    0    0 -0.00000000000E+00 -0.00000000000E+00 -0.45593999997E+02  0.45594000000E+02  0.51100000000E-03 0.  1.
    9900012    2    1    2    0    0  0.34083308626E+02 -0.92561763523E+01 -0.20144772495E+02  0.50528922460E+02  0.30000190307E+02 0.  0.
         12    1    1    2    0    0 -0.34083308626E+02  0.92561763523E+01  0.20144772495E+02  0.40659077540E+02  0.00000000000E+00 0. -1.
         11    1    3    3    0    0  0.48168248008E+01 -0.83052378682E+01 -0.37693246002E+01  0.10314387302E+02  0.51100000000E-03 0. -1.
        -11    1    3    3    0    0 -0.11251774518E+01 -0.56012548358E+01 -0.86478581904E+00  0.57782293835E+01  0.51100000000E-03 0.  1.
        -12    1    3    3    0    0  0.30391661277E+02  0.46503163518E+01 -0.15510662076E+02  0.34436305774E+02  0.00000000000E+00 0.  1.
</event>
<event>
 7    1  0.2744502E-011  0.5052887E+02  0.7816164E-02  0.1300439E+00
        -11   -1    0    0    0    0  0.00000000000E+00  0.00000000000E+00  0.45593999997E+02  0.45594000000E+02  0.51100000000E-03 0.  1.
         11   -1    0    0    0    0 -0.00000000000E+00 -0.00000000000E+00 -0.45593999997E+02  0.45594000000E+02  0.51100000000E-03 0. -1.
    9900012    2    1    2    0    0  0.35989414113E+02 -0.29040976883E+01  0.18694744525E+02  0.50528865916E+02  0.30000018439E+02 0.  0.
         12    1    1    2    0    0 -0.35989414113E+02  0.29040976883E+01 -0.18694744525E+02  0.40659134084E+02  0.00000000000E+00 0. -1.
         11    1    3    3    0    0  0.57638502204E+01  0.19742454391E+01 -0.64401888149E+00  0.61265304209E+01  0.51100000000E-03 0. -1.
        -11    1    3    3    0    0 -0.13973169945E+01  0.50490920976E+01 -0.12469888180E+01  0.53852397501E+01  0.51100000000E-03 0.  1.
        -12    1    3    3    0    0  0.31622880887E+02 -0.99274352249E+01  0.20585752225E+02  0.39017095745E+02  0.00000000000E+00 0.  1.
</event>
<event>
 7    1  0.2744502E-011  0.5052886E+02  0.7816164E-02  0.1300439E+00
        -11   -1    0    0    0    0  0.00000000000E+00  0.00000000000E+00  0.45593999997E+02  0.45594000000E+02  0.51100000000E-03 0. -1.
         11   -1    0    0    0    0 -0.00000000000E+00 -0.00000000000E+00 -0.45593999997E+02  0.45594000000E+02  0.51100000000E-03 0.  1.
    9900012    2    1    2    0    0 -0.40370144320E+02 -0.42748442238E+01  0.22677040502E+01  0.50528864160E+02  0.30000013101E+02 0.  0.
         12    1    1    2    0    0  0.40370144320E+02  0.42748442238E+01 -0.22677040502E+01  0.40659135840E+02  0.00000000000E+00 0. -1.
         11    1    3    3    0    0 -0.66387471443E+01 -0.45758598616E+01 -0.37740776689E+01  0.89025344499E+01  0.51100000000E-03 0. -1.
        -11    1    3    3    0    0 -0.34600830543E+02 -0.57309791064E+01  0.55942147262E+01  0.35515585796E+02  0.51100000000E-03 0.  1.
         12    1    3    3    0    0  0.86943336686E+00  0.60319947442E+01  0.44756699293E+00  0.61107439143E+01  0.00000000000E+00 0. -1.
</event>
<event>
 7    1  0.2744502E-011  0.5052884E+02  0.7816164E-02  0.1300439E+00
        -11   -1    0    0    0    0  0.00000000000E+00  0.00000000000E+00  0.45593999997E+02  0.45594000000E+02  0.51100000000E-03 0.  1.
         11   -1    0    0    0    0 -0.00000000000E+00 -0.00000000000E+00 -0.45593999997E+02  0.45594000000E+02  0.51100000000E-03 0. -1.
    9900012    2    1    2    0    0  0.59725284639E+01  0.39288777793E+02 -0.85958079442E+01  0.50528842717E+02  0.29999947924E+02 0.  0.
         12    1    1    2    0    0 -0.59725284639E+01 -0.39288777793E+02  0.85958079442E+01  0.40659157283E+02  0.00000000000E+00 0. -1.
         11    1    3    3    0    0 -0.62436796463E+00  0.44994298798E+01  0.42090259023E+01  0.61927864412E+01  0.51100000000E-03 0. -1.
        -11    1    3    3    0    0  0.49011187644E+01  0.32733295037E+01  0.53206311761E+01  0.79400735233E+01  0.51100000000E-03 0.  1.
        -12    1    3    3    0    0  0.16957776642E+01  0.31516018409E+02 -0.18125465023E+02  0.36395982753E+02  0.00000000000E+00 0.  1.
</event>
<event>
 7    1  0.2744502E-011  0.5052885E+02  0.7816164E-02  0.1300439E+00
        -11   -1    0    0    0    0  0.00000000000E+00  0.00000000000E+00  0.45593999997E+02  0.45594000000E+02  0.51100000000E-03 0.  1.
         11   -1    0    0    0    0 -0.00000000000E+00 -0.00000000000E+00 -0.45593999997E+02  0.45594000000E+02  0.51100000000E-03 0. -1.
    9900012    2    1    2    0    0  0.37622068400E+02 -0.12180387193E+02  0.94543298976E+01  0.50528853222E+02  0.29999979855E+02 0.  0.
         12    1    1    2    0    0 -0.37622068400E+02  0.12180387193E+02 -0.94543298976E+01  0.40659146778E+02  0.00000000000E+00 0. -1.
         11    1    3    3    0    0  0.33612319307E+01 -0.86059006356E+01 -0.56989158428E+01  0.10855277421E+02  0.51100000000E-03 0. -1.
        -11    1    3    3    0    0  0.52816235994E+01 -0.43080496740E+01  0.65068927847E+01  0.94230830312E+01  0.51100000000E-03 0.  1.
        -12    1    3    3    0    0  0.28979212870E+02  0.73356311696E+00  0.86463529557E+01  0.30250492770E+02  0.00000000000E+00 0.  1.
</event>
<event>
 7    1  0.2744502E-011  0.5052886E+02  0.7816164E-02  0.1300439E+00
        -11   -1    0    0    0    0  0.00000000000E+00  0.00000000000E+00  0.45593999997E+02  0.45594000000E+02  0.51100000000E-03 0.  1.
         11   -1    0    0    0    0 -0.00000000000E+00 -0.00000000000E+00 -0.45593999997E+02  0.45594000000E+02  0.51100000000E-03 0. -1.
    9900012    2    1    2    0    0 -0.19900060342E+01 -0.40509198908E+02  0.28654006010E+01  0.50528857845E+02  0.29999993905E+02 0.  0.
         12    1    1    2    0    0  0.19900060342E+01  0.40509198908E+02 -0.28654006010E+01  0.40659142155E+02  0.00000000000E+00 0. -1.
         11    1    3    3    0    0 -0.12859436857E+01 -0.16188294449E+02 -0.75728259197E+01  0.17918209202E+02  0.51100000000E-03 0. -1.
        -11    1    3    3    0    0  0.30895465573E+01 -0.16903667038E+02 -0.23545762469E+01  0.17344258037E+02  0.51100000000E-03 0.  1.
        -12    1    3    3    0    0 -0.37936089058E+01 -0.74172374207E+01  0.12792802768E+02  0.15266390606E+02  0.00000000000E+00 0.  1.
</event>
<event>
 7    1  0.2744502E-011  0.5052888E+02  0.7816164E-02  0.1300439E+00
        -11   -1    0    0    0    0  0.00000000000E+00  0.00000000000E+00  0.45593999997E+02  0.45594000000E+02  0.51100000000E-03 0.  1.
         11   -1    0    0    0    0 -0.00000000000E+00 -0.00000000000E+00 -0.45593999997E+02  0.45594000000E+02  0.51100000000E-03 0. -1.
    9900012    2    1    2    0    0  0.23560823750E+02 -0.33607218934E+01  0.32966000612E+02  0.50528879697E+02  0.30000060328E+02 0.  0.
         12    1    1    2    0    0 -0.23560823750E+02  0.33607218934E+01 -0.32966000612E+02  0.40659120303E+02  0.00000000000E+00 0. -1.
         11    1    3    3    0    0 -0.35510197715E+01 -0.40151649968E+00  0.21163442760E+01  0.41532963141E+01  0.51100000000E-03 0. -1.
        -11    1    3    3    0    0  0.20098351149E+01  0.23579371519E+01 -0.27199246323E+01  0.41227775913E+01  0.51100000000E-03 0.  1.
        -12    1    3    3    0    0  0.25102008407E+02 -0.53171425456E+01  0.33569580968E+02  0.42252805792E+02  0.00000000000E+00 0.  1.
</event>
<event>
 7    1  0.2744502E-011  0.5052886E+02  0.7816164E-02  0.1300439E+00
        -11   -1    0    0    0    0  0.00000000000E+00  0.00000000000E+00  0.45593999997E+02  0.45594000000E+02  0.51100000000E-03 0.  1.
         11   -1    0    0    0    0 -0.00000000000E+00 -0.00000000000E+00 -0.45593999997E+02  0.45594000000E+02  0.51100000000E-03 0. -1.
    9900012    2    1    2    0    0  0.32573964886E+02 -0.23882967000E+02  0.46589942530E+01  0.50528861684E+02  0.30000005575E+02 0.  0.
         12    1    1    2    0    0 -0.32573964886E+02  0.23882967000E+02 -0.46589942530E+01  0.40659138316E+02  0.00000000000E+00 0. -1.
         11    1    3    3    0    0 -0.73100685196E+00 -0.36601242692E+01  0.40067137442E+01  0.54758228580E+01  0.51100000000E-03 0. -1.
        -11    1    3    3    0    0  0.24199610263E+02 -0.24795523961E+02  0.23350560990E+01  0.34725950421E+02  0.51100000000E-03 0.  1.
        -12    1    3    3    0    0  0.91053614758E+01  0.45726812308E+01 -0.16827755902E+01  0.10327088405E+02  0.00000000000E+00 0.  1.
</event>
<event>
 7    1  0.2744502E-011  0.5052886E+02  0.7816164E-02  0.1300439E+00
        -11   -1    0    0    0    0  0.00000000000E+00  0.00000000000E+00  0.45593999997E+02  0.45594000000E+02  0.51100000000E-03 0.  1.
         11   -1    0    0    0    0 -0.00000000000E+00 -0.00000000000E+00 -0.45593999997E+02  0.45594000000E+02  0.51100000000E-03 0. -1.
    9900012    2    1    2    0    0  0.14695453523E+02  0.22451385379E+02  0.30547419492E+02  0.50528857150E+02  0.29999991794E+02 0.  0.
         12    1    1    2    0    0 -0.14695453523E+02 -0.22451385379E+02 -0.30547419492E+02  0.40659142850E+02  0.00000000000E+00 0. -1.
         11    1    3    3    0    0  0.15220363770E+01  0.11122659270E+02  0.15050103236E+02  0.18775935440E+02  0.51100000000E-03 0. -1.
        -11    1    3    3    0    0  0.31018871979E+01  0.14088956397E+02  0.15682032416E+02  0.21308367781E+02  0.51100000000E-03 0.  1.
         12    1    3    3    0    0  0.10071529948E+02 -0.27602302883E+01 -0.18471615935E+00  0.10444553930E+02  0.00000000000E+00 0. -1.
</event>
<event>
 7    1  0.2744502E-011  0.5052894E+02  0.7816164E-02  0.1300439E+00
        -11   -1    0    0    0    0  0.00000000000E+00  0.00000000000E+00  0.45593999997E+02  0.45594000000E+02  0.51100000000E-03 0.  1.
         11   -1    0    0    0    0 -0.00000000000E+00 -0.00000000000E+00 -0.45593999997E+02  0.45594000000E+02  0.51100000000E-03 0. -1.
    9900012    2    1    2    0    0  0.32938750745E+02  0.21487072169E+02  0.10320051908E+02  0.50528941447E+02  0.30000248021E+02 0.  0.
         12    1    1    2    0    0 -0.32938750745E+02 -0.21487072169E+02 -0.10320051908E+02  0.40659058553E+02  0.00000000000E+00 0. -1.
         11    1    3    3    0    0  0.15766365841E+02  0.94980597805E+01 -0.51812154132E+01  0.19121621920E+02  0.51100000000E-03 0. -1.
        -11    1    3    3    0    0  0.49296178004E+01  0.70065216403E+00 -0.35415888675E+01  0.61102288894E+01  0.51100000000E-03 0.  1.
        -12    1    3    3    0    0  0.12242767104E+02  0.11288360224E+02  0.19042856188E+02  0.25297090637E+02  0.00000000000E+00 0.  1.
</event>
<event>
 7    1  0.2744502E-011  0.5052886E+02  0.7816164E-02  0.1300439E+00
        -11   -1    0    0    0    0  0.00000000000E+00  0.00000000000E+00  0.45593999997E+02  0.45594000000E+02  0.51100000000E-03 0. -1.
         11   -1    0    0    0    0 -0.00000000000E+00 -0.00000000000E+00 -0.45593999997E+02  0.45594000000E+02  0.51100000000E-03 0.  1.
    9900012    2    1    2    0    0  0.35482549004E+02 -0.18623817396E+02  0.68780626335E+01  0.50528860759E+02  0.30000002763E+02 0.  0.
         12    1    1    2    0    0 -0.35482549004E+02  0.18623817396E+02 -0.68780626335E+01  0.40659139241E+02  0.00000000000E+00 0. -1.
         11    1    3    3    0    0  0.10872922094E+02 -0.16970935871E+01 -0.65664749893E+00  0.11024143853E+02  0.51100000000E-03 0. -1.
        -11    1    3    3    0    0  0.15241378791E+02 -0.14214666293E+02 -0.70136776103E+01  0.21989725763E+02  0.51100000000E-03 0.  1.
         12    1    3    3    0    0  0.93682481200E+01 -0.27120575156E+01  0.14548387743E+02  0.17514991142E+02  0.00000000000E+00 0. -1.
</event>
<event>
 7    1  0.2744502E-011  0.5052886E+02  0.7816164E-02  0.1300439E+00
        -11   -1    0    0    0    0  0.00000000000E+00  0.00000000000E+00  0.45593999997E+02  0.45594000000E+02  0.51100000000E-03 0. -1.
         11   -1    0    0    0    0 -0.00000000000E+00 -0.00000000000E+00 -0.45593999997E+02  0.45594000000E+02  0.51100000000E-03 0.  1.
    9900012    2    1    2    0    0 -0.22951140371E+02 -0.60857204459E+01 -0.33005675397E+02  0.50528862699E+02  0.30000008659E+02 0.  0.
         12    1    1    2    0    0  0.22951140371E+02  0.60857204459E+01  0.33005675397E+02  0.40659137301E+02  0.00000000000E+00 0. -1.
         11    1    3    3    0    0 -0.10762684221E+02 -0.13890061772E+02 -0.25459062595E+02  0.30934334584E+02  0.51100000000E-03 0. -1.
        -11    1    3    3    0    0  0.10677685890E+01  0.60268908082E+00 -0.38801282606E+01  0.40692455650E+01  0.51100000000E-03 0.  1.
        -12    1    3    3    0    0 -0.13256224738E+02  0.72016522449E+01 -0.36664845416E+01  0.15525282550E+02  0.00000000000E+00 0.  1.
</event>
<event>
 7    1  0.2744502E-011  0.5052886E+02  0.7816164E-02  0.1300439E+00
        -11   -1    0    0    0    0  0.00000000000E+00  0.00000000000E+00  0.45593999997E+02  0.45594000000E+02  0.51100000000E-03 0.  1.
         11   -1    0    0    0    0 -0.00000000000E+00 -0.00000000000E+00 -0.45593999997E+02  0.45594000000E+02  0.51100000000E-03 0. -1.
    9900012    2    1    2    0    0 -0.37479408665E+02  0.92745135036E+00  0.15735297048E+02  0.50528858186E+02  0.29999994942E+02 0.  0.
         12    1    1    2    0    0  0.37479408665E+02 -0.92745135036E+00 -0.15735297048E+02  0.40659141814E+02  0.00000000000E+00 0. -1.
         11    1    3    3    0    0 -0.26145350971E+02 -0.79983427565E+01  0.47517876000E+01  0.27751258528E+02  0.51100000000E-03 0. -1.
        -11    1    3    3    0    0 -0.11082082892E+02  0.89829392429E+01  0.27353845931E+01  0.14525429005E+02  0.51100000000E-03 0.  1.
         12    1    3    3    0    0 -0.25197480270E+00 -0.57145136046E-01  0.82481248544E+01  0.82521706527E+01  0.00000000000E+00 0. -1.
</event>
<event>
 7    1  0.2744502E-011  0.5052886E+02  0.7816164E-02  0.1300439E+00
        -11   -1    0    0    0    0  0.00000000000E+00  0.00000000000E+00  0.45593999997E+02  0.45594000000E+02  0.51100000000E-03 0.  1.
         11   -1    0    0    0    0 -0.00000000000E+00 -0.00000000000E+00 -0.45593999997E+02  0.45594000000E+02  0.51100000000E-03 0. -1.
    9900012    2    1    2    0    0  0.21242138840E+02 -0.40052822951E+00  0.34666650795E+02  0.50528861265E+02  0.30000004301E+02 0.  0.
         12    1    1    2    0    0 -0.21242138840E+02  0.40052822951E+00 -0.34666650795E+02  0.40659138735E+02  0.00000000000E+00 0. -1.
         11    1    3    3    0    0  0.18873989659E+02 -0.22253943138E+01  0.14870915757E+02  0.24131390370E+02  0.51100000000E-03 0. -1.
        -11    1    3    3    0    0  0.27069801655E+01  0.23029933076E+01 -0.23391830064E+01  0.42547969622E+01  0.51100000000E-03 0.  1.
        -12    1    3    3    0    0 -0.33883098406E+00 -0.47812722331E+00  0.22134918044E+02  0.22142673932E+02  0.00000000000E+00 0.  1.
</event>
<event>
 7    1  0.2744502E-011  0.5052886E+02  0.7816164E-02  0.1300439E+00
        -11   -1    0    0    0    0  0.00000000000E+00  0.00000000000E+00  0.45593999997E+02  0.45594000000E+02  0.51100000000E-03 0.  1.
         11   -1    0    0    0    0 -0.00000000000E+00 -0.00000000000E+00 -0.45593999997E+02  0.45594000000E+02  0.51100000000E-03 0. -1.
    9900012    2    1    2    0    0 -0.18524961328E+02 -0.88709368502E+01  0.35089858756E+02  0.50528857113E+02  0.29999991680E+02 0.  0.
         12    1    1    2    0    0  0.18524961328E+02  0.88709368502E+01 -0.35089858756E+02  0.40659142887E+02  0.00000000000E+00 0. -1.
         11    1    3    3    0    0  0.36100765481E+01 -0.64786947274E+01  0.51248130564E+01  0.90149790448E+01  0.51100000000E-03 0. -1.
        -11    1    3    3    0    0 -0.14477575548E+02 -0.33347484691E+01  0.30347743887E+02  0.33789144712E+02  0.51100000000E-03 0.  1.
         12    1    3    3    0    0 -0.76574623282E+01  0.94250634633E+00 -0.38269818698E+00  0.77247333561E+01  0.00000000000E+00 0. -1.
</event>
<event>
 7    1  0.2744502E-011  0.5052886E+02  0.7816164E-02  0.1300439E+00
        -11   -1    0    0    0    0  0.00000000000E+00  0.00000000000E+00  0.45593999997E+02  0.45594000000E+02  0.51100000000E-03 0. -1.
         11   -1    0    0    0    0 -0.00000000000E+00 -0.00000000000E+00 -0.45593999997E+02  0.45594000000E+02  0.51100000000E-03 0.  1.
    9900012    2    1    2    0    0 -0.19142102128E+02  0.32467223172E+02 -0.15252037118E+02  0.50528864611E+02  0.30000014470E+02 0.  0.
         12    1    1    2    0    0  0.19142102128E+02 -0.32467223172E+02  0.15252037118E+02  0.40659135389E+02  0.00000000000E+00 0. -1.
         11    1    3    3    0    0  0.44408491546E+01  0.34121456623E+01 -0.17565460580E+01  0.58693554629E+01  0.51100000000E-03 0. -1.
        -11    1    3    3    0    0 -0.27990035959E+01 -0.23854546839E+01  0.16629865651E+01  0.40361293036E+01  0.51100000000E-03 0.  1.
        -12    1    3    3    0    0 -0.20783947686E+02  0.31440532194E+02 -0.15158477625E+02  0.40623379844E+02  0.00000000000E+00 0.  1.
</event>
<event>
 7    1  0.2744502E-011  0.5052885E+02  0.7816164E-02  0.1300439E+00
        -11   -1    0    0    0    0  0.00000000000E+00  0.00000000000E+00  0.45593999997E+02  0.45594000000E+02  0.51100000000E-03 0.  1.
         11   -1    0    0    0    0 -0.00000000000E+00 -0.00000000000E+00 -0.45593999997E+02  0.45594000000E+02  0.51100000000E-03 0. -1.
    9900012    2    1    2    0    0 -0.66697407684E+01 -0.20141934692E+02  0.34684049780E+02  0.50528852392E+02  0.29999977331E+02 0.  0.
         12    1    1    2    0    0  0.66697407684E+01  0.20141934692E+02 -0.34684049780E+02  0.40659147608E+02  0.00000000000E+00 0. -1.
         11    1    3    3    0    0  0.25827186974E+01 -0.63887582652E+01  0.13135000201E+02  0.14832899197E+02  0.51100000000E-03 0. -1.
        -11    1    3    3    0    0  0.75921437174E+01 -0.61254446114E+01  0.54247236526E+01  0.11161959724E+02  0.51100000000E-03 0.  1.
         12    1    3    3    0    0 -0.16844603183E+02 -0.76277318156E+01  0.16124325927E+02  0.24533993471E+02  0.00000000000E+00 0. -1.
</event>
<event>
 7    1  0.2744502E-011  0.5052885E+02  0.7816164E-02  0.1300439E+00
        -11   -1    0    0    0    0  0.00000000000E+00  0.00000000000E+00  0.45593999997E+02  0.45594000000E+02  0.51100000000E-03 0. -1.
         11   -1    0    0    0    0 -0.00000000000E+00 -0.00000000000E+00 -0.45593999997E+02  0.45594000000E+02  0.51100000000E-03 0.  1.
    9900012    2    1    2    0    0  0.21273319209E+02  0.85724035306E+01 -0.33572704416E+02  0.50528847349E+02  0.29999962003E+02 0.  0.
         12    1    1    2    0    0 -0.21273319209E+02 -0.85724035306E+01  0.33572704416E+02  0.40659152651E+02  0.00000000000E+00 0. -1.
         11    1    3    3    0    0  0.74031648988E+01  0.56499278007E+01 -0.61491679007E+00  0.93330947489E+01  0.51100000000E-03 0. -1.
        -11    1    3    3    0    0  0.44556590411E-01  0.80247305019E+01 -0.46321580618E+01  0.92658066831E+01  0.51100000000E-03 0.  1.
         12    1    3    3    0    0  0.13825597720E+02 -0.51022547721E+01 -0.28325629564E+02  0.31929945917E+02  0.00000000000E+00 0. -1.
</event>
<event>
 7    1  0.2744502E-011  0.5052886E+02  0.7816164E-02  0.1300439E+00
        -11   -1    0    0    0    0  0.00000000000E+00  0.00000000000E+00  0.45593999997E+02  0.45594000000E+02  0.51100000000E-03 0.  1.
         11   -1    0    0    0    0 -0.00000000000E+00 -0.00000000000E+00 -0.45593999997E+02  0.45594000000E+02  0.51100000000E-03 0. -1.
    9900012    2    1    2    0    0 -0.23532536878E+02 -0.16242939590E+02  0.28905927932E+02  0.50528855296E+02  0.29999986158E+02 0.  0.
         12    1    1    2    0    0  0.23532536878E+02  0.16242939590E+02 -0.28905927932E+02  0.40659144704E+02  0.00000000000E+00 0. -1.
         11    1    3    3    0    0  0.39600545539E+01 -0.68313564223E-01 -0.63566924904E+00  0.40113307602E+01  0.51100000000E-03 0. -1.
        -11    1    3    3    0    0 -0.58791577118E+01 -0.26379466056E+00  0.14732749203E+02  0.15864677191E+02  0.51100000000E-03 0.  1.
         12    1    3    3    0    0 -0.21613433721E+02 -0.15910831365E+02  0.14808847978E+02  0.30652847345E+02  0.00000000000E+00 0. -1.
</event>
<event>
 7    1  0.2744502E-011  0.5052886E+02  0.7816164E-02  0.1300439E+00
        -11   -1    0    0    0    0  0.00000000000E+00  0.00000000000E+00  0.45593999997E+02  0.45594000000E+02  0.51100000000E-03 0.  1.
         11   -1    0    0    0    0 -0.00000000000E+00 -0.00000000000E+00 -0.45593999997E+02  0.45594000000E+02  0.51100000000E-03 0. -1.
    9900012    2    1    2    0    0 -0.30623542871E+02 -0.91285243975E+01  0.25140293110E+02  0.50528859905E+02  0.30000000166E+02 0.  0.
         12    1    1    2    0    0  0.30623542871E+02  0.91285243975E+01 -0.25140293110E+02  0.40659140095E+02  0.00000000000E+00 0. -1.
         11    1    3    3    0    0 -0.18579797560E+01  0.15981675884E+01 -0.44462004453E+01  0.50769013261E+01  0.51100000000E-03 0. -1.
        -11    1    3    3    0    0 -0.42772506309E+01 -0.71133403678E+01  0.23051810865E+01  0.86144265190E+01  0.51100000000E-03 0.  1.
        -12    1    3    3    0    0 -0.24488312484E+02 -0.36133516182E+01  0.27281312469E+02  0.36837532060E+02  0.00000000000E+00 0.  1.
</event>
<event>
 7    1  0.2744502E-011  0.5052886E+02  0.7816164E-02  0.1300439E+00
        -11   -1    0    0    0    0  0.00000000000E+00  0.00000000000E+00  0.45593999997E+02  0.45594000000E+02  0.51100000000E-03 0.  1.
         11   -1    0    0    0    0 -0.00000000000E+00 -0.00000000000E+00 -0.45593999997E+02  0.45594000000E+02  0.51100000000E-03 0. -1.
    9900012    2    1    2    0    0 -0.87941778770E+01  0.35434817309E+02 -0.17894183963E+02  0.50528860044E+02  0.30000000590E+02 0.  0.
         12    1    1    2    0    0  0.87941778770E+01 -0.35434817309E+02  0.17894183963E+02  0.40659139956E+02  0.00000000000E+00 0. -1.
         11    1    3    3    0    0 -0.57261425480E+01  0.13680357290E+02 -0.20921236405E+02  0.25644473422E+02  0.51100000000E-03 0. -1.
        -11    1    3    3    0    0 -0.65233192729E+01  0.18036948858E+02  0.43452093549E+00  0.19185255463E+02  0.51100000000E-03 0.  1.
         12    1    3    3    0    0  0.34552839439E+01  0.37175111605E+01  0.25925315075E+01  0.56991311599E+01  0.00000000000E+00 0. -1.
</event>
<event>
 7    1  0.2744502E-011  0.5052886E+02  0.7816164E-02  0.1300439E+00
        -11   -1    0    0    0    0  0.00000000000E+00  0.00000000000E+00  0.45593999997E+02  0.45594000000E+02  0.51100000000E-03 0.  1.
         11   -1    0    0    0    0 -0.00000000000E+00 -0.00000000000E+00 -0.45593999997E+02  0.45594000000E+02  0.51100000000E-03 0. -1.
    9900012    2    1    2    0    0  0.10228915331E+02  0.13990683949E+02  0.36780371513E+02  0.50528859885E+02  0.30000000107E+02 0.  0.
         12    1    1    2    0    0 -0.10228915331E+02 -0.13990683949E+02 -0.36780371513E+02  0.40659140115E+02  0.00000000000E+00 0. -1.
         11    1    3    3    0    0  0.14951225536E+02  0.13061399626E+02  0.13435404675E+02  0.23971846075E+02  0.51100000000E-03 0. -1.
        -11    1    3    3    0    0  0.31246472710E+00  0.13518278693E+01 -0.98911617568E+00  0.17039436211E+01  0.51100000000E-03 0.  1.
        -12    1    3    3    0    0 -0.50347749320E+01 -0.42254354623E+00  0.24334083014E+02  0.24853070189E+02  0.00000000000E+00 0.  1.
</event>
<event>
 7    1  0.2744502E-011  0.5052885E+02  0.7816164E-02  0.1300439E+00
        -11   -1    0    0    0    0  0.00000000000E+00  0.00000000000E+00  0.45593999997E+02  0.45594000000E+02  0.51100000000E-03 0.  1.
         11   -1    0    0    0    0 -0.00000000000E+00 -0.00000000000E+00 -0.45593999997E+02  0.45594000000E+02  0.51100000000E-03 0. -1.
    9900012    2    1    2    0    0  0.19349972919E+02  0.15718712095E+02  0.32119569763E+02  0.50528854366E+02  0.29999983332E+02 0.  0.
         12    1    1    2    0    0 -0.19349972919E+02 -0.15718712095E+02 -0.32119569763E+02  0.40659145634E+02  0.00000000000E+00 0. -1.
         11    1    3    3    0    0  0.25612044433E+01  0.10479653361E+01 -0.14650785747E+01  0.31312066424E+01  0.51100000000E-03 0. -1.
        -11    1    3    3    0    0  0.65977892616E+01  0.11518585004E+02  0.12316125460E+01  0.13331372524E+02  0.51100000000E-03 0.  1.
        -12    1    3    3    0    0  0.10190979214E+02  0.31521617549E+01  0.32353035792E+02  0.34066275200E+02  0.00000000000E+00 0.  1.
</event>
<event>
 7    1  0.2744502E-011  0.5052889E+02  0.7816164E-02  0.1300439E+00
        -11   -1    0    0    0    0  0.00000000000E+00  0.00000000000E+00  0.45593999997E+02  0.45594000000E+02  0.51100000000E-03 0.  1.
         11   -1    0    0    0    0 -0.00000000000E+00 -0.00000000000E+00 -0.45593999997E+02  0.45594000000E+02  0.51100000000E-03 0. -1.
    9900012    2    1    2    0    0 -0.55943626890E+01 -0.36825851583E+02  0.16301014431E+02  0.50528888964E+02  0.30000088496E+02 0.  0.
         12    1    1    2    0    0  0.55943626890E+01  0.36825851583E+02 -0.16301014431E+02  0.40659111036E+02  0.00000000000E+00 0. -1.
         11    1    3    3    0    0  0.35384448221E+01  0.56016836779E+00 -0.17121581165E+01  0.39706253961E+01  0.51100000000E-03 0. -1.
        -11    1    3    3    0    0 -0.23522074293E+01  0.63575470274E+00  0.54081213980E+01  0.59316811402E+01  0.51100000000E-03 0.  1.
        -12    1    3    3    0    0 -0.67806000818E+01 -0.38021774654E+02  0.12605051150E+02  0.40626582428E+02  0.00000000000E+00 0.  1.
</event>
<event>
 7    1  0.2744502E-011  0.5052886E+02  0.7816164E-02  0.1300439E+00
        -11   -1    0    0    0    0  0.00000000000E+00  0.00000000000E+00  0.45593999997E+02  0.45594000000E+02  0.51100000000E-03 0.  1.
         11   -1    0    0    0    0 -0.00000000000E+00 -0.00000000000E+00 -0.45593999997E+02  0.45594000000E+02  0.51100000000E-03 0. -1.
    9900012    2    1    2    0    0  0.15185320696E+02  0.58769357539E+01  0.37256320334E+02  0.50528859044E+02  0.29999997549E+02 0.  0.
         12    1    1    2    0    0 -0.15185320696E+02 -0.58769357539E+01 -0.37256320334E+02  0.40659140956E+02  0.00000000000E+00 0. -1.
         11    1    3    3    0    0  0.88646131045E+01  0.32320071117E+01  0.11498959594E+02  0.14874585960E+02  0.51100000000E-03 0. -1.
        -11    1    3    3    0    0  0.93692585649E+01  0.98160773465E+01  0.68426852555E+01  0.15197391957E+02  0.51100000000E-03 0.  1.
        -12    1    3    3    0    0 -0.30485509732E+01 -0.71711487042E+01  0.18914675484E+02  0.20456881127E+02  0.00000000000E+00 0.  1.
</event>
<event>
 7    1  0.2744502E-011  0.5052891E+02  0.7816164E-02  0.1300439E+00
        -11   -1    0    0    0    0  0.00000000000E+00  0.00000000000E+00  0.45593999997E+02  0.45594000000E+02  0.51100000000E-03 0. -1.
         11   -1    0    0    0    0 -0.00000000000E+00 -0.00000000000E+00 -0.45593999997E+02  0.45594000000E+02  0.51100000000E-03 0.  1.
    9900012    2    1    2    0    0 -0.16542238455E+02 -0.25604750375E+02 -0.26905624635E+02  0.50528910833E+02  0.30000154969E+02 0.  0.
         12    1    1    2    0    0  0.16542238455E+02  0.25604750375E+02  0.26905624635E+02  0.40659089167E+02  0.00000000000E+00 0. -1.
         11    1    3    3    0    0 -0.40281345416E+01  0.25793193131E+01 -0.20463173681E+01  0.52025158372E+01  0.51100000000E-03 0. -1.
        -11    1    3    3    0    0  0.47921550889E+01 -0.35753893996E+00 -0.53414373780E+01  0.71849521929E+01  0.51100000000E-03 0.  1.
        -12    1    3    3    0    0 -0.17306259002E+02 -0.27826530748E+02 -0.19517869889E+02  0.38141442803E+02  0.00000000000E+00 0.  1.
</event>
<event>
 7    1  0.2744502E-011  0.5052886E+02  0.7816164E-02  0.1300439E+00
        -11   -1    0    0    0    0  0.00000000000E+00  0.00000000000E+00  0.45593999997E+02  0.45594000000E+02  0.51100000000E-03 0. -1.
         11   -1    0    0    0    0 -0.00000000000E+00 -0.00000000000E+00 -0.45593999997E+02  0.45594000000E+02  0.51100000000E-03 0.  1.
    9900012    2    1    2    0    0  0.15450790833E+02 -0.36700830333E+02 -0.82151075885E+01  0.50528857397E+02  0.29999992545E+02 0.  0.
         12    1    1    2    0    0 -0.15450790833E+02  0.36700830333E+02  0.82151075885E+01  0.40659142603E+02  0.00000000000E+00 0. -1.
         11    1    3    3    0    0  0.62661568317E+01 -0.31189577317E+02 -0.55432512137E+01  0.32292136643E+02  0.51100000000E-03 0.  1.
        -11    1    3    3    0    0  0.55263911223E+01 -0.65126611316E+01 -0.79957786178E+01  0.11699924351E+02  0.51100000000E-03 0. -1.
         12    1    3    3    0    0  0.36582428788E+01  0.10014081158E+01  0.53239222430E+01  0.65367964038E+01  0.00000000000E+00 0. -1.
</event>
<event>
 7    1  0.2744502E-011  0.5052885E+02  0.7816164E-02  0.1300439E+00
        -11   -1    0    0    0    0  0.00000000000E+00  0.00000000000E+00  0.45593999997E+02  0.45594000000E+02  0.51100000000E-03 0. -1.
         11   -1    0    0    0    0 -0.00000000000E+00 -0.00000000000E+00 -0.45593999997E+02  0.45594000000E+02  0.51100000000E-03 0.  1.
    9900012    2    1    2    0    0 -0.11535550180E+02  0.89936765795E+01 -0.37936936575E+02  0.50528852283E+02  0.29999977000E+02 0.  0.
         12    1    1    2    0    0  0.11535550180E+02 -0.89936765795E+01  0.37936936575E+02  0.40659147717E+02  0.00000000000E+00 0. -1.
         11    1    3    3    0    0 -0.58314050878E+01  0.32468565137E+01 -0.27361354768E+02  0.28163648512E+02  0.51100000000E-03 0.  1.
        -11    1    3    3    0    0 -0.39469914542E+01  0.11666042430E+02 -0.10509581742E+02  0.16190324153E+02  0.51100000000E-03 0. -1.
        -12    1    3    3    0    0 -0.17571536378E+01 -0.59192223638E+01 -0.66000065032E-01  0.61748796189E+01  0.00000000000E+00 0.  1.
</event>
<event>
 7    1  0.2744502E-011  0.5052886E+02  0.7816164E-02  0.1300439E+00
        -11   -1    0    0    0    0  0.00000000000E+00  0.00000000000E+00  0.45593999997E+02  0.45594000000E+02  0.51100000000E-03 0. -1.
         11   -1    0    0    0    0 -0.00000000000E+00 -0.00000000000E+00 -0.45593999997E+02  0.45594000000E+02  0.51100000000E-03 0.  1.
    9900012    2    1    2    0    0 -0.36572815642E+02 -0.17547717147E+02  0.27699350673E+01  0.50528858822E+02  0.29999996876E+02 0.  0.
         12    1    1    2    0    0  0.36572815642E+02  0.17547717147E+02 -0.27699350673E+01  0.40659141178E+02  0.00000000000E+00 0. -1.
         11    1    3    3    0    0 -0.16661050893E+02 -0.87330658019E+00  0.12802051678E+02  0.21029641192E+02  0.51100000000E-03 0.  1.
        -11    1    3    3    0    0 -0.48510447415E+01 -0.11798824299E+01  0.12166579401E+01  0.51385809750E+01  0.51100000000E-03 0. -1.
        -12    1    3    3    0    0 -0.15060720008E+02 -0.15494528137E+02 -0.11248774551E+02  0.24360636655E+02  0.00000000000E+00 0.  1.
</event>
<event>
 7    1  0.2744502E-011  0.5052886E+02  0.7816164E-02  0.1300439E+00
        -11   -1    0    0    0    0  0.00000000000E+00  0.00000000000E+00  0.45593999997E+02  0.45594000000E+02  0.51100000000E-03 0.  1.
         11   -1    0    0    0    0 -0.00000000000E+00 -0.00000000000E+00 -0.45593999997E+02  0.45594000000E+02  0.51100000000E-03 0. -1.
    9900012    2    1    2    0    0 -0.18355889772E+02  0.34359325097E+02 -0.11647462563E+02  0.50528864562E+02  0.30000014322E+02 0.  0.
         12    1    1    2    0    0  0.18355889772E+02 -0.34359325097E+02  0.11647462563E+02  0.40659135438E+02  0.00000000000E+00 0. -1.
         11    1    3    3    0    0 -0.96815076148E+01  0.47337244100E+01  0.27064151968E+01  0.11111454449E+02  0.51100000000E-03 0.  1.
        -11    1    3    3    0    0 -0.96069079821E+01  0.32097974512E+02 -0.14981124879E+02  0.36701590588E+02  0.51100000000E-03 0. -1.
         12    1    3    3    0    0  0.93252582438E+00 -0.24723738256E+01  0.62724711926E+00  0.27158195255E+01  0.00000000000E+00 0. -1.
</event>
<event>
 7    1  0.2744502E-011  0.5052886E+02  0.7816164E-02  0.1300439E+00
        -11   -1    0    0    0    0  0.00000000000E+00  0.00000000000E+00  0.45593999997E+02  0.45594000000E+02  0.51100000000E-03 0. -1.
         11   -1    0    0    0    0 -0.00000000000E+00 -0.00000000000E+00 -0.45593999997E+02  0.45594000000E+02  0.51100000000E-03 0.  1.
    9900012    2    1    2    0    0 -0.11344413109E+02 -0.38859321279E+02 -0.37978012139E+01  0.50528857694E+02  0.29999993445E+02 0.  0.
         12    1    1    2    0    0  0.11344413109E+02  0.38859321279E+02  0.37978012139E+01  0.40659142306E+02  0.00000000000E+00 0. -1.
         11    1    3    3    0    0 -0.64244563630E+01 -0.77022982588E+01 -0.17913098685E+01  0.10188612729E+02  0.51100000000E-03 0. -1.
        -11    1    3    3    0    0 -0.15135055187E+02 -0.20620840432E+02 -0.20964547312E+01  0.25664841288E+02  0.51100000000E-03 0.  1.
         12    1    3    3    0    0  0.10215098441E+02 -0.10536182588E+02  0.89963385767E-01  0.14675403677E+02  0.00000000000E+00 0. -1.
</event>
<event>
 7    1  0.2744502E-011  0.5052886E+02  0.7816164E-02  0.1300439E+00
        -11   -1    0    0    0    0  0.00000000000E+00  0.00000000000E+00  0.45593999997E+02  0.45594000000E+02  0.51100000000E-03 0.  1.
         11   -1    0    0    0    0 -0.00000000000E+00 -0.00000000000E+00 -0.45593999997E+02  0.45594000000E+02  0.51100000000E-03 0. -1.
    9900012    2    1    2    0    0  0.37507190949E+02  0.12589533799E+02  0.93744213602E+01  0.50528861913E+02  0.30000006270E+02 0.  0.
         12    1    1    2    0    0 -0.37507190949E+02 -0.12589533799E+02 -0.93744213602E+01  0.40659138087E+02  0.00000000000E+00 0. -1.
         11    1    3    3    0    0  0.99267771898E+01  0.83305154726E+01 -0.86266938899E+01  0.15567859235E+02  0.51100000000E-03 0. -1.
        -11    1    3    3    0    0  0.12859834193E+02 -0.30919650462E+01  0.10453404858E+02  0.16858506953E+02  0.51100000000E-03 0.  1.
        -12    1    3    3    0    0  0.14720579566E+02  0.73509833723E+01  0.75477103925E+01  0.18102495725E+02  0.00000000000E+00 0.  1.
</event>
<event>
 7    1  0.2744502E-011  0.5052886E+02  0.7816164E-02  0.1300439E+00
        -11   -1    0    0    0    0  0.00000000000E+00  0.00000000000E+00  0.45593999997E+02  0.45594000000E+02  0.51100000000E-03 0. -1.
         11   -1    0    0    0    0 -0.00000000000E+00 -0.00000000000E+00 -0.45593999997E+02  0.45594000000E+02  0.51100000000E-03 0.  1.
    9900012    2    1    2    0    0 -0.39920024868E+02 -0.28412656972E+01 -0.71752594101E+01  0.50528861743E+02  0.30000005753E+02 0.  0.
         12    1    1    2    0    0  0.39920024868E+02  0.28412656972E+01  0.71752594101E+01  0.40659138257E+02  0.00000000000E+00 0. -1.
         11    1    3    3    0    0 -0.19883655221E+02 -0.10619330759E+02  0.54065054190E+01  0.23181031725E+02  0.51100000000E-03 0.  1.
        -11    1    3    3    0    0 -0.54445187607E+00 -0.22498115933E+01 -0.17221617395E+01  0.28851206853E+01  0.51100000000E-03 0. -1.
        -12    1    3    3    0    0 -0.19491917771E+02  0.10027876655E+02 -0.10859603090E+02  0.24462709332E+02  0.00000000000E+00 0.  1.
</event>
<event>
 7    1  0.2744502E-011  0.5052888E+02  0.7816164E-02  0.1300439E+00
        -11   -1    0    0    0    0  0.00000000000E+00  0.00000000000E+00  0.45593999997E+02  0.45594000000E+02  0.51100000000E-03 0. -1.
         11   -1    0    0    0    0 -0.00000000000E+00 -0.00000000000E+00 -0.45593999997E+02  0.45594000000E+02  0.51100000000E-03 0.  1.
    9900012    2    1    2    0    0 -0.38663315151E+02 -0.44218688246E+01  0.11779602724E+02  0.50528881678E+02  0.30000066348E+02 0.  0.
         12    1    1    2    0    0  0.38663315151E+02  0.44218688246E+01 -0.11779602724E+02  0.40659118322E+02  0.00000000000E+00 0. -1.
         11    1    3    3    0    0 -0.12302561702E+02 -0.69930392014E+01  0.11025980739E+02  0.17939561678E+02  0.51100000000E-03 0. -1.
        -11    1    3    3    0    0 -0.22081263049E+02 -0.25595121516E+01  0.71391669308E+01  0.23347397821E+02  0.51100000000E-03 0.  1.
         12    1    3    3    0    0 -0.42794904010E+01  0.51306825284E+01 -0.63855449455E+01  0.92419221784E+01  0.00000000000E+00 0. -1.
</event>
<event>
 7    1  0.2744502E-011  0.5052892E+02  0.7816164E-02  0.1300439E+00
        -11   -1    0    0    0    0  0.00000000000E+00  0.00000000000E+00  0.45593999997E+02  0.45594000000E+02  0.51100000000E-03 0.  1.
         11   -1    0    0    0    0 -0.00000000000E+00 -0.00000000000E+00 -0.45593999997E+02  0.45594000000E+02  0.51100000000E-03 0. -1.
    9900012    2    1    2    0    0 -0.11583143975E+02  0.18406342754E+02  0.34354010161E+02  0.50528921161E+02  0.30000186359E+02 0.  0.
         12    1    1    2    0    0  0.11583143975E+02 -0.18406342754E+02 -0.34354010161E+02  0.40659078839E+02  0.00000000000E+00 0. -1.
         11    1    3    3    0    0 -0.97880292092E+01  0.10958180308E+01  0.29099080982E+01  0.10270048605E+02  0.51100000000E-03 0. -1.
        -11    1    3    3    0    0 -0.41816959266E+01  0.95332839858E+01  0.32365248084E+01  0.10901613526E+02  0.51100000000E-03 0.  1.
        -12    1    3    3    0    0  0.23865811612E+01  0.77772407374E+01  0.28207577255E+02  0.29357259029E+02  0.00000000000E+00 0.  1.
</event>
<event>
 7    1  0.2744502E-011  0.5052886E+02  0.7816164E-02  0.1300439E+00
        -11   -1    0    0    0    0  0.00000000000E+00  0.00000000000E+00  0.45593999997E+02  0.45594000000E+02  0.51100000000E-03 0.  1.
         11   -1    0    0    0    0 -0.00000000000E+00 -0.00000000000E+00 -0.45593999997E+02  0.45594000000E+02  0.51100000000E-03 0. -1.
    9900012    2    1    2    0    0  0.29161676060E+02  0.94187682282E+01  0.26721703222E+02  0.50528856273E+02  0.29999989126E+02 0.  0.
         12    1    1    2    0    0 -0.29161676060E+02 -0.94187682282E+01 -0.26721703222E+02  0.40659143727E+02  0.00000000000E+00 0. -1.
         11    1    3    3    0    0  0.21457333831E+02  0.10643905778E+02  0.69392161509E+01  0.24937173585E+02  0.51100000000E-03 0. -1.
        -11    1    3    3    0    0  0.15961748085E+01  0.35082544559E+01 -0.50036454276E+00  0.38866422892E+01  0.51100000000E-03 0.  1.
        -12    1    3    3    0    0  0.61081674198E+01 -0.47333920053E+01  0.20282851614E+02  0.21705040398E+02  0.00000000000E+00 0.  1.
</event>
<event>
 7    1  0.2744502E-011  0.5052887E+02  0.7816164E-02  0.1300439E+00
        -11   -1    0    0    0    0  0.00000000000E+00  0.00000000000E+00  0.45593999997E+02  0.45594000000E+02  0.51100000000E-03 0.  1.
         11   -1    0    0    0    0 -0.00000000000E+00 -0.00000000000E+00 -0.45593999997E+02  0.45594000000E+02  0.51100000000E-03 0. -1.
    9900012    2    1    2    0    0  0.33374526086E+01 -0.23903574404E+02  0.32720715864E+02  0.50528871802E+02  0.30000036329E+02 0.  0.
         12    1    1    2    0    0 -0.33374526086E+01  0.23903574404E+02 -0.32720715864E+02  0.40659128198E+02  0.00000000000E+00 0. -1.
         11    1    3    3    0    0  0.33192626864E+01 -0.59138513115E+01 -0.28851558372E+00  0.67878114013E+01  0.51100000000E-03 0. -1.
        -11    1    3    3    0    0  0.54112340643E+01 -0.73517199498E+01  0.53305421150E+00  0.91440356174E+01  0.51100000000E-03 0.  1.
        -12    1    3    3    0    0 -0.53930441421E+01 -0.10638003142E+02  0.32476177236E+02  0.34597024783E+02  0.00000000000E+00 0.  1.
</event>
<event>
 7    1  0.2744502E-011  0.5052888E+02  0.7816164E-02  0.1300439E+00
        -11   -1    0    0    0    0  0.00000000000E+00  0.00000000000E+00  0.45593999997E+02  0.45594000000E+02  0.51100000000E-03 0.  1.
         11   -1    0    0    0    0 -0.00000000000E+00 -0.00000000000E+00 -0.45593999997E+02  0.45594000000E+02  0.51100000000E-03 0. -1.
    9900012    2    1    2    0    0 -0.33180692250E+02  0.94050398460E+01  0.21534885850E+02  0.50528875302E+02  0.30000046967E+02 0.  0.
         12    1    1    2    0    0  0.33180692250E+02 -0.94050398460E+01 -0.21534885850E+02  0.40659124698E+02  0.00000000000E+00 0. -1.
         11    1    3    3    0    0  0.38368840093E+01 -0.28964198400E+01  0.16472380997E+01  0.50817635136E+01  0.51100000000E-03 0. -1.
        -11    1    3    3    0    0 -0.14172556928E+01  0.19325519183E+01  0.48968746491E+01  0.54518576839E+01  0.51100000000E-03 0.  1.
         12    1    3    3    0    0 -0.35600320566E+02  0.10368907768E+02  0.14990773101E+02  0.39995254104E+02  0.00000000000E+00 0. -1.
</event>
<event>
 7    1  0.2744502E-011  0.5052887E+02  0.7816164E-02  0.1300439E+00
        -11   -1    0    0    0    0  0.00000000000E+00  0.00000000000E+00  0.45593999997E+02  0.45594000000E+02  0.51100000000E-03 0.  1.
         11   -1    0    0    0    0 -0.00000000000E+00 -0.00000000000E+00 -0.45593999997E+02  0.45594000000E+02  0.51100000000E-03 0. -1.
    9900012    2    1    2    0    0 -0.39935831791E+02  0.51228165786E+01  0.56613643877E+01  0.50528868709E+02  0.30000026929E+02 0.  0.
         12    1    1    2    0    0  0.39935831791E+02 -0.51228165786E+01 -0.56613643877E+01  0.40659131291E+02  0.00000000000E+00 0. -1.
         11    1    3    3    0    0 -0.19940382277E+02  0.93706521396E+00 -0.77971048317E+01  0.21431093780E+02  0.51100000000E-03 0. -1.
        -11    1    3    3    0    0 -0.20200295548E+02  0.70197802867E+01  0.77952416310E+01  0.22761701339E+02  0.51100000000E-03 0.  1.
        -12    1    3    3    0    0  0.20484603393E+00 -0.28340289221E+01  0.56632275884E+01  0.63360735907E+01  0.00000000000E+00 0.  1.
</event>
<event>
 7    1  0.2744502E-011  0.5052887E+02  0.7816164E-02  0.1300439E+00
        -11   -1    0    0    0    0  0.00000000000E+00  0.00000000000E+00  0.45593999997E+02  0.45594000000E+02  0.51100000000E-03 0.  1.
         11   -1    0    0    0    0 -0.00000000000E+00 -0.00000000000E+00 -0.45593999997E+02  0.45594000000E+02  0.51100000000E-03 0. -1.
    9900012    2    1    2    0    0  0.18331712354E+02 -0.34505982725E+01  0.36127646288E+02  0.50528866554E+02  0.30000020376E+02 0.  0.
         12    1    1    2    0    0 -0.18331712354E+02  0.34505982725E+01 -0.36127646288E+02  0.40659133446E+02  0.00000000000E+00 0. -1.
         11    1    3    3    0    0  0.20439444792E+01  0.45135701545E+01  0.33549412733E+01  0.59837827318E+01  0.51100000000E-03 0. -1.
        -11    1    3    3    0    0  0.52376125908E+01  0.73052774654E+01  0.33296219831E+01  0.95857210115E+01  0.51100000000E-03 0.  1.
         12    1    3    3    0    0  0.11050155284E+02 -0.15269445892E+02  0.29443083032E+02  0.34959362810E+02  0.00000000000E+00 0. -1.
</event>
<event>
 7    1  0.2744502E-011  0.5052886E+02  0.7816164E-02  0.1300439E+00
        -11   -1    0    0    0    0  0.00000000000E+00  0.00000000000E+00  0.45593999997E+02  0.45594000000E+02  0.51100000000E-03 0. -1.
         11   -1    0    0    0    0 -0.00000000000E+00 -0.00000000000E+00 -0.45593999997E+02  0.45594000000E+02  0.51100000000E-03 0.  1.
    9900012    2    1    2    0    0 -0.11118434960E+02 -0.37200519290E+02 -0.12069282759E+02  0.50528858128E+02  0.29999994767E+02 0.  0.
         12    1    1    2    0    0  0.11118434960E+02  0.37200519290E+02  0.12069282759E+02  0.40659141872E+02  0.00000000000E+00 0. -1.
         11    1    3    3    0    0 -0.67663400014E+01 -0.14052758036E+02 -0.99741994512E+01  0.18513455118E+02  0.51100000000E-03 0. -1.
        -11    1    3    3    0    0 -0.29245710763E+01 -0.23564148977E+02 -0.86670832670E+01  0.25277273698E+02  0.51100000000E-03 0.  1.
         12    1    3    3    0    0 -0.14275238820E+01  0.41638772328E+00  0.65719999587E+01  0.67381293122E+01  0.00000000000E+00 0. -1.
</event>
<event>
 7    1  0.2744502E-011  0.5052886E+02  0.7816164E-02  0.1300439E+00
        -11   -1    0    0    0    0  0.00000000000E+00  0.00000000000E+00  0.45593999997E+02  0.45594000000E+02  0.51100000000E-03 0.  1.
         11   -1    0    0    0    0 -0.00000000000E+00 -0.00000000000E+00 -0.45593999997E+02  0.45594000000E+02  0.51100000000E-03 0. -1.
    9900012    2    1    2    0    0 -0.12858353540E+02  0.32285856319E+02  0.21105733330E+02  0.50528858920E+02  0.29999997172E+02 0.  0.
         12    1    1    2    0    0  0.12858353540E+02 -0.32285856319E+02 -0.21105733330E+02  0.40659141080E+02  0.00000000000E+00 0. -1.
         11    1    3    3    0    0 -0.32793547804E+01  0.29502860130E+01  0.60321161018E+01  0.74729365220E+01  0.51100000000E-03 0. -1.
        -11    1    3    3    0    0 -0.12384219114E+02  0.16634261984E+01  0.53290491586E+01  0.13584352579E+02  0.51100000000E-03 0.  1.
        -12    1    3    3    0    0  0.28052203547E+01  0.27672144107E+02  0.97445680700E+01  0.29471569819E+02  0.00000000000E+00 0.  1.
</event>
<event>
 7    1  0.2744502E-011  0.5052885E+02  0.7816164E-02  0.1300439E+00
        -11   -1    0    0    0    0  0.00000000000E+00  0.00000000000E+00  0.45593999997E+02  0.45594000000E+02  0.51100000000E-03 0.  1.
         11   -1    0    0    0    0 -0.00000000000E+00 -0.00000000000E+00 -0.45593999997E+02  0.45594000000E+02  0.51100000000E-03 0. -1.
    9900012    2    1    2    0    0  0.28031947438E+02  0.15196040599E+02  0.25228091218E+02  0.50528852031E+02  0.29999976234E+02 0.  0.
         12    1    1    2    0    0 -0.28031947438E+02 -0.15196040599E+02 -0.25228091218E+02  0.40659147969E+02  0.00000000000E+00 0. -1.
         11    1    3    3    0    0  0.13052693818E+02  0.11502271465E+02  0.71101787523E+01  0.18794406267E+02  0.51100000000E-03 0. -1.
        -11    1    3    3    0    0  0.16887238030E+02 -0.35046630252E+01  0.76005922356E+01  0.18847558829E+02  0.51100000000E-03 0.  1.
         12    1    3    3    0    0 -0.19079844109E+01  0.71984321590E+01  0.10517320230E+02  0.12886886935E+02  0.00000000000E+00 0. -1.
</event>
<event>
 7    1  0.2744502E-011  0.5052887E+02  0.7816164E-02  0.1300439E+00
        -11   -1    0    0    0    0  0.00000000000E+00  0.00000000000E+00  0.45593999997E+02  0.45594000000E+02  0.51100000000E-03 0. -1.
         11   -1    0    0    0    0 -0.00000000000E+00 -0.00000000000E+00 -0.45593999997E+02  0.45594000000E+02  0.51100000000E-03 0.  1.
    9900012    2    1    2    0    0  0.38472931384E+02  0.10116486080E+02 -0.84056802031E+01  0.50528865730E+02  0.30000017873E+02 0.  0.
         12    1    1    2    0    0 -0.38472931384E+02 -0.10116486080E+02  0.84056802031E+01  0.40659134270E+02  0.00000000000E+00 0. -1.
         11    1    3    3    0    0 -0.17988324769E+01 -0.44397464175E+01  0.13526929063E+01  0.49776425034E+01  0.51100000000E-03 0. -1.
        -11    1    3    3    0    0  0.14198408130E+02  0.20129724033E+01  0.16804693213E+01  0.14438518924E+02  0.51100000000E-03 0.  1.
        -12    1    3    3    0    0  0.26073355731E+02  0.12543260094E+02 -0.11438842431E+02  0.31112704303E+02  0.00000000000E+00 0.  1.
</event>
<event>
 7    1  0.2744502E-011  0.5052885E+02  0.7816164E-02  0.1300439E+00
        -11   -1    0    0    0    0  0.00000000000E+00  0.00000000000E+00  0.45593999997E+02  0.45594000000E+02  0.51100000000E-03 0. -1.
         11   -1    0    0    0    0 -0.00000000000E+00 -0.00000000000E+00 -0.45593999997E+02  0.45594000000E+02  0.51100000000E-03 0.  1.
    9900012    2    1    2    0    0  0.31531799337E+02 -0.19795238700E+02 -0.16341988657E+02  0.50528850502E+02  0.29999971586E+02 0.  0.
         12    1    1    2    0    0 -0.31531799337E+02  0.19795238700E+02  0.16341988657E+02  0.40659149498E+02  0.00000000000E+00 0. -1.
         11    1    3    3    0    0  0.18983727348E+02 -0.30268291861E+01 -0.64539558657E+01  0.20277996585E+02  0.51100000000E-03 0. -1.
        -11    1    3    3    0    0  0.15192337666E+02 -0.93344805010E+01 -0.29958956712E+00  0.17833378933E+02  0.51100000000E-03 0.  1.
         12    1    3    3    0    0 -0.26442656763E+01 -0.74339290128E+01 -0.95884432237E+01  0.12417474984E+02  0.00000000000E+00 0. -1.
</event>
<event>
 7    1  0.2744502E-011  0.5052886E+02  0.7816164E-02  0.1300439E+00
        -11   -1    0    0    0    0  0.00000000000E+00  0.00000000000E+00  0.45593999997E+02  0.45594000000E+02  0.51100000000E-03 0.  1.
         11   -1    0    0    0    0 -0.00000000000E+00 -0.00000000000E+00 -0.45593999997E+02  0.45594000000E+02  0.51100000000E-03 0. -1.
    9900012    2    1    2    0    0 -0.31328334578E+02  0.86998505618E+01  0.24413386926E+02  0.50528863162E+02  0.30000010067E+02 0.  0.
         12    1    1    2    0    0  0.31328334578E+02 -0.86998505618E+01 -0.24413386926E+02  0.40659136838E+02  0.00000000000E+00 0. -1.
         11    1    3    3    0    0 -0.60934252749E+01  0.53548618389E+01 -0.12479485200E+01  0.82074205854E+01  0.51100000000E-03 0. -1.
        -11    1    3    3    0    0 -0.95256451079E+01 -0.92758921276E+01  0.12528213552E+02  0.18268448882E+02  0.51100000000E-03 0.  1.
         12    1    3    3    0    0 -0.15709264195E+02  0.12620880851E+02  0.13133121893E+02  0.24052993695E+02  0.00000000000E+00 0. -1.
</event>
<event>
 7    1  0.2744502E-011  0.5052886E+02  0.7816164E-02  0.1300439E+00
        -11   -1    0    0    0    0  0.00000000000E+00  0.00000000000E+00  0.45593999997E+02  0.45594000000E+02  0.51100000000E-03 0.  1.
         11   -1    0    0    0    0 -0.00000000000E+00 -0.00000000000E+00 -0.45593999997E+02  0.45594000000E+02  0.51100000000E-03 0. -1.
    9900012    2    1    2    0    0  0.28064993245E+02  0.25662817868E+02  0.14385467446E+02  0.50528859080E+02  0.29999997658E+02 0.  0.
         12    1    1    2    0    0 -0.28064993245E+02 -0.25662817868E+02 -0.14385467446E+02  0.40659140920E+02  0.00000000000E+00 0. -1.
         11    1    3    3    0    0  0.15570978280E+01  0.95471739200E+01 -0.52516767581E+01  0.11006961095E+02  0.51100000000E-03 0. -1.
        -11    1    3    3    0    0  0.12338742815E+02  0.15887504539E+02  0.12014182672E+02  0.23430705501E+02  0.51100000000E-03 0.  1.
        -12    1    3    3    0    0  0.14169152602E+02  0.22813940888E+00  0.76229615321E+01  0.16091192484E+02  0.00000000000E+00 0.  1.
</event>
<event>
 7    1  0.2744502E-011  0.5052887E+02  0.7816164E-02  0.1300439E+00
        -11   -1    0    0    0    0  0.00000000000E+00  0.00000000000E+00  0.45593999997E+02  0.45594000000E+02  0.51100000000E-03 0. -1.
         11   -1    0    0    0    0 -0.00000000000E+00 -0.00000000000E+00 -0.45593999997E+02  0.45594000000E+02  0.51100000000E-03 0.  1.
    9900012    2    1    2    0    0 -0.72187662804E+01  0.39977423093E+02 -0.16912226005E+01  0.50528866000E+02  0.30000018693E+02 0.  0.
         12    1    1    2    0    0  0.72187662804E+01 -0.39977423093E+02  0.16912226005E+01  0.40659134000E+02  0.00000000000E+00 0. -1.
         11    1    3    3    0    0  0.43982420098E+01  0.49421145330E+00  0.27015499147E+01  0.51852820502E+01  0.51100000000E-03 0. -1.
        -11    1    3    3    0    0  0.16161100436E+01  0.48280071307E+01 -0.64184006477E+01  0.81925168088E+01  0.51100000000E-03 0.  1.
         12    1    3    3    0    0 -0.13233118334E+02  0.34655204509E+02  0.20256281325E+01  0.37151067141E+02  0.00000000000E+00 0. -1.
</event>
<event>
 7    1  0.2744502E-011  0.5052887E+02  0.7816164E-02  0.1300439E+00
        -11   -1    0    0    0    0  0.00000000000E+00  0.00000000000E+00  0.45593999997E+02  0.45594000000E+02  0.51100000000E-03 0.  1.
         11   -1    0    0    0    0 -0.00000000000E+00 -0.00000000000E+00 -0.45593999997E+02  0.45594000000E+02  0.51100000000E-03 0. -1.
    9900012    2    1    2    0    0  0.25517011690E+02  0.26304529473E+02  0.17610189309E+02  0.50528869121E+02  0.30000028180E+02 0.  0.
         12    1    1    2    0    0 -0.25517011690E+02 -0.26304529473E+02 -0.17610189309E+02  0.40659130879E+02  0.00000000000E+00 0. -1.
         11    1    3    3    0    0  0.62606604123E+01  0.27192642764E+01 -0.31702096126E+01  0.75259880582E+01  0.51100000000E-03 0. -1.
        -11    1    3    3    0    0  0.55479907708E+01 -0.28100882748E+01  0.91577437330E+01  0.11069826929E+02  0.51100000000E-03 0.  1.
        -12    1    3    3    0    0  0.13708360507E+02  0.26395353471E+02  0.11622655188E+02  0.31933054133E+02  0.00000000000E+00 0.  1.
</event>
<event>
 7    1  0.2744502E-011  0.5052887E+02  0.7816164E-02  0.1300439E+00
        -11   -1    0    0    0    0  0.00000000000E+00  0.00000000000E+00  0.45593999997E+02  0.45594000000E+02  0.51100000000E-03 0.  1.
         11   -1    0    0    0    0 -0.00000000000E+00 -0.00000000000E+00 -0.45593999997E+02  0.45594000000E+02  0.51100000000E-03 0. -1.
    9900012    2    1    2    0    0 -0.88303109656E+01 -0.28623640904E+02  0.27493233652E+02  0.50528866869E+02  0.30000021335E+02 0.  0.
         12    1    1    2    0    0  0.88303109656E+01  0.28623640904E+02 -0.27493233652E+02  0.40659133131E+02  0.00000000000E+00 0. -1.
         11    1    3    3    0    0 -0.13506603353E+02 -0.79067872785E+01  0.74717208255E+01  0.17342786153E+02  0.51100000000E-03 0.  1.
        -11    1    3    3    0    0 -0.54509991196E+01 -0.11583582808E+02  0.89510493404E+01  0.15620949607E+02  0.51100000000E-03 0. -1.
         12    1    3    3    0    0  0.10127291507E+02 -0.91332708173E+01  0.11070463486E+02  0.17565131109E+02  0.00000000000E+00 0. -1.
</event>
<event>
 7    1  0.2744502E-011  0.5052874E+02  0.7816164E-02  0.1300439E+00
        -11   -1    0    0    0    0  0.00000000000E+00  0.00000000000E+00  0.45593999997E+02  0.45594000000E+02  0.51100000000E-03 0.  1.
         11   -1    0    0    0    0 -0.00000000000E+00 -0.00000000000E+00 -0.45593999997E+02  0.45594000000E+02  0.51100000000E-03 0. -1.
    9900012    2    1    2    0    0 -0.39598206171E+02 -0.41842039106E+01  0.82249506557E+01  0.50528741428E+02  0.29999640043E+02 0.  0.
         12    1    1    2    0    0  0.39598206171E+02  0.41842039106E+01 -0.82249506557E+01  0.40659258572E+02  0.00000000000E+00 0. -1.
         11    1    3    3    0    0 -0.33720587273E+02 -0.13433205356E+02  0.50133514592E+01  0.36642362168E+02  0.51100000000E-03 0.  1.
        -11    1    3    3    0    0 -0.63814899170E+01  0.38074630004E+01 -0.21853985183E+00  0.74342415880E+01  0.51100000000E-03 0. -1.
        -12    1    3    3    0    0  0.50387101861E+00  0.54415384448E+01  0.34301390484E+01  0.64521376722E+01  0.00000000000E+00 0.  1.
</event>
<event>
 7    1  0.2744502E-011  0.5052887E+02  0.7816164E-02  0.1300439E+00
        -11   -1    0    0    0    0  0.00000000000E+00  0.00000000000E+00  0.45593999997E+02  0.45594000000E+02  0.51100000000E-03 0.  1.
         11   -1    0    0    0    0 -0.00000000000E+00 -0.00000000000E+00 -0.45593999997E+02  0.45594000000E+02  0.51100000000E-03 0. -1.
    9900012    2    1    2    0    0 -0.63271814629E+00 -0.38619605711E+02  0.12700023407E+02  0.50528869758E+02  0.30000030116E+02 0.  0.
         12    1    1    2    0    0  0.63271814629E+00  0.38619605711E+02 -0.12700023407E+02  0.40659130242E+02  0.00000000000E+00 0. -1.
         11    1    3    3    0    0  0.46053407991E+01 -0.17666936052E+01 -0.26524954414E+01  0.56005448394E+01  0.51100000000E-03 0. -1.
        -11    1    3    3    0    0 -0.30443500942E+01  0.15883103448E+01 -0.11066158240E+00  0.34355557766E+01  0.51100000000E-03 0.  1.
        -12    1    3    3    0    0 -0.21937088512E+01 -0.38441222451E+02  0.15463180431E+02  0.41492769142E+02  0.00000000000E+00 0.  1.
</event>
<event>
 7    1  0.2744502E-011  0.5052886E+02  0.7816164E-02  0.1300439E+00
        -11   -1    0    0    0    0  0.00000000000E+00  0.00000000000E+00  0.45593999997E+02  0.45594000000E+02  0.51100000000E-03 0.  1.
         11   -1    0    0    0    0 -0.00000000000E+00 -0.00000000000E+00 -0.45593999997E+02  0.45594000000E+02  0.51100000000E-03 0. -1.
    9900012    2    1    2    0    0 -0.10221857636E+02  0.65004268123E+01  0.38812674905E+02  0.50528860122E+02  0.30000000828E+02 0.  0.
         12    1    1    2    0    0  0.10221857636E+02 -0.65004268123E+01 -0.38812674905E+02  0.40659139878E+02  0.00000000000E+00 0. -1.
         11    1    3    3    0    0 -0.11249440562E+02  0.86082158039E+01  0.83559484611E+01  0.16446068443E+02  0.51100000000E-03 0. -1.
        -11    1    3    3    0    0 -0.41582584284E+01 -0.50263489361E+01  0.58353796303E+01  0.87525397729E+01  0.51100000000E-03 0.  1.
         12    1    3    3    0    0  0.51858413543E+01  0.29185599445E+01  0.24621346814E+02  0.25330251906E+02  0.00000000000E+00 0. -1.
</event>
<event>
 7    1  0.2744502E-011  0.5052887E+02  0.7816164E-02  0.1300439E+00
        -11   -1    0    0    0    0  0.00000000000E+00  0.00000000000E+00  0.45593999997E+02  0.45594000000E+02  0.51100000000E-03 0.  1.
         11   -1    0    0    0    0 -0.00000000000E+00 -0.00000000000E+00 -0.45593999997E+02  0.45594000000E+02  0.51100000000E-03 0. -1.
    9900012    2    1    2    0    0  0.62698529471E+01  0.13798210168E+02  0.37728816366E+02  0.50528865182E+02  0.30000016206E+02 0.  0.
         12    1    1    2    0    0 -0.62698529471E+01 -0.13798210168E+02 -0.37728816366E+02  0.40659134818E+02  0.00000000000E+00 0. -1.
         11    1    3    3    0    0 -0.36024703644E+01  0.63740188878E+01 -0.16332746301E+01  0.75015662223E+01  0.51100000000E-03 0. -1.
        -11    1    3    3    0    0 -0.14201004811E+01  0.38086931924E+01  0.38911984632E+01  0.56271000481E+01  0.51100000000E-03 0.  1.
         12    1    3    3    0    0  0.11292423793E+02  0.36154980880E+01  0.35470892533E+02  0.37400198911E+02  0.00000000000E+00 0. -1.
</event>
<event>
 7    1  0.2744502E-011  0.5052886E+02  0.7816164E-02  0.1300439E+00
        -11   -1    0    0    0    0  0.00000000000E+00  0.00000000000E+00  0.45593999997E+02  0.45594000000E+02  0.51100000000E-03 0. -1.
         11   -1    0    0    0    0 -0.00000000000E+00 -0.00000000000E+00 -0.45593999997E+02  0.45594000000E+02  0.51100000000E-03 0.  1.
    9900012    2    1    2    0    0 -0.54070932207E+01  0.38333826489E+02 -0.12427649738E+02  0.50528863408E+02  0.30000010815E+02 0.  0.
         12    1    1    2    0    0  0.54070932207E+01 -0.38333826489E+02  0.12427649738E+02  0.40659136592E+02  0.00000000000E+00 0. -1.
         11    1    3    3    0    0 -0.73139012151E+01  0.42434589105E+01 -0.35324266224E+01  0.91639583485E+01  0.51100000000E-03 0.  1.
        -11    1    3    3    0    0 -0.77384845013E+01  0.10346542634E+02  0.27585747415E+01  0.13211541232E+02  0.51100000000E-03 0. -1.
        -12    1    3    3    0    0  0.96452924956E+01  0.23743824945E+02 -0.11653797857E+02  0.28153363828E+02  0.00000000000E+00 0.  1.
</event>
<event>
 7    1  0.2744502E-011  0.5052886E+02  0.7816164E-02  0.1300439E+00
        -11   -1    0    0    0    0  0.00000000000E+00  0.00000000000E+00  0.45593999997E+02  0.45594000000E+02  0.51100000000E-03 0.  1.
         11   -1    0    0    0    0 -0.00000000000E+00 -0.00000000000E+00 -0.45593999997E+02  0.45594000000E+02  0.51100000000E-03 0. -1.
    9900012    2    1    2    0    0 -0.12715391150E+02 -0.20075929325E+02  0.32991533611E+02  0.50528863261E+02  0.30000010369E+02 0.  0.
         12    1    1    2    0    0  0.12715391150E+02  0.20075929325E+02 -0.32991533611E+02  0.40659136739E+02  0.00000000000E+00 0. -1.
         11    1    3    3    0    0  0.34885193297E+00 -0.78773661773E+01  0.59813445824E+01  0.98970237363E+01  0.51100000000E-03 0. -1.
        -11    1    3    3    0    0 -0.98248956679E+01 -0.16748445327E+02  0.28828534065E+02  0.34758069169E+02  0.51100000000E-03 0.  1.
         12    1    3    3    0    0 -0.32393474148E+01  0.45498821794E+01 -0.18183450367E+01  0.58737703557E+01  0.00000000000E+00 0. -1.
</event>
<event>
 7    1  0.2744502E-011  0.5052886E+02  0.7816164E-02  0.1300439E+00
        -11   -1    0    0    0    0  0.00000000000E+00  0.00000000000E+00  0.45593999997E+02  0.45594000000E+02  0.51100000000E-03 0.  1.
         11   -1    0    0    0    0 -0.00000000000E+00 -0.00000000000E+00 -0.45593999997E+02  0.45594000000E+02  0.51100000000E-03 0. -1.
    9900012    2    1    2    0    0 -0.33643972575E+02 -0.95032608654E+01  0.20759015095E+02  0.50528861231E+02  0.30000004199E+02 0.  0.
         12    1    1    2    0    0  0.33643972575E+02  0.95032608654E+01 -0.20759015095E+02  0.40659138769E+02  0.00000000000E+00 0. -1.
         11    1    3    3    0    0 -0.82414673092E+01  0.48837565182E+01  0.40759823861E+01  0.10410883431E+02  0.51100000000E-03 0. -1.
        -11    1    3    3    0    0 -0.37008044249E+01  0.27257645800E+01  0.10973554596E+02  0.11897253745E+02  0.51100000000E-03 0.  1.
        -12    1    3    3    0    0 -0.21701700841E+02 -0.17112781964E+02  0.57094781129E+01  0.28220724056E+02  0.00000000000E+00 0.  1.
</event>
<event>
 7    1  0.2744502E-011  0.5052886E+02  0.7816164E-02  0.1300439E+00
        -11   -1    0    0    0    0  0.00000000000E+00  0.00000000000E+00  0.45593999997E+02  0.45594000000E+02  0.51100000000E-03 0.  1.
         11   -1    0    0    0    0 -0.00000000000E+00 -0.00000000000E+00 -0.45593999997E+02  0.45594000000E+02  0.51100000000E-03 0. -1.
    9900012    2    1    2    0    0  0.26673755055E+02  0.18620084759E+02  0.24391983196E+02  0.50528860690E+02  0.30000002555E+02 0.  0.
         12    1    1    2    0    0 -0.26673755055E+02 -0.18620084759E+02 -0.24391983196E+02  0.40659139310E+02  0.00000000000E+00 0. -1.
         11    1    3    3    0    0  0.11065430720E+02  0.71782146024E+01  0.17573550269E+02  0.21972714698E+02  0.51100000000E-03 0. -1.
        -11    1    3    3    0    0  0.84445525005E+01  0.16775756776E+02  0.50933644101E+01  0.19459672238E+02  0.51100000000E-03 0.  1.
         12    1    3    3    0    0  0.71637718352E+01 -0.53338866196E+01  0.17250685168E+01  0.90964737544E+01  0.00000000000E+00 0. -1.
</event>
<event>
 7    1  0.2744502E-011  0.5052891E+02  0.7816164E-02  0.1300439E+00
        -11   -1    0    0    0    0  0.00000000000E+00  0.00000000000E+00  0.45593999997E+02  0.45594000000E+02  0.51100000000E-03 0.  1.
         11   -1    0    0    0    0 -0.00000000000E+00 -0.00000000000E+00 -0.45593999997E+02  0.45594000000E+02  0.51100000000E-03 0. -1.
    9900012    2    1    2    0    0  0.12117897471E+02  0.35453357182E+02  0.15791698736E+02  0.50528908476E+02  0.30000147803E+02 0.  0.
         12    1    1    2    0    0 -0.12117897471E+02 -0.35453357182E+02 -0.15791698736E+02  0.40659091524E+02  0.00000000000E+00 0. -1.
         11    1    3    3    0    0 -0.17611644117E+01 -0.14873968028E+01 -0.23732700166E+01  0.33085435114E+01  0.51100000000E-03 0. -1.
        -11    1    3    3    0    0 -0.10163030041E+01  0.19990928980E+02  0.13596368245E+02  0.24197754916E+02  0.51100000000E-03 0.  1.
         12    1    3    3    0    0  0.14895364887E+02  0.16949825005E+02  0.45686005075E+01  0.23022610048E+02  0.00000000000E+00 0. -1.
</event>
<event>
 7    1  0.2744502E-011  0.5052886E+02  0.7816164E-02  0.1300439E+00
        -11   -1    0    0    0    0  0.00000000000E+00  0.00000000000E+00  0.45593999997E+02  0.45594000000E+02  0.51100000000E-03 0. -1.
         11   -1    0    0    0    0 -0.00000000000E+00 -0.00000000000E+00 -0.45593999997E+02  0.45594000000E+02  0.51100000000E-03 0.  1.
    9900012    2    1    2    0    0  0.29619659587E+02 -0.23594995847E+02 -0.14802626883E+02  0.50528858030E+02  0.29999994469E+02 0.  0.
         12    1    1    2    0    0 -0.29619659587E+02  0.23594995847E+02  0.14802626883E+02  0.40659141970E+02  0.00000000000E+00 0. -1.
         11    1    3    3    0    0  0.19880903123E+01  0.17864040453E+01 -0.43028020179E+01  0.50653576349E+01  0.51100000000E-03 0. -1.
        -11    1    3    3    0    0  0.24466550869E+02 -0.19834728023E+02 -0.17464318539E+02  0.36014316174E+02  0.51100000000E-03 0.  1.
         12    1    3    3    0    0  0.31650184058E+01 -0.55466718685E+01  0.69644936734E+01  0.94491842215E+01  0.00000000000E+00 0. -1.
</event>
<event>
 7    1  0.2744502E-011  0.5052886E+02  0.7816164E-02  0.1300439E+00
        -11   -1    0    0    0    0  0.00000000000E+00  0.00000000000E+00  0.45593999997E+02  0.45594000000E+02  0.51100000000E-03 0.  1.
         11   -1    0    0    0    0 -0.00000000000E+00 -0.00000000000E+00 -0.45593999997E+02  0.45594000000E+02  0.51100000000E-03 0. -1.
    9900012    2    1    2    0    0  0.28491950838E+02 -0.19046965178E+01  0.28943857139E+02  0.50528855918E+02  0.29999988048E+02 0.  0.
         12    1    1    2    0    0 -0.28491950838E+02  0.19046965178E+01 -0.28943857139E+02  0.40659144082E+02  0.00000000000E+00 0. -1.
         11    1    3    3    0    0 -0.43984196015E+01  0.13532445562E+01  0.16036160028E+01  0.48732894810E+01  0.51100000000E-03 0. -1.
        -11    1    3    3    0    0  0.10092486489E+02 -0.51197857784E+01  0.19538508070E+01  0.11484251094E+02  0.51100000000E-03 0.  1.
        -12    1    3    3    0    0  0.22797883951E+02  0.18618447044E+01  0.25386390329E+02  0.34171315343E+02  0.00000000000E+00 0.  1.
</event>
<event>
 7    1  0.2744502E-011  0.5052887E+02  0.7816164E-02  0.1300439E+00
        -11   -1    0    0    0    0  0.00000000000E+00  0.00000000000E+00  0.45593999997E+02  0.45594000000E+02  0.51100000000E-03 0. -1.
         11   -1    0    0    0    0 -0.00000000000E+00 -0.00000000000E+00 -0.45593999997E+02  0.45594000000E+02  0.51100000000E-03 0.  1.
    9900012    2    1    2    0    0  0.20274647523E+02  0.20565825932E+02 -0.28620802296E+02  0.50528869998E+02  0.30000030847E+02 0.  0.
         12    1    1    2    0    0 -0.20274647523E+02 -0.20565825932E+02  0.28620802296E+02  0.40659130002E+02  0.00000000000E+00 0. -1.
         11    1    3    3    0    0  0.15780301646E+02  0.22659589958E+02 -0.10140330886E+02  0.29416003261E+02  0.51100000000E-03 0. -1.
        -11    1    3    3    0    0  0.11238817542E+01  0.20696801389E+01 -0.57642193631E+00  0.24246543227E+01  0.51100000000E-03 0.  1.
        -12    1    3    3    0    0  0.33704641230E+01 -0.41634441652E+01 -0.17904049473E+02  0.18688212415E+02  0.00000000000E+00 0.  1.
</event>
<event>
 7    1  0.2744502E-011  0.5052885E+02  0.7816164E-02  0.1300439E+00
        -11   -1    0    0    0    0  0.00000000000E+00  0.00000000000E+00  0.45593999997E+02  0.45594000000E+02  0.51100000000E-03 0.  1.
         11   -1    0    0    0    0 -0.00000000000E+00 -0.00000000000E+00 -0.45593999997E+02  0.45594000000E+02  0.51100000000E-03 0. -1.
    9900012    2    1    2    0    0  0.13460604305E+01  0.34006627034E+02  0.22246431436E+02  0.50528852536E+02  0.29999977767E+02 0.  0.
         12    1    1    2    0    0 -0.13460604305E+01 -0.34006627034E+02 -0.22246431436E+02  0.40659147464E+02  0.00000000000E+00 0. -1.
         11    1    3    3    0    0 -0.44377528460E+01  0.14182858998E+02  0.41667231198E+01  0.15434011841E+02  0.51100000000E-03 0. -1.
        -11    1    3    3    0    0 -0.46918497618E+01  0.17584274877E+02  0.65134471349E+01  0.19329903543E+02  0.51100000000E-03 0.  1.
         12    1    3    3    0    0  0.10475663038E+02  0.22394931588E+01  0.11566261181E+02  0.15764937152E+02  0.00000000000E+00 0. -1.
</event>
<event>
 7    1  0.2744502E-011  0.5052886E+02  0.7816164E-02  0.1300439E+00
        -11   -1    0    0    0    0  0.00000000000E+00  0.00000000000E+00  0.45593999997E+02  0.45594000000E+02  0.51100000000E-03 0.  1.
         11   -1    0    0    0    0 -0.00000000000E+00 -0.00000000000E+00 -0.45593999997E+02  0.45594000000E+02  0.51100000000E-03 0. -1.
    9900012    2    1    2    0    0  0.17183528392E+02  0.57668705385E+01  0.36395533767E+02  0.50528864225E+02  0.30000013298E+02 0.  0.
         12    1    1    2    0    0 -0.17183528392E+02 -0.57668705385E+01 -0.36395533767E+02  0.40659135775E+02  0.00000000000E+00 0. -1.
         11    1    3    3    0    0  0.95041141880E+01  0.93581140953E+01  0.16574037055E+02  0.21274425738E+02  0.51100000000E-03 0. -1.
        -11    1    3    3    0    0  0.11298214464E+02  0.47076653190E+01  0.13438042366E+02  0.18176708881E+02  0.51100000000E-03 0.  1.
         12    1    3    3    0    0 -0.36188002600E+01 -0.82989088759E+01  0.63834543454E+01  0.11077729606E+02  0.00000000000E+00 0. -1.
</event>
<event>
 7    1  0.2744502E-011  0.5052885E+02  0.7816164E-02  0.1300439E+00
        -11   -1    0    0    0    0  0.00000000000E+00  0.00000000000E+00  0.45593999997E+02  0.45594000000E+02  0.51100000000E-03 0.  1.
         11   -1    0    0    0    0 -0.00000000000E+00 -0.00000000000E+00 -0.45593999997E+02  0.45594000000E+02  0.51100000000E-03 0. -1.
    9900012    2    1    2    0    0  0.16247712519E+02 -0.35653678613E+02  0.10862468954E+02  0.50528853520E+02  0.29999980760E+02 0.  0.
         12    1    1    2    0    0 -0.16247712519E+02  0.35653678613E+02 -0.10862468954E+02  0.40659146480E+02  0.00000000000E+00 0. -1.
         11    1    3    3    0    0  0.85482243696E+01 -0.10340065106E+02  0.33321685345E+01  0.13823618689E+02  0.51100000000E-03 0. -1.
        -11    1    3    3    0    0  0.10861363651E+02 -0.19810165647E+02 -0.45621008644E+01  0.23048311172E+02  0.51100000000E-03 0.  1.
         12    1    3    3    0    0 -0.31618755016E+01 -0.55034478601E+01  0.12092401283E+02  0.13656923659E+02  0.00000000000E+00 0. -1.
</event>
<event>
 7    1  0.2744502E-011  0.5052887E+02  0.7816164E-02  0.1300439E+00
        -11   -1    0    0    0    0  0.00000000000E+00  0.00000000000E+00  0.45593999997E+02  0.45594000000E+02  0.51100000000E-03 0.  1.
         11   -1    0    0    0    0 -0.00000000000E+00 -0.00000000000E+00 -0.45593999997E+02  0.45594000000E+02  0.51100000000E-03 0. -1.
    9900012    2    1    2    0    0  0.12625449274E+02  0.22907168901E+02  0.31129156182E+02  0.50528871615E+02  0.30000035761E+02 0.  0.
         12    1    1    2    0    0 -0.12625449274E+02 -0.22907168901E+02 -0.31129156182E+02  0.40659128385E+02  0.00000000000E+00 0. -1.
         11    1    3    3    0    0  0.17310167191E+02  0.10093970381E+02  0.89023024813E+01  0.21926721506E+02  0.51100000000E-03 0. -1.
        -11    1    3    3    0    0 -0.25476511802E+01 -0.37250392623E+00 -0.10869855270E+00  0.25770334394E+01  0.51100000000E-03 0.  1.
        -12    1    3    3    0    0 -0.21370667370E+01  0.13185702446E+02  0.22335552253E+02  0.26025116670E+02  0.00000000000E+00 0.  1.
</event>
<event>
 7    1  0.2744502E-011  0.5052885E+02  0.7816164E-02  0.1300439E+00
        -11   -1    0    0    0    0  0.00000000000E+00  0.00000000000E+00  0.45593999997E+02  0.45594000000E+02  0.51100000000E-03 0. -1.
         11   -1    0    0    0    0 -0.00000000000E+00 -0.00000000000E+00 -0.45593999997E+02  0.45594000000E+02  0.51100000000E-03 0.  1.
    9900012    2    1    2    0    0 -0.42004856023E+01 -0.37890521281E+02 -0.14136143821E+02  0.50528852882E+02  0.29999978819E+02 0.  0.
         12    1    1    2    0    0  0.42004856023E+01  0.37890521281E+02  0.14136143821E+02  0.40659147118E+02  0.00000000000E+00 0. -1.
         11    1    3    3    0    0 -0.11624640118E+02 -0.29089607009E+02 -0.14600469166E+02  0.34561701259E+02  0.51100000000E-03 0. -1.
        -11    1    3    3    0    0 -0.17922267143E+01 -0.58059804560E+01  0.13868267872E+01  0.62325576170E+01  0.51100000000E-03 0.  1.
        -12    1    3    3    0    0  0.92163812297E+01 -0.29949338163E+01 -0.92250144240E+00  0.97345940052E+01  0.00000000000E+00 0.  1.
</event>
<event>
 7    1  0.2744502E-011  0.5052886E+02  0.7816164E-02  0.1300439E+00
        -11   -1    0    0    0    0  0.00000000000E+00  0.00000000000E+00  0.45593999997E+02  0.45594000000E+02  0.51100000000E-03 0. -1.
         11   -1    0    0    0    0 -0.00000000000E+00 -0.00000000000E+00 -0.45593999997E+02  0.45594000000E+02  0.51100000000E-03 0.  1.
    9900012    2    1    2    0    0 -0.32533869269E+02 -0.23293553978E+02  0.72196687794E+01  0.50528856824E+02  0.29999990802E+02 0.  0.
         12    1    1    2    0    0  0.32533869269E+02  0.23293553978E+02 -0.72196687794E+01  0.40659143176E+02  0.00000000000E+00 0. -1.
         11    1    3    3    0    0  0.71398150625E+00 -0.85434875990E+01  0.29182556880E+01  0.90563329481E+01  0.51100000000E-03 0. -1.
        -11    1    3    3    0    0 -0.69321053839E+01 -0.13134725960E+02  0.23326869560E+01  0.15033846474E+02  0.51100000000E-03 0.  1.
         12    1    3    3    0    0 -0.26315745391E+02 -0.16153404192E+01  0.19687261353E+01  0.26438677402E+02  0.00000000000E+00 0. -1.
</event>
<event>
 7    1  0.2744502E-011  0.5052887E+02  0.7816164E-02  0.1300439E+00
        -11   -1    0    0    0    0  0.00000000000E+00  0.00000000000E+00  0.45593999997E+02  0.45594000000E+02  0.51100000000E-03 0.  1.
         11   -1    0    0    0    0 -0.00000000000E+00 -0.00000000000E+00 -0.45593999997E+02  0.45594000000E+02  0.51100000000E-03 0. -1.
    9900012    2    1    2    0    0 -0.40620618990E+02  0.17647261349E+01 -0.12729025501E+00  0.50528866361E+02  0.30000019791E+02 0.  0.
         12    1    1    2    0    0  0.40620618990E+02 -0.17647261349E+01  0.12729025501E+00  0.40659133639E+02  0.00000000000E+00 0. -1.
         11    1    3    3    0    0 -0.17131287906E+02 -0.31512910735E+01  0.88307090687E+01  0.19529287844E+02  0.51100000000E-03 0. -1.
        -11    1    3    3    0    0 -0.14926986312E+01  0.18573494263E+01  0.44570609700E+01  0.50540368861E+01  0.51100000000E-03 0.  1.
         12    1    3    3    0    0 -0.21996632453E+02  0.30586677821E+01 -0.13415060294E+02  0.25945541631E+02  0.00000000000E+00 0. -1.
</event>
<event>
 7    1  0.2744502E-011  0.5052887E+02  0.7816164E-02  0.1300439E+00
        -11   -1    0    0    0    0  0.00000000000E+00  0.00000000000E+00  0.45593999997E+02  0.45594000000E+02  0.51100000000E-03 0. -1.
         11   -1    0    0    0    0 -0.00000000000E+00 -0.00000000000E+00 -0.45593999997E+02  0.45594000000E+02  0.51100000000E-03 0.  1.
    9900012    2    1    2    0    0  0.32319564275E+01 -0.17976552909E+02 -0.36325793258E+02  0.50528865077E+02  0.30000015887E+02 0.  0.
         12    1    1    2    0    0 -0.32319564275E+01  0.17976552909E+02  0.36325793258E+02  0.40659134923E+02  0.00000000000E+00 0. -1.
         11    1    3    3    0    0  0.33936886714E+01  0.18700532109E+01 -0.28995433873E+01  0.48395840654E+01  0.51100000000E-03 0.  1.
        -11    1    3    3    0    0  0.96530588716E+01 -0.78308378989E+00 -0.96237284331E+01  0.13653238261E+02  0.51100000000E-03 0. -1.
        -12    1    3    3    0    0 -0.98147911156E+01 -0.19063522330E+02 -0.23802521438E+02  0.32036042750E+02  0.00000000000E+00 0.  1.
</event>
<event>
 7    1  0.2744502E-011  0.5052885E+02  0.7816164E-02  0.1300439E+00
        -11   -1    0    0    0    0  0.00000000000E+00  0.00000000000E+00  0.45593999997E+02  0.45594000000E+02  0.51100000000E-03 0. -1.
         11   -1    0    0    0    0 -0.00000000000E+00 -0.00000000000E+00 -0.45593999997E+02  0.45594000000E+02  0.51100000000E-03 0.  1.
    9900012    2    1    2    0    0 -0.12258314043E+02  0.33502566030E+02 -0.19505855366E+02  0.50528848665E+02  0.29999966002E+02 0.  0.
         12    1    1    2    0    0  0.12258314043E+02 -0.33502566030E+02  0.19505855366E+02  0.40659151335E+02  0.00000000000E+00 0. -1.
         11    1    3    3    0    0 -0.29253279296E+01  0.29720699104E+01 -0.20792835692E+01  0.46598458634E+01  0.51100000000E-03 0.  1.
        -11    1    3    3    0    0  0.34567650541E+01 -0.39922013514E+01 -0.36894322403E+00  0.52936769483E+01  0.51100000000E-03 0. -1.
         12    1    3    3    0    0 -0.12789751167E+02  0.34522697471E+02 -0.17057628573E+02  0.40575325853E+02  0.00000000000E+00 0. -1.
</event>
<event>
 7    1  0.2744502E-011  0.5052874E+02  0.7816164E-02  0.1300439E+00
        -11   -1    0    0    0    0  0.00000000000E+00  0.00000000000E+00  0.45593999997E+02  0.45594000000E+02  0.51100000000E-03 0.  1.
         11   -1    0    0    0    0 -0.00000000000E+00 -0.00000000000E+00 -0.45593999997E+02  0.45594000000E+02  0.51100000000E-03 0. -1.
    9900012    2    1    2    0    0 -0.19601835212E+02 -0.98015599988E+01  0.34247234981E+02  0.50528737513E+02  0.29999628143E+02 0.  0.
         12    1    1    2    0    0  0.19601835212E+02  0.98015599988E+01 -0.34247234981E+02  0.40659262487E+02  0.00000000000E+00 0. -1.
         11    1    3    3    0    0 -0.11573473887E+01 -0.86025754860E+01  0.12267466386E+02  0.15027790582E+02  0.51100000000E-03 0. -1.
        -11    1    3    3    0    0  0.45287530565E+01  0.13081039915E+01  0.45891129046E+01  0.65788067164E+01  0.51100000000E-03 0.  1.
         12    1    3    3    0    0 -0.22973240880E+02 -0.25070885044E+01  0.17390655690E+02  0.28922140215E+02  0.00000000000E+00 0. -1.
</event>
<event>
 7    1  0.2744502E-011  0.5052888E+02  0.7816164E-02  0.1300439E+00
        -11   -1    0    0    0    0  0.00000000000E+00  0.00000000000E+00  0.45593999997E+02  0.45594000000E+02  0.51100000000E-03 0.  1.
         11   -1    0    0    0    0 -0.00000000000E+00 -0.00000000000E+00 -0.45593999997E+02  0.45594000000E+02  0.51100000000E-03 0. -1.
    9900012    2    1    2    0    0  0.11869906180E+01 -0.25149426207E+02  0.31925868996E+02  0.50528884215E+02  0.30000074059E+02 0.  0.
         12    1    1    2    0    0 -0.11869906180E+01  0.25149426207E+02 -0.31925868996E+02  0.40659115785E+02  0.00000000000E+00 0. -1.
         11    1    3    3    0    0 -0.14396408517E+01 -0.88065460747E+01 -0.14955327586E+01  0.90478968849E+01  0.51100000000E-03 0. -1.
        -11    1    3    3    0    0  0.30721153070E+01  0.26878880354E+01  0.15677089295E+01  0.43726817972E+01  0.51100000000E-03 0.  1.
        -12    1    3    3    0    0 -0.44548383726E+00 -0.19030768168E+02  0.31853692825E+02  0.37108305533E+02  0.00000000000E+00 0.  1.
</event>
<event>
 7    1  0.2744502E-011  0.5052887E+02  0.7816164E-02  0.1300439E+00
        -11   -1    0    0    0    0  0.00000000000E+00  0.00000000000E+00  0.45593999997E+02  0.45594000000E+02  0.51100000000E-03 0.  1.
         11   -1    0    0    0    0 -0.00000000000E+00 -0.00000000000E+00 -0.45593999997E+02  0.45594000000E+02  0.51100000000E-03 0. -1.
    9900012    2    1    2    0    0 -0.19971515507E+02 -0.15479583932E+02  0.31854140959E+02  0.50528865152E+02  0.30000016117E+02 0.  0.
         12    1    1    2    0    0  0.19971515507E+02  0.15479583932E+02 -0.31854140959E+02  0.40659134848E+02  0.00000000000E+00 0. -1.
         11    1    3    3    0    0 -0.14454207045E+02 -0.19185632949E+02  0.27968071596E+02  0.36867677470E+02  0.51100000000E-03 0. -1.
        -11    1    3    3    0    0  0.12195152324E+01 -0.14590562106E+01  0.47614916171E+01  0.51271693076E+01  0.51100000000E-03 0.  1.
         12    1    3    3    0    0 -0.67368236943E+01  0.51651052273E+01 -0.87542225457E+00  0.85340183747E+01  0.00000000000E+00 0. -1.
</event>
<event>
 7    1  0.2744502E-011  0.5052886E+02  0.7816164E-02  0.1300439E+00
        -11   -1    0    0    0    0  0.00000000000E+00  0.00000000000E+00  0.45593999997E+02  0.45594000000E+02  0.51100000000E-03 0.  1.
         11   -1    0    0    0    0 -0.00000000000E+00 -0.00000000000E+00 -0.45593999997E+02  0.45594000000E+02  0.51100000000E-03 0. -1.
    9900012    2    1    2    0    0 -0.86082353812E+01 -0.29089101364E+02  0.27071903539E+02  0.50528862088E+02  0.30000006802E+02 0.  0.
         12    1    1    2    0    0  0.86082353812E+01  0.29089101364E+02 -0.27071903539E+02  0.40659137912E+02  0.00000000000E+00 0. -1.
         11    1    3    3    0    0  0.21367834682E+01 -0.12672432110E+02  0.16774140923E+02  0.21131213480E+02  0.51100000000E-03 0. -1.
        -11    1    3    3    0    0 -0.44172188417E+01 -0.12724198469E+02  0.15407962419E+02  0.20465149771E+02  0.51100000000E-03 0.  1.
         12    1    3    3    0    0 -0.63278000077E+01 -0.36924707854E+01 -0.51101998037E+01  0.89324988370E+01  0.00000000000E+00 0. -1.
</event>
<event>
 7    1  0.2744502E-011  0.5052886E+02  0.7816164E-02  0.1300439E+00
        -11   -1    0    0    0    0  0.00000000000E+00  0.00000000000E+00  0.45593999997E+02  0.45594000000E+02  0.51100000000E-03 0.  1.
         11   -1    0    0    0    0 -0.00000000000E+00 -0.00000000000E+00 -0.45593999997E+02  0.45594000000E+02  0.51100000000E-03 0. -1.
    9900012    2    1    2    0    0 -0.29894965836E+02  0.26680092039E+01  0.27428786660E+02  0.50528860891E+02  0.30000003163E+02 0.  0.
         12    1    1    2    0    0  0.29894965836E+02 -0.26680092039E+01 -0.27428786660E+02  0.40659139109E+02  0.00000000000E+00 0. -1.
         11    1    3    3    0    0 -0.15419917743E+02  0.12131463837E+02  0.62852634579E+01  0.20602204130E+02  0.51100000000E-03 0. -1.
        -11    1    3    3    0    0  0.69042753533E+00  0.13638345505E+01 -0.25748280781E+00  0.15501717712E+01  0.51100000000E-03 0.  1.
        -12    1    3    3    0    0 -0.15165475629E+02 -0.10827289183E+02  0.21401006010E+02  0.28376484989E+02  0.00000000000E+00 0.  1.
</event>
<event>
 7    1  0.2744502E-011  0.5052886E+02  0.7816164E-02  0.1300439E+00
        -11   -1    0    0    0    0  0.00000000000E+00  0.00000000000E+00  0.45593999997E+02  0.45594000000E+02  0.51100000000E-03 0. -1.
         11   -1    0    0    0    0 -0.00000000000E+00 -0.00000000000E+00 -0.45593999997E+02  0.45594000000E+02  0.51100000000E-03 0.  1.
    9900012    2    1    2    0    0  0.35293085770E+02 -0.16945812591E+02 -0.10972836822E+02  0.50528860615E+02  0.30000002326E+02 0.  0.
         12    1    1    2    0    0 -0.35293085770E+02  0.16945812591E+02  0.10972836822E+02  0.40659139385E+02  0.00000000000E+00 0. -1.
         11    1    3    3    0    0  0.84936517345E+01 -0.87505492266E+01 -0.11367836525E+02  0.16671590778E+02  0.51100000000E-03 0. -1.
        -11    1    3    3    0    0  0.10526792182E+02 -0.11015113416E+01 -0.88914555114E+01  0.13823337595E+02  0.51100000000E-03 0.  1.
        -12    1    3    3    0    0  0.16272641854E+02 -0.70937520230E+01  0.92864552138E+01  0.20033932242E+02  0.00000000000E+00 0.  1.
</event>
<event>
 7    1  0.2744502E-011  0.5052886E+02  0.7816164E-02  0.1300439E+00
        -11   -1    0    0    0    0  0.00000000000E+00  0.00000000000E+00  0.45593999997E+02  0.45594000000E+02  0.51100000000E-03 0.  1.
         11   -1    0    0    0    0 -0.00000000000E+00 -0.00000000000E+00 -0.45593999997E+02  0.45594000000E+02  0.51100000000E-03 0. -1.
    9900012    2    1    2    0    0 -0.33731236376E+02 -0.66876839978E-01  0.22701650656E+02  0.50528859300E+02  0.29999998328E+02 0.  0.
         12    1    1    2    0    0  0.33731236376E+02  0.66876839978E-01 -0.22701650656E+02  0.40659140700E+02  0.00000000000E+00 0. -1.
         11    1    3    3    0    0 -0.67047576198E+01  0.70323454933E+01 -0.25117660653E+01  0.10035767380E+02  0.51100000000E-03 0. -1.
        -11    1    3    3    0    0 -0.18815961183E+02 -0.22345204747E+01  0.75119637136E+01  0.20382911374E+02  0.51100000000E-03 0.  1.
         12    1    3    3    0    0 -0.82105175734E+01 -0.48647018586E+01  0.17701453008E+02  0.20110180546E+02  0.00000000000E+00 0. -1.
</event>
<event>
 7    1  0.2744502E-011  0.5052891E+02  0.7816164E-02  0.1300439E+00
        -11   -1    0    0    0    0  0.00000000000E+00  0.00000000000E+00  0.45593999997E+02  0.45594000000E+02  0.51100000000E-03 0.  1.
         11   -1    0    0    0    0 -0.00000000000E+00 -0.00000000000E+00 -0.45593999997E+02  0.45594000000E+02  0.51100000000E-03 0. -1.
    9900012    2    1    2    0    0 -0.40519866237E+02 -0.22648129991E+01  0.24844766393E+01  0.50528910463E+02  0.30000153844E+02 0.  0.
         12    1    1    2    0    0  0.40519866237E+02  0.22648129991E+01 -0.24844766393E+01  0.40659089537E+02  0.00000000000E+00 0. -1.
         11    1    3    3    0    0 -0.16912183460E+02 -0.38624237817E+01  0.68046015526E+00  0.17360970398E+02  0.51100000000E-03 0. -1.
        -11    1    3    3    0    0 -0.21051510684E+02 -0.77797551380E+01 -0.24142358179E+01  0.22572532577E+02  0.51100000000E-03 0.  1.
         12    1    3    3    0    0 -0.25561720929E+01  0.93773659206E+01  0.42182523020E+01  0.10595407489E+02  0.00000000000E+00 0. -1.
</event>
<event>
 7    1  0.2744502E-011  0.5052890E+02  0.7816164E-02  0.1300439E+00
        -11   -1    0    0    0    0  0.00000000000E+00  0.00000000000E+00  0.45593999997E+02  0.45594000000E+02  0.51100000000E-03 0.  1.
         11   -1    0    0    0    0 -0.00000000000E+00 -0.00000000000E+00 -0.45593999997E+02  0.45594000000E+02  0.51100000000E-03 0. -1.
    9900012    2    1    2    0    0  0.17192381563E+02 -0.21774537163E+02  0.29722947401E+02  0.50528904404E+02  0.30000135427E+02 0.  0.
         12    1    1    2    0    0 -0.17192381563E+02  0.21774537163E+02 -0.29722947401E+02  0.40659095596E+02  0.00000000000E+00 0. -1.
         11    1    3    3    0    0 -0.12021986153E+01 -0.54002767707E+01  0.17801227790E+01  0.58118076431E+01  0.51100000000E-03 0. -1.
        -11    1    3    3    0    0  0.12510679607E+02 -0.22798811647E+02  0.18809452308E+02  0.32095146255E+02  0.51100000000E-03 0.  1.
         12    1    3    3    0    0  0.58839005706E+01  0.64245512545E+01  0.91333723145E+01  0.12621950506E+02  0.00000000000E+00 0. -1.
</event>
<event>
 7    1  0.2744502E-011  0.5052886E+02  0.7816164E-02  0.1300439E+00
        -11   -1    0    0    0    0  0.00000000000E+00  0.00000000000E+00  0.45593999997E+02  0.45594000000E+02  0.51100000000E-03 0.  1.
         11   -1    0    0    0    0 -0.00000000000E+00 -0.00000000000E+00 -0.45593999997E+02  0.45594000000E+02  0.51100000000E-03 0. -1.
    9900012    2    1    2    0    0  0.12301584902E+02 -0.29236101851E+02  0.25437902102E+02  0.50528861963E+02  0.30000006423E+02 0.  0.
         12    1    1    2    0    0 -0.12301584902E+02  0.29236101851E+02 -0.25437902102E+02  0.40659138037E+02  0.00000000000E+00 0. -1.
         11    1    3    3    0    0 -0.26669941212E+01 -0.56778023867E+01  0.63201646014E+01  0.89047615597E+01  0.51100000000E-03 0. -1.
        -11    1    3    3    0    0  0.42623092405E+01 -0.18818728874E+02  0.22301854057E+02  0.29490414225E+02  0.51100000000E-03 0.  1.
        -12    1    3    3    0    0  0.10706269782E+02 -0.47395705902E+01 -0.31841165563E+01  0.12133686178E+02  0.00000000000E+00 0.  1.
</event>
<event>
 7    1  0.2744502E-011  0.5052886E+02  0.7816164E-02  0.1300439E+00
        -11   -1    0    0    0    0  0.00000000000E+00  0.00000000000E+00  0.45593999997E+02  0.45594000000E+02  0.51100000000E-03 0.  1.
         11   -1    0    0    0    0 -0.00000000000E+00 -0.00000000000E+00 -0.45593999997E+02  0.45594000000E+02  0.51100000000E-03 0. -1.
    9900012    2    1    2    0    0 -0.32740393244E+02  0.37828937291E+01  0.23810123305E+02  0.50528860726E+02  0.30000002662E+02 0.  0.
         12    1    1    2    0    0  0.32740393244E+02 -0.37828937291E+01 -0.23810123305E+02  0.40659139274E+02  0.00000000000E+00 0. -1.
         11    1    3    3    0    0 -0.51361517478E+01  0.26137404706E+01 -0.60755465719E+00  0.57948957667E+01  0.51100000000E-03 0. -1.
        -11    1    3    3    0    0  0.46139931859E+01  0.24337237919E+01  0.39479071132E+01  0.65420115753E+01  0.51100000000E-03 0.  1.
         12    1    3    3    0    0 -0.32218234682E+02 -0.12645705334E+01  0.20469770849E+02  0.38191953384E+02  0.00000000000E+00 0. -1.
</event>
<event>
 7    1  0.2744502E-011  0.5052886E+02  0.7816164E-02  0.1300439E+00
        -11   -1    0    0    0    0  0.00000000000E+00  0.00000000000E+00  0.45593999997E+02  0.45594000000E+02  0.51100000000E-03 0.  1.
         11   -1    0    0    0    0 -0.00000000000E+00 -0.00000000000E+00 -0.45593999997E+02  0.45594000000E+02  0.51100000000E-03 0. -1.
    9900012    2    1    2    0    0 -0.14649711242E+02  0.96923534002E+01  0.36668922420E+02  0.50528860494E+02  0.30000001958E+02 0.  0.
         12    1    1    2    0    0  0.14649711242E+02 -0.96923534002E+01 -0.36668922420E+02  0.40659139506E+02  0.00000000000E+00 0. -1.
         11    1    3    3    0    0  0.51055212663E+01  0.77731994362E+01  0.15530653585E+02  0.18102214724E+02  0.51100000000E-03 0. -1.
        -11    1    3    3    0    0 -0.41289591853E+01  0.55927321279E+01  0.12231309245E+02  0.14068826629E+02  0.51100000000E-03 0.  1.
         12    1    3    3    0    0 -0.15626273323E+02 -0.36735781639E+01  0.89069595897E+01  0.18357819141E+02  0.00000000000E+00 0. -1.
</event>
<event>
 7    1  0.2744502E-011  0.5052886E+02  0.7816164E-02  0.1300439E+00
        -11   -1    0    0    0    0  0.00000000000E+00  0.00000000000E+00  0.45593999997E+02  0.45594000000E+02  0.51100000000E-03 0. -1.
         11   -1    0    0    0    0 -0.00000000000E+00 -0.00000000000E+00 -0.45593999997E+02  0.45594000000E+02  0.51100000000E-03 0.  1.
    9900012    2    1    2    0    0  0.30674659471E+02 -0.24133680220E+02 -0.11392827034E+02  0.50528858808E+02  0.29999996833E+02 0.  0.
         12    1    1    2    0    0 -0.30674659471E+02  0.24133680220E+02  0.11392827034E+02  0.40659141192E+02  0.00000000000E+00 0. -1.
         11    1    3    3    0    0  0.31255939139E+01 -0.54231755728E+01  0.62003316499E+01  0.88104644280E+01  0.51100000000E-03 0. -1.
        -11    1    3    3    0    0  0.24659522510E+01 -0.95625994464E+00  0.35425850826E+01  0.44210024785E+01  0.51100000000E-03 0.  1.
        -12    1    3    3    0    0  0.25083113307E+02 -0.17754244702E+02 -0.21135743767E+02  0.37297391902E+02  0.00000000000E+00 0.  1.
</event>
<event>
 7    1  0.2744502E-011  0.5052886E+02  0.7816164E-02  0.1300439E+00
        -11   -1    0    0    0    0  0.00000000000E+00  0.00000000000E+00  0.45593999997E+02  0.45594000000E+02  0.51100000000E-03 0.  1.
         11   -1    0    0    0    0 -0.00000000000E+00 -0.00000000000E+00 -0.45593999997E+02  0.45594000000E+02  0.51100000000E-03 0. -1.
    9900012    2    1    2    0    0 -0.40266121055E+02 -0.27136884340E+01  0.49437865760E+01  0.50528860370E+02  0.30000001582E+02 0.  0.
         12    1    1    2    0    0  0.40266121055E+02  0.27136884340E+01 -0.49437865760E+01  0.40659139630E+02  0.00000000000E+00 0. -1.
         11    1    3    3    0    0 -0.17465928153E+02  0.88850880362E+01  0.49783511607E+00  0.19602328324E+02  0.51100000000E-03 0. -1.
        -11    1    3    3    0    0 -0.74992377823E+01  0.20506739902E+01  0.67464003526E+01  0.10293578052E+02  0.51100000000E-03 0.  1.
         12    1    3    3    0    0 -0.15300955120E+02 -0.13649450460E+02 -0.23004488926E+01  0.20632953995E+02  0.00000000000E+00 0. -1.
</event>
<event>
 7    1  0.2807653E-011  0.5052887E+02  0.7816164E-02  0.1300439E+00
        -11   -1    0    0    0    0  0.00000000000E+00  0.00000000000E+00  0.45593999997E+02  0.45594000000E+02  0.51100000000E-03 0. -1.
         11   -1    0    0    0    0 -0.00000000000E+00 -0.00000000000E+00 -0.45593999997E+02  0.45594000000E+02  0.51100000000E-03 0.  1.
    9900012    2    1    2    0    0  0.23915789157E+02 -0.99897800854E+01 -0.31327371994E+02  0.50528869251E+02  0.30000028576E+02 0.  0.
         12    1    1    2    0    0 -0.23915789157E+02  0.99897800854E+01  0.31327371994E+02  0.40659130749E+02  0.00000000000E+00 0. -1.
         11    1    3    3    0    0 -0.28225485020E+01 -0.30076927618E+01 -0.27284568536E+00  0.41336957828E+01  0.51100000000E-03 0. -1.
        -11    1    3    3    0    0  0.46591905812E+01  0.27510579171E+01  0.17369458846E+01  0.56827245052E+01  0.51100000000E-03 0.  1.
        -12    1    3    3    0    0  0.22079147078E+02 -0.97331452407E+01 -0.32791472194E+02  0.40712448963E+02  0.00000000000E+00 0.  1.
</event>
<event>
 7    1  0.2744502E-011  0.5052885E+02  0.7816164E-02  0.1300439E+00
        -11   -1    0    0    0    0  0.00000000000E+00  0.00000000000E+00  0.45593999997E+02  0.45594000000E+02  0.51100000000E-03 0.  1.
         11   -1    0    0    0    0 -0.00000000000E+00 -0.00000000000E+00 -0.45593999997E+02  0.45594000000E+02  0.51100000000E-03 0. -1.
    9900012    2    1    2    0    0  0.28318023753E+02 -0.19592765241E+01  0.29110437299E+02  0.50528846129E+02  0.29999958294E+02 0.  0.
         12    1    1    2    0    0 -0.28318023753E+02  0.19592765241E+01 -0.29110437299E+02  0.40659153871E+02  0.00000000000E+00 0. -1.
         11    1    3    3    0    0  0.25250554368E+02 -0.28085386532E+01  0.20291942909E+02  0.32515247693E+02  0.51100000000E-03 0. -1.
        -11    1    3    3    0    0  0.78191028660E+01  0.30150781448E+01  0.95892181557E+01  0.12735076401E+02  0.51100000000E-03 0.  1.
         12    1    3    3    0    0 -0.47516334812E+01 -0.21658160158E+01 -0.77072376549E+00  0.52785220352E+01  0.00000000000E+00 0. -1.
</event>
<event>
 7    1  0.2744502E-011  0.5052883E+02  0.7816164E-02  0.1300439E+00
        -11   -1    0    0    0    0  0.00000000000E+00  0.00000000000E+00  0.45593999997E+02  0.45594000000E+02  0.51100000000E-03 0.  1.
         11   -1    0    0    0    0 -0.00000000000E+00 -0.00000000000E+00 -0.45593999997E+02  0.45594000000E+02  0.51100000000E-03 0. -1.
    9900012    2    1    2    0    0 -0.10386821256E+02 -0.37334160686E+02  0.12306185262E+02  0.50528833683E+02  0.29999920462E+02 0.  0.
         12    1    1    2    0    0  0.10386821256E+02  0.37334160686E+02 -0.12306185262E+02  0.40659166317E+02  0.00000000000E+00 0. -1.
         11    1    3    3    0    0 -0.13553702888E+01 -0.36680230760E+01 -0.18404797174E+01  0.43218963149E+01  0.51100000000E-03 0. -1.
        -11    1    3    3    0    0 -0.30144660966E+01 -0.31400884005E+02  0.98697980133E+00  0.31560682051E+02  0.51100000000E-03 0.  1.
         12    1    3    3    0    0 -0.60169848707E+01 -0.22652536045E+01  0.13159685178E+02  0.14646255317E+02  0.00000000000E+00 0. -1.
</event>
<event>
 7    1  0.2744502E-011  0.5052886E+02  0.7816164E-02  0.1300439E+00
        -11   -1    0    0    0    0  0.00000000000E+00  0.00000000000E+00  0.45593999997E+02  0.45594000000E+02  0.51100000000E-03 0. -1.
         11   -1    0    0    0    0 -0.00000000000E+00 -0.00000000000E+00 -0.45593999997E+02  0.45594000000E+02  0.51100000000E-03 0.  1.
    9900012    2    1    2    0    0  0.71426725288E+01  0.38930192877E+02 -0.93052774090E+01  0.50528857413E+02  0.29999992592E+02 0.  0.
         12    1    1    2    0    0 -0.71426725288E+01 -0.38930192877E+02  0.93052774090E+01  0.40659142587E+02  0.00000000000E+00 0. -1.
         11    1    3    3    0    0  0.16101464854E+01  0.70331830041E+01 -0.90958800502E+01  0.11610050345E+02  0.51100000000E-03 0. -1.
        -11    1    3    3    0    0 -0.82078698206E+01  0.13978224143E+02 -0.16422019253E+01  0.16292842128E+02  0.51100000000E-03 0.  1.
         12    1    3    3    0    0  0.13740395864E+02  0.17918785730E+02  0.14328045665E+01  0.22625964940E+02  0.00000000000E+00 0. -1.
</event>
<event>
 7    1  0.2744502E-011  0.5052885E+02  0.7816164E-02  0.1300439E+00
        -11   -1    0    0    0    0  0.00000000000E+00  0.00000000000E+00  0.45593999997E+02  0.45594000000E+02  0.51100000000E-03 0. -1.
         11   -1    0    0    0    0 -0.00000000000E+00 -0.00000000000E+00 -0.45593999997E+02  0.45594000000E+02  0.51100000000E-03 0.  1.
    9900012    2    1    2    0    0  0.76684378963E+01 -0.29424546583E+02 -0.26991804288E+02  0.50528851212E+02  0.29999973745E+02 0.  0.
         12    1    1    2    0    0 -0.76684378963E+01  0.29424546583E+02  0.26991804288E+02  0.40659148788E+02  0.00000000000E+00 0. -1.
         11    1    3    3    0    0 -0.44243758768E+00 -0.28321979860E+02 -0.21686031681E+02  0.35673719522E+02  0.51100000000E-03 0. -1.
        -11    1    3    3    0    0 -0.10339517327E+01 -0.22862952146E+01 -0.50401165642E+01  0.56301844761E+01  0.51100000000E-03 0.  1.
         12    1    3    3    0    0  0.91448272167E+01  0.11837284915E+01 -0.26565604278E+00  0.92249472138E+01  0.00000000000E+00 0. -1.
</event>
<event>
 7    1  0.2744502E-011  0.5052886E+02  0.7816164E-02  0.1300439E+00
        -11   -1    0    0    0    0  0.00000000000E+00  0.00000000000E+00  0.45593999997E+02  0.45594000000E+02  0.51100000000E-03 0. -1.
         11   -1    0    0    0    0 -0.00000000000E+00 -0.00000000000E+00 -0.45593999997E+02  0.45594000000E+02  0.51100000000E-03 0.  1.
    9900012    2    1    2    0    0  0.25721423727E+00 -0.37517630938E+02 -0.15669301798E+02  0.50528858234E+02  0.29999995087E+02 0.  0.
         12    1    1    2    0    0 -0.25721423727E+00  0.37517630938E+02  0.15669301798E+02  0.40659141766E+02  0.00000000000E+00 0. -1.
         11    1    3    3    0    0  0.11344101232E+02 -0.63610514722E+01 -0.55678912022E+01  0.14147544709E+02  0.51100000000E-03 0. -1.
        -11    1    3    3    0    0  0.75141097608E+00 -0.48756253857E+01 -0.51561508517E+01  0.71359815879E+01  0.51100000000E-03 0.  1.
         12    1    3    3    0    0 -0.11838297970E+02 -0.26280954080E+02 -0.49452597441E+01  0.29245331937E+02  0.00000000000E+00 0. -1.
</event>
<event>
 7    1  0.2744502E-011  0.5052882E+02  0.7816164E-02  0.1300439E+00
        -11   -1    0    0    0    0  0.00000000000E+00  0.00000000000E+00  0.45593999997E+02  0.45594000000E+02  0.51100000000E-03 0.  1.
         11   -1    0    0    0    0 -0.00000000000E+00 -0.00000000000E+00 -0.45593999997E+02  0.45594000000E+02  0.51100000000E-03 0. -1.
    9900012    2    1    2    0    0 -0.13663919909E+02  0.11472537679E+02  0.36535564185E+02  0.50528815572E+02  0.29999865412E+02 0.  0.
         12    1    1    2    0    0  0.13663919909E+02 -0.11472537679E+02 -0.36535564185E+02  0.40659184428E+02  0.00000000000E+00 0. -1.
         11    1    3    3    0    0 -0.10440733667E+02 -0.12242607241E+01  0.21091965678E+02  0.23566475135E+02  0.51100000000E-03 0.  1.
        -11    1    3    3    0    0 -0.40724679976E+01  0.46421618678E+01  0.17540677323E+02  0.18595967939E+02  0.51100000000E-03 0. -1.
         12    1    3    3    0    0  0.84928175623E+00  0.80546365349E+01 -0.20970788164E+01  0.83663724979E+01  0.00000000000E+00 0. -1.
</event>
<event>
 7    1  0.2744502E-011  0.5052886E+02  0.7816164E-02  0.1300439E+00
        -11   -1    0    0    0    0  0.00000000000E+00  0.00000000000E+00  0.45593999997E+02  0.45594000000E+02  0.51100000000E-03 0.  1.
         11   -1    0    0    0    0 -0.00000000000E+00 -0.00000000000E+00 -0.45593999997E+02  0.45594000000E+02  0.51100000000E-03 0. -1.
    9900012    2    1    2    0    0 -0.40547112136E+02  0.55335016987E+00  0.29650445808E+01  0.50528856031E+02  0.29999988390E+02 0.  0.
         12    1    1    2    0    0  0.40547112136E+02 -0.55335016987E+00 -0.29650445808E+01  0.40659143969E+02  0.00000000000E+00 0. -1.
         11    1    3    3    0    0 -0.12037749037E+02 -0.45482899544E+01 -0.62254822118E+00  0.12883396677E+02  0.51100000000E-03 0. -1.
        -11    1    3    3    0    0 -0.25727866269E+02  0.98133803860E+01  0.99276618386E+01  0.29270873018E+02  0.51100000000E-03 0.  1.
         12    1    3    3    0    0 -0.27814968293E+01 -0.47117402617E+01 -0.63400690366E+01  0.83745863357E+01  0.00000000000E+00 0. -1.
</event>
<event>
 7    1  0.2744502E-011  0.5052885E+02  0.7816164E-02  0.1300439E+00
        -11   -1    0    0    0    0  0.00000000000E+00  0.00000000000E+00  0.45593999997E+02  0.45594000000E+02  0.51100000000E-03 0.  1.
         11   -1    0    0    0    0 -0.00000000000E+00 -0.00000000000E+00 -0.45593999997E+02  0.45594000000E+02  0.51100000000E-03 0. -1.
    9900012    2    1    2    0    0 -0.39984141382E+02  0.35587796086E+01  0.64629676049E+01  0.50528850665E+02  0.29999972082E+02 0.  0.
         12    1    1    2    0    0  0.39984141382E+02 -0.35587796086E+01 -0.64629676049E+01  0.40659149335E+02  0.00000000000E+00 0. -1.
         11    1    3    3    0    0 -0.54692649268E+01 -0.45576829720E+01  0.89160573430E+01  0.11409706908E+02  0.51100000000E-03 0. -1.
        -11    1    3    3    0    0 -0.55858494475E+01  0.13570090109E+01  0.59218880097E+01  0.82529961448E+01  0.51100000000E-03 0.  1.
         12    1    3    3    0    0 -0.28929027008E+02  0.67594535697E+01 -0.83749777478E+01  0.30866147613E+02  0.00000000000E+00 0. -1.
</event>
<event>
 7    1  0.2744502E-011  0.5052886E+02  0.7816164E-02  0.1300439E+00
        -11   -1    0    0    0    0  0.00000000000E+00  0.00000000000E+00  0.45593999997E+02  0.45594000000E+02  0.51100000000E-03 0. -1.
         11   -1    0    0    0    0 -0.00000000000E+00 -0.00000000000E+00 -0.45593999997E+02  0.45594000000E+02  0.51100000000E-03 0.  1.
    9900012    2    1    2    0    0  0.27070982498E+02  0.21735941806E+02 -0.21163093624E+02  0.50528858453E+02  0.29999995753E+02 0.  0.
         12    1    1    2    0    0 -0.27070982498E+02 -0.21735941806E+02  0.21163093624E+02  0.40659141547E+02  0.00000000000E+00 0. -1.
         11    1    3    3    0    0  0.10962109000E+02  0.14786331150E+01 -0.10320072301E+02  0.15128056127E+02  0.51100000000E-03 0. -1.
        -11    1    3    3    0    0  0.20124379145E+02  0.12598300530E+02 -0.12123479105E+02  0.26658705109E+02  0.51100000000E-03 0.  1.
         12    1    3    3    0    0 -0.40155056464E+01  0.76590081617E+01  0.12804577824E+01  0.87420972169E+01  0.00000000000E+00 0. -1.
</event>
<event>
 7    1  0.2744502E-011  0.5052886E+02  0.7816164E-02  0.1300439E+00
        -11   -1    0    0    0    0  0.00000000000E+00  0.00000000000E+00  0.45593999997E+02  0.45594000000E+02  0.51100000000E-03 0.  1.
         11   -1    0    0    0    0 -0.00000000000E+00 -0.00000000000E+00 -0.45593999997E+02  0.45594000000E+02  0.51100000000E-03 0. -1.
    9900012    2    1    2    0    0  0.18856908703E+02 -0.46082708503E+01  0.35725994514E+02  0.50528857731E+02  0.29999993558E+02 0.  0.
         12    1    1    2    0    0 -0.18856908703E+02  0.46082708503E+01 -0.35725994514E+02  0.40659142269E+02  0.00000000000E+00 0. -1.
         11    1    3    3    0    0  0.69629631556E+01 -0.12131271561E+02  0.91536483421E+01  0.16716455480E+02  0.51100000000E-03 0. -1.
        -11    1    3    3    0    0  0.18908943192E+01 -0.46753043776E+01  0.78452675850E+01  0.93264235423E+01  0.51100000000E-03 0.  1.
        -12    1    3    3    0    0  0.10003051229E+02  0.12198305088E+02  0.18727078587E+02  0.24485978708E+02  0.00000000000E+00 0.  1.
</event>
<event>
 7    1  0.2744502E-011  0.5052886E+02  0.7816164E-02  0.1300439E+00
        -11   -1    0    0    0    0  0.00000000000E+00  0.00000000000E+00  0.45593999997E+02  0.45594000000E+02  0.51100000000E-03 0.  1.
         11   -1    0    0    0    0 -0.00000000000E+00 -0.00000000000E+00 -0.45593999997E+02  0.45594000000E+02  0.51100000000E-03 0. -1.
    9900012    2    1    2    0    0  0.84422383780E+01 -0.16936930268E+02  0.35986588561E+02  0.50528861397E+02  0.30000004702E+02 0.  0.
         12    1    1    2    0    0 -0.84422383780E+01  0.16936930268E+02 -0.35986588561E+02  0.40659138603E+02  0.00000000000E+00 0. -1.
         11    1    3    3    0    0 -0.67050269164E+01 -0.48054556499E+01  0.17205552471E+02  0.19080902128E+02  0.51100000000E-03 0. -1.
        -11    1    3    3    0    0  0.64528042946E+01 -0.14608881641E+02  0.13908716898E+02  0.21178066769E+02  0.51100000000E-03 0.  1.
        -12    1    3    3    0    0  0.86944609999E+01  0.24774070233E+01  0.48723191921E+01  0.10269892499E+02  0.00000000000E+00 0.  1.
</event>
<event>
 7    1  0.2744502E-011  0.5052888E+02  0.7816164E-02  0.1300439E+00
        -11   -1    0    0    0    0  0.00000000000E+00  0.00000000000E+00  0.45593999997E+02  0.45594000000E+02  0.51100000000E-03 0.  1.
         11   -1    0    0    0    0 -0.00000000000E+00 -0.00000000000E+00 -0.45593999997E+02  0.45594000000E+02  0.51100000000E-03 0. -1.
    9900012    2    1    2    0    0  0.50131943949E+01  0.10892676020E+00  0.40348735527E+02  0.50528875050E+02  0.30000046203E+02 0.  0.
         12    1    1    2    0    0 -0.50131943949E+01 -0.10892676020E+00 -0.40348735527E+02  0.40659124950E+02  0.00000000000E+00 0. -1.
         11    1    3    3    0    0  0.29995331086E+01  0.56565361828E+00 -0.33239687786E+01  0.45128629037E+01  0.51100000000E-03 0. -1.
        -11    1    3    3    0    0  0.31052597137E+00  0.66916537259E+01  0.15206809083E+02  0.16616910023E+02  0.51100000000E-03 0.  1.
        -12    1    3    3    0    0  0.17031353150E+01 -0.71483805840E+01  0.28465895223E+02  0.29399102124E+02  0.00000000000E+00 0.  1.
</event>
<event>
 7    1  0.2744502E-011  0.5052886E+02  0.7816164E-02  0.1300439E+00
        -11   -1    0    0    0    0  0.00000000000E+00  0.00000000000E+00  0.45593999997E+02  0.45594000000E+02  0.51100000000E-03 0. -1.
         11   -1    0    0    0    0 -0.00000000000E+00 -0.00000000000E+00 -0.45593999997E+02  0.45594000000E+02  0.51100000000E-03 0.  1.
    9900012    2    1    2    0    0 -0.34645732702E+02  0.18430627659E+02 -0.10637249049E+02  0.50528857145E+02  0.29999991778E+02 0.  0.
         12    1    1    2    0    0  0.34645732702E+02 -0.18430627659E+02  0.10637249049E+02  0.40659142855E+02  0.00000000000E+00 0. -1.
         11    1    3    3    0    0 -0.20561440346E+02  0.11055284501E+02 -0.67671371728E+01  0.24306095743E+02  0.51100000000E-03 0. -1.
        -11    1    3    3    0    0 -0.17191258846E+02  0.79673531510E+01  0.24987020848E+01  0.19111818576E+02  0.51100000000E-03 0.  1.
         12    1    3    3    0    0  0.31069664895E+01 -0.59200999270E+00 -0.63688139605E+01  0.71109428251E+01  0.00000000000E+00 0. -1.
</event>
<event>
 7    1  0.2744502E-011  0.5052885E+02  0.7816164E-02  0.1300439E+00
        -11   -1    0    0    0    0  0.00000000000E+00  0.00000000000E+00  0.45593999997E+02  0.45594000000E+02  0.51100000000E-03 0.  1.
         11   -1    0    0    0    0 -0.00000000000E+00 -0.00000000000E+00 -0.45593999997E+02  0.45594000000E+02  0.51100000000E-03 0. -1.
    9900012    2    1    2    0    0  0.25477904705E+02 -0.26866106734E+00  0.31685494035E+02  0.50528851716E+02  0.29999975275E+02 0.  0.
         12    1    1    2    0    0 -0.25477904705E+02  0.26866106734E+00 -0.31685494035E+02  0.40659148284E+02  0.00000000000E+00 0. -1.
         11    1    3    3    0    0 -0.13883996707E+01 -0.15114175641E-01  0.26779699113E+01  0.30165220355E+01  0.51100000000E-03 0. -1.
        -11    1    3    3    0    0  0.28305714961E+01  0.10791344420E+02  0.93404464353E+01  0.14550229869E+02  0.51100000000E-03 0.  1.
        -12    1    3    3    0    0  0.24035732879E+02 -0.11044891311E+02  0.19667077689E+02  0.32962099811E+02  0.00000000000E+00 0.  1.
</event>
<event>
 7    1  0.2744502E-011  0.5052886E+02  0.7816164E-02  0.1300439E+00
        -11   -1    0    0    0    0  0.00000000000E+00  0.00000000000E+00  0.45593999997E+02  0.45594000000E+02  0.51100000000E-03 0.  1.
         11   -1    0    0    0    0 -0.00000000000E+00 -0.00000000000E+00 -0.45593999997E+02  0.45594000000E+02  0.51100000000E-03 0. -1.
    9900012    2    1    2    0    0 -0.31746980518E+02  0.50401319017E+01  0.24897624762E+02  0.50528863015E+02  0.30000009619E+02 0.  0.
         12    1    1    2    0    0  0.31746980518E+02 -0.50401319017E+01 -0.24897624762E+02  0.40659136985E+02  0.00000000000E+00 0. -1.
         11    1    3    3    0    0 -0.30077080747E+01 -0.42540743045E+01  0.25472256592E+01  0.57992943425E+01  0.51100000000E-03 0. -1.
        -11    1    3    3    0    0  0.13804165629E+01 -0.51542847049E+01  0.28754201756E+01  0.60613729595E+01  0.51100000000E-03 0.  1.
        -12    1    3    3    0    0 -0.30119689006E+02  0.14448490911E+02  0.19474978927E+02  0.38668195713E+02  0.00000000000E+00 0.  1.
</event>
<event>
 7    1  0.2744502E-011  0.5052888E+02  0.7816164E-02  0.1300439E+00
        -11   -1    0    0    0    0  0.00000000000E+00  0.00000000000E+00  0.45593999997E+02  0.45594000000E+02  0.51100000000E-03 0.  1.
         11   -1    0    0    0    0 -0.00000000000E+00 -0.00000000000E+00 -0.45593999997E+02  0.45594000000E+02  0.51100000000E-03 0. -1.
    9900012    2    1    2    0    0 -0.14149841787E+02 -0.28217459385E+02  0.25626576123E+02  0.50528875065E+02  0.30000046246E+02 0.  0.
         12    1    1    2    0    0  0.14149841787E+02  0.28217459385E+02 -0.25626576123E+02  0.40659124935E+02  0.00000000000E+00 0. -1.
         11    1    3    3    0    0 -0.12039217379E+01 -0.62749782566E+01 -0.11380482961E+01  0.64899872000E+01  0.51100000000E-03 0. -1.
        -11    1    3    3    0    0  0.81421897672E+00  0.34164073370E+01 -0.13421362473E+01  0.37598033994E+01  0.51100000000E-03 0.  1.
        -12    1    3    3    0    0 -0.13760139025E+02 -0.25358888465E+02  0.28106760666E+02  0.40279084465E+02  0.00000000000E+00 0.  1.
</event>
<event>
 7    1  0.2744502E-011  0.5052884E+02  0.7816164E-02  0.1300439E+00
        -11   -1    0    0    0    0  0.00000000000E+00  0.00000000000E+00  0.45593999997E+02  0.45594000000E+02  0.51100000000E-03 0.  1.
         11   -1    0    0    0    0 -0.00000000000E+00 -0.00000000000E+00 -0.45593999997E+02  0.45594000000E+02  0.51100000000E-03 0. -1.
    9900012    2    1    2    0    0 -0.71263552963E+00 -0.28685172395E+02  0.28806599310E+02  0.50528842009E+02  0.29999945770E+02 0.  0.
         12    1    1    2    0    0  0.71263552963E+00  0.28685172395E+02 -0.28806599310E+02  0.40659157991E+02  0.00000000000E+00 0. -1.
         11    1    3    3    0    0 -0.27667715981E+01 -0.39383796528E+01  0.10759881284E+02  0.11787319664E+02  0.51100000000E-03 0. -1.
        -11    1    3    3    0    0  0.50932432383E+01 -0.82509084936E+01  0.19629265497E+02  0.21893530594E+02  0.51100000000E-03 0.  1.
        -12    1    3    3    0    0 -0.30391071699E+01 -0.16495884249E+02 -0.15825474704E+01  0.16847991751E+02  0.00000000000E+00 0.  1.
</event>
<event>
 7    1  0.2744502E-011  0.5052886E+02  0.7816164E-02  0.1300439E+00
        -11   -1    0    0    0    0  0.00000000000E+00  0.00000000000E+00  0.45593999997E+02  0.45594000000E+02  0.51100000000E-03 0. -1.
         11   -1    0    0    0    0 -0.00000000000E+00 -0.00000000000E+00 -0.45593999997E+02  0.45594000000E+02  0.51100000000E-03 0.  1.
    9900012    2    1    2    0    0 -0.23798628507E+02  0.32447407677E+02 -0.58272120481E+01  0.50528863462E+02  0.30000010979E+02 0.  0.
         12    1    1    2    0    0  0.23798628507E+02 -0.32447407677E+02  0.58272120481E+01  0.40659136538E+02  0.00000000000E+00 0. -1.
         11    1    3    3    0    0 -0.97039552718E+01  0.14062060468E+02  0.23498202260E+01  0.17246157482E+02  0.51100000000E-03 0. -1.
        -11    1    3    3    0    0  0.30785954834E+01  0.12585806951E+02 -0.78585854800E+01  0.15153799945E+02  0.51100000000E-03 0.  1.
         12    1    3    3    0    0 -0.17173268719E+02  0.57995402582E+01 -0.31844679412E+00  0.18128906036E+02  0.00000000000E+00 0. -1.
</event>
<event>
 7    1  0.2744502E-011  0.5052886E+02  0.7816164E-02  0.1300439E+00
        -11   -1    0    0    0    0  0.00000000000E+00  0.00000000000E+00  0.45593999997E+02  0.45594000000E+02  0.51100000000E-03 0. -1.
         11   -1    0    0    0    0 -0.00000000000E+00 -0.00000000000E+00 -0.45593999997E+02  0.45594000000E+02  0.51100000000E-03 0.  1.
    9900012    2    1    2    0    0 -0.28377453606E+02  0.29041926928E+02 -0.21100320044E+01  0.50528860463E+02  0.30000001862E+02 0.  0.
         12    1    1    2    0    0  0.28377453606E+02 -0.29041926928E+02  0.21100320044E+01  0.40659139537E+02  0.00000000000E+00 0. -1.
         11    1    3    3    0    0 -0.30047501139E+01  0.10393602095E+02  0.56197117509E+01  0.12191663061E+02  0.51100000000E-03 0. -1.
        -11    1    3    3    0    0  0.28101807044E+01  0.22255643095E+01 -0.42095439508E+01  0.55290607359E+01  0.51100000000E-03 0.  1.
        -12    1    3    3    0    0 -0.28182884196E+02  0.16422760524E+02 -0.35201998045E+01  0.32808136666E+02  0.00000000000E+00 0.  1.
</event>
<event>
 7    1  0.2744502E-011  0.5052886E+02  0.7816164E-02  0.1300439E+00
        -11   -1    0    0    0    0  0.00000000000E+00  0.00000000000E+00  0.45593999997E+02  0.45594000000E+02  0.51100000000E-03 0.  1.
         11   -1    0    0    0    0 -0.00000000000E+00 -0.00000000000E+00 -0.45593999997E+02  0.45594000000E+02  0.51100000000E-03 0. -1.
    9900012    2    1    2    0    0 -0.64407908865E+01 -0.23683496664E+02  0.32415642241E+02  0.50528860026E+02  0.30000000536E+02 0.  0.
         12    1    1    2    0    0  0.64407908865E+01  0.23683496664E+02 -0.32415642241E+02  0.40659139974E+02  0.00000000000E+00 0. -1.
         11    1    3    3    0    0 -0.84009765993E+01 -0.46334657052E+01 -0.20484862719E+00  0.95962167277E+01  0.51100000000E-03 0. -1.
        -11    1    3    3    0    0  0.22624484884E+00 -0.14582969072E+02  0.33046646734E+02  0.36121946712E+02  0.51100000000E-03 0.  1.
         12    1    3    3    0    0  0.17339408639E+01 -0.44670618873E+01 -0.42615586558E+00  0.48106965864E+01  0.00000000000E+00 0. -1.
</event>
<event>
 7    1  0.2744502E-011  0.5052884E+02  0.7816164E-02  0.1300439E+00
        -11   -1    0    0    0    0  0.00000000000E+00  0.00000000000E+00  0.45593999997E+02  0.45594000000E+02  0.51100000000E-03 0. -1.
         11   -1    0    0    0    0 -0.00000000000E+00 -0.00000000000E+00 -0.45593999997E+02  0.45594000000E+02  0.51100000000E-03 0.  1.
    9900012    2    1    2    0    0  0.16372480466E+02  0.33289545582E+02 -0.16640766688E+02  0.50528842635E+02  0.29999947674E+02 0.  0.
         12    1    1    2    0    0 -0.16372480466E+02 -0.33289545582E+02  0.16640766688E+02  0.40659157365E+02  0.00000000000E+00 0. -1.
         11    1    3    3    0    0  0.98823993999E+01  0.11388621403E+01  0.61070121388E+00  0.99665330535E+01  0.51100000000E-03 0. -1.
        -11    1    3    3    0    0  0.82631281679E+01  0.95028584486E+01 -0.11671418383E+02  0.17169904285E+02  0.51100000000E-03 0.  1.
         12    1    3    3    0    0 -0.17730471014E+01  0.22647824993E+02 -0.55800495183E+01  0.23392405297E+02  0.00000000000E+00 0. -1.
</event>
<event>
 7    1  0.2744502E-011  0.5052886E+02  0.7816164E-02  0.1300439E+00
        -11   -1    0    0    0    0  0.00000000000E+00  0.00000000000E+00  0.45593999997E+02  0.45594000000E+02  0.51100000000E-03 0. -1.
         11   -1    0    0    0    0 -0.00000000000E+00 -0.00000000000E+00 -0.45593999997E+02  0.45594000000E+02  0.51100000000E-03 0.  1.
    9900012    2    1    2    0    0 -0.13276748063E+02 -0.25352661646E+02 -0.28881410425E+02  0.50528863759E+02  0.30000011882E+02 0.  0.
         12    1    1    2    0    0  0.13276748063E+02  0.25352661646E+02  0.28881410425E+02  0.40659136241E+02  0.00000000000E+00 0. -1.
         11    1    3    3    0    0 -0.44017349970E+00 -0.11875018895E+02  0.22527402296E+01  0.12094819770E+02  0.51100000000E-03 0. -1.
        -11    1    3    3    0    0 -0.13047745141E+00  0.19608562856E+01 -0.60188108050E+01  0.63315136820E+01  0.51100000000E-03 0.  1.
        -12    1    3    3    0    0 -0.12706097112E+02 -0.15438499037E+02 -0.25115339850E+02  0.32102530307E+02  0.00000000000E+00 0.  1.
</event>
<event>
 7    1  0.2744502E-011  0.5052887E+02  0.7816164E-02  0.1300439E+00
        -11   -1    0    0    0    0  0.00000000000E+00  0.00000000000E+00  0.45593999997E+02  0.45594000000E+02  0.51100000000E-03 0.  1.
         11   -1    0    0    0    0 -0.00000000000E+00 -0.00000000000E+00 -0.45593999997E+02  0.45594000000E+02  0.51100000000E-03 0. -1.
    9900012    2    1    2    0    0 -0.25750843042E+01 -0.24820363411E+02  0.32101136721E+02  0.50528874606E+02  0.30000044852E+02 0.  0.
         12    1    1    2    0    0  0.25750843042E+01  0.24820363411E+02 -0.32101136721E+02  0.40659125394E+02  0.00000000000E+00 0. -1.
         11    1    3    3    0    0 -0.12308309127E+02 -0.11319837927E+02  0.36951327141E+01  0.17125630216E+02  0.51100000000E-03 0. -1.
        -11    1    3    3    0    0 -0.48491639695E+00 -0.23897205177E+01  0.32039172384E+01  0.40262878681E+01  0.51100000000E-03 0.  1.
        -12    1    3    3    0    0  0.10218141220E+02 -0.11110804967E+02  0.25202086769E+02  0.29376956522E+02  0.00000000000E+00 0.  1.
</event>
<event>
 7    1  0.2744502E-011  0.5052885E+02  0.7816164E-02  0.1300439E+00
        -11   -1    0    0    0    0  0.00000000000E+00  0.00000000000E+00  0.45593999997E+02  0.45594000000E+02  0.51100000000E-03 0. -1.
         11   -1    0    0    0    0 -0.00000000000E+00 -0.00000000000E+00 -0.45593999997E+02  0.45594000000E+02  0.51100000000E-03 0.  1.
    9900012    2    1    2    0    0  0.20307239557E+02  0.26279985192E+02 -0.23455167548E+02  0.50528849925E+02  0.29999969832E+02 0.  0.
         12    1    1    2    0    0 -0.20307239557E+02 -0.26279985192E+02  0.23455167548E+02  0.40659150075E+02  0.00000000000E+00 0. -1.
         11    1    3    3    0    0  0.75479667705E+01  0.14991575040E+02 -0.24818413377E+02  0.29961187683E+02  0.51100000000E-03 0. -1.
        -11    1    3    3    0    0  0.90402845577E+01  0.88396750613E+01 -0.43076747603E+01  0.13357494607E+02  0.51100000000E-03 0.  1.
        -12    1    3    3    0    0  0.37189882288E+01  0.24487350906E+01  0.56709205898E+01  0.72101676351E+01  0.00000000000E+00 0.  1.
</event>
<event>
 7    1  0.2744502E-011  0.5052889E+02  0.7816164E-02  0.1300439E+00
        -11   -1    0    0    0    0  0.00000000000E+00  0.00000000000E+00  0.45593999997E+02  0.45594000000E+02  0.51100000000E-03 0.  1.
         11   -1    0    0    0    0 -0.00000000000E+00 -0.00000000000E+00 -0.45593999997E+02  0.45594000000E+02  0.51100000000E-03 0. -1.
    9900012    2    1    2    0    0 -0.20382861709E+02  0.26143407652E+02  0.23541962884E+02  0.50528894851E+02  0.30000106388E+02 0.  0.
         12    1    1    2    0    0  0.20382861709E+02 -0.26143407652E+02 -0.23541962884E+02  0.40659105149E+02  0.00000000000E+00 0. -1.
         11    1    3    3    0    0  0.81902877545E+00  0.78267418545E+01  0.37366976797E+01  0.87115788467E+01  0.51100000000E-03 0. -1.
        -11    1    3    3    0    0 -0.13023126866E+02  0.21558613679E+02  0.21185278313E+02  0.32911877409E+02  0.51100000000E-03 0.  1.
         12    1    3    3    0    0 -0.81787636185E+01 -0.32419478812E+01 -0.13800131087E+01  0.89054385951E+01  0.00000000000E+00 0. -1.
</event>
<event>
 7    1  0.2744502E-011  0.5052886E+02  0.7816164E-02  0.1300439E+00
        -11   -1    0    0    0    0  0.00000000000E+00  0.00000000000E+00  0.45593999997E+02  0.45594000000E+02  0.51100000000E-03 0. -1.
         11   -1    0    0    0    0 -0.00000000000E+00 -0.00000000000E+00 -0.45593999997E+02  0.45594000000E+02  0.51100000000E-03 0.  1.
    9900012    2    1    2    0    0 -0.33303296570E+02  0.20569225668E+02 -0.10998330608E+02  0.50528857324E+02  0.29999992321E+02 0.  0.
         12    1    1    2    0    0  0.33303296570E+02 -0.20569225668E+02  0.10998330608E+02  0.40659142676E+02  0.00000000000E+00 0. -1.
         11    1    3    3    0    0 -0.29912343600E+01  0.21794435757E+01  0.41502013755E+01  0.55607219868E+01  0.51100000000E-03 0. -1.
        -11    1    3    3    0    0 -0.11033918655E+02 -0.23939594611E+01  0.25150249894E+01  0.11567357250E+02  0.51100000000E-03 0.  1.
        -12    1    3    3    0    0 -0.19278143555E+02  0.20783741553E+02 -0.17663556973E+02  0.33400778087E+02  0.00000000000E+00 0.  1.
</event>
<event>
 7    1  0.2744502E-011  0.5052890E+02  0.7816164E-02  0.1300439E+00
        -11   -1    0    0    0    0  0.00000000000E+00  0.00000000000E+00  0.45593999997E+02  0.45594000000E+02  0.51100000000E-03 0.  1.
         11   -1    0    0    0    0 -0.00000000000E+00 -0.00000000000E+00 -0.45593999997E+02  0.45594000000E+02  0.51100000000E-03 0. -1.
    9900012    2    1    2    0    0 -0.73881042852E+01 -0.19103141992E+02  0.35123332506E+02  0.50528897634E+02  0.30000114847E+02 0.  0.
         12    1    1    2    0    0  0.73881042852E+01  0.19103141992E+02 -0.35123332506E+02  0.40659102366E+02  0.00000000000E+00 0. -1.
         11    1    3    3    0    0  0.81630975775E+01 -0.36431435594E+01  0.16852600735E+01  0.90966344782E+01  0.51100000000E-03 0. -1.
        -11    1    3    3    0    0 -0.27447675779E+01 -0.76090459590E+00  0.14592584551E+00  0.28520202444E+01  0.51100000000E-03 0.  1.
        -12    1    3    3    0    0 -0.12806434285E+02 -0.14699093837E+02  0.33292146587E+02  0.38580242911E+02  0.00000000000E+00 0.  1.
</event>
<event>
 7    1  0.2744502E-011  0.5052886E+02  0.7816164E-02  0.1300439E+00
        -11   -1    0    0    0    0  0.00000000000E+00  0.00000000000E+00  0.45593999997E+02  0.45594000000E+02  0.51100000000E-03 0.  1.
         11   -1    0    0    0    0 -0.00000000000E+00 -0.00000000000E+00 -0.45593999997E+02  0.45594000000E+02  0.51100000000E-03 0. -1.
    9900012    2    1    2    0    0 -0.20610305851E+02  0.32412835026E+02  0.13333771922E+02  0.50528855206E+02  0.29999985885E+02 0.  0.
         12    1    1    2    0    0  0.20610305851E+02 -0.32412835026E+02 -0.13333771922E+02  0.40659144794E+02  0.00000000000E+00 0. -1.
         11    1    3    3    0    0 -0.63608368363E+01  0.20847130851E+02 -0.28705263821E+01  0.21984154110E+02  0.51100000000E-03 0. -1.
        -11    1    3    3    0    0 -0.84384369779E+01  0.14636554202E+02  0.12325060259E+02  0.20912748460E+02  0.51100000000E-03 0.  1.
        -12    1    3    3    0    0 -0.58110320367E+01 -0.30708500265E+01  0.38792380457E+01  0.76319526356E+01  0.00000000000E+00 0.  1.
</event>
<event>
 7    1  0.2744502E-011  0.5052885E+02  0.7816164E-02  0.1300439E+00
        -11   -1    0    0    0    0  0.00000000000E+00  0.00000000000E+00  0.45593999997E+02  0.45594000000E+02  0.51100000000E-03 0. -1.
         11   -1    0    0    0    0 -0.00000000000E+00 -0.00000000000E+00 -0.45593999997E+02  0.45594000000E+02  0.51100000000E-03 0.  1.
    9900012    2    1    2    0    0 -0.23656170608E+02  0.25834956477E+02 -0.20642354379E+02  0.50528853694E+02  0.29999981288E+02 0.  0.
         12    1    1    2    0    0  0.23656170608E+02 -0.25834956477E+02  0.20642354379E+02  0.40659146306E+02  0.00000000000E+00 0. -1.
         11    1    3    3    0    0 -0.15804369627E+02  0.28291832420E+02 -0.65350558106E+01  0.33059232231E+02  0.51100000000E-03 0. -1.
        -11    1    3    3    0    0 -0.25819377843E+01  0.17976623817E+01 -0.24498079277E+01  0.39874242192E+01  0.51100000000E-03 0.  1.
         12    1    3    3    0    0 -0.52698631974E+01 -0.42545383245E+01 -0.11657490641E+02  0.13482197244E+02  0.00000000000E+00 0. -1.
</event>
<event>
 7    1  0.2744502E-011  0.5052886E+02  0.7816164E-02  0.1300439E+00
        -11   -1    0    0    0    0  0.00000000000E+00  0.00000000000E+00  0.45593999997E+02  0.45594000000E+02  0.51100000000E-03 0.  1.
         11   -1    0    0    0    0 -0.00000000000E+00 -0.00000000000E+00 -0.45593999997E+02  0.45594000000E+02  0.51100000000E-03 0. -1.
    9900012    2    1    2    0    0  0.11497178721E+02 -0.27826610253E+02  0.27325089495E+02  0.50528857453E+02  0.29999992715E+02 0.  0.
         12    1    1    2    0    0 -0.11497178721E+02  0.27826610253E+02 -0.27325089495E+02  0.40659142547E+02  0.00000000000E+00 0. -1.
         11    1    3    3    0    0  0.59675150586E+01  0.11873666463E+01  0.98842923123E+01  0.11606907870E+02  0.51100000000E-03 0. -1.
        -11    1    3    3    0    0  0.74079297405E+01 -0.50565826581E+01  0.10703143320E+02  0.13964373542E+02  0.51100000000E-03 0.  1.
         12    1    3    3    0    0 -0.18782660777E+01 -0.23957394242E+02  0.67376538622E+01  0.24957576042E+02  0.00000000000E+00 0. -1.
</event>
<event>
 7    1  0.2744502E-011  0.5052886E+02  0.7816164E-02  0.1300439E+00
        -11   -1    0    0    0    0  0.00000000000E+00  0.00000000000E+00  0.45593999997E+02  0.45594000000E+02  0.51100000000E-03 0.  1.
         11   -1    0    0    0    0 -0.00000000000E+00 -0.00000000000E+00 -0.45593999997E+02  0.45594000000E+02  0.51100000000E-03 0. -1.
    9900012    2    1    2    0    0  0.17765677052E+02 -0.11141242944E+02  0.34834166833E+02  0.50528858908E+02  0.29999997135E+02 0.  0.
         12    1    1    2    0    0 -0.17765677052E+02  0.11141242944E+02 -0.34834166833E+02  0.40659141092E+02  0.00000000000E+00 0. -1.
         11    1    3    3    0    0 -0.20836309798E+01  0.24594560786E+01 -0.16942039948E+01  0.36415339762E+01  0.51100000000E-03 0. -1.
        -11    1    3    3    0    0  0.41933536388E+01  0.39174853388E+01  0.92542990425E+01  0.10889121046E+02  0.51100000000E-03 0.  1.
         12    1    3    3    0    0  0.15655954393E+02 -0.17518184361E+02  0.27274071785E+02  0.35998203886E+02  0.00000000000E+00 0. -1.
</event>
<event>
 7    1  0.2744502E-011  0.5052888E+02  0.7816164E-02  0.1300439E+00
        -11   -1    0    0    0    0  0.00000000000E+00  0.00000000000E+00  0.45593999997E+02  0.45594000000E+02  0.51100000000E-03 0. -1.
         11   -1    0    0    0    0 -0.00000000000E+00 -0.00000000000E+00 -0.45593999997E+02  0.45594000000E+02  0.51100000000E-03 0.  1.
    9900012    2    1    2    0    0 -0.13014782067E+01  0.39581748883E+02  0.92062542821E+01  0.50528882842E+02  0.30000069886E+02 0.  0.
         12    1    1    2    0    0  0.13014782067E+01 -0.39581748883E+02 -0.92062542821E+01  0.40659117158E+02  0.00000000000E+00 0. -1.
         11    1    3    3    0    0 -0.52350355594E+01  0.97718446024E+01  0.11691585127E+02  0.16111725770E+02  0.51100000000E-03 0. -1.
        -11    1    3    3    0    0  0.43448259648E+01  0.39643070476E+01  0.47662694010E+01  0.75703743167E+01  0.51100000000E-03 0.  1.
        -12    1    3    3    0    0 -0.41126861213E+00  0.25845597233E+02 -0.72516002454E+01  0.26846782756E+02  0.00000000000E+00 0.  1.
</event>
<event>
 7    1  0.2744502E-011  0.5052886E+02  0.7816164E-02  0.1300439E+00
        -11   -1    0    0    0    0  0.00000000000E+00  0.00000000000E+00  0.45593999997E+02  0.45594000000E+02  0.51100000000E-03 0.  1.
         11   -1    0    0    0    0 -0.00000000000E+00 -0.00000000000E+00 -0.45593999997E+02  0.45594000000E+02  0.51100000000E-03 0. -1.
    9900012    2    1    2    0    0  0.22321835721E+02 -0.16086261312E+02  0.29935485292E+02  0.50528862865E+02  0.30000009163E+02 0.  0.
         12    1    1    2    0    0 -0.22321835721E+02  0.16086261312E+02 -0.29935485292E+02  0.40659137135E+02  0.00000000000E+00 0. -1.
         11    1    3    3    0    0  0.33432545064E+00 -0.29824123708E+01  0.14152092526E+02  0.14466799238E+02  0.51100000000E-03 0.  1.
        -11    1    3    3    0    0 -0.28349900145E+01 -0.59463373728E+01  0.34129986584E+01  0.74192086260E+01  0.51100000000E-03 0. -1.
        -12    1    3    3    0    0  0.24822500285E+02 -0.71575115681E+01  0.12370394108E+02  0.28642855001E+02  0.00000000000E+00 0.  1.
</event>
<event>
 7    1  0.2744502E-011  0.5052886E+02  0.7816164E-02  0.1300439E+00
        -11   -1    0    0    0    0  0.00000000000E+00  0.00000000000E+00  0.45593999997E+02  0.45594000000E+02  0.51100000000E-03 0.  1.
         11   -1    0    0    0    0 -0.00000000000E+00 -0.00000000000E+00 -0.45593999997E+02  0.45594000000E+02  0.51100000000E-03 0. -1.
    9900012    2    1    2    0    0  0.10522619124E+02 -0.36579011981E+02  0.14297417117E+02  0.50528858753E+02  0.29999996666E+02 0.  0.
         12    1    1    2    0    0 -0.10522619124E+02  0.36579011981E+02 -0.14297417117E+02  0.40659141247E+02  0.00000000000E+00 0. -1.
         11    1    3    3    0    0 -0.44220982748E+01 -0.21939588283E+02  0.29982395909E+01  0.22580742417E+02  0.51100000000E-03 0. -1.
        -11    1    3    3    0    0  0.44066006220E+01 -0.14289854906E+02  0.56452247461E+01  0.15983949605E+02  0.51100000000E-03 0.  1.
         12    1    3    3    0    0  0.10538116777E+02 -0.34956879142E+00  0.56539527802E+01  0.11964166732E+02  0.00000000000E+00 0. -1.
</event>
<event>
 7    1  0.2744502E-011  0.5052886E+02  0.7816164E-02  0.1300439E+00
        -11   -1    0    0    0    0  0.00000000000E+00  0.00000000000E+00  0.45593999997E+02  0.45594000000E+02  0.51100000000E-03 0. -1.
         11   -1    0    0    0    0 -0.00000000000E+00 -0.00000000000E+00 -0.45593999997E+02  0.45594000000E+02  0.51100000000E-03 0.  1.
    9900012    2    1    2    0    0 -0.39253269946E+02  0.50093621123E+01  0.93409370665E+01  0.50528855696E+02  0.29999987374E+02 0.  0.
         12    1    1    2    0    0  0.39253269946E+02 -0.50093621123E+01 -0.93409370665E+01  0.40659144304E+02  0.00000000000E+00 0. -1.
         11    1    3    3    0    0 -0.16339530296E+01  0.34190128397E+01  0.55566846817E+01  0.67257859179E+01  0.51100000000E-03 0. -1.
        -11    1    3    3    0    0 -0.36076328889E+02  0.14255882723E+01  0.99456285880E+01  0.37449290197E+02  0.51100000000E-03 0.  1.
         12    1    3    3    0    0 -0.15429880279E+01  0.16476100023E+00 -0.61613762032E+01  0.63537795806E+01  0.00000000000E+00 0. -1.
</event>
<event>
 7    1  0.2744502E-011  0.5052886E+02  0.7816164E-02  0.1300439E+00
        -11   -1    0    0    0    0  0.00000000000E+00  0.00000000000E+00  0.45593999997E+02  0.45594000000E+02  0.51100000000E-03 0.  1.
         11   -1    0    0    0    0 -0.00000000000E+00 -0.00000000000E+00 -0.45593999997E+02  0.45594000000E+02  0.51100000000E-03 0. -1.
    9900012    2    1    2    0    0 -0.47425287165E+01 -0.91057774129E+01  0.39341567600E+02  0.50528859550E+02  0.29999999087E+02 0.  0.
         12    1    1    2    0    0  0.47425287165E+01  0.91057774129E+01 -0.39341567600E+02  0.40659140450E+02  0.00000000000E+00 0. -1.
         11    1    3    3    0    0 -0.14422916437E+01 -0.13934641216E+02  0.18183987699E+02  0.22954560329E+02  0.51100000000E-03 0.  1.
        -11    1    3    3    0    0  0.14535120768E+01 -0.57888268867E+01  0.59531924151E+01  0.84299296719E+01  0.51100000000E-03 0. -1.
        -12    1    3    3    0    0 -0.47537491495E+01  0.10617690690E+02  0.15204387486E+02  0.19144369548E+02  0.00000000000E+00 0.  1.
</event>
<event>
 7    1  0.2744502E-011  0.5052886E+02  0.7816164E-02  0.1300439E+00
        -11   -1    0    0    0    0  0.00000000000E+00  0.00000000000E+00  0.45593999997E+02  0.45594000000E+02  0.51100000000E-03 0.  1.
         11   -1    0    0    0    0 -0.00000000000E+00 -0.00000000000E+00 -0.45593999997E+02  0.45594000000E+02  0.51100000000E-03 0. -1.
    9900012    2    1    2    0    0 -0.56972303317E+01  0.24351018515E+02  0.32058306307E+02  0.50528861551E+02  0.30000005170E+02 0.  0.
         12    1    1    2    0    0  0.56972303317E+01 -0.24351018515E+02 -0.32058306307E+02  0.40659138449E+02  0.00000000000E+00 0. -1.
         11    1    3    3    0    0 -0.26271432151E+00 -0.15734653911E+00 -0.43889596033E+01  0.43996299172E+01  0.51100000000E-03 0. -1.
        -11    1    3    3    0    0 -0.17785873098E+01  0.12605841539E+02  0.78948234239E+01  0.14979948293E+02  0.51100000000E-03 0.  1.
         12    1    3    3    0    0 -0.36559287004E+01  0.11902523515E+02  0.28552442486E+02  0.31149283340E+02  0.00000000000E+00 0. -1.
</event>
<event>
 7    1  0.2744502E-011  0.5052886E+02  0.7816164E-02  0.1300439E+00
        -11   -1    0    0    0    0  0.00000000000E+00  0.00000000000E+00  0.45593999997E+02  0.45594000000E+02  0.51100000000E-03 0.  1.
         11   -1    0    0    0    0 -0.00000000000E+00 -0.00000000000E+00 -0.45593999997E+02  0.45594000000E+02  0.51100000000E-03 0. -1.
    9900012    2    1    2    0    0 -0.36858853753E+02 -0.17097634768E+02  0.15037018981E+01  0.50528864077E+02  0.30000012847E+02 0.  0.
         12    1    1    2    0    0  0.36858853753E+02  0.17097634768E+02 -0.15037018981E+01  0.40659135923E+02  0.00000000000E+00 0. -1.
         11    1    3    3    0    0 -0.10223812068E+02 -0.54290836386E+00  0.82773354430E+01  0.13165688929E+02  0.51100000000E-03 0. -1.
        -11    1    3    3    0    0 -0.83066743825E+01 -0.15569540424E+02  0.41270492493E+00  0.17651678502E+02  0.51100000000E-03 0.  1.
        -12    1    3    3    0    0 -0.18328367303E+02 -0.98518598017E+00 -0.71863384699E+01  0.19711496645E+02  0.00000000000E+00 0.  1.
</event>
<event>
 7    1  0.2744502E-011  0.5052887E+02  0.7816164E-02  0.1300439E+00
        -11   -1    0    0    0    0  0.00000000000E+00  0.00000000000E+00  0.45593999997E+02  0.45594000000E+02  0.51100000000E-03 0. -1.
         11   -1    0    0    0    0 -0.00000000000E+00 -0.00000000000E+00 -0.45593999997E+02  0.45594000000E+02  0.51100000000E-03 0.  1.
    9900012    2    1    2    0    0  0.36099501390E+02 -0.17381684577E+02  0.69186496746E+01  0.50528872209E+02  0.30000037568E+02 0.  0.
         12    1    1    2    0    0 -0.36099501390E+02  0.17381684577E+02 -0.69186496746E+01  0.40659127791E+02  0.00000000000E+00 0. -1.
         11    1    3    3    0    0  0.24881284418E+02 -0.57065617814E+01  0.67721344863E+01  0.26410319336E+02  0.51100000000E-03 0. -1.
        -11    1    3    3    0    0  0.13632222091E+02 -0.17719788170E+01 -0.13628230983E+01  0.13814292422E+02  0.51100000000E-03 0.  1.
         12    1    3    3    0    0 -0.24140051189E+01 -0.99031439790E+01  0.15093382866E+01  0.10304260451E+02  0.00000000000E+00 0. -1.
</event>
<event>
 7    1  0.2744502E-011  0.5052886E+02  0.7816164E-02  0.1300439E+00
        -11   -1    0    0    0    0  0.00000000000E+00  0.00000000000E+00  0.45593999997E+02  0.45594000000E+02  0.51100000000E-03 0.  1.
         11   -1    0    0    0    0 -0.00000000000E+00 -0.00000000000E+00 -0.45593999997E+02  0.45594000000E+02  0.51100000000E-03 0. -1.
    9900012    2    1    2    0    0  0.25081920967E+02 -0.13907977905E+02  0.28820672893E+02  0.50528858411E+02  0.29999995626E+02 0.  0.
         12    1    1    2    0    0 -0.25081920967E+02  0.13907977905E+02 -0.28820672893E+02  0.40659141589E+02  0.00000000000E+00 0. -1.
         11    1    3    3    0    0  0.17699298522E+02 -0.17808390708E+02  0.15323440577E+02  0.29414482473E+02  0.51100000000E-03 0. -1.
        -11    1    3    3    0    0  0.70526646647E+01 -0.35898308524E+01  0.10235692794E+02  0.12938174974E+02  0.51100000000E-03 0.  1.
         12    1    3    3    0    0  0.32995777954E+00  0.74902436551E+01  0.32615395219E+01  0.81762009639E+01  0.00000000000E+00 0. -1.
</event>
<event>
 7    1  0.2744502E-011  0.5052887E+02  0.7816164E-02  0.1300439E+00
        -11   -1    0    0    0    0  0.00000000000E+00  0.00000000000E+00  0.45593999997E+02  0.45594000000E+02  0.51100000000E-03 0.  1.
         11   -1    0    0    0    0 -0.00000000000E+00 -0.00000000000E+00 -0.45593999997E+02  0.45594000000E+02  0.51100000000E-03 0. -1.
    9900012    2    1    2    0    0  0.18113508173E+02 -0.36349860628E+02 -0.19374489297E+01  0.50528865057E+02  0.30000015827E+02 0.  0.
         12    1    1    2    0    0 -0.18113508173E+02  0.36349860628E+02  0.19374489297E+01  0.40659134943E+02  0.00000000000E+00 0. -1.
         11    1    3    3    0    0  0.15757874669E+02 -0.28962674788E+02 -0.11717863189E+02  0.34992220034E+02  0.51100000000E-03 0. -1.
        -11    1    3    3    0    0  0.58998886581E+01 -0.38446318381E+01  0.52848324024E+01  0.88045064558E+01  0.51100000000E-03 0.  1.
        -12    1    3    3    0    0 -0.35442551539E+01 -0.35425540017E+01  0.44955818569E+01  0.67321385668E+01  0.00000000000E+00 0.  1.
</event>
<event>
 7    1  0.2744502E-011  0.5052886E+02  0.7816164E-02  0.1300439E+00
        -11   -1    0    0    0    0  0.00000000000E+00  0.00000000000E+00  0.45593999997E+02  0.45594000000E+02  0.51100000000E-03 0.  1.
         11   -1    0    0    0    0 -0.00000000000E+00 -0.00000000000E+00 -0.45593999997E+02  0.45594000000E+02  0.51100000000E-03 0. -1.
    9900012    2    1    2    0    0  0.13945149125E+02  0.37157961825E+02  0.88308853392E+01  0.50528857769E+02  0.29999993673E+02 0.  0.
         12    1    1    2    0    0 -0.13945149125E+02 -0.37157961825E+02 -0.88308853392E+01  0.40659142231E+02  0.00000000000E+00 0. -1.
         11    1    3    3    0    0 -0.51077850318E+00 -0.12362560293E+01 -0.29167091517E+00  0.13690492442E+01  0.51100000000E-03 0. -1.
        -11    1    3    3    0    0  0.42792716738E+01  0.92322526364E+01  0.14594962835E+02  0.17792121718E+02  0.51100000000E-03 0.  1.
         12    1    3    3    0    0  0.10176655954E+02  0.29161965218E+02 -0.54724065809E+01  0.31367686806E+02  0.00000000000E+00 0. -1.
</event>
<event>
 7    1  0.2744502E-011  0.5052885E+02  0.7816164E-02  0.1300439E+00
        -11   -1    0    0    0    0  0.00000000000E+00  0.00000000000E+00  0.45593999997E+02  0.45594000000E+02  0.51100000000E-03 0.  1.
         11   -1    0    0    0    0 -0.00000000000E+00 -0.00000000000E+00 -0.45593999997E+02  0.45594000000E+02  0.51100000000E-03 0. -1.
    9900012    2    1    2    0    0  0.22352714369E+02 -0.19885916070E+01  0.33905277092E+02  0.50528854031E+02  0.29999982314E+02 0.  0.
         12    1    1    2    0    0 -0.22352714369E+02  0.19885916070E+01 -0.33905277092E+02  0.40659145969E+02  0.00000000000E+00 0. -1.
         11    1    3    3    0    0  0.42288327621E+01 -0.91391693683E+01  0.73662342045E+01  0.12476732340E+02  0.51100000000E-03 0. -1.
        -11    1    3    3    0    0  0.64968780166E+01  0.14042831454E+01  0.23912810799E+02  0.24819426981E+02  0.51100000000E-03 0.  1.
        -12    1    3    3    0    0  0.11627003590E+02  0.57462946159E+01  0.26262320882E+01  0.13232694710E+02  0.00000000000E+00 0.  1.
</event>
<event>
 7    1  0.2744502E-011  0.5052886E+02  0.7816164E-02  0.1300439E+00
        -11   -1    0    0    0    0  0.00000000000E+00  0.00000000000E+00  0.45593999997E+02  0.45594000000E+02  0.51100000000E-03 0.  1.
         11   -1    0    0    0    0 -0.00000000000E+00 -0.00000000000E+00 -0.45593999997E+02  0.45594000000E+02  0.51100000000E-03 0. -1.
    9900012    2    1    2    0    0 -0.21579453897E+02  0.21371151657E+02  0.27032702568E+02  0.50528856357E+02  0.29999989384E+02 0.  0.
         12    1    1    2    0    0  0.21579453897E+02 -0.21371151657E+02 -0.27032702568E+02  0.40659143643E+02  0.00000000000E+00 0. -1.
         11    1    3    3    0    0 -0.31542121416E+01 -0.46471063649E+01  0.66503450636E+01  0.87046965212E+01  0.51100000000E-03 0. -1.
        -11    1    3    3    0    0 -0.22738565909E+01 -0.27142535654E+01  0.23929476448E+01  0.42736161392E+01  0.51100000000E-03 0.  1.
        -12    1    3    3    0    0 -0.16151385164E+02  0.28732511587E+02  0.17989409860E+02  0.37550543697E+02  0.00000000000E+00 0.  1.
</event>
<event>
 7    1  0.2744502E-011  0.5052885E+02  0.7816164E-02  0.1300439E+00
        -11   -1    0    0    0    0  0.00000000000E+00  0.00000000000E+00  0.45593999997E+02  0.45594000000E+02  0.51100000000E-03 0. -1.
         11   -1    0    0    0    0 -0.00000000000E+00 -0.00000000000E+00 -0.45593999997E+02  0.45594000000E+02  0.51100000000E-03 0.  1.
    9900012    2    1    2    0    0  0.48671767081E+01 -0.15711067735E+02 -0.37183858168E+02  0.50528851377E+02  0.29999974246E+02 0.  0.
         12    1    1    2    0    0 -0.48671767081E+01  0.15711067735E+02  0.37183858168E+02  0.40659148623E+02  0.00000000000E+00 0. -1.
         11    1    3    3    0    0  0.24273951401E+00 -0.17901203992E+01  0.27846553277E+01  0.33193009912E+01  0.51100000000E-03 0. -1.
        -11    1    3    3    0    0 -0.94068665568E+00 -0.45793035811E+01  0.10355214530E+01  0.47882374223E+01  0.51100000000E-03 0.  1.
        -12    1    3    3    0    0  0.55651238497E+01 -0.93416437547E+01 -0.41004034949E+02  0.42421312964E+02  0.00000000000E+00 0.  1.
</event>
<event>
 7    1  0.2744502E-011  0.5052886E+02  0.7816164E-02  0.1300439E+00
        -11   -1    0    0    0    0  0.00000000000E+00  0.00000000000E+00  0.45593999997E+02  0.45594000000E+02  0.51100000000E-03 0. -1.
         11   -1    0    0    0    0 -0.00000000000E+00 -0.00000000000E+00 -0.45593999997E+02  0.45594000000E+02  0.51100000000E-03 0.  1.
    9900012    2    1    2    0    0 -0.10395295455E+02 -0.24324268823E+01 -0.39232468688E+02  0.50528862436E+02  0.30000007860E+02 0.  0.
         12    1    1    2    0    0  0.10395295455E+02  0.24324268823E+01  0.39232468688E+02  0.40659137564E+02  0.00000000000E+00 0. -1.
         11    1    3    3    0    0  0.79616203482E+00  0.16317779187E+01 -0.40754514811E+00  0.18608241374E+01  0.51100000000E-03 0. -1.
        -11    1    3    3    0    0 -0.40023928083E+01  0.10001483176E+02 -0.26584405408E+02  0.28684131939E+02  0.51100000000E-03 0.  1.
         12    1    3    3    0    0 -0.71890646814E+01 -0.14065687977E+02 -0.12240518132E+02  0.19983906360E+02  0.00000000000E+00 0. -1.
</event>
<event>
 7    1  0.2744502E-011  0.5052886E+02  0.7816164E-02  0.1300439E+00
        -11   -1    0    0    0    0  0.00000000000E+00  0.00000000000E+00  0.45593999997E+02  0.45594000000E+02  0.51100000000E-03 0.  1.
         11   -1    0    0    0    0 -0.00000000000E+00 -0.00000000000E+00 -0.45593999997E+02  0.45594000000E+02  0.51100000000E-03 0. -1.
    9900012    2    1    2    0    0  0.17228466038E+02  0.36426745697E+02  0.54256558117E+01  0.50528860990E+02  0.30000003464E+02 0.  0.
         12    1    1    2    0    0 -0.17228466038E+02 -0.36426745697E+02 -0.54256558117E+01  0.40659139010E+02  0.00000000000E+00 0. -1.
         11    1    3    3    0    0  0.31642036024E+01 -0.33808321929E+01  0.43986911856E+00  0.46514186929E+01  0.51100000000E-03 0. -1.
        -11    1    3    3    0    0  0.63710313755E+01  0.31589246277E+01  0.45219389801E+01  0.84271453050E+01  0.51100000000E-03 0.  1.
        -12    1    3    3    0    0  0.76932310601E+01  0.36648653262E+02  0.46384771307E+00  0.37450296992E+02  0.00000000000E+00 0.  1.
</event>
<event>
 7    1  0.2744502E-011  0.5052887E+02  0.7816164E-02  0.1300439E+00
        -11   -1    0    0    0    0  0.00000000000E+00  0.00000000000E+00  0.45593999997E+02  0.45594000000E+02  0.51100000000E-03 0.  1.
         11   -1    0    0    0    0 -0.00000000000E+00 -0.00000000000E+00 -0.45593999997E+02  0.45594000000E+02  0.51100000000E-03 0. -1.
    9900012    2    1    2    0    0 -0.35375941449E+02 -0.19650242695E+02  0.39466109287E+01  0.50528868071E+02  0.30000024989E+02 0.  0.
         12    1    1    2    0    0  0.35375941449E+02  0.19650242695E+02 -0.39466109287E+01  0.40659131929E+02  0.00000000000E+00 0. -1.
         11    1    3    3    0    0 -0.65831458397E+01 -0.13329002200E+02  0.45907418523E+01  0.15558760227E+02  0.51100000000E-03 0. -1.
        -11    1    3    3    0    0 -0.17234031883E+02 -0.10173844489E+02  0.62559994978E+01  0.20967987424E+02  0.51100000000E-03 0.  1.
        -12    1    3    3    0    0 -0.11558763726E+02  0.38526039941E+01 -0.69001304214E+01  0.14002120420E+02  0.00000000000E+00 0.  1.
</event>
<event>
 7    1  0.2744502E-011  0.5052886E+02  0.7816164E-02  0.1300439E+00
        -11   -1    0    0    0    0  0.00000000000E+00  0.00000000000E+00  0.45593999997E+02  0.45594000000E+02  0.51100000000E-03 0.  1.
         11   -1    0    0    0    0 -0.00000000000E+00 -0.00000000000E+00 -0.45593999997E+02  0.45594000000E+02  0.51100000000E-03 0. -1.
    9900012    2    1    2    0    0 -0.12111215665E+02 -0.35456791654E+01  0.38651160852E+02  0.50528860550E+02  0.30000002127E+02 0.  0.
         12    1    1    2    0    0  0.12111215665E+02  0.35456791654E+01 -0.38651160852E+02  0.40659139450E+02  0.00000000000E+00 0. -1.
         11    1    3    3    0    0 -0.20553999666E+01 -0.79850799392E+01  0.22814718127E+02  0.24258968118E+02  0.51100000000E-03 0.  1.
        -11    1    3    3    0    0 -0.12264900547E+02 -0.34054462348E+01  0.85157469639E+01  0.15314790110E+02  0.51100000000E-03 0. -1.
         12    1    3    3    0    0  0.22090848492E+01  0.78448470086E+01  0.73206957614E+01  0.10955102322E+02  0.00000000000E+00 0. -1.
</event>
<event>
 7    1  0.2744502E-011  0.5052886E+02  0.7816164E-02  0.1300439E+00
        -11   -1    0    0    0    0  0.00000000000E+00  0.00000000000E+00  0.45593999997E+02  0.45594000000E+02  0.51100000000E-03 0.  1.
         11   -1    0    0    0    0 -0.00000000000E+00 -0.00000000000E+00 -0.45593999997E+02  0.45594000000E+02  0.51100000000E-03 0. -1.
    9900012    2    1    2    0    0  0.36317485759E+02 -0.86202478005E+01  0.16121328084E+02  0.50528860029E+02  0.30000000543E+02 0.  0.
         12    1    1    2    0    0 -0.36317485759E+02  0.86202478005E+01 -0.16121328084E+02  0.40659139971E+02  0.00000000000E+00 0. -1.
         11    1    3    3    0    0  0.25735209436E+02 -0.16495518138E+01 -0.25802911910E+00  0.25789311840E+02  0.51100000000E-03 0. -1.
        -11    1    3    3    0    0 -0.16592068930E+01 -0.27917723305E+01 -0.69261292962E+00  0.33206434904E+01  0.51100000000E-03 0.  1.
        -12    1    3    3    0    0  0.12241483216E+02 -0.41789236562E+01  0.17071970133E+02  0.21418904698E+02  0.00000000000E+00 0.  1.
</event>
<event>
 7    1  0.2744502E-011  0.5052892E+02  0.7816164E-02  0.1300439E+00
        -11   -1    0    0    0    0  0.00000000000E+00  0.00000000000E+00  0.45593999997E+02  0.45594000000E+02  0.51100000000E-03 0. -1.
         11   -1    0    0    0    0 -0.00000000000E+00 -0.00000000000E+00 -0.45593999997E+02  0.45594000000E+02  0.51100000000E-03 0.  1.
    9900012    2    1    2    0    0  0.28892087185E+02 -0.24433323864E+02 -0.14880219240E+02  0.50528918092E+02  0.30000177031E+02 0.  0.
         12    1    1    2    0    0 -0.28892087185E+02  0.24433323864E+02  0.14880219240E+02  0.40659081908E+02  0.00000000000E+00 0. -1.
         11    1    3    3    0    0  0.67753518793E+01 -0.43245527647E+01 -0.47301765560E+01  0.93263991023E+01  0.51100000000E-03 0. -1.
        -11    1    3    3    0    0  0.46644561873E+01 -0.19222252027E+02 -0.12753069801E+02  0.23534929661E+02  0.51100000000E-03 0.  1.
        -12    1    3    3    0    0  0.17452279119E+02 -0.88651907241E+00  0.26030271167E+01  0.17667589329E+02  0.00000000000E+00 0.  1.
</event>
<event>
 7    1  0.2744502E-011  0.5052886E+02  0.7816164E-02  0.1300439E+00
        -11   -1    0    0    0    0  0.00000000000E+00  0.00000000000E+00  0.45593999997E+02  0.45594000000E+02  0.51100000000E-03 0.  1.
         11   -1    0    0    0    0 -0.00000000000E+00 -0.00000000000E+00 -0.45593999997E+02  0.45594000000E+02  0.51100000000E-03 0. -1.
    9900012    2    1    2    0    0 -0.27680129894E+02 -0.29198824099E+02  0.58655372946E+01  0.50528862682E+02  0.30000008607E+02 0.  0.
         12    1    1    2    0    0  0.27680129894E+02  0.29198824099E+02 -0.58655372946E+01  0.40659137318E+02  0.00000000000E+00 0. -1.
         11    1    3    3    0    0 -0.86588558498E+01 -0.19072972976E+02  0.44646038394E+01  0.21416973887E+02  0.51100000000E-03 0. -1.
        -11    1    3    3    0    0 -0.19251054418E+01 -0.72752857587E+01  0.76084662048E+01  0.10701615396E+02  0.51100000000E-03 0.  1.
        -12    1    3    3    0    0 -0.17096168602E+02 -0.28505653643E+01 -0.62075327495E+01  0.18410273399E+02  0.00000000000E+00 0.  1.
</event>
<event>
 7    1  0.2744502E-011  0.5052886E+02  0.7816164E-02  0.1300439E+00
        -11   -1    0    0    0    0  0.00000000000E+00  0.00000000000E+00  0.45593999997E+02  0.45594000000E+02  0.51100000000E-03 0. -1.
         11   -1    0    0    0    0 -0.00000000000E+00 -0.00000000000E+00 -0.45593999997E+02  0.45594000000E+02  0.51100000000E-03 0.  1.
    9900012    2    1    2    0    0  0.12525761553E+02 -0.18455490574E+02 -0.33995086132E+02  0.50528859380E+02  0.29999998573E+02 0.  0.
         12    1    1    2    0    0 -0.12525761553E+02  0.18455490574E+02  0.33995086132E+02  0.40659140620E+02  0.00000000000E+00 0. -1.
         11    1    3    3    0    0  0.31935812976E+01 -0.65781187161E+01 -0.33358752232E+01  0.80373298497E+01  0.51100000000E-03 0. -1.
        -11    1    3    3    0    0 -0.24452985431E+01 -0.16555159582E+02 -0.18068293594E+02  0.24627546110E+02  0.51100000000E-03 0.  1.
         12    1    3    3    0    0  0.11777478799E+02  0.46777877232E+01 -0.12590917315E+02  0.17863983421E+02  0.00000000000E+00 0. -1.
</event>
<event>
 7    1  0.2744502E-011  0.5052884E+02  0.7816164E-02  0.1300439E+00
        -11   -1    0    0    0    0  0.00000000000E+00  0.00000000000E+00  0.45593999997E+02  0.45594000000E+02  0.51100000000E-03 0. -1.
         11   -1    0    0    0    0 -0.00000000000E+00 -0.00000000000E+00 -0.45593999997E+02  0.45594000000E+02  0.51100000000E-03 0.  1.
    9900012    2    1    2    0    0 -0.37862010986E+02  0.37246494760E+01 -0.14344407184E+02  0.50528844732E+02  0.29999954049E+02 0.  0.
         12    1    1    2    0    0  0.37862010986E+02 -0.37246494760E+01  0.14344407184E+02  0.40659155268E+02  0.00000000000E+00 0. -1.
         11    1    3    3    0    0 -0.39117692284E+01 -0.40476033048E+01  0.62243791097E+01  0.83921348042E+01  0.51100000000E-03 0. -1.
        -11    1    3    3    0    0 -0.15529216264E+02  0.52301134149E+01 -0.32093288848E+01  0.16697617682E+02  0.51100000000E-03 0.  1.
        -12    1    3    3    0    0 -0.18421025493E+02  0.25421393660E+01 -0.17359457408E+02  0.25439092246E+02  0.00000000000E+00 0.  1.
</event>
<event>
 7    1  0.2744502E-011  0.5052886E+02  0.7816164E-02  0.1300439E+00
        -11   -1    0    0    0    0  0.00000000000E+00  0.00000000000E+00  0.45593999997E+02  0.45594000000E+02  0.51100000000E-03 0. -1.
         11   -1    0    0    0    0 -0.00000000000E+00 -0.00000000000E+00 -0.45593999997E+02  0.45594000000E+02  0.51100000000E-03 0.  1.
    9900012    2    1    2    0    0  0.31708755955E+02 -0.21522310383E+02 -0.13583474141E+02  0.50528858123E+02  0.29999994750E+02 0.  0.
         12    1    1    2    0    0 -0.31708755955E+02  0.21522310383E+02  0.13583474141E+02  0.40659141877E+02  0.00000000000E+00 0. -1.
         11    1    3    3    0    0  0.13999515228E+01 -0.13681981299E+01  0.14484346530E+01  0.24351167517E+01  0.51100000000E-03 0. -1.
        -11    1    3    3    0    0  0.29202155423E+02 -0.40134665882E+01 -0.88822887047E+01  0.30785854679E+02  0.51100000000E-03 0.  1.
        -12    1    3    3    0    0  0.11066490091E+01 -0.16140645665E+02 -0.61496200898E+01  0.17307886692E+02  0.00000000000E+00 0.  1.
</event>
<event>
 7    1  0.2744502E-011  0.5052894E+02  0.7816164E-02  0.1300439E+00
        -11   -1    0    0    0    0  0.00000000000E+00  0.00000000000E+00  0.45593999997E+02  0.45594000000E+02  0.51100000000E-03 0.  1.
         11   -1    0    0    0    0 -0.00000000000E+00 -0.00000000000E+00 -0.45593999997E+02  0.45594000000E+02  0.51100000000E-03 0. -1.
    9900012    2    1    2    0    0  0.27322718158E+02  0.21027117331E+02  0.21551996874E+02  0.50528940000E+02  0.30000243624E+02 0.  0.
         12    1    1    2    0    0 -0.27322718158E+02 -0.21027117331E+02 -0.21551996874E+02  0.40659060000E+02  0.00000000000E+00 0. -1.
         11    1    3    3    0    0 -0.18644158184E+01  0.19152904151E+00 -0.32641320246E+01  0.37639457824E+01  0.51100000000E-03 0. -1.
        -11    1    3    3    0    0  0.43871415335E+01  0.50591415220E+01 -0.19883780876E+01  0.69853826992E+01  0.51100000000E-03 0.  1.
        -12    1    3    3    0    0  0.24799992443E+02  0.15776446767E+02  0.26804506987E+02  0.39779611519E+02  0.00000000000E+00 0.  1.
</event>
<event>
 7    1  0.2744502E-011  0.5052887E+02  0.7816164E-02  0.1300439E+00
        -11   -1    0    0    0    0  0.00000000000E+00  0.00000000000E+00  0.45593999997E+02  0.45594000000E+02  0.51100000000E-03 0.  1.
         11   -1    0    0    0    0 -0.00000000000E+00 -0.00000000000E+00 -0.45593999997E+02  0.45594000000E+02  0.51100000000E-03 0. -1.
    9900012    2    1    2    0    0 -0.30124778087E+02 -0.27269442552E+02  0.14283637581E+01  0.50528868493E+02  0.30000026271E+02 0.  0.
         12    1    1    2    0    0  0.30124778087E+02  0.27269442552E+02 -0.14283637581E+01  0.40659131507E+02  0.00000000000E+00 0. -1.
         11    1    3    3    0    0 -0.20212434176E+02 -0.14885016775E+02 -0.12611368045E+01  0.25133576865E+02  0.51100000000E-03 0.  1.
        -11    1    3    3    0    0 -0.92579348415E+01 -0.17305941737E+02 -0.24480774072E+00  0.19628166192E+02  0.51100000000E-03 0. -1.
        -12    1    3    3    0    0 -0.65440906925E+00  0.49215159606E+01  0.29343083033E+01  0.57671254364E+01  0.00000000000E+00 0.  1.
</event>
<event>
 7    1  0.2744502E-011  0.5052886E+02  0.7816164E-02  0.1300439E+00
        -11   -1    0    0    0    0  0.00000000000E+00  0.00000000000E+00  0.45593999997E+02  0.45594000000E+02  0.51100000000E-03 0.  1.
         11   -1    0    0    0    0 -0.00000000000E+00 -0.00000000000E+00 -0.45593999997E+02  0.45594000000E+02  0.51100000000E-03 0. -1.
    9900012    2    1    2    0    0 -0.23078704397E+02 -0.20850968660E+02  0.26187332213E+02  0.50528857619E+02  0.29999993218E+02 0.  0.
         12    1    1    2    0    0  0.23078704397E+02  0.20850968660E+02 -0.26187332213E+02  0.40659142381E+02  0.00000000000E+00 0. -1.
         11    1    3    3    0    0 -0.19819330479E+01 -0.37278668813E+01 -0.64493285328E+01  0.77083648640E+01  0.51100000000E-03 0. -1.
        -11    1    3    3    0    0 -0.34599306401E+01 -0.82914694541E+00  0.58522110387E+01  0.68488669861E+01  0.51100000000E-03 0.  1.
        -12    1    3    3    0    0 -0.17636840709E+02 -0.16293954833E+02  0.26784449708E+02  0.35971625769E+02  0.00000000000E+00 0.  1.
</event>
<event>
 7    1  0.2744502E-011  0.5052885E+02  0.7816164E-02  0.1300439E+00
        -11   -1    0    0    0    0  0.00000000000E+00  0.00000000000E+00  0.45593999997E+02  0.45594000000E+02  0.51100000000E-03 0.  1.
         11   -1    0    0    0    0 -0.00000000000E+00 -0.00000000000E+00 -0.45593999997E+02  0.45594000000E+02  0.51100000000E-03 0. -1.
    9900012    2    1    2    0    0 -0.13837691255E+02  0.19316688439E+02  0.32993184317E+02  0.50528851424E+02  0.29999974389E+02 0.  0.
         12    1    1    2    0    0  0.13837691255E+02 -0.19316688439E+02 -0.32993184317E+02  0.40659148576E+02  0.00000000000E+00 0. -1.
         11    1    3    3    0    0 -0.93023538441E+01  0.99538632540E+01  0.12543267732E+02  0.18518821409E+02  0.51100000000E-03 0.  1.
        -11    1    3    3    0    0  0.41040842627E+01  0.13870758973E+02  0.92764227967E+01  0.17184105513E+02  0.51100000000E-03 0. -1.
         12    1    3    3    0    0 -0.86394216738E+01 -0.45079337879E+01  0.11173493789E+02  0.14825924502E+02  0.00000000000E+00 0. -1.
</event>
<event>
 7    1  0.2744502E-011  0.5052886E+02  0.7816164E-02  0.1300439E+00
        -11   -1    0    0    0    0  0.00000000000E+00  0.00000000000E+00  0.45593999997E+02  0.45594000000E+02  0.51100000000E-03 0.  1.
         11   -1    0    0    0    0 -0.00000000000E+00 -0.00000000000E+00 -0.45593999997E+02  0.45594000000E+02  0.51100000000E-03 0. -1.
    9900012    2    1    2    0    0  0.56465369237E+01  0.85303612190E+01  0.39351181425E+02  0.50528856855E+02  0.29999990896E+02 0.  0.
         12    1    1    2    0    0 -0.56465369237E+01 -0.85303612190E+01 -0.39351181425E+02  0.40659143145E+02  0.00000000000E+00 0. -1.
         11    1    3    3    0    0  0.96451792370E+01  0.24943390508E+01  0.45925877406E+01  0.10970099007E+02  0.51100000000E-03 0. -1.
        -11    1    3    3    0    0  0.31831146746E+01  0.10098074851E+02  0.20931553819E+02  0.23457051824E+02  0.51100000000E-03 0.  1.
        -12    1    3    3    0    0 -0.71817569879E+01 -0.40620526828E+01  0.13827039865E+02  0.16101706023E+02  0.00000000000E+00 0.  1.
</event>
<event>
 7    1  0.2744502E-011  0.5052886E+02  0.7816164E-02  0.1300439E+00
        -11   -1    0    0    0    0  0.00000000000E+00  0.00000000000E+00  0.45593999997E+02  0.45594000000E+02  0.51100000000E-03 0. -1.
         11   -1    0    0    0    0 -0.00000000000E+00 -0.00000000000E+00 -0.45593999997E+02  0.45594000000E+02  0.51100000000E-03 0.  1.
    9900012    2    1    2    0    0  0.53349209997E+01  0.14523562867E+02 -0.37600135517E+02  0.50528862634E+02  0.30000008462E+02 0.  0.
         12    1    1    2    0    0 -0.53349209997E+01 -0.14523562867E+02  0.37600135517E+02  0.40659137366E+02  0.00000000000E+00 0. -1.
         11    1    3    3    0    0 -0.32964573671E+01  0.59434924451E+01  0.18578534859E+01  0.70458039609E+01  0.51100000000E-03 0. -1.
        -11    1    3    3    0    0  0.13692901223E+01 -0.14155165695E+01  0.16706262796E+00  0.19765001342E+01  0.51100000000E-03 0.  1.
        -12    1    3    3    0    0  0.72620882445E+01  0.99955869913E+01 -0.39625051631E+02  0.41506558539E+02  0.00000000000E+00 0.  1.
</event>
<event>
 7    1  0.2744502E-011  0.5052886E+02  0.7816164E-02  0.1300439E+00
        -11   -1    0    0    0    0  0.00000000000E+00  0.00000000000E+00  0.45593999997E+02  0.45594000000E+02  0.51100000000E-03 0.  1.
         11   -1    0    0    0    0 -0.00000000000E+00 -0.00000000000E+00 -0.45593999997E+02  0.45594000000E+02  0.51100000000E-03 0. -1.
    9900012    2    1    2    0    0 -0.40090260420E+02 -0.65966385354E+01  0.15560869970E+01  0.50528855552E+02  0.29999986936E+02 0.  0.
         12    1    1    2    0    0  0.40090260420E+02  0.65966385354E+01 -0.15560869970E+01  0.40659144448E+02  0.00000000000E+00 0. -1.
         11    1    3    3    0    0 -0.35028501244E+01  0.44684512892E+01 -0.57131952369E+01  0.80546642385E+01  0.51100000000E-03 0. -1.
        -11    1    3    3    0    0 -0.23132393700E+01 -0.20543267821E+01 -0.42082248928E+01  0.52230730342E+01  0.51100000000E-03 0.  1.
        -12    1    3    3    0    0 -0.34274170925E+02 -0.90107630424E+01  0.11477507127E+02  0.37251118279E+02  0.00000000000E+00 0.  1.
</event>
<event>
 7    1  0.2744502E-011  0.5052887E+02  0.7816164E-02  0.1300439E+00
        -11   -1    0    0    0    0  0.00000000000E+00  0.00000000000E+00  0.45593999997E+02  0.45594000000E+02  0.51100000000E-03 0. -1.
         11   -1    0    0    0    0 -0.00000000000E+00 -0.00000000000E+00 -0.45593999997E+02  0.45594000000E+02  0.51100000000E-03 0.  1.
    9900012    2    1    2    0    0  0.34738644828E+02 -0.14616807224E+02 -0.15255820418E+02  0.50528873663E+02  0.30000041985E+02 0.  0.
         12    1    1    2    0    0 -0.34738644828E+02  0.14616807224E+02  0.15255820418E+02  0.40659126337E+02  0.00000000000E+00 0. -1.
         11    1    3    3    0    0 -0.13660958520E+01  0.39058063452E+01 -0.26998583159E+01  0.49407262898E+01  0.51100000000E-03 0. -1.
        -11    1    3    3    0    0  0.11096121702E+02  0.14710957460E+01 -0.66801387508E+01  0.13035040986E+02  0.51100000000E-03 0.  1.
        -12    1    3    3    0    0  0.25008618978E+02 -0.19993709316E+02 -0.58758233513E+01  0.32553106387E+02  0.00000000000E+00 0.  1.
</event>
<event>
 7    1  0.2744502E-011  0.5052887E+02  0.7816164E-02  0.1300439E+00
        -11   -1    0    0    0    0  0.00000000000E+00  0.00000000000E+00  0.45593999997E+02  0.45594000000E+02  0.51100000000E-03 0. -1.
         11   -1    0    0    0    0 -0.00000000000E+00 -0.00000000000E+00 -0.45593999997E+02  0.45594000000E+02  0.51100000000E-03 0.  1.
    9900012    2    1    2    0    0 -0.29793895196E+02  0.47707485703E+01 -0.27253049886E+02  0.50528868665E+02  0.30000026793E+02 0.  0.
         12    1    1    2    0    0  0.29793895196E+02 -0.47707485703E+01  0.27253049886E+02  0.40659131335E+02  0.00000000000E+00 0. -1.
         11    1    3    3    0    0 -0.74333071871E+01 -0.81329098846E+00  0.12615199656E+00  0.74787306782E+01  0.51100000000E-03 0. -1.
        -11    1    3    3    0    0 -0.10079749393E+02  0.41457147978E+01  0.20849825686E+01  0.11096641455E+02  0.51100000000E-03 0.  1.
        -12    1    3    3    0    0 -0.12280838615E+02  0.14383247610E+01 -0.29464184451E+02  0.31953496531E+02  0.00000000000E+00 0.  1.
</event>
<event>
 7    1  0.2744502E-011  0.5052885E+02  0.7816164E-02  0.1300439E+00
        -11   -1    0    0    0    0  0.00000000000E+00  0.00000000000E+00  0.45593999997E+02  0.45594000000E+02  0.51100000000E-03 0.  1.
         11   -1    0    0    0    0 -0.00000000000E+00 -0.00000000000E+00 -0.45593999997E+02  0.45594000000E+02  0.51100000000E-03 0. -1.
    9900012    2    1    2    0    0 -0.26482074157E+01  0.35443676806E+02  0.19745860699E+02  0.50528852902E+02  0.29999978880E+02 0.  0.
         12    1    1    2    0    0  0.26482074157E+01 -0.35443676806E+02 -0.19745860699E+02  0.40659147098E+02  0.00000000000E+00 0. -1.
         11    1    3    3    0    0 -0.61853604875E+01  0.74540263336E+01 -0.92089093651E+00  0.97298115768E+01  0.51100000000E-03 0. -1.
        -11    1    3    3    0    0 -0.89076349909E+00  0.66276306168E+01 -0.40606112503E+01  0.78235229399E+01  0.51100000000E-03 0.  1.
        -12    1    3    3    0    0  0.44279165708E+01  0.21362019855E+02  0.24727362886E+02  0.32975518385E+02  0.00000000000E+00 0.  1.
</event>
<event>
 7    1  0.2744502E-011  0.5052884E+02  0.7816164E-02  0.1300439E+00
        -11   -1    0    0    0    0  0.00000000000E+00  0.00000000000E+00  0.45593999997E+02  0.45594000000E+02  0.51100000000E-03 0.  1.
         11   -1    0    0    0    0 -0.00000000000E+00 -0.00000000000E+00 -0.45593999997E+02  0.45594000000E+02  0.51100000000E-03 0. -1.
    9900012    2    1    2    0    0  0.23727873393E+02 -0.30497109397E+01  0.32876348187E+02  0.50528843802E+02  0.29999951221E+02 0.  0.
         12    1    1    2    0    0 -0.23727873393E+02  0.30497109397E+01 -0.32876348187E+02  0.40659156198E+02  0.00000000000E+00 0. -1.
         11    1    3    3    0    0 -0.20463898823E+01  0.28073274383E+01 -0.22866245669E+01  0.41590204456E+01  0.51100000000E-03 0. -1.
        -11    1    3    3    0    0 -0.10944240331E+01 -0.18457696955E+01  0.66472125850E+01  0.69849885572E+01  0.51100000000E-03 0.  1.
        -12    1    3    3    0    0  0.26868687309E+02 -0.40112686824E+01  0.28515760169E+02  0.39384834799E+02  0.00000000000E+00 0.  1.
</event>
<event>
 7    1  0.2744502E-011  0.5052886E+02  0.7816164E-02  0.1300439E+00
        -11   -1    0    0    0    0  0.00000000000E+00  0.00000000000E+00  0.45593999997E+02  0.45594000000E+02  0.51100000000E-03 0.  1.
         11   -1    0    0    0    0 -0.00000000000E+00 -0.00000000000E+00 -0.45593999997E+02  0.45594000000E+02  0.51100000000E-03 0. -1.
    9900012    2    1    2    0    0 -0.36059347582E+02  0.38439607057E+01 -0.18387854039E+02  0.50528858862E+02  0.29999996997E+02 0.  0.
         12    1    1    2    0    0  0.36059347582E+02 -0.38439607057E+01  0.18387854039E+02  0.40659141138E+02  0.00000000000E+00 0. -1.
         11    1    3    3    0    0 -0.30707633910E+01 -0.36924734600E+01 -0.22779550221E+01  0.53153576926E+01  0.51100000000E-03 0. -1.
        -11    1    3    3    0    0 -0.60273843945E+01  0.14940092073E+01  0.68812722117E+01  0.92689445820E+01  0.51100000000E-03 0.  1.
        -12    1    3    3    0    0 -0.26961199796E+02  0.60424249584E+01 -0.22991171228E+02  0.35944556588E+02  0.00000000000E+00 0.  1.
</event>
<event>
 7    1  0.2744502E-011  0.5052885E+02  0.7816164E-02  0.1300439E+00
        -11   -1    0    0    0    0  0.00000000000E+00  0.00000000000E+00  0.45593999997E+02  0.45594000000E+02  0.51100000000E-03 0.  1.
         11   -1    0    0    0    0 -0.00000000000E+00 -0.00000000000E+00 -0.45593999997E+02  0.45594000000E+02  0.51100000000E-03 0. -1.
    9900012    2    1    2    0    0 -0.19374382395E+02 -0.88455812524E+00  0.35735382087E+02  0.50528847658E+02  0.29999962942E+02 0.  0.
         12    1    1    2    0    0  0.19374382395E+02  0.88455812524E+00 -0.35735382087E+02  0.40659152342E+02  0.00000000000E+00 0. -1.
         11    1    3    3    0    0 -0.32177957920E+01  0.88087172581E+01  0.39772895543E+01  0.10186586374E+02  0.51100000000E-03 0. -1.
        -11    1    3    3    0    0 -0.69123691405E+01 -0.10233748272E+02  0.76747261513E+01  0.14540009374E+02  0.51100000000E-03 0.  1.
         12    1    3    3    0    0 -0.92442174626E+01  0.54047288854E+00  0.24083366381E+02  0.25802251911E+02  0.00000000000E+00 0. -1.
</event>
<event>
 7    1  0.2744502E-011  0.5052886E+02  0.7816164E-02  0.1300439E+00
        -11   -1    0    0    0    0  0.00000000000E+00  0.00000000000E+00  0.45593999997E+02  0.45594000000E+02  0.51100000000E-03 0.  1.
         11   -1    0    0    0    0 -0.00000000000E+00 -0.00000000000E+00 -0.45593999997E+02  0.45594000000E+02  0.51100000000E-03 0. -1.
    9900012    2    1    2    0    0  0.11424919187E+02 -0.14164681527E+02  0.36359301903E+02  0.50528858149E+02  0.29999994831E+02 0.  0.
         12    1    1    2    0    0 -0.11424919187E+02  0.14164681527E+02 -0.36359301903E+02  0.40659141851E+02  0.00000000000E+00 0. -1.
         11    1    3    3    0    0  0.36011520600E+01 -0.10987196937E+02  0.15610964121E+02  0.19426502354E+02  0.51100000000E-03 0.  1.
        -11    1    3    3    0    0 -0.14648975658E+00 -0.79659979992E+01  0.20284018800E+02  0.21792659368E+02  0.51100000000E-03 0. -1.
         12    1    3    3    0    0  0.79702568832E+01  0.47885134088E+01  0.46431898163E+00  0.93096964272E+01  0.00000000000E+00 0. -1.
</event>
<event>
 7    1  0.2744502E-011  0.5052883E+02  0.7816164E-02  0.1300439E+00
        -11   -1    0    0    0    0  0.00000000000E+00  0.00000000000E+00  0.45593999997E+02  0.45594000000E+02  0.51100000000E-03 0.  1.
         11   -1    0    0    0    0 -0.00000000000E+00 -0.00000000000E+00 -0.45593999997E+02  0.45594000000E+02  0.51100000000E-03 0. -1.
    9900012    2    1    2    0    0  0.26754065922E+02  0.22717172260E+02  0.20526038519E+02  0.50528828634E+02  0.29999905117E+02 0.  0.
         12    1    1    2    0    0 -0.26754065922E+02 -0.22717172260E+02 -0.20526038519E+02  0.40659171366E+02  0.00000000000E+00 0. -1.
         11    1    3    3    0    0  0.54965912410E+01  0.54326132432E+01  0.16090438769E+02  0.17850154676E+02  0.51100000000E-03 0. -1.
        -11    1    3    3    0    0  0.42657514940E+01  0.11506174898E+02  0.76287547202E+01  0.14449449658E+02  0.51100000000E-03 0.  1.
         12    1    3    3    0    0  0.16991723187E+02  0.57783841192E+01 -0.31931549707E+01  0.18229224300E+02  0.00000000000E+00 0. -1.
</event>
<event>
 7    1  0.2744502E-011  0.5052886E+02  0.7816164E-02  0.1300439E+00
        -11   -1    0    0    0    0  0.00000000000E+00  0.00000000000E+00  0.45593999997E+02  0.45594000000E+02  0.51100000000E-03 0.  1.
         11   -1    0    0    0    0 -0.00000000000E+00 -0.00000000000E+00 -0.45593999997E+02  0.45594000000E+02  0.51100000000E-03 0. -1.
    9900012    2    1    2    0    0 -0.11341421492E+02  0.30426234714E+02  0.24470025144E+02  0.50528859196E+02  0.29999998013E+02 0.  0.
         12    1    1    2    0    0  0.11341421492E+02 -0.30426234714E+02 -0.24470025144E+02  0.40659140804E+02  0.00000000000E+00 0. -1.
         11    1    3    3    0    0  0.30264578675E+01  0.44256668028E+01  0.15956284113E+02  0.16832972905E+02  0.51100000000E-03 0. -1.
        -11    1    3    3    0    0 -0.69227256864E+01  0.16442892099E+02  0.11489780017E+02  0.21220458916E+02  0.51100000000E-03 0.  1.
        -12    1    3    3    0    0 -0.74451536729E+01  0.95576758124E+01 -0.29760389853E+01  0.12475427375E+02  0.00000000000E+00 0.  1.
</event>
<event>
 7    1  0.2744502E-011  0.5052886E+02  0.7816164E-02  0.1300439E+00
        -11   -1    0    0    0    0  0.00000000000E+00  0.00000000000E+00  0.45593999997E+02  0.45594000000E+02  0.51100000000E-03 0.  1.
         11   -1    0    0    0    0 -0.00000000000E+00 -0.00000000000E+00 -0.45593999997E+02  0.45594000000E+02  0.51100000000E-03 0. -1.
    9900012    2    1    2    0    0 -0.35001597621E+02 -0.58960067675E+01  0.19831573779E+02  0.50528855268E+02  0.29999986072E+02 0.  0.
         12    1    1    2    0    0  0.35001597621E+02  0.58960067675E+01 -0.19831573779E+02  0.40659144732E+02  0.00000000000E+00 0. -1.
         11    1    3    3    0    0 -0.27419942518E+01 -0.39367157956E+01 -0.59467775290E+01  0.76407085386E+01  0.51100000000E-03 0. -1.
        -11    1    3    3    0    0 -0.11841083307E+02 -0.57739159755E+01  0.71616488893E+01  0.14994618190E+02  0.51100000000E-03 0.  1.
        -12    1    3    3    0    0 -0.20418520062E+02  0.38146250035E+01  0.18616702418E+02  0.27893528539E+02  0.00000000000E+00 0.  1.
</event>
<event>
 7    1  0.2744502E-011  0.5052886E+02  0.7816164E-02  0.1300439E+00
        -11   -1    0    0    0    0  0.00000000000E+00  0.00000000000E+00  0.45593999997E+02  0.45594000000E+02  0.51100000000E-03 0. -1.
         11   -1    0    0    0    0 -0.00000000000E+00 -0.00000000000E+00 -0.45593999997E+02  0.45594000000E+02  0.51100000000E-03 0.  1.
    9900012    2    1    2    0    0  0.31045536720E+02  0.18125011509E+01 -0.26192651493E+02  0.50528862000E+02  0.30000006536E+02 0.  0.
         12    1    1    2    0    0 -0.31045536720E+02 -0.18125011509E+01  0.26192651493E+02  0.40659138000E+02  0.00000000000E+00 0. -1.
         11    1    3    3    0    0  0.19215477523E+01  0.46040397498E+00 -0.18584495517E+00  0.19846551824E+01  0.51100000000E-03 0. -1.
        -11    1    3    3    0    0  0.24399070444E+02 -0.11305551617E+02 -0.13314375341E+02  0.30006711364E+02  0.51100000000E-03 0.  1.
         12    1    3    3    0    0  0.47249185242E+01  0.12657648793E+02 -0.12692431196E+02  0.18537495454E+02  0.00000000000E+00 0. -1.
</event>
<event>
 7    1  0.2744502E-011  0.5052886E+02  0.7816164E-02  0.1300439E+00
        -11   -1    0    0    0    0  0.00000000000E+00  0.00000000000E+00  0.45593999997E+02  0.45594000000E+02  0.51100000000E-03 0.  1.
         11   -1    0    0    0    0 -0.00000000000E+00 -0.00000000000E+00 -0.45593999997E+02  0.45594000000E+02  0.51100000000E-03 0. -1.
    9900012    2    1    2    0    0  0.25844246405E+01 -0.92068339495E+01  0.39518610608E+02  0.50528860480E+02  0.30000001915E+02 0.  0.
         12    1    1    2    0    0 -0.25844246405E+01  0.92068339495E+01 -0.39518610608E+02  0.40659139520E+02  0.00000000000E+00 0. -1.
         11    1    3    3    0    0 -0.66501295401E+01 -0.12534356778E+02  0.12820906649E+02  0.19123544920E+02  0.51100000000E-03 0. -1.
        -11    1    3    3    0    0 -0.34672623131E+01  0.82466378438E+00  0.50293084405E+01  0.61640832211E+01  0.51100000000E-03 0.  1.
        -12    1    3    3    0    0  0.12701816494E+02  0.25028590440E+01  0.21668395519E+02  0.25241232339E+02  0.00000000000E+00 0.  1.
</event>
<event>
 7    1  0.2744502E-011  0.5052886E+02  0.7816164E-02  0.1300439E+00
        -11   -1    0    0    0    0  0.00000000000E+00  0.00000000000E+00  0.45593999997E+02  0.45594000000E+02  0.51100000000E-03 0. -1.
         11   -1    0    0    0    0 -0.00000000000E+00 -0.00000000000E+00 -0.45593999997E+02  0.45594000000E+02  0.51100000000E-03 0.  1.
    9900012    2    1    2    0    0  0.23934950752E+02  0.28093141120E+02 -0.17060453193E+02  0.50528861930E+02  0.30000006321E+02 0.  0.
         12    1    1    2    0    0 -0.23934950752E+02 -0.28093141120E+02  0.17060453193E+02  0.40659138070E+02  0.00000000000E+00 0. -1.
         11    1    3    3    0    0  0.15386265841E+02  0.10829328919E+02 -0.34217563678E+01  0.19123806062E+02  0.51100000000E-03 0. -1.
        -11    1    3    3    0    0  0.15159428131E+02  0.13106847368E+02 -0.72345638997E+01  0.21305788515E+02  0.51100000000E-03 0.  1.
        -12    1    3    3    0    0 -0.66107432197E+01  0.41569648323E+01 -0.64041329257E+01  0.10099267353E+02  0.00000000000E+00 0.  1.
</event>
<event>
 7    1  0.2744502E-011  0.5052891E+02  0.7816164E-02  0.1300439E+00
        -11   -1    0    0    0    0  0.00000000000E+00  0.00000000000E+00  0.45593999997E+02  0.45594000000E+02  0.51100000000E-03 0. -1.
         11   -1    0    0    0    0 -0.00000000000E+00 -0.00000000000E+00 -0.45593999997E+02  0.45594000000E+02  0.51100000000E-03 0.  1.
    9900012    2    1    2    0    0 -0.46378764677E+01 -0.40349042113E+02  0.18990224334E+01  0.50528912654E+02  0.30000160503E+02 0.  0.
         12    1    1    2    0    0  0.46378764677E+01  0.40349042113E+02 -0.18990224334E+01  0.40659087346E+02  0.00000000000E+00 0. -1.
         11    1    3    3    0    0 -0.95579143668E+01 -0.16220611259E+02  0.39169875322E+01  0.19230308064E+02  0.51100000000E-03 0. -1.
        -11    1    3    3    0    0  0.14488759691E+01  0.75718412019E+00  0.49588992407E+01  0.52214223452E+01  0.51100000000E-03 0.  1.
         12    1    3    3    0    0  0.34711619300E+01 -0.24885614975E+02 -0.69768643396E+01  0.26077182245E+02  0.00000000000E+00 0. -1.
</event>
<event>
 7    1  0.2744502E-011  0.5052886E+02  0.7816164E-02  0.1300439E+00
        -11   -1    0    0    0    0  0.00000000000E+00  0.00000000000E+00  0.45593999997E+02  0.45594000000E+02  0.51100000000E-03 0.  1.
         11   -1    0    0    0    0 -0.00000000000E+00 -0.00000000000E+00 -0.45593999997E+02  0.45594000000E+02  0.51100000000E-03 0. -1.
    9900012    2    1    2    0    0  0.99615617897E+00  0.37580450745E+02  0.15488161360E+02  0.50528858990E+02  0.29999997387E+02 0.  0.
         12    1    1    2    0    0 -0.99615617897E+00 -0.37580450745E+02 -0.15488161360E+02  0.40659141010E+02  0.00000000000E+00 0. -1.
         11    1    3    3    0    0 -0.14578463405E+01  0.27061614920E+01 -0.40352589976E+01  0.50726661049E+01  0.51100000000E-03 0. -1.
        -11    1    3    3    0    0 -0.34561991531E+01  0.20647630338E+01 -0.31729648526E+01  0.51260379620E+01  0.51100000000E-03 0.  1.
        -12    1    3    3    0    0  0.59102016725E+01  0.32809526219E+02  0.22696385210E+02  0.40330154923E+02  0.00000000000E+00 0.  1.
</event>
<event>
 7    1  0.2744502E-011  0.5052876E+02  0.7816164E-02  0.1300439E+00
        -11   -1    0    0    0    0  0.00000000000E+00  0.00000000000E+00  0.45593999997E+02  0.45594000000E+02  0.51100000000E-03 0. -1.
         11   -1    0    0    0    0 -0.00000000000E+00 -0.00000000000E+00 -0.45593999997E+02  0.45594000000E+02  0.51100000000E-03 0.  1.
    9900012    2    1    2    0    0 -0.40344545711E+02 -0.35729809380E+01 -0.35672415876E+01  0.50528760288E+02  0.29999697369E+02 0.  0.
         12    1    1    2    0    0  0.40344545711E+02  0.35729809380E+01  0.35672415876E+01  0.40659239712E+02  0.00000000000E+00 0. -1.
         11    1    3    3    0    0  0.30260184149E+00  0.36578485450E+01 -0.40940736236E+01  0.54984418656E+01  0.51100000000E-03 0. -1.
        -11    1    3    3    0    0 -0.27202782071E+02 -0.38486649539E+00 -0.71118988818E+01  0.28119718714E+02  0.51100000000E-03 0.  1.
         12    1    3    3    0    0 -0.13444365482E+02 -0.68459629876E+01  0.76387309177E+01  0.16910599708E+02  0.00000000000E+00 0. -1.
</event>
<event>
 7    1  0.2744502E-011  0.5052886E+02  0.7816164E-02  0.1300439E+00
        -11   -1    0    0    0    0  0.00000000000E+00  0.00000000000E+00  0.45593999997E+02  0.45594000000E+02  0.51100000000E-03 0.  1.
         11   -1    0    0    0    0 -0.00000000000E+00 -0.00000000000E+00 -0.45593999997E+02  0.45594000000E+02  0.51100000000E-03 0. -1.
    9900012    2    1    2    0    0 -0.34711059360E+01  0.23467078959E+02  0.33021405761E+02  0.50528860686E+02  0.30000002542E+02 0.  0.
         12    1    1    2    0    0  0.34711059360E+01 -0.23467078959E+02 -0.33021405761E+02  0.40659139314E+02  0.00000000000E+00 0. -1.
         11    1    3    3    0    0  0.11433172548E+01  0.11947611974E+02  0.29769684447E+02  0.32098079671E+02  0.51100000000E-03 0. -1.
        -11    1    3    3    0    0  0.46141983467E+01  0.45327177850E+01  0.20908612558E+01  0.67976509143E+01  0.51100000000E-03 0.  1.
         12    1    3    3    0    0 -0.92286215375E+01  0.69867492001E+01  0.11608600578E+01  0.11633130101E+02  0.00000000000E+00 0. -1.
</event>
<event>
 7    1  0.2744502E-011  0.5052885E+02  0.7816164E-02  0.1300439E+00
        -11   -1    0    0    0    0  0.00000000000E+00  0.00000000000E+00  0.45593999997E+02  0.45594000000E+02  0.51100000000E-03 0.  1.
         11   -1    0    0    0    0 -0.00000000000E+00 -0.00000000000E+00 -0.45593999997E+02  0.45594000000E+02  0.51100000000E-03 0. -1.
    9900012    2    1    2    0    0 -0.23111734862E+02 -0.17839539610E+02  0.28297787859E+02  0.50528852695E+02  0.29999978252E+02 0.  0.
         12    1    1    2    0    0  0.23111734862E+02  0.17839539610E+02 -0.28297787859E+02  0.40659147305E+02  0.00000000000E+00 0. -1.
         11    1    3    3    0    0 -0.66103036910E+01  0.17971314556E+01  0.50437211623E+01  0.85067573011E+01  0.51100000000E-03 0. -1.
        -11    1    3    3    0    0  0.52884540650E+01 -0.57642151135E+01  0.10826701243E+02  0.13357072371E+02  0.51100000000E-03 0.  1.
         12    1    3    3    0    0 -0.21789885236E+02 -0.13872455952E+02  0.12427365454E+02  0.28665023023E+02  0.00000000000E+00 0. -1.
</event>
<event>
 7    1  0.2744502E-011  0.5052886E+02  0.7816164E-02  0.1300439E+00
        -11   -1    0    0    0    0  0.00000000000E+00  0.00000000000E+00  0.45593999997E+02  0.45594000000E+02  0.51100000000E-03 0. -1.
         11   -1    0    0    0    0 -0.00000000000E+00 -0.00000000000E+00 -0.45593999997E+02  0.45594000000E+02  0.51100000000E-03 0.  1.
    9900012    2    1    2    0    0  0.37905516322E+01  0.16616259702E+02 -0.36914726482E+02  0.50528863273E+02  0.30000010404E+02 0.  0.
         12    1    1    2    0    0 -0.37905516322E+01 -0.16616259702E+02  0.36914726482E+02  0.40659136727E+02  0.00000000000E+00 0. -1.
         11    1    3    3    0    0  0.16999275099E+01 -0.58616029343E+01 -0.60967938219E+01  0.86266469539E+01  0.51100000000E-03 0.  1.
        -11    1    3    3    0    0 -0.42075567642E+01  0.15340790708E+02 -0.94314989603E+01  0.18493149174E+02  0.51100000000E-03 0. -1.
         12    1    3    3    0    0  0.62981808864E+01  0.71370719283E+01 -0.21386433700E+02  0.23409067145E+02  0.00000000000E+00 0. -1.
</event>
<event>
 7    1  0.2744502E-011  0.5052885E+02  0.7816164E-02  0.1300439E+00
        -11   -1    0    0    0    0  0.00000000000E+00  0.00000000000E+00  0.45593999997E+02  0.45594000000E+02  0.51100000000E-03 0.  1.
         11   -1    0    0    0    0 -0.00000000000E+00 -0.00000000000E+00 -0.45593999997E+02  0.45594000000E+02  0.51100000000E-03 0. -1.
    9900012    2    1    2    0    0 -0.41816403724E+01 -0.16510448410E+02  0.36919982512E+02  0.50528854269E+02  0.29999983036E+02 0.  0.
         12    1    1    2    0    0  0.41816403724E+01  0.16510448410E+02 -0.36919982512E+02  0.40659145731E+02  0.00000000000E+00 0. -1.
         11    1    3    3    0    0  0.61996404902E+00 -0.54066788160E+01 -0.99233326300E+00  0.55318402731E+01  0.51100000000E-03 0. -1.
        -11    1    3    3    0    0 -0.42526265903E+01 -0.13022328369E+02  0.98714787846E+01  0.16885258740E+02  0.51100000000E-03 0.  1.
         12    1    3    3    0    0 -0.54897783106E+00  0.19185587756E+01  0.28040836990E+02  0.28111755256E+02  0.00000000000E+00 0. -1.
</event>
<event>
 7    1  0.2744502E-011  0.5052886E+02  0.7816164E-02  0.1300439E+00
        -11   -1    0    0    0    0  0.00000000000E+00  0.00000000000E+00  0.45593999997E+02  0.45594000000E+02  0.51100000000E-03 0.  1.
         11   -1    0    0    0    0 -0.00000000000E+00 -0.00000000000E+00 -0.45593999997E+02  0.45594000000E+02  0.51100000000E-03 0. -1.
    9900012    2    1    2    0    0  0.38357170352E+01  0.22971646126E+02  0.33328016323E+02  0.50528856835E+02  0.29999990836E+02 0.  0.
         12    1    1    2    0    0 -0.38357170352E+01 -0.22971646126E+02 -0.33328016323E+02  0.40659143165E+02  0.00000000000E+00 0. -1.
         11    1    3    3    0    0  0.32856442321E+01  0.89730673196E+01  0.86064899830E+01  0.12860134728E+02  0.51100000000E-03 0. -1.
        -11    1    3    3    0    0  0.90235442168E+01  0.45127874352E+01  0.25357191710E+00  0.10092269301E+02  0.51100000000E-03 0.  1.
        -12    1    3    3    0    0 -0.84734714137E+01  0.94857913711E+01  0.24467954422E+02  0.27576452806E+02  0.00000000000E+00 0.  1.
</event>
<event>
 7    1  0.2744502E-011  0.5052886E+02  0.7816164E-02  0.1300439E+00
        -11   -1    0    0    0    0  0.00000000000E+00  0.00000000000E+00  0.45593999997E+02  0.45594000000E+02  0.51100000000E-03 0. -1.
         11   -1    0    0    0    0 -0.00000000000E+00 -0.00000000000E+00 -0.45593999997E+02  0.45594000000E+02  0.51100000000E-03 0.  1.
    9900012    2    1    2    0    0 -0.14898687661E+02  0.30841527900E+02 -0.21908785750E+02  0.50528860434E+02  0.30000001775E+02 0.  0.
         12    1    1    2    0    0  0.14898687661E+02 -0.30841527900E+02  0.21908785750E+02  0.40659139566E+02  0.00000000000E+00 0. -1.
         11    1    3    3    0    0 -0.10879493555E+02  0.34433008433E+02 -0.15778346845E+02  0.39407507904E+02  0.51100000000E-03 0. -1.
        -11    1    3    3    0    0  0.13391409425E+01  0.11616619319E+01 -0.13024434930E+00  0.17775603392E+01  0.51100000000E-03 0.  1.
         12    1    3    3    0    0 -0.53583350488E+01 -0.47531424656E+01 -0.60001945554E+01  0.93437921903E+01  0.00000000000E+00 0. -1.
</event>
<event>
 7    1  0.2744502E-011  0.5052886E+02  0.7816164E-02  0.1300439E+00
        -11   -1    0    0    0    0  0.00000000000E+00  0.00000000000E+00  0.45593999997E+02  0.45594000000E+02  0.51100000000E-03 0. -1.
         11   -1    0    0    0    0 -0.00000000000E+00 -0.00000000000E+00 -0.45593999997E+02  0.45594000000E+02  0.51100000000E-03 0.  1.
    9900012    2    1    2    0    0 -0.37934638017E+02 -0.12415310579E+01 -0.14580371381E+02  0.50528863383E+02  0.30000010740E+02 0.  0.
         12    1    1    2    0    0  0.37934638017E+02  0.12415310579E+01  0.14580371381E+02  0.40659136617E+02  0.00000000000E+00 0. -1.
         11    1    3    3    0    0 -0.19234724126E+02 -0.43458300097E+01 -0.40428136149E+01  0.20129709209E+02  0.51100000000E-03 0. -1.
        -11    1    3    3    0    0 -0.14628457974E+02 -0.58833260913E+01 -0.12761850959E+02  0.20284726983E+02  0.51100000000E-03 0.  1.
        -12    1    3    3    0    0 -0.40714559168E+01  0.89876250431E+01  0.22242931933E+01  0.10114427191E+02  0.00000000000E+00 0.  1.
</event>
<event>
 7    1  0.2744502E-011  0.5052885E+02  0.7816164E-02  0.1300439E+00
        -11   -1    0    0    0    0  0.00000000000E+00  0.00000000000E+00  0.45593999997E+02  0.45594000000E+02  0.51100000000E-03 0.  1.
         11   -1    0    0    0    0 -0.00000000000E+00 -0.00000000000E+00 -0.45593999997E+02  0.45594000000E+02  0.51100000000E-03 0. -1.
    9900012    2    1    2    0    0 -0.40113747080E+02 -0.50998433413E+01 -0.42479434762E+01  0.50528854280E+02  0.29999983069E+02 0.  0.
         12    1    1    2    0    0  0.40113747080E+02  0.50998433413E+01  0.42479434762E+01  0.40659145720E+02  0.00000000000E+00 0. -1.
         11    1    3    3    0    0 -0.12190979546E+02  0.10821835191E+02  0.10174000893E+00  0.16301608831E+02  0.51100000000E-03 0.  1.
        -11    1    3    3    0    0 -0.10454272218E+02 -0.42916597049E+00 -0.27781445494E+01  0.10825621388E+02  0.51100000000E-03 0. -1.
        -12    1    3    3    0    0 -0.17468495317E+02 -0.15492512561E+02 -0.15715389357E+01  0.23401624062E+02  0.00000000000E+00 0.  1.
</event>
<event>
 7    1  0.2744502E-011  0.5052885E+02  0.7816164E-02  0.1300439E+00
        -11   -1    0    0    0    0  0.00000000000E+00  0.00000000000E+00  0.45593999997E+02  0.45594000000E+02  0.51100000000E-03 0.  1.
         11   -1    0    0    0    0 -0.00000000000E+00 -0.00000000000E+00 -0.45593999997E+02  0.45594000000E+02  0.51100000000E-03 0. -1.
    9900012    2    1    2    0    0 -0.39942366041E+02  0.23774315626E+01 -0.72195123414E+01  0.50528854113E+02  0.29999982563E+02 0.  0.
         12    1    1    2    0    0  0.39942366041E+02 -0.23774315626E+01  0.72195123414E+01  0.40659145887E+02  0.00000000000E+00 0. -1.
         11    1    3    3    0    0 -0.13774817249E+02  0.47369018324E+01 -0.13326423334E+02  0.19742780664E+02  0.51100000000E-03 0. -1.
        -11    1    3    3    0    0 -0.27178291005E+01 -0.36068123975E+01 -0.31906929609E+01  0.55295761612E+01  0.51100000000E-03 0.  1.
        -12    1    3    3    0    0 -0.23449719692E+02  0.12473421276E+01  0.92976039532E+01  0.25256497288E+02  0.00000000000E+00 0.  1.
</event>
<event>
 7    1  0.2744502E-011  0.5052886E+02  0.7816164E-02  0.1300439E+00
        -11   -1    0    0    0    0  0.00000000000E+00  0.00000000000E+00  0.45593999997E+02  0.45594000000E+02  0.51100000000E-03 0. -1.
         11   -1    0    0    0    0 -0.00000000000E+00 -0.00000000000E+00 -0.45593999997E+02  0.45594000000E+02  0.51100000000E-03 0.  1.
    9900012    2    1    2    0    0 -0.23626708258E+02  0.29669992601E+02 -0.14650457723E+02  0.50528859384E+02  0.29999998585E+02 0.  0.
         12    1    1    2    0    0  0.23626708258E+02 -0.29669992601E+02  0.14650457723E+02  0.40659140616E+02  0.00000000000E+00 0. -1.
         11    1    3    3    0    0 -0.11416350443E+02  0.15618185669E+02 -0.31267850777E+01  0.19596876441E+02  0.51100000000E-03 0. -1.
        -11    1    3    3    0    0 -0.17875202887E+02  0.12794533797E+02 -0.12114171825E+02  0.25099325341E+02  0.51100000000E-03 0.  1.
         12    1    3    3    0    0  0.56648450719E+01  0.12572731356E+01  0.59049917975E+00  0.58326576025E+01  0.00000000000E+00 0. -1.
</event>
<event>
 7    1  0.2744502E-011  0.5052887E+02  0.7816164E-02  0.1300439E+00
        -11   -1    0    0    0    0  0.00000000000E+00  0.00000000000E+00  0.45593999997E+02  0.45594000000E+02  0.51100000000E-03 0.  1.
         11   -1    0    0    0    0 -0.00000000000E+00 -0.00000000000E+00 -0.45593999997E+02  0.45594000000E+02  0.51100000000E-03 0. -1.
    9900012    2    1    2    0    0  0.65689302665E+01 -0.39199657519E+02 -0.85674479134E+01  0.50528866239E+02  0.30000019421E+02 0.  0.
         12    1    1    2    0    0 -0.65689302665E+01  0.39199657519E+02  0.85674479134E+01  0.40659133761E+02  0.00000000000E+00 0. -1.
         11    1    3    3    0    0 -0.28184122217E+01 -0.19306802794E+02 -0.69447468793E+01  0.20710518850E+02  0.51100000000E-03 0. -1.
        -11    1    3    3    0    0  0.29695745222E+01 -0.22166751133E+02 -0.37673649130E+01  0.22679864799E+02  0.51100000000E-03 0.  1.
         12    1    3    3    0    0  0.64177679660E+01  0.22738964079E+01  0.21446638789E+01  0.71384825904E+01  0.00000000000E+00 0. -1.
</event>
<event>
 7    1  0.2744502E-011  0.5052886E+02  0.7816164E-02  0.1300439E+00
        -11   -1    0    0    0    0  0.00000000000E+00  0.00000000000E+00  0.45593999997E+02  0.45594000000E+02  0.51100000000E-03 0. -1.
         11   -1    0    0    0    0 -0.00000000000E+00 -0.00000000000E+00 -0.45593999997E+02  0.45594000000E+02  0.51100000000E-03 0.  1.
    9900012    2    1    2    0    0  0.19044972981E+02 -0.25432761181E+02 -0.25369849814E+02  0.50528860600E+02  0.30000002281E+02 0.  0.
         12    1    1    2    0    0 -0.19044972981E+02  0.25432761181E+02  0.25369849814E+02  0.40659139400E+02  0.00000000000E+00 0. -1.
         11    1    3    3    0    0 -0.28763244603E+01 -0.10424668791E+02 -0.11243837900E+02  0.15600347842E+02  0.51100000000E-03 0. -1.
        -11    1    3    3    0    0  0.23991291388E+02 -0.12861900654E+02 -0.15834518095E+02  0.31491943644E+02  0.51100000000E-03 0.  1.
         12    1    3    3    0    0 -0.20699939470E+01 -0.21461917361E+01  0.17085061813E+01  0.34365691147E+01  0.00000000000E+00 0. -1.
</event>
<event>
 7    1  0.2744502E-011  0.5052886E+02  0.7816164E-02  0.1300439E+00
        -11   -1    0    0    0    0  0.00000000000E+00  0.00000000000E+00  0.45593999997E+02  0.45594000000E+02  0.51100000000E-03 0.  1.
         11   -1    0    0    0    0 -0.00000000000E+00 -0.00000000000E+00 -0.45593999997E+02  0.45594000000E+02  0.51100000000E-03 0. -1.
    9900012    2    1    2    0    0  0.37754412963E+02 -0.14306004340E+02  0.48070882978E+01  0.50528861344E+02  0.30000004542E+02 0.  0.
         12    1    1    2    0    0 -0.37754412963E+02  0.14306004340E+02 -0.48070882978E+01  0.40659138656E+02  0.00000000000E+00 0. -1.
         11    1    3    3    0    0  0.18771450673E+01  0.57305264563E+00  0.77193414443E+01  0.79649416528E+01  0.51100000000E-03 0. -1.
        -11    1    3    3    0    0  0.10796103967E+02  0.13342454074E+01  0.45324693681E+01  0.11784708333E+02  0.51100000000E-03 0.  1.
        -12    1    3    3    0    0  0.25081163929E+02 -0.16213302393E+02 -0.74447225146E+01  0.30779211358E+02  0.00000000000E+00 0.  1.
</event>
<event>
 7    1  0.2744502E-011  0.5052884E+02  0.7816164E-02  0.1300439E+00
        -11   -1    0    0    0    0  0.00000000000E+00  0.00000000000E+00  0.45593999997E+02  0.45594000000E+02  0.51100000000E-03 0.  1.
         11   -1    0    0    0    0 -0.00000000000E+00 -0.00000000000E+00 -0.45593999997E+02  0.45594000000E+02  0.51100000000E-03 0. -1.
    9900012    2    1    2    0    0  0.68399770590E+01 -0.11699111339E+02  0.38334222869E+02  0.50528841927E+02  0.29999945521E+02 0.  0.
         12    1    1    2    0    0 -0.68399770590E+01  0.11699111339E+02 -0.38334222869E+02  0.40659158073E+02  0.00000000000E+00 0. -1.
         11    1    3    3    0    0 -0.33043630209E+01  0.46972777711E+01  0.37673039262E+01  0.68684650808E+01  0.51100000000E-03 0. -1.
        -11    1    3    3    0    0  0.75194526315E+00  0.43750256321E+00 -0.20789613730E+01  0.22536438989E+01  0.51100000000E-03 0.  1.
        -12    1    3    3    0    0  0.93923948168E+01 -0.16833891673E+02  0.36645880315E+02  0.41406732947E+02  0.00000000000E+00 0.  1.
</event>
<event>
 7    1  0.2744502E-011  0.5052885E+02  0.7816164E-02  0.1300439E+00
        -11   -1    0    0    0    0  0.00000000000E+00  0.00000000000E+00  0.45593999997E+02  0.45594000000E+02  0.51100000000E-03 0.  1.
         11   -1    0    0    0    0 -0.00000000000E+00 -0.00000000000E+00 -0.45593999997E+02  0.45594000000E+02  0.51100000000E-03 0. -1.
    9900012    2    1    2    0    0  0.62438379395E+01  0.17282284967E+02  0.36269867455E+02  0.50528853783E+02  0.29999981559E+02 0.  0.
         12    1    1    2    0    0 -0.62438379395E+01 -0.17282284967E+02 -0.36269867455E+02  0.40659146217E+02  0.00000000000E+00 0. -1.
         11    1    3    3    0    0  0.43732009728E+00  0.74369578588E+00 -0.14511909697E+01  0.16882795329E+01  0.51100000000E-03 0.  1.
        -11    1    3    3    0    0  0.25769593140E+01  0.84481541486E+01 -0.12386300482E+01  0.89188694621E+01  0.51100000000E-03 0. -1.
        -12    1    3    3    0    0  0.32295585283E+01  0.80904350325E+01  0.38959688473E+02  0.39921704788E+02  0.00000000000E+00 0.  1.
</event>
<event>
 7    1  0.2744502E-011  0.5052886E+02  0.7816164E-02  0.1300439E+00
        -11   -1    0    0    0    0  0.00000000000E+00  0.00000000000E+00  0.45593999997E+02  0.45594000000E+02  0.51100000000E-03 0.  1.
         11   -1    0    0    0    0 -0.00000000000E+00 -0.00000000000E+00 -0.45593999997E+02  0.45594000000E+02  0.51100000000E-03 0. -1.
    9900012    2    1    2    0    0 -0.40220519398E+02  0.45214123137E+01  0.38771416749E+01  0.50528861083E+02  0.30000003747E+02 0.  0.
         12    1    1    2    0    0  0.40220519398E+02 -0.45214123137E+01 -0.38771416749E+01  0.40659138917E+02  0.00000000000E+00 0. -1.
         11    1    3    3    0    0 -0.78258225833E+01  0.51666731034E+01 -0.36853243809E+01  0.10075694821E+02  0.51100000000E-03 0. -1.
        -11    1    3    3    0    0 -0.18419761821E+02 -0.57391057706E+00 -0.75087335438E+01  0.19899700465E+02  0.51100000000E-03 0.  1.
        -12    1    3    3    0    0 -0.13974934993E+02 -0.71350212605E-01  0.15071199600E+02  0.20553465798E+02  0.00000000000E+00 0.  1.
</event>
<event>
 7    1  0.2744502E-011  0.5052887E+02  0.7816164E-02  0.1300439E+00
        -11   -1    0    0    0    0  0.00000000000E+00  0.00000000000E+00  0.45593999997E+02  0.45594000000E+02  0.51100000000E-03 0.  1.
         11   -1    0    0    0    0 -0.00000000000E+00 -0.00000000000E+00 -0.45593999997E+02  0.45594000000E+02  0.51100000000E-03 0. -1.
    9900012    2    1    2    0    0 -0.13406468603E+02 -0.10334761215E+01  0.38371390231E+02  0.50528867427E+02  0.30000023031E+02 0.  0.
         12    1    1    2    0    0  0.13406468603E+02  0.10334761215E+01 -0.38371390231E+02  0.40659132573E+02  0.00000000000E+00 0. -1.
         11    1    3    3    0    0  0.55962720103E+00  0.19020706997E+01 -0.14518805923E+01  0.24574403484E+01  0.51100000000E-03 0. -1.
        -11    1    3    3    0    0 -0.17516362620E+02  0.41344939751E+01  0.21024441913E+02  0.27675696159E+02  0.51100000000E-03 0.  1.
        -12    1    3    3    0    0  0.35502668162E+01 -0.70700407963E+01  0.18798828910E+02  0.20395730919E+02  0.00000000000E+00 0.  1.
</event>
<event>
 7    1  0.2744502E-011  0.5052886E+02  0.7816164E-02  0.1300439E+00
        -11   -1    0    0    0    0  0.00000000000E+00  0.00000000000E+00  0.45593999997E+02  0.45594000000E+02  0.51100000000E-03 0.  1.
         11   -1    0    0    0    0 -0.00000000000E+00 -0.00000000000E+00 -0.45593999997E+02  0.45594000000E+02  0.51100000000E-03 0. -1.
    9900012    2    1    2    0    0 -0.17708084646E+02 -0.24373004434E+01  0.36519163791E+02  0.50528855650E+02  0.29999987235E+02 0.  0.
         12    1    1    2    0    0  0.17708084646E+02  0.24373004434E+01 -0.36519163791E+02  0.40659144350E+02  0.00000000000E+00 0. -1.
         11    1    3    3    0    0 -0.14271491507E+02  0.14114287358E+01  0.18560782372E+02  0.23455708120E+02  0.51100000000E-03 0. -1.
        -11    1    3    3    0    0 -0.58943596612E+01  0.40506999925E+01  0.17363568045E+02  0.18778848255E+02  0.51100000000E-03 0.  1.
         12    1    3    3    0    0  0.24577665221E+01 -0.78994291718E+01  0.59481337329E+00  0.82942992752E+01  0.00000000000E+00 0. -1.
</event>
<event>
 7    1  0.2744502E-011  0.5052886E+02  0.7816164E-02  0.1300439E+00
        -11   -1    0    0    0    0  0.00000000000E+00  0.00000000000E+00  0.45593999997E+02  0.45594000000E+02  0.51100000000E-03 0. -1.
         11   -1    0    0    0    0 -0.00000000000E+00 -0.00000000000E+00 -0.45593999997E+02  0.45594000000E+02  0.51100000000E-03 0.  1.
    9900012    2    1    2    0    0  0.17817380728E+02  0.33310507186E+02 -0.15037179948E+02  0.50528859259E+02  0.29999998203E+02 0.  0.
         12    1    1    2    0    0 -0.17817380728E+02 -0.33310507186E+02  0.15037179948E+02  0.40659140741E+02  0.00000000000E+00 0. -1.
         11    1    3    3    0    0 -0.47664763631E+01  0.13963713268E+01 -0.11727343921E+01  0.51033769229E+01  0.51100000000E-03 0. -1.
        -11    1    3    3    0    0  0.79055658311E+01  0.12005729321E+01 -0.71544863953E+01  0.10729679507E+02  0.51100000000E-03 0.  1.
        -12    1    3    3    0    0  0.14678291260E+02  0.30713562928E+02 -0.67099591603E+01  0.34695802829E+02  0.00000000000E+00 0.  1.
</event>
<event>
 7    1  0.2744502E-011  0.5052883E+02  0.7816164E-02  0.1300439E+00
        -11   -1    0    0    0    0  0.00000000000E+00  0.00000000000E+00  0.45593999997E+02  0.45594000000E+02  0.51100000000E-03 0.  1.
         11   -1    0    0    0    0 -0.00000000000E+00 -0.00000000000E+00 -0.45593999997E+02  0.45594000000E+02  0.51100000000E-03 0. -1.
    9900012    2    1    2    0    0 -0.22368875503E+02  0.33138105925E+02  0.73937438081E+01  0.50528830025E+02  0.29999909344E+02 0.  0.
         12    1    1    2    0    0  0.22368875503E+02 -0.33138105925E+02 -0.73937438081E+01  0.40659169975E+02  0.00000000000E+00 0. -1.
         11    1    3    3    0    0  0.17882771063E+01  0.11106804442E+02 -0.45391230215E+01  0.12131062525E+02  0.51100000000E-03 0. -1.
        -11    1    3    3    0    0 -0.14896323087E+02  0.22366067775E+02  0.11162758320E+02  0.29098945046E+02  0.51100000000E-03 0.  1.
         12    1    3    3    0    0 -0.92608295222E+01 -0.33476629245E+00  0.77010850961E+00  0.92988224537E+01  0.00000000000E+00 0. -1.
</event>
<event>
 7    1  0.2744502E-011  0.5052885E+02  0.7816164E-02  0.1300439E+00
        -11   -1    0    0    0    0  0.00000000000E+00  0.00000000000E+00  0.45593999997E+02  0.45594000000E+02  0.51100000000E-03 0.  1.
         11   -1    0    0    0    0 -0.00000000000E+00 -0.00000000000E+00 -0.45593999997E+02  0.45594000000E+02  0.51100000000E-03 0. -1.
    9900012    2    1    2    0    0 -0.16093586562E+02  0.19995356538E+02  0.31533289533E+02  0.50528853915E+02  0.29999981961E+02 0.  0.
         12    1    1    2    0    0  0.16093586562E+02 -0.19995356538E+02 -0.31533289533E+02  0.40659146085E+02  0.00000000000E+00 0. -1.
         11    1    3    3    0    0  0.51651275073E+01 -0.14641999637E+01  0.15213290971E+01  0.55800417725E+01  0.51100000000E-03 0. -1.
        -11    1    3    3    0    0 -0.10188721472E+02  0.17452730125E+01  0.13240369389E+02  0.16797720231E+02  0.51100000000E-03 0.  1.
         12    1    3    3    0    0 -0.11069992598E+02  0.19714283489E+02  0.16771591047E+02  0.28151091912E+02  0.00000000000E+00 0. -1.
</event>
<event>
 7    1  0.2744502E-011  0.5052887E+02  0.7816164E-02  0.1300439E+00
        -11   -1    0    0    0    0  0.00000000000E+00  0.00000000000E+00  0.45593999997E+02  0.45594000000E+02  0.51100000000E-03 0.  1.
         11   -1    0    0    0    0 -0.00000000000E+00 -0.00000000000E+00 -0.45593999997E+02  0.45594000000E+02  0.51100000000E-03 0. -1.
    9900012    2    1    2    0    0  0.39391463833E+02  0.36487809217E+01 -0.93895751977E+01  0.50528866370E+02  0.30000019819E+02 0.  0.
         12    1    1    2    0    0 -0.39391463833E+02 -0.36487809217E+01  0.93895751977E+01  0.40659133630E+02  0.00000000000E+00 0. -1.
         11    1    3    3    0    0  0.67465575713E+01 -0.69885870778E+01 -0.11557139174E+02  0.15097147232E+02  0.51100000000E-03 0. -1.
        -11    1    3    3    0    0  0.91637806935E+01 -0.55464991260E-01  0.29250138051E+01  0.96194417190E+01  0.51100000000E-03 0.  1.
        -12    1    3    3    0    0  0.23481125568E+02  0.10692832991E+02 -0.75744982909E+00  0.25812277419E+02  0.00000000000E+00 0.  1.
</event>
<event>
 7    1  0.2744502E-011  0.5052886E+02  0.7816164E-02  0.1300439E+00
        -11   -1    0    0    0    0  0.00000000000E+00  0.00000000000E+00  0.45593999997E+02  0.45594000000E+02  0.51100000000E-03 0. -1.
         11   -1    0    0    0    0 -0.00000000000E+00 -0.00000000000E+00 -0.45593999997E+02  0.45594000000E+02  0.51100000000E-03 0.  1.
    9900012    2    1    2    0    0 -0.16071799077E+02 -0.37006733537E+02  0.50363620427E+01  0.50528855945E+02  0.29999988132E+02 0.  0.
         12    1    1    2    0    0  0.16071799077E+02  0.37006733537E+02 -0.50363620427E+01  0.40659144055E+02  0.00000000000E+00 0. -1.
         11    1    3    3    0    0 -0.92091726372E+01 -0.10376626918E+02 -0.18157588858E+01  0.13992148779E+02  0.51100000000E-03 0. -1.
        -11    1    3    3    0    0 -0.13857977813E+02 -0.24988137749E+02  0.67049199305E+01  0.29349727916E+02  0.51100000000E-03 0.  1.
         12    1    3    3    0    0  0.69953513735E+01 -0.16419688696E+01  0.14720099803E+00  0.71869792501E+01  0.00000000000E+00 0. -1.
</event>
<event>
 7    1  0.2744502E-011  0.5052886E+02  0.7816164E-02  0.1300439E+00
        -11   -1    0    0    0    0  0.00000000000E+00  0.00000000000E+00  0.45593999997E+02  0.45594000000E+02  0.51100000000E-03 0.  1.
         11   -1    0    0    0    0 -0.00000000000E+00 -0.00000000000E+00 -0.45593999997E+02  0.45594000000E+02  0.51100000000E-03 0. -1.
    9900012    2    1    2    0    0  0.25820868639E+02  0.13632283339E+02  0.28295036001E+02  0.50528862421E+02  0.30000007816E+02 0.  0.
         12    1    1    2    0    0 -0.25820868639E+02 -0.13632283339E+02 -0.28295036001E+02  0.40659137579E+02  0.00000000000E+00 0. -1.
         11    1    3    3    0    0  0.11854973254E+02  0.91087775483E+01  0.12899503782E+02  0.19746073467E+02  0.51100000000E-03 0. -1.
        -11    1    3    3    0    0  0.82092985578E+01  0.12405491891E+02  0.14831391573E+02  0.21006165479E+02  0.51100000000E-03 0.  1.
         12    1    3    3    0    0  0.57565968277E+01 -0.78819861001E+01  0.56414064560E+00  0.97766234758E+01  0.00000000000E+00 0. -1.
</event>
<event>
 7    1  0.2744502E-011  0.5052887E+02  0.7816164E-02  0.1300439E+00
        -11   -1    0    0    0    0  0.00000000000E+00  0.00000000000E+00  0.45593999997E+02  0.45594000000E+02  0.51100000000E-03 0.  1.
         11   -1    0    0    0    0 -0.00000000000E+00 -0.00000000000E+00 -0.45593999997E+02  0.45594000000E+02  0.51100000000E-03 0. -1.
    9900012    2    1    2    0    0 -0.13806348880E+02 -0.36620370909E+02  0.11022632313E+02  0.50528865011E+02  0.30000015687E+02 0.  0.
         12    1    1    2    0    0  0.13806348880E+02  0.36620370909E+02 -0.11022632313E+02  0.40659134989E+02  0.00000000000E+00 0. -1.
         11    1    3    3    0    0 -0.98030088031E+01 -0.20824965447E+02 -0.48662771415E+01  0.23525705535E+02  0.51100000000E-03 0. -1.
        -11    1    3    3    0    0 -0.27250124226E+01 -0.18243221525E+01 -0.23195888228E+01  0.40167569739E+01  0.51100000000E-03 0.  1.
        -12    1    3    3    0    0 -0.12783276545E+01 -0.13971083310E+02  0.18208498277E+02  0.22986402502E+02  0.00000000000E+00 0.  1.
</event>
<event>
 7    1  0.2744502E-011  0.5052885E+02  0.7816164E-02  0.1300439E+00
        -11   -1    0    0    0    0  0.00000000000E+00  0.00000000000E+00  0.45593999997E+02  0.45594000000E+02  0.51100000000E-03 0.  1.
         11   -1    0    0    0    0 -0.00000000000E+00 -0.00000000000E+00 -0.45593999997E+02  0.45594000000E+02  0.51100000000E-03 0. -1.
    9900012    2    1    2    0    0  0.22951942545E+01  0.11924382911E+02  0.38803450823E+02  0.50528848259E+02  0.29999964769E+02 0.  0.
         12    1    1    2    0    0 -0.22951942545E+01 -0.11924382911E+02 -0.38803450823E+02  0.40659151741E+02  0.00000000000E+00 0. -1.
         11    1    3    3    0    0 -0.56862331356E+01  0.37557792607E+01  0.43004033293E+01  0.80580763327E+01  0.51100000000E-03 0. -1.
        -11    1    3    3    0    0 -0.54852393846E+01 -0.38244708980E+01  0.10502768094E+02  0.12450805863E+02  0.51100000000E-03 0.  1.
        -12    1    3    3    0    0  0.13466666775E+02  0.11993074548E+02  0.24000279400E+02  0.30019966063E+02  0.00000000000E+00 0.  1.
</event>
<event>
 7    1  0.2744502E-011  0.5052886E+02  0.7816164E-02  0.1300439E+00
        -11   -1    0    0    0    0  0.00000000000E+00  0.00000000000E+00  0.45593999997E+02  0.45594000000E+02  0.51100000000E-03 0.  1.
         11   -1    0    0    0    0 -0.00000000000E+00 -0.00000000000E+00 -0.45593999997E+02  0.45594000000E+02  0.51100000000E-03 0. -1.
    9900012    2    1    2    0    0  0.68416566871E+01  0.14174981779E+02  0.37489032434E+02  0.50528856779E+02  0.29999990665E+02 0.  0.
         12    1    1    2    0    0 -0.68416566871E+01 -0.14174981779E+02 -0.37489032434E+02  0.40659143221E+02  0.00000000000E+00 0. -1.
         11    1    3    3    0    0 -0.35774961705E-02  0.43567934720E+01  0.26026150026E+01  0.50749647554E+01  0.51100000000E-03 0. -1.
        -11    1    3    3    0    0  0.10238667803E+02 -0.67019921163E+01  0.13572093155E+02  0.18274264132E+02  0.51100000000E-03 0.  1.
        -12    1    3    3    0    0 -0.33934336196E+01  0.16520180424E+02  0.21314324276E+02  0.27179627891E+02  0.00000000000E+00 0.  1.
</event>
<event>
 7    1  0.2744502E-011  0.5052886E+02  0.7816164E-02  0.1300439E+00
        -11   -1    0    0    0    0  0.00000000000E+00  0.00000000000E+00  0.45593999997E+02  0.45594000000E+02  0.51100000000E-03 0.  1.
         11   -1    0    0    0    0 -0.00000000000E+00 -0.00000000000E+00 -0.45593999997E+02  0.45594000000E+02  0.51100000000E-03 0. -1.
    9900012    2    1    2    0    0  0.16026084420E+02 -0.21502521474E+02  0.30560954920E+02  0.50528858627E+02  0.29999996283E+02 0.  0.
         12    1    1    2    0    0 -0.16026084420E+02  0.21502521474E+02 -0.30560954920E+02  0.40659141373E+02  0.00000000000E+00 0. -1.
         11    1    3    3    0    0  0.55895175867E+01 -0.13832212292E+02  0.11745923843E+01  0.14965041640E+02  0.51100000000E-03 0. -1.
        -11    1    3    3    0    0  0.22894149859E+01 -0.70941618692E+01  0.31625634277E+01  0.80975527970E+01  0.51100000000E-03 0.  1.
         12    1    3    3    0    0  0.81471518469E+01 -0.57614731286E+00  0.26223799108E+02  0.27466264190E+02  0.00000000000E+00 0. -1.
</event>
<event>
 7    1  0.2744502E-011  0.5052886E+02  0.7816164E-02  0.1300439E+00
        -11   -1    0    0    0    0  0.00000000000E+00  0.00000000000E+00  0.45593999997E+02  0.45594000000E+02  0.51100000000E-03 0.  1.
         11   -1    0    0    0    0 -0.00000000000E+00 -0.00000000000E+00 -0.45593999997E+02  0.45594000000E+02  0.51100000000E-03 0. -1.
    9900012    2    1    2    0    0 -0.14075353320E+02 -0.25023925263E+02  0.28789809841E+02  0.50528861330E+02  0.30000004500E+02 0.  0.
         12    1    1    2    0    0  0.14075353320E+02  0.25023925263E+02 -0.28789809841E+02  0.40659138670E+02  0.00000000000E+00 0. -1.
         11    1    3    3    0    0 -0.61489577240E+01  0.19585612849E+01 -0.21963681696E+01  0.68168670807E+01  0.51100000000E-03 0. -1.
        -11    1    3    3    0    0 -0.29512639697E+01 -0.45977303284E+01  0.39118554743E+00  0.54774181495E+01  0.51100000000E-03 0.  1.
        -12    1    3    3    0    0 -0.49751316259E+01 -0.22384756220E+02  0.30594992464E+02  0.38234576100E+02  0.00000000000E+00 0.  1.
</event>
<event>
 7    1  0.2744502E-011  0.5052886E+02  0.7816164E-02  0.1300439E+00
        -11   -1    0    0    0    0  0.00000000000E+00  0.00000000000E+00  0.45593999997E+02  0.45594000000E+02  0.51100000000E-03 0. -1.
         11   -1    0    0    0    0 -0.00000000000E+00 -0.00000000000E+00 -0.45593999997E+02  0.45594000000E+02  0.51100000000E-03 0.  1.
    9900012    2    1    2    0    0 -0.36701680902E+02  0.12319885773E+02  0.12424688777E+02  0.50528857638E+02  0.29999993275E+02 0.  0.
         12    1    1    2    0    0  0.36701680902E+02 -0.12319885773E+02 -0.12424688777E+02  0.40659142362E+02  0.00000000000E+00 0. -1.
         11    1    3    3    0    0 -0.38365645646E+01  0.52823615931E+01 -0.36103787354E+01  0.74603891677E+01  0.51100000000E-03 0. -1.
        -11    1    3    3    0    0 -0.13140532748E+02 -0.49579142049E+01 -0.14346376417E+01  0.14117814972E+02  0.51100000000E-03 0.  1.
        -12    1    3    3    0    0 -0.19724583589E+02  0.11995438384E+02  0.17469705154E+02  0.28950653498E+02  0.00000000000E+00 0.  1.
</event>
<event>
 7    1  0.2744502E-011  0.5052886E+02  0.7816164E-02  0.1300439E+00
        -11   -1    0    0    0    0  0.00000000000E+00  0.00000000000E+00  0.45593999997E+02  0.45594000000E+02  0.51100000000E-03 0. -1.
         11   -1    0    0    0    0 -0.00000000000E+00 -0.00000000000E+00 -0.45593999997E+02  0.45594000000E+02  0.51100000000E-03 0.  1.
    9900012    2    1    2    0    0  0.39017132958E+02  0.10872347599E+02  0.35525948327E+01  0.50528861586E+02  0.30000005276E+02 0.  0.
         12    1    1    2    0    0 -0.39017132958E+02 -0.10872347599E+02 -0.35525948327E+01  0.40659138414E+02  0.00000000000E+00 0. -1.
         11    1    3    3    0    0  0.43629926083E+01  0.78607668951E+01  0.43580434253E+01  0.99909911138E+01  0.51100000000E-03 0. -1.
        -11    1    3    3    0    0  0.15538349981E+02  0.11717896791E+02 -0.15189855056E+01  0.19520674746E+02  0.51100000000E-03 0.  1.
        -12    1    3    3    0    0  0.19115790369E+02 -0.87063160875E+01  0.71353691295E+00  0.21017195725E+02  0.00000000000E+00 0.  1.
</event>
<event>
 7    1  0.2744502E-011  0.5052885E+02  0.7816164E-02  0.1300439E+00
        -11   -1    0    0    0    0  0.00000000000E+00  0.00000000000E+00  0.45593999997E+02  0.45594000000E+02  0.51100000000E-03 0.  1.
         11   -1    0    0    0    0 -0.00000000000E+00 -0.00000000000E+00 -0.45593999997E+02  0.45594000000E+02  0.51100000000E-03 0. -1.
    9900012    2    1    2    0    0 -0.28091627868E+02  0.39551440108E+01  0.29127027394E+02  0.50528850412E+02  0.29999971312E+02 0.  0.
         12    1    1    2    0    0  0.28091627868E+02 -0.39551440108E+01 -0.29127027394E+02  0.40659149588E+02  0.00000000000E+00 0. -1.
         11    1    3    3    0    0 -0.71388056575E+01  0.25832675354E+01  0.42528127956E+01  0.87018523494E+01  0.51100000000E-03 0. -1.
        -11    1    3    3    0    0 -0.21126354259E+02  0.71741886151E+01  0.75467539832E+01  0.23553032130E+02  0.51100000000E-03 0.  1.
         12    1    3    3    0    0  0.17353204834E+00 -0.58023121397E+01  0.17327460615E+02  0.18273965933E+02  0.00000000000E+00 0. -1.
</event>
<event>
 7    1  0.2744502E-011  0.5052883E+02  0.7816164E-02  0.1300439E+00
        -11   -1    0    0    0    0  0.00000000000E+00  0.00000000000E+00  0.45593999997E+02  0.45594000000E+02  0.51100000000E-03 0. -1.
         11   -1    0    0    0    0 -0.00000000000E+00 -0.00000000000E+00 -0.45593999997E+02  0.45594000000E+02  0.51100000000E-03 0.  1.
    9900012    2    1    2    0    0 -0.40555223771E+02  0.28091476127E+01  0.74196108761E+00  0.50528831395E+02  0.29999913507E+02 0.  0.
         12    1    1    2    0    0  0.40555223771E+02 -0.28091476127E+01 -0.74196108761E+00  0.40659168605E+02  0.00000000000E+00 0. -1.
         11    1    3    3    0    0 -0.72406019561E+01 -0.67222816692E+00  0.62945465589E+01  0.96176672867E+01  0.51100000000E-03 0. -1.
        -11    1    3    3    0    0 -0.16162868495E+02 -0.87301304874E+01  0.21421243480E+01  0.18494382749E+02  0.51100000000E-03 0.  1.
         12    1    3    3    0    0 -0.17151753320E+02  0.12211506267E+02 -0.76947098193E+01  0.22416781358E+02  0.00000000000E+00 0. -1.
</event>
<event>
 7    1  0.2744502E-011  0.5052887E+02  0.7816164E-02  0.1300439E+00
        -11   -1    0    0    0    0  0.00000000000E+00  0.00000000000E+00  0.45593999997E+02  0.45594000000E+02  0.51100000000E-03 0.  1.
         11   -1    0    0    0    0 -0.00000000000E+00 -0.00000000000E+00 -0.45593999997E+02  0.45594000000E+02  0.51100000000E-03 0. -1.
    9900012    2    1    2    0    0  0.35406758352E+02  0.19351066738E+02  0.50062733112E+01  0.50528867036E+02  0.30000021842E+02 0.  0.
         12    1    1    2    0    0 -0.35406758352E+02 -0.19351066738E+02 -0.50062733112E+01  0.40659132964E+02  0.00000000000E+00 0. -1.
         11    1    3    3    0    0  0.22196458496E+02  0.11521797384E+02 -0.14860693770E+01  0.25052803978E+02  0.51100000000E-03 0. -1.
        -11    1    3    3    0    0  0.17690270537E+02  0.67577719773E+01  0.20009721237E+01  0.19042506228E+02  0.51100000000E-03 0.  1.
         12    1    3    3    0    0 -0.44799706802E+01  0.10714973773E+01  0.44913705646E+01  0.64335568292E+01  0.00000000000E+00 0. -1.
</event>
<event>
 7    1  0.2744502E-011  0.5052889E+02  0.7816164E-02  0.1300439E+00
        -11   -1    0    0    0    0  0.00000000000E+00  0.00000000000E+00  0.45593999997E+02  0.45594000000E+02  0.51100000000E-03 0. -1.
         11   -1    0    0    0    0 -0.00000000000E+00 -0.00000000000E+00 -0.45593999997E+02  0.45594000000E+02  0.51100000000E-03 0.  1.
    9900012    2    1    2    0    0 -0.24800085232E+02 -0.32097683901E+02  0.28032040744E+01  0.50528886724E+02  0.30000081686E+02 0.  0.
         12    1    1    2    0    0  0.24800085232E+02  0.32097683901E+02 -0.28032040744E+01  0.40659113276E+02  0.00000000000E+00 0. -1.
         11    1    3    3    0    0 -0.74694855481E+01 -0.87223357600E+01 -0.13642861785E+01  0.11564325856E+02  0.51100000000E-03 0. -1.
        -11    1    3    3    0    0 -0.73177398822E+01 -0.21926514639E+02 -0.67493016040E+01  0.24080582086E+02  0.51100000000E-03 0.  1.
         12    1    3    3    0    0 -0.10012859802E+02 -0.14488335017E+01  0.10916791857E+02  0.14883978782E+02  0.00000000000E+00 0. -1.
</event>
<event>
 7    1  0.2744502E-011  0.5052887E+02  0.7816164E-02  0.1300439E+00
        -11   -1    0    0    0    0  0.00000000000E+00  0.00000000000E+00  0.45593999997E+02  0.45594000000E+02  0.51100000000E-03 0.  1.
         11   -1    0    0    0    0 -0.00000000000E+00 -0.00000000000E+00 -0.45593999997E+02  0.45594000000E+02  0.51100000000E-03 0. -1.
    9900012    2    1    2    0    0 -0.40310059561E+02  0.53163683693E+01  0.16048046379E-01  0.50528869021E+02  0.30000027875E+02 0.  0.
         12    1    1    2    0    0  0.40310059561E+02 -0.53163683693E+01 -0.16048046379E-01  0.40659130979E+02  0.00000000000E+00 0. -1.
         11    1    3    3    0    0 -0.86985777861E+01  0.59940491120E+00  0.12522237706E+02  0.15258800057E+02  0.51100000000E-03 0. -1.
        -11    1    3    3    0    0 -0.88593209832E+01  0.17072097026E-01 -0.72564473313E+01  0.11451807188E+02  0.51100000000E-03 0.  1.
        -12    1    3    3    0    0 -0.22752160792E+02  0.46998913611E+01 -0.52497423282E+01  0.23818261776E+02  0.00000000000E+00 0.  1.
</event>
<event>
 7    1  0.2744502E-011  0.5052884E+02  0.7816164E-02  0.1300439E+00
        -11   -1    0    0    0    0  0.00000000000E+00  0.00000000000E+00  0.45593999997E+02  0.45594000000E+02  0.51100000000E-03 0.  1.
         11   -1    0    0    0    0 -0.00000000000E+00 -0.00000000000E+00 -0.45593999997E+02  0.45594000000E+02  0.51100000000E-03 0. -1.
    9900012    2    1    2    0    0  0.18922673255E+02  0.33103100401E+02  0.14116811648E+02  0.50528841249E+02  0.29999943459E+02 0.  0.
         12    1    1    2    0    0 -0.18922673255E+02 -0.33103100401E+02 -0.14116811648E+02  0.40659158751E+02  0.00000000000E+00 0. -1.
         11    1    3    3    0    0  0.21485399734E+02  0.19709081772E+02  0.32001803425E+01  0.29331066474E+02  0.51100000000E-03 0. -1.
        -11    1    3    3    0    0  0.19162660888E+01  0.10238501066E+01 -0.18589275365E+01  0.28593629729E+01  0.51100000000E-03 0.  1.
        -12    1    3    3    0    0 -0.44789925676E+01  0.12370168522E+02  0.12775558842E+02  0.18338411802E+02  0.00000000000E+00 0.  1.
</event>
<event>
 7    1  0.2744502E-011  0.5052886E+02  0.7816164E-02  0.1300439E+00
        -11   -1    0    0    0    0  0.00000000000E+00  0.00000000000E+00  0.45593999997E+02  0.45594000000E+02  0.51100000000E-03 0.  1.
         11   -1    0    0    0    0 -0.00000000000E+00 -0.00000000000E+00 -0.45593999997E+02  0.45594000000E+02  0.51100000000E-03 0. -1.
    9900012    2    1    2    0    0 -0.28787693419E+02  0.58669831705E+01 -0.28107166342E+02  0.50528861006E+02  0.30000003515E+02 0.  0.
         12    1    1    2    0    0  0.28787693419E+02 -0.58669831705E+01  0.28107166342E+02  0.40659138994E+02  0.00000000000E+00 0. -1.
         11    1    3    3    0    0 -0.49381466860E+01 -0.15512693705E+01 -0.93556100327E+01  0.10692014249E+02  0.51100000000E-03 0. -1.
        -11    1    3    3    0    0 -0.21541183107E+02  0.23658813326E+01 -0.23900855081E+02  0.32262529938E+02  0.51100000000E-03 0.  1.
        -12    1    3    3    0    0 -0.23083636257E+01  0.50523712084E+01  0.51492987710E+01  0.75743168199E+01  0.00000000000E+00 0.  1.
</event>
<event>
 7    1  0.2744502E-011  0.5052885E+02  0.7816164E-02  0.1300439E+00
        -11   -1    0    0    0    0  0.00000000000E+00  0.00000000000E+00  0.45593999997E+02  0.45594000000E+02  0.51100000000E-03 0.  1.
         11   -1    0    0    0    0 -0.00000000000E+00 -0.00000000000E+00 -0.45593999997E+02  0.45594000000E+02  0.51100000000E-03 0. -1.
    9900012    2    1    2    0    0 -0.39420213448E+02  0.90292095142E+00 -0.99195788982E+01  0.50528849246E+02  0.29999967768E+02 0.  0.
         12    1    1    2    0    0  0.39420213448E+02 -0.90292095142E+00  0.99195788982E+01  0.40659150754E+02  0.00000000000E+00 0. -1.
         11    1    3    3    0    0 -0.52681471402E+01  0.21084764852E-02  0.24426477234E+01  0.58068844399E+01  0.51100000000E-03 0. -1.
        -11    1    3    3    0    0 -0.30217160089E+02  0.52826636740E+01  0.38735158346E+00  0.30677896617E+02  0.51100000000E-03 0.  1.
         12    1    3    3    0    0 -0.39349062186E+01 -0.43818511991E+01 -0.12749578205E+02  0.14044068189E+02  0.00000000000E+00 0. -1.
</event>
<event>
 7    1  0.2744502E-011  0.5052886E+02  0.7816164E-02  0.1300439E+00
        -11   -1    0    0    0    0  0.00000000000E+00  0.00000000000E+00  0.45593999997E+02  0.45594000000E+02  0.51100000000E-03 0. -1.
         11   -1    0    0    0    0 -0.00000000000E+00 -0.00000000000E+00 -0.45593999997E+02  0.45594000000E+02  0.51100000000E-03 0.  1.
    9900012    2    1    2    0    0  0.33760857181E+02 -0.22258641029E+02  0.42335223024E+01  0.50528864629E+02  0.30000014525E+02 0.  0.
         12    1    1    2    0    0 -0.33760857181E+02  0.22258641029E+02 -0.42335223024E+01  0.40659135371E+02  0.00000000000E+00 0. -1.
         11    1    3    3    0    0  0.45561383113E+00  0.15600369315E+00  0.47847913218E+01  0.48089655197E+01  0.51100000000E-03 0. -1.
        -11    1    3    3    0    0  0.10981945150E+02 -0.30712633762E+01  0.91596583758E+01  0.14626521111E+02  0.51100000000E-03 0.  1.
        -12    1    3    3    0    0  0.22323298200E+02 -0.19343381346E+02 -0.97109273952E+01  0.31093377998E+02  0.00000000000E+00 0.  1.
</event>
<event>
 7    1  0.2744502E-011  0.5052886E+02  0.7816164E-02  0.1300439E+00
        -11   -1    0    0    0    0  0.00000000000E+00  0.00000000000E+00  0.45593999997E+02  0.45594000000E+02  0.51100000000E-03 0. -1.
         11   -1    0    0    0    0 -0.00000000000E+00 -0.00000000000E+00 -0.45593999997E+02  0.45594000000E+02  0.51100000000E-03 0.  1.
    9900012    2    1    2    0    0 -0.52454520803E+01  0.40319211912E+02  0.11007430920E+00  0.50528859170E+02  0.29999997932E+02 0.  0.
         12    1    1    2    0    0  0.52454520803E+01 -0.40319211912E+02 -0.11007430920E+00  0.40659140830E+02  0.00000000000E+00 0. -1.
         11    1    3    3    0    0 -0.80849976789E+01  0.11707847819E+01  0.14405529236E+01  0.82953672288E+01  0.51100000000E-03 0. -1.
        -11    1    3    3    0    0 -0.51810597150E+01  0.27761041811E+02 -0.17939646211E+01  0.28297299015E+02  0.51100000000E-03 0.  1.
        -12    1    3    3    0    0  0.80206053135E+01  0.11387385319E+02  0.46348600679E+00  0.13936192926E+02  0.00000000000E+00 0.  1.
</event>
<event>
 7    1  0.2744502E-011  0.5052882E+02  0.7816164E-02  0.1300439E+00
        -11   -1    0    0    0    0  0.00000000000E+00  0.00000000000E+00  0.45593999997E+02  0.45594000000E+02  0.51100000000E-03 0. -1.
         11   -1    0    0    0    0 -0.00000000000E+00 -0.00000000000E+00 -0.45593999997E+02  0.45594000000E+02  0.51100000000E-03 0.  1.
    9900012    2    1    2    0    0 -0.22430214645E+00  0.37508393622E+02 -0.15692012203E+02  0.50528817144E+02  0.29999870190E+02 0.  0.
         12    1    1    2    0    0  0.22430214645E+00 -0.37508393622E+02  0.15692012203E+02  0.40659182856E+02  0.00000000000E+00 0. -1.
         11    1    3    3    0    0  0.37993437596E+01  0.29343374802E+02 -0.15796733010E+01  0.29630457739E+02  0.51100000000E-03 0. -1.
        -11    1    3    3    0    0  0.22971366223E+01  0.22451889577E+01  0.10987300827E+01  0.33948369877E+01  0.51100000000E-03 0.  1.
        -12    1    3    3    0    0 -0.63207825284E+01  0.59198298620E+01 -0.15211068985E+02  0.17503522417E+02  0.00000000000E+00 0.  1.
</event>
<event>
 7    1  0.2744502E-011  0.5052885E+02  0.7816164E-02  0.1300439E+00
        -11   -1    0    0    0    0  0.00000000000E+00  0.00000000000E+00  0.45593999997E+02  0.45594000000E+02  0.51100000000E-03 0.  1.
         11   -1    0    0    0    0 -0.00000000000E+00 -0.00000000000E+00 -0.45593999997E+02  0.45594000000E+02  0.51100000000E-03 0. -1.
    9900012    2    1    2    0    0 -0.48421960276E+01 -0.40018968561E+02  0.53105645081E+01  0.50528846019E+02  0.29999957958E+02 0.  0.
         12    1    1    2    0    0  0.48421960276E+01  0.40018968561E+02 -0.53105645081E+01  0.40659153981E+02  0.00000000000E+00 0. -1.
         11    1    3    3    0    0 -0.50465305902E+01  0.12532588279E+01 -0.25865418945E+01  0.58076094842E+01  0.51100000000E-03 0. -1.
        -11    1    3    3    0    0 -0.13844081647E-01 -0.12550949907E+01 -0.29952468518E+01  0.32476082058E+01  0.51100000000E-03 0.  1.
        -12    1    3    3    0    0  0.21817864434E+00 -0.40017132399E+02  0.10892353254E+02  0.41473628329E+02  0.00000000000E+00 0.  1.
</event>
<event>
 7    1  0.2744502E-011  0.5052886E+02  0.7816164E-02  0.1300439E+00
        -11   -1    0    0    0    0  0.00000000000E+00  0.00000000000E+00  0.45593999997E+02  0.45594000000E+02  0.51100000000E-03 0.  1.
         11   -1    0    0    0    0 -0.00000000000E+00 -0.00000000000E+00 -0.45593999997E+02  0.45594000000E+02  0.51100000000E-03 0. -1.
    9900012    2    1    2    0    0  0.22534413149E+01 -0.35413881266E+01  0.40441884101E+02  0.50528863053E+02  0.30000009736E+02 0.  0.
         12    1    1    2    0    0 -0.22534413149E+01  0.35413881266E+01 -0.40441884101E+02  0.40659136947E+02  0.00000000000E+00 0. -1.
         11    1    3    3    0    0 -0.31855723327E+01  0.33281826907E+01  0.56519724971E+01  0.72917394687E+01  0.51100000000E-03 0. -1.
        -11    1    3    3    0    0 -0.92702482225E+01 -0.55197863829E+01  0.12707687860E+02  0.16670059233E+02  0.51100000000E-03 0.  1.
        -12    1    3    3    0    0  0.14709261870E+02 -0.13497844344E+01  0.22082223744E+02  0.26567064352E+02  0.00000000000E+00 0.  1.
</event>
<event>
 7    1  0.2744502E-011  0.5052886E+02  0.7816164E-02  0.1300439E+00
        -11   -1    0    0    0    0  0.00000000000E+00  0.00000000000E+00  0.45593999997E+02  0.45594000000E+02  0.51100000000E-03 0. -1.
         11   -1    0    0    0    0 -0.00000000000E+00 -0.00000000000E+00 -0.45593999997E+02  0.45594000000E+02  0.51100000000E-03 0.  1.
    9900012    2    1    2    0    0  0.25813083788E+02  0.29481301170E+02 -0.10849111806E+02  0.50528860310E+02  0.30000001399E+02 0.  0.
         12    1    1    2    0    0 -0.25813083788E+02 -0.29481301170E+02  0.10849111806E+02  0.40659139690E+02  0.00000000000E+00 0. -1.
         11    1    3    3    0    0  0.12412813587E+02  0.63744875557E+01 -0.71336210718E+01  0.15671649007E+02  0.51100000000E-03 0. -1.
        -11    1    3    3    0    0  0.94413783202E+01  0.16777306064E+01 -0.81901660668E+01  0.12610837602E+02  0.51100000000E-03 0.  1.
         12    1    3    3    0    0  0.39588918805E+01  0.21429083008E+02  0.44746753326E+01  0.22246373701E+02  0.00000000000E+00 0. -1.
</event>
<event>
 7    1  0.2744502E-011  0.5052882E+02  0.7816164E-02  0.1300439E+00
        -11   -1    0    0    0    0  0.00000000000E+00  0.00000000000E+00  0.45593999997E+02  0.45594000000E+02  0.51100000000E-03 0.  1.
         11   -1    0    0    0    0 -0.00000000000E+00 -0.00000000000E+00 -0.45593999997E+02  0.45594000000E+02  0.51100000000E-03 0. -1.
    9900012    2    1    2    0    0 -0.11537414420E+02 -0.13203130027E+02  0.36684248846E+02  0.50528822839E+02  0.29999887502E+02 0.  0.
         12    1    1    2    0    0  0.11537414420E+02  0.13203130027E+02 -0.36684248846E+02  0.40659177161E+02  0.00000000000E+00 0. -1.
         11    1    3    3    0    0 -0.11090192377E+02 -0.13560687516E+02  0.12925586024E+02  0.21770516466E+02  0.51100000000E-03 0. -1.
        -11    1    3    3    0    0  0.15537706576E+01 -0.54003341679E+01  0.21556715260E+02  0.22277113490E+02  0.51100000000E-03 0.  1.
        -12    1    3    3    0    0 -0.20009927012E+01  0.57578916572E+01  0.22019475615E+01  0.64811928833E+01  0.00000000000E+00 0.  1.
</event>
<event>
 7    1  0.2744502E-011  0.5052887E+02  0.7816164E-02  0.1300439E+00
        -11   -1    0    0    0    0  0.00000000000E+00  0.00000000000E+00  0.45593999997E+02  0.45594000000E+02  0.51100000000E-03 0.  1.
         11   -1    0    0    0    0 -0.00000000000E+00 -0.00000000000E+00 -0.45593999997E+02  0.45594000000E+02  0.51100000000E-03 0. -1.
    9900012    2    1    2    0    0  0.88226299186E+01  0.29767709275E+02  0.26252806033E+02  0.50528866478E+02  0.30000020146E+02 0.  0.
         12    1    1    2    0    0 -0.88226299186E+01 -0.29767709275E+02 -0.26252806033E+02  0.40659133522E+02  0.00000000000E+00 0. -1.
         11    1    3    3    0    0 -0.26568489202E+01  0.17927223626E+01  0.98568856499E+01  0.10364887584E+02  0.51100000000E-03 0.  1.
        -11    1    3    3    0    0 -0.48524638377E+01  0.74739942185E+00  0.19695103189E+01  0.52899888799E+01  0.51100000000E-03 0. -1.
        -12    1    3    3    0    0  0.16331942676E+02  0.27227587491E+02  0.14426410064E+02  0.34873990014E+02  0.00000000000E+00 0.  1.
</event>
<event>
 7    1  0.2744502E-011  0.5052886E+02  0.7816164E-02  0.1300439E+00
        -11   -1    0    0    0    0  0.00000000000E+00  0.00000000000E+00  0.45593999997E+02  0.45594000000E+02  0.51100000000E-03 0. -1.
         11   -1    0    0    0    0 -0.00000000000E+00 -0.00000000000E+00 -0.45593999997E+02  0.45594000000E+02  0.51100000000E-03 0.  1.
    9900012    2    1    2    0    0  0.40155220201E+02 -0.37402149387E+01  0.51705578310E+01  0.50528860985E+02  0.30000003450E+02 0.  0.
         12    1    1    2    0    0 -0.40155220201E+02  0.37402149387E+01 -0.51705578310E+01  0.40659139015E+02  0.00000000000E+00 0. -1.
         11    1    3    3    0    0 -0.21907326687E+01 -0.22444127296E+01  0.41784387122E+01  0.52245620352E+01  0.51100000000E-03 0. -1.
        -11    1    3    3    0    0  0.25543321212E+01 -0.42622124153E+01 -0.18813989590E+01  0.53132597868E+01  0.51100000000E-03 0.  1.
         12    1    3    3    0    0  0.39791620748E+02  0.27664102062E+01  0.28735180777E+01  0.39991039163E+02  0.00000000000E+00 0. -1.
</event>
<event>
 7    1  0.2744502E-011  0.5052886E+02  0.7816164E-02  0.1300439E+00
        -11   -1    0    0    0    0  0.00000000000E+00  0.00000000000E+00  0.45593999997E+02  0.45594000000E+02  0.51100000000E-03 0.  1.
         11   -1    0    0    0    0 -0.00000000000E+00 -0.00000000000E+00 -0.45593999997E+02  0.45594000000E+02  0.51100000000E-03 0. -1.
    9900012    2    1    2    0    0 -0.27615639018E+02  0.19834753782E+02  0.22296298853E+02  0.50528856889E+02  0.29999991000E+02 0.  0.
         12    1    1    2    0    0  0.27615639018E+02 -0.19834753782E+02 -0.22296298853E+02  0.40659143111E+02  0.00000000000E+00 0. -1.
         11    1    3    3    0    0 -0.19493269450E+01 -0.96421707025E-01 -0.30135447740E+01  0.35903516610E+01  0.51100000000E-03 0. -1.
        -11    1    3    3    0    0 -0.40441210290E+01  0.62007226522E+01 -0.36693440475E+01  0.82624428776E+01  0.51100000000E-03 0.  1.
        -12    1    3    3    0    0 -0.21622191044E+02  0.13730452837E+02  0.28979187675E+02  0.38676062350E+02  0.00000000000E+00 0.  1.
</event>
<event>
 7    1  0.2744502E-011  0.5052888E+02  0.7816164E-02  0.1300439E+00
        -11   -1    0    0    0    0  0.00000000000E+00  0.00000000000E+00  0.45593999997E+02  0.45594000000E+02  0.51100000000E-03 0.  1.
         11   -1    0    0    0    0 -0.00000000000E+00 -0.00000000000E+00 -0.45593999997E+02  0.45594000000E+02  0.51100000000E-03 0. -1.
    9900012    2    1    2    0    0 -0.36761713612E+02 -0.39211768473E+01  0.16922310862E+02  0.50528882690E+02  0.30000069424E+02 0.  0.
         12    1    1    2    0    0  0.36761713612E+02  0.39211768473E+01 -0.16922310862E+02  0.40659117310E+02  0.00000000000E+00 0. -1.
         11    1    3    3    0    0 -0.19936055681E+02  0.71454018525E+01  0.64883004144E+01  0.22149517518E+02  0.51100000000E-03 0. -1.
        -11    1    3    3    0    0 -0.13205824222E+02  0.35550444616E+00  0.12248739225E+01  0.13267271504E+02  0.51100000000E-03 0.  1.
         12    1    3    3    0    0 -0.36198337092E+01 -0.11422083146E+02  0.92091365251E+01  0.15112093667E+02  0.00000000000E+00 0. -1.
</event>
<event>
 7    1  0.2744502E-011  0.5052885E+02  0.7816164E-02  0.1300439E+00
        -11   -1    0    0    0    0  0.00000000000E+00  0.00000000000E+00  0.45593999997E+02  0.45594000000E+02  0.51100000000E-03 0.  1.
         11   -1    0    0    0    0 -0.00000000000E+00 -0.00000000000E+00 -0.45593999997E+02  0.45594000000E+02  0.51100000000E-03 0. -1.
    9900012    2    1    2    0    0  0.17576880711E+02  0.22797700981E+02  0.28713838089E+02  0.50528850927E+02  0.29999972878E+02 0.  0.
         12    1    1    2    0    0 -0.17576880711E+02 -0.22797700981E+02 -0.28713838089E+02  0.40659149073E+02  0.00000000000E+00 0. -1.
         11    1    3    3    0    0  0.25861659501E+01 -0.50712684864E+00  0.18693331724E+02  0.18878190676E+02  0.51100000000E-03 0. -1.
        -11    1    3    3    0    0  0.17447484978E+01  0.56902984997E+01  0.73387840066E+01  0.94488832829E+01  0.51100000000E-03 0.  1.
         12    1    3    3    0    0  0.13245966263E+02  0.17614529330E+02  0.26817223574E+01  0.22201776969E+02  0.00000000000E+00 0. -1.
</event>
<event>
 7    1  0.2744502E-011  0.5052886E+02  0.7816164E-02  0.1300439E+00
        -11   -1    0    0    0    0  0.00000000000E+00  0.00000000000E+00  0.45593999997E+02  0.45594000000E+02  0.51100000000E-03 0. -1.
         11   -1    0    0    0    0 -0.00000000000E+00 -0.00000000000E+00 -0.45593999997E+02  0.45594000000E+02  0.51100000000E-03 0.  1.
    9900012    2    1    2    0    0  0.60831775854E+01  0.24396477900E+02 -0.31952661567E+02  0.50528858781E+02  0.29999996752E+02 0.  0.
         12    1    1    2    0    0 -0.60831775854E+01 -0.24396477900E+02  0.31952661567E+02  0.40659141219E+02  0.00000000000E+00 0. -1.
         11    1    3    3    0    0 -0.30080564052E+01  0.91002071189E+00 -0.67006882864E+01  0.74010651130E+01  0.51100000000E-03 0.  1.
        -11    1    3    3    0    0  0.16332230030E+02  0.16011143794E+02 -0.23086720228E+02  0.32497617058E+02  0.51100000000E-03 0. -1.
         12    1    3    3    0    0 -0.72409960394E+01  0.74753133942E+01 -0.21652530525E+01  0.10630176610E+02  0.00000000000E+00 0. -1.
</event>
<event>
 7    1  0.2744502E-011  0.5052885E+02  0.7816164E-02  0.1300439E+00
        -11   -1    0    0    0    0  0.00000000000E+00  0.00000000000E+00  0.45593999997E+02  0.45594000000E+02  0.51100000000E-03 0. -1.
         11   -1    0    0    0    0 -0.00000000000E+00 -0.00000000000E+00 -0.45593999997E+02  0.45594000000E+02  0.51100000000E-03 0.  1.
    9900012    2    1    2    0    0 -0.49286556407E+01  0.29941613536E+01 -0.40248103483E+02  0.50528849952E+02  0.29999969915E+02 0.  0.
         12    1    1    2    0    0  0.49286556407E+01 -0.29941613536E+01  0.40248103483E+02  0.40659150048E+02  0.00000000000E+00 0. -1.
         11    1    3    3    0    0 -0.38805484641E+01  0.77339590940E+00 -0.51767517226E+00  0.39905871072E+01  0.51100000000E-03 0. -1.
        -11    1    3    3    0    0 -0.10308230909E+02  0.82196586676E+01 -0.22488059910E+02  0.26067896959E+02  0.51100000000E-03 0.  1.
        -12    1    3    3    0    0  0.92601237326E+01 -0.59988932234E+01 -0.17242368400E+02  0.20470365886E+02  0.00000000000E+00 0.  1.
</event>
<event>
 7    1  0.2744502E-011  0.5052889E+02  0.7816164E-02  0.1300439E+00
        -11   -1    0    0    0    0  0.00000000000E+00  0.00000000000E+00  0.45593999997E+02  0.45594000000E+02  0.51100000000E-03 0.  1.
         11   -1    0    0    0    0 -0.00000000000E+00 -0.00000000000E+00 -0.45593999997E+02  0.45594000000E+02  0.51100000000E-03 0. -1.
    9900012    2    1    2    0    0  0.35328395129E+02  0.12764997259E+02  0.15560298133E+02  0.50528886195E+02  0.30000080078E+02 0.  0.
         12    1    1    2    0    0 -0.35328395129E+02 -0.12764997259E+02 -0.15560298133E+02  0.40659113805E+02  0.00000000000E+00 0. -1.
         11    1    3    3    0    0  0.32051337442E+01 -0.38681181753E+01  0.80925879094E+01  0.95249776834E+01  0.51100000000E-03 0. -1.
        -11    1    3    3    0    0  0.52383857853E+01 -0.24027715301E+01  0.55583574863E+01  0.80068305132E+01  0.51100000000E-03 0.  1.
         12    1    3    3    0    0  0.26884875600E+02  0.19035886965E+02  0.19093527376E+01  0.32997077998E+02  0.00000000000E+00 0. -1.
</event>
<event>
 7    1  0.2744502E-011  0.5052886E+02  0.7816164E-02  0.1300439E+00
        -11   -1    0    0    0    0  0.00000000000E+00  0.00000000000E+00  0.45593999997E+02  0.45594000000E+02  0.51100000000E-03 0.  1.
         11   -1    0    0    0    0 -0.00000000000E+00 -0.00000000000E+00 -0.45593999997E+02  0.45594000000E+02  0.51100000000E-03 0. -1.
    9900012    2    1    2    0    0  0.87907825889E+01 -0.15201823729E+02  0.36671407615E+02  0.50528862778E+02  0.30000008899E+02 0.  0.
         12    1    1    2    0    0 -0.87907825889E+01  0.15201823729E+02 -0.36671407615E+02  0.40659137222E+02  0.00000000000E+00 0. -1.
         11    1    3    3    0    0  0.40921815027E+01 -0.95681958820E+01  0.28281876216E+01  0.10784014437E+02  0.51100000000E-03 0. -1.
        -11    1    3    3    0    0 -0.56364981794E+01 -0.42479094712E+01  0.39565642052E+01  0.80913068891E+01  0.51100000000E-03 0.  1.
         12    1    3    3    0    0  0.10335099266E+02 -0.13857183759E+01  0.29886655788E+02  0.31653541452E+02  0.00000000000E+00 0. -1.
</event>
<event>
 7    1  0.2744502E-011  0.5052886E+02  0.7816164E-02  0.1300439E+00
        -11   -1    0    0    0    0  0.00000000000E+00  0.00000000000E+00  0.45593999997E+02  0.45594000000E+02  0.51100000000E-03 0.  1.
         11   -1    0    0    0    0 -0.00000000000E+00 -0.00000000000E+00 -0.45593999997E+02  0.45594000000E+02  0.51100000000E-03 0. -1.
    9900012    2    1    2    0    0 -0.17899965828E+02 -0.97081400047E+00  0.36494030895E+02  0.50528861452E+02  0.30000004869E+02 0.  0.
         12    1    1    2    0    0  0.17899965828E+02  0.97081400047E+00 -0.36494030895E+02  0.40659138548E+02  0.00000000000E+00 0. -1.
         11    1    3    3    0    0 -0.11137477443E+02 -0.80379834707E+01  0.76365236223E+01  0.15715249771E+02  0.51100000000E-03 0. -1.
        -11    1    3    3    0    0 -0.40430727555E+00 -0.44586597519E+01  0.19991404463E+01  0.49030270182E+01  0.51100000000E-03 0.  1.
         12    1    3    3    0    0 -0.63581811100E+01  0.11525829222E+02  0.26858366827E+02  0.29910584663E+02  0.00000000000E+00 0. -1.
</event>
<event>
 7    1  0.2744502E-011  0.5052886E+02  0.7816164E-02  0.1300439E+00
        -11   -1    0    0    0    0  0.00000000000E+00  0.00000000000E+00  0.45593999997E+02  0.45594000000E+02  0.51100000000E-03 0. -1.
         11   -1    0    0    0    0 -0.00000000000E+00 -0.00000000000E+00 -0.45593999997E+02  0.45594000000E+02  0.51100000000E-03 0.  1.
    9900012    2    1    2    0    0 -0.57296200064E+01  0.22856269194E+02 -0.33134999452E+02  0.50528858647E+02  0.29999996344E+02 0.  0.
         12    1    1    2    0    0  0.57296200064E+01 -0.22856269194E+02  0.33134999452E+02  0.40659141353E+02  0.00000000000E+00 0. -1.
         11    1    3    3    0    0 -0.74769316789E+01  0.97034098860E+01 -0.65395228701E+01  0.13886181274E+02  0.51100000000E-03 0. -1.
        -11    1    3    3    0    0 -0.49932256065E+01  0.16395291725E+02 -0.21907907677E+02  0.27815361075E+02  0.51100000000E-03 0.  1.
        -12    1    3    3    0    0  0.67405372790E+01 -0.32424324167E+01 -0.46875689048E+01  0.88273162980E+01  0.00000000000E+00 0.  1.
</event>
<event>
 7    1  0.2744502E-011  0.5052886E+02  0.7816164E-02  0.1300439E+00
        -11   -1    0    0    0    0  0.00000000000E+00  0.00000000000E+00  0.45593999997E+02  0.45594000000E+02  0.51100000000E-03 0. -1.
         11   -1    0    0    0    0 -0.00000000000E+00 -0.00000000000E+00 -0.45593999997E+02  0.45594000000E+02  0.51100000000E-03 0.  1.
    9900012    2    1    2    0    0  0.46456204282E+00  0.29279012533E+02 -0.28207962304E+02  0.50528861665E+02  0.30000005518E+02 0.  0.
         12    1    1    2    0    0 -0.46456204282E+00 -0.29279012533E+02  0.28207962304E+02  0.40659138335E+02  0.00000000000E+00 0. -1.
         11    1    3    3    0    0 -0.35651533498E+01  0.74416732714E+01 -0.33034878028E+01  0.88882985666E+01  0.51100000000E-03 0. -1.
        -11    1    3    3    0    0 -0.76319361805E+01  0.14937569956E+02 -0.22197668326E+02  0.27822902893E+02  0.51100000000E-03 0.  1.
        -12    1    3    3    0    0  0.11661651573E+02  0.68997693052E+01 -0.27068061756E+01  0.13817660205E+02  0.00000000000E+00 0.  1.
</event>
<event>
 7    1  0.2744502E-011  0.5052886E+02  0.7816164E-02  0.1300439E+00
        -11   -1    0    0    0    0  0.00000000000E+00  0.00000000000E+00  0.45593999997E+02  0.45594000000E+02  0.51100000000E-03 0.  1.
         11   -1    0    0    0    0 -0.00000000000E+00 -0.00000000000E+00 -0.45593999997E+02  0.45594000000E+02  0.51100000000E-03 0. -1.
    9900012    2    1    2    0    0  0.28539601893E+01 -0.16389779004E+02  0.37099808122E+02  0.50528859487E+02  0.29999998896E+02 0.  0.
         12    1    1    2    0    0 -0.28539601893E+01  0.16389779004E+02 -0.37099808122E+02  0.40659140513E+02  0.00000000000E+00 0. -1.
         11    1    3    3    0    0  0.13278756488E+02 -0.95234264157E+01  0.29522842284E+02  0.33743432566E+02  0.51100000000E-03 0. -1.
        -11    1    3    3    0    0 -0.42458966982E+01 -0.74336151503E+01  0.29851736925E+01  0.90662856347E+01  0.51100000000E-03 0.  1.
        -12    1    3    3    0    0 -0.61788996001E+01  0.56726256243E+00  0.45917921459E+01  0.77191412861E+01  0.00000000000E+00 0.  1.
</event>
<event>
 7    1  0.2744502E-011  0.5052886E+02  0.7816164E-02  0.1300439E+00
        -11   -1    0    0    0    0  0.00000000000E+00  0.00000000000E+00  0.45593999997E+02  0.45594000000E+02  0.51100000000E-03 0. -1.
         11   -1    0    0    0    0 -0.00000000000E+00 -0.00000000000E+00 -0.45593999997E+02  0.45594000000E+02  0.51100000000E-03 0.  1.
    9900012    2    1    2    0    0 -0.20943673120E+02 -0.48476326574E+00 -0.34846710767E+02  0.50528859694E+02  0.29999999526E+02 0.  0.
         12    1    1    2    0    0  0.20943673120E+02  0.48476326574E+00  0.34846710767E+02  0.40659140306E+02  0.00000000000E+00 0. -1.
         11    1    3    3    0    0 -0.99227424797E+01 -0.53802263621E+01 -0.23012320233E+02  0.25631514524E+02  0.51100000000E-03 0. -1.
        -11    1    3    3    0    0 -0.19911569483E+01 -0.53951660569E+01 -0.93590302523E+01  0.10984715303E+02  0.51100000000E-03 0.  1.
         12    1    3    3    0    0 -0.90297736916E+01  0.10290629153E+02 -0.24753602818E+01  0.13912629867E+02  0.00000000000E+00 0. -1.
</event>
<event>
 7    1  0.2744502E-011  0.5052886E+02  0.7816164E-02  0.1300439E+00
        -11   -1    0    0    0    0  0.00000000000E+00  0.00000000000E+00  0.45593999997E+02  0.45594000000E+02  0.51100000000E-03 0.  1.
         11   -1    0    0    0    0 -0.00000000000E+00 -0.00000000000E+00 -0.45593999997E+02  0.45594000000E+02  0.51100000000E-03 0. -1.
    9900012    2    1    2    0    0 -0.27187848244E+02 -0.22598458492E+02 -0.20082233531E+02  0.50528861765E+02  0.30000005822E+02 0.  0.
         12    1    1    2    0    0  0.27187848244E+02  0.22598458492E+02  0.20082233531E+02  0.40659138235E+02  0.00000000000E+00 0. -1.
         11    1    3    3    0    0 -0.16346820482E+02 -0.14469112680E+02 -0.24118303460E+02  0.32531005575E+02  0.51100000000E-03 0. -1.
        -11    1    3    3    0    0 -0.20513841862E+01 -0.46188913543E+01 -0.32887791174E+01  0.60297929290E+01  0.51100000000E-03 0.  1.
        -12    1    3    3    0    0 -0.87896435760E+01 -0.35104544572E+01  0.73248490462E+01  0.11968063262E+02  0.00000000000E+00 0.  1.
</event>
<event>
 7    1  0.2744502E-011  0.5052886E+02  0.7816164E-02  0.1300439E+00
        -11   -1    0    0    0    0  0.00000000000E+00  0.00000000000E+00  0.45593999997E+02  0.45594000000E+02  0.51100000000E-03 0. -1.
         11   -1    0    0    0    0 -0.00000000000E+00 -0.00000000000E+00 -0.45593999997E+02  0.45594000000E+02  0.51100000000E-03 0.  1.
    9900012    2    1    2    0    0  0.24831783512E+02  0.30873317704E+02 -0.91316278607E+01  0.50528857783E+02  0.29999993716E+02 0.  0.
         12    1    1    2    0    0 -0.24831783512E+02 -0.30873317704E+02  0.91316278607E+01  0.40659142217E+02  0.00000000000E+00 0. -1.
         11    1    3    3    0    0 -0.10141789209E+01 -0.22421661340E+01 -0.53502282133E+01  0.58890415223E+01  0.51100000000E-03 0. -1.
        -11    1    3    3    0    0  0.25976430043E+01  0.63502037626E+01 -0.60051986404E+01  0.91178532548E+01  0.51100000000E-03 0.  1.
         12    1    3    3    0    0  0.23248319429E+02  0.26765280076E+02  0.22237989930E+01  0.35521963005E+02  0.00000000000E+00 0. -1.
</event>
<event>
 7    1  0.2744502E-011  0.5052887E+02  0.7816164E-02  0.1300439E+00
        -11   -1    0    0    0    0  0.00000000000E+00  0.00000000000E+00  0.45593999997E+02  0.45594000000E+02  0.51100000000E-03 0.  1.
         11   -1    0    0    0    0 -0.00000000000E+00 -0.00000000000E+00 -0.45593999997E+02  0.45594000000E+02  0.51100000000E-03 0. -1.
    9900012    2    1    2    0    0  0.26493455950E+01 -0.26576278059E+02  0.30656932403E+02  0.50528867054E+02  0.30000021898E+02 0.  0.
         12    1    1    2    0    0 -0.26493455950E+01  0.26576278059E+02 -0.30656932403E+02  0.40659132946E+02  0.00000000000E+00 0. -1.
         11    1    3    3    0    0  0.18655925959E+01  0.31804216244E+01  0.29204831168E+01  0.47036942226E+01  0.51100000000E-03 0. -1.
        -11    1    3    3    0    0 -0.20434554764E+01 -0.18321586749E+01  0.14564371747E+02  0.14820709846E+02  0.51100000000E-03 0.  1.
         12    1    3    3    0    0  0.28272084756E+01 -0.27924541009E+02  0.13172077539E+02  0.31004462985E+02  0.00000000000E+00 0. -1.
</event>
<event>
 7    1  0.2744502E-011  0.5052886E+02  0.7816164E-02  0.1300439E+00
        -11   -1    0    0    0    0  0.00000000000E+00  0.00000000000E+00  0.45593999997E+02  0.45594000000E+02  0.51100000000E-03 0.  1.
         11   -1    0    0    0    0 -0.00000000000E+00 -0.00000000000E+00 -0.45593999997E+02  0.45594000000E+02  0.51100000000E-03 0. -1.
    9900012    2    1    2    0    0 -0.37759427812E+02  0.87722911526E+01 -0.12265318372E+02  0.50528861845E+02  0.30000006065E+02 0.  0.
         12    1    1    2    0    0  0.37759427812E+02 -0.87722911526E+01  0.12265318372E+02  0.40659138155E+02  0.00000000000E+00 0. -1.
         11    1    3    3    0    0 -0.15192637297E+02 -0.42728624169E+01 -0.56111041892E+01  0.16749867813E+02  0.51100000000E-03 0. -1.
        -11    1    3    3    0    0 -0.22842551494E+02  0.55477721156E+01 -0.10023809362E+02  0.25554582536E+02  0.51100000000E-03 0.  1.
        -12    1    3    3    0    0  0.27576097949E+00  0.74973814539E+01  0.33695951792E+01  0.82244114960E+01  0.00000000000E+00 0.  1.
</event>
<event>
 7    1  0.2744502E-011  0.5052886E+02  0.7816164E-02  0.1300439E+00
        -11   -1    0    0    0    0  0.00000000000E+00  0.00000000000E+00  0.45593999997E+02  0.45594000000E+02  0.51100000000E-03 0. -1.
         11   -1    0    0    0    0 -0.00000000000E+00 -0.00000000000E+00 -0.45593999997E+02  0.45594000000E+02  0.51100000000E-03 0.  1.
    9900012    2    1    2    0    0 -0.84272727850E+01  0.51830021333E+01 -0.39437082212E+02  0.50528857226E+02  0.29999992024E+02 0.  0.
         12    1    1    2    0    0  0.84272727850E+01 -0.51830021333E+01  0.39437082212E+02  0.40659142774E+02  0.00000000000E+00 0. -1.
         11    1    3    3    0    0 -0.32168894544E+01  0.69038475471E+01 -0.34543207238E+01  0.83632422325E+01  0.51100000000E-03 0.  1.
        -11    1    3    3    0    0 -0.64033752023E+01 -0.93544687621E+01 -0.10198239025E+02  0.15248389399E+02  0.51100000000E-03 0. -1.
         12    1    3    3    0    0  0.11929918716E+01  0.76336233483E+01 -0.25784522463E+02  0.26917225594E+02  0.00000000000E+00 0. -1.
</event>
<event>
 7    1  0.2744502E-011  0.5052886E+02  0.7816164E-02  0.1300439E+00
        -11   -1    0    0    0    0  0.00000000000E+00  0.00000000000E+00  0.45593999997E+02  0.45594000000E+02  0.51100000000E-03 0.  1.
         11   -1    0    0    0    0 -0.00000000000E+00 -0.00000000000E+00 -0.45593999997E+02  0.45594000000E+02  0.51100000000E-03 0. -1.
    9900012    2    1    2    0    0 -0.10933053852E+02 -0.30255109583E+02  0.24864884367E+02  0.50528858384E+02  0.29999995543E+02 0.  0.
         12    1    1    2    0    0  0.10933053852E+02  0.30255109583E+02 -0.24864884367E+02  0.40659141616E+02  0.00000000000E+00 0. -1.
         11    1    3    3    0    0 -0.16355746483E+01  0.23976467102E+01  0.21693066509E+01  0.36234935882E+01  0.51100000000E-03 0. -1.
        -11    1    3    3    0    0 -0.16769194507E+02 -0.18162198403E+02  0.12860436147E+02  0.27865070490E+02  0.51100000000E-03 0.  1.
        -12    1    3    3    0    0  0.74717153040E+01 -0.14490557889E+02  0.98351415690E+01  0.19040294305E+02  0.00000000000E+00 0.  1.
</event>
<event>
 7    1  0.2744502E-011  0.5052885E+02  0.7816164E-02  0.1300439E+00
        -11   -1    0    0    0    0  0.00000000000E+00  0.00000000000E+00  0.45593999997E+02  0.45594000000E+02  0.51100000000E-03 0.  1.
         11   -1    0    0    0    0 -0.00000000000E+00 -0.00000000000E+00 -0.45593999997E+02  0.45594000000E+02  0.51100000000E-03 0. -1.
    9900012    2    1    2    0    0 -0.39179310608E+02 -0.35209195743E+01  0.10283552043E+02  0.50528847316E+02  0.29999961901E+02 0.  0.
         12    1    1    2    0    0  0.39179310608E+02  0.35209195743E+01 -0.10283552043E+02  0.40659152684E+02  0.00000000000E+00 0. -1.
         11    1    3    3    0    0 -0.20551044241E+00 -0.32643966619E+00  0.21840364378E+01  0.22178396742E+01  0.51100000000E-03 0. -1.
        -11    1    3    3    0    0 -0.33410324144E+02  0.56715920785E+01  0.13565606795E+02  0.36502635577E+02  0.51100000000E-03 0.  1.
         12    1    3    3    0    0 -0.55634760215E+01 -0.88660719867E+01 -0.54660911896E+01  0.11808372064E+02  0.00000000000E+00 0. -1.
</event>
<event>
 7    1  0.2744502E-011  0.5052886E+02  0.7816164E-02  0.1300439E+00
        -11   -1    0    0    0    0  0.00000000000E+00  0.00000000000E+00  0.45593999997E+02  0.45594000000E+02  0.51100000000E-03 0. -1.
         11   -1    0    0    0    0 -0.00000000000E+00 -0.00000000000E+00 -0.45593999997E+02  0.45594000000E+02  0.51100000000E-03 0.  1.
    9900012    2    1    2    0    0  0.57155138002E+01 -0.42010150232E+00 -0.40253223493E+02  0.50528860992E+02  0.30000003472E+02 0.  0.
         12    1    1    2    0    0 -0.57155138002E+01  0.42010150232E+00  0.40253223493E+02  0.40659139008E+02  0.00000000000E+00 0. -1.
         11    1    3    3    0    0 -0.41670726303E+01  0.85925188359E+01 -0.25630974074E+01  0.98876358566E+01  0.51100000000E-03 0.  1.
        -11    1    3    3    0    0  0.68665128557E+00 -0.42214813381E+01 -0.65737722221E+01  0.78426319667E+01  0.51100000000E-03 0. -1.
        -12    1    3    3    0    0  0.91959351449E+01 -0.47911390002E+01 -0.31116353863E+02  0.32798593169E+02  0.00000000000E+00 0.  1.
</event>
<event>
 7    1  0.2744502E-011  0.5052887E+02  0.7816164E-02  0.1300439E+00
        -11   -1    0    0    0    0  0.00000000000E+00  0.00000000000E+00  0.45593999997E+02  0.45594000000E+02  0.51100000000E-03 0. -1.
         11   -1    0    0    0    0 -0.00000000000E+00 -0.00000000000E+00 -0.45593999997E+02  0.45594000000E+02  0.51100000000E-03 0.  1.
    9900012    2    1    2    0    0 -0.34360589812E+02 -0.55168152385E+01 -0.21025693233E+02  0.50528866234E+02  0.30000019406E+02 0.  0.
         12    1    1    2    0    0  0.34360589812E+02  0.55168152385E+01  0.21025693233E+02  0.40659133766E+02  0.00000000000E+00 0. -1.
         11    1    3    3    0    0 -0.70895521125E+01  0.69027795639E+01 -0.47986077889E+01  0.10997124708E+02  0.51100000000E-03 0. -1.
        -11    1    3    3    0    0 -0.13101701295E+02  0.97394744510E+00 -0.15080247687E+02  0.20000425521E+02  0.51100000000E-03 0.  1.
        -12    1    3    3    0    0 -0.14169336405E+02 -0.13393542247E+02 -0.11468377577E+01  0.19531316006E+02  0.00000000000E+00 0.  1.
</event>
<event>
 7    1  0.2744502E-011  0.5052876E+02  0.7816164E-02  0.1300439E+00
        -11   -1    0    0    0    0  0.00000000000E+00  0.00000000000E+00  0.45593999997E+02  0.45594000000E+02  0.51100000000E-03 0.  1.
         11   -1    0    0    0    0 -0.00000000000E+00 -0.00000000000E+00 -0.45593999997E+02  0.45594000000E+02  0.51100000000E-03 0. -1.
    9900012    2    1    2    0    0  0.37828730405E+02 -0.81812622723E+01 -0.12459043486E+02  0.50528761677E+02  0.29999701591E+02 0.  0.
         12    1    1    2    0    0 -0.37828730405E+02  0.81812622723E+01  0.12459043486E+02  0.40659238323E+02  0.00000000000E+00 0. -1.
         11    1    3    3    0    0  0.60046599497E+01 -0.10282004575E+02 -0.65281540344E+00  0.11924836578E+02  0.51100000000E-03 0. -1.
        -11    1    3    3    0    0  0.23248986015E+02 -0.69342410828E+01 -0.86145057246E+01  0.25745072524E+02  0.51100000000E-03 0.  1.
         12    1    3    3    0    0  0.85750844404E+01  0.90349833856E+01 -0.31917223584E+01  0.12858852575E+02  0.00000000000E+00 0. -1.
</event>
<event>
 7    1  0.2744502E-011  0.5052886E+02  0.7816164E-02  0.1300439E+00
        -11   -1    0    0    0    0  0.00000000000E+00  0.00000000000E+00  0.45593999997E+02  0.45594000000E+02  0.51100000000E-03 0.  1.
         11   -1    0    0    0    0 -0.00000000000E+00 -0.00000000000E+00 -0.45593999997E+02  0.45594000000E+02  0.51100000000E-03 0. -1.
    9900012    2    1    2    0    0  0.36631818586E+02 -0.49016018388E+01  0.16948441286E+02  0.50528862091E+02  0.30000006811E+02 0.  0.
         12    1    1    2    0    0 -0.36631818586E+02  0.49016018388E+01 -0.16948441286E+02  0.40659137909E+02  0.00000000000E+00 0. -1.
         11    1    3    3    0    0  0.10192227187E+02 -0.53099014374E+01 -0.28351989697E+00  0.11495952858E+02  0.51100000000E-03 0. -1.
        -11    1    3    3    0    0  0.25466123486E+02 -0.78692411590E+01  0.13855574449E+02  0.30040395227E+02  0.51100000000E-03 0.  1.
        -12    1    3    3    0    0  0.97346791270E+00  0.82775407576E+01  0.33763867338E+01  0.89925140059E+01  0.00000000000E+00 0.  1.
</event>
<event>
 7    1  0.2744502E-011  0.5052886E+02  0.7816164E-02  0.1300439E+00
        -11   -1    0    0    0    0  0.00000000000E+00  0.00000000000E+00  0.45593999997E+02  0.45594000000E+02  0.51100000000E-03 0.  1.
         11   -1    0    0    0    0 -0.00000000000E+00 -0.00000000000E+00 -0.45593999997E+02  0.45594000000E+02  0.51100000000E-03 0. -1.
    9900012    2    1    2    0    0  0.11132664077E+02 -0.36287077592E+02 -0.14576604762E+02  0.50528860609E+02  0.30000002307E+02 0.  0.
         12    1    1    2    0    0 -0.11132664077E+02  0.36287077592E+02  0.14576604762E+02  0.40659139391E+02  0.00000000000E+00 0. -1.
         11    1    3    3    0    0 -0.67424382368E+01 -0.71478752632E+00 -0.34429375702E+01  0.76042891817E+01  0.51100000000E-03 0. -1.
        -11    1    3    3    0    0  0.26948812923E+01 -0.47895616363E-01  0.85228532286E-01  0.26966540998E+01  0.51100000000E-03 0.  1.
        -12    1    3    3    0    0  0.15180221021E+02 -0.35524394449E+02 -0.11218895724E+02  0.40227917328E+02  0.00000000000E+00 0.  1.
</event>
<event>
 7    1  0.2744502E-011  0.5052886E+02  0.7816164E-02  0.1300439E+00
        -11   -1    0    0    0    0  0.00000000000E+00  0.00000000000E+00  0.45593999997E+02  0.45594000000E+02  0.51100000000E-03 0. -1.
         11   -1    0    0    0    0 -0.00000000000E+00 -0.00000000000E+00 -0.45593999997E+02  0.45594000000E+02  0.51100000000E-03 0.  1.
    9900012    2    1    2    0    0 -0.22777363008E+02  0.33661287109E+02 -0.11291157216E+01  0.50528863047E+02  0.30000009718E+02 0.  0.
         12    1    1    2    0    0  0.22777363008E+02 -0.33661287109E+02  0.11291157216E+01  0.40659136953E+02  0.00000000000E+00 0. -1.
         11    1    3    3    0    0 -0.81701396037E+01  0.10060376469E+02  0.93007686751E+00  0.12993359808E+02  0.51100000000E-03 0. -1.
        -11    1    3    3    0    0 -0.11437377366E+02  0.72864237897E+01 -0.12052340702E+02  0.18142890875E+02  0.51100000000E-03 0.  1.
         12    1    3    3    0    0 -0.31698460379E+01  0.16314486851E+02  0.99931481129E+01  0.19392612364E+02  0.00000000000E+00 0. -1.
</event>
<event>
 7    1  0.2744502E-011  0.5052887E+02  0.7816164E-02  0.1300439E+00
        -11   -1    0    0    0    0  0.00000000000E+00  0.00000000000E+00  0.45593999997E+02  0.45594000000E+02  0.51100000000E-03 0.  1.
         11   -1    0    0    0    0 -0.00000000000E+00 -0.00000000000E+00 -0.45593999997E+02  0.45594000000E+02  0.51100000000E-03 0. -1.
    9900012    2    1    2    0    0 -0.24238537841E+02 -0.31697780851E+02  0.78044362483E+01  0.50528865077E+02  0.30000015888E+02 0.  0.
         12    1    1    2    0    0  0.24238537841E+02  0.31697780851E+02 -0.78044362483E+01  0.40659134923E+02  0.00000000000E+00 0. -1.
         11    1    3    3    0    0  0.41729635400E+00  0.31018912451E+01  0.23325509903E+01  0.39034164429E+01  0.51100000000E-03 0. -1.
        -11    1    3    3    0    0 -0.21158983198E+02 -0.14438214327E+02  0.22227756278E+01  0.25711968705E+02  0.51100000000E-03 0.  1.
        -12    1    3    3    0    0 -0.34968509974E+01 -0.20361457769E+02  0.32491096302E+01  0.20913479929E+02  0.00000000000E+00 0.  1.
</event>
<event>
 7    1  0.2744502E-011  0.5052886E+02  0.7816164E-02  0.1300439E+00
        -11   -1    0    0    0    0  0.00000000000E+00  0.00000000000E+00  0.45593999997E+02  0.45594000000E+02  0.51100000000E-03 0. -1.
         11   -1    0    0    0    0 -0.00000000000E+00 -0.00000000000E+00 -0.45593999997E+02  0.45594000000E+02  0.51100000000E-03 0.  1.
    9900012    2    1    2    0    0  0.31693639601E+02  0.56283689149E+01 -0.24839498216E+02  0.50528855895E+02  0.29999987977E+02 0.  0.
         12    1    1    2    0    0 -0.31693639601E+02 -0.56283689149E+01  0.24839498216E+02  0.40659144105E+02  0.00000000000E+00 0. -1.
         11    1    3    3    0    0  0.13049316516E+02 -0.16426623008E+01 -0.23023330738E+00  0.13154315208E+02  0.51100000000E-03 0. -1.
        -11    1    3    3    0    0  0.57039006828E+01  0.62141929603E+01  0.11646609186E+01  0.85151108310E+01  0.51100000000E-03 0.  1.
        -12    1    3    3    0    0  0.12940422402E+02  0.10568382554E+01 -0.25773925827E+02  0.28859429855E+02  0.00000000000E+00 0.  1.
</event>
<event>
 7    1  0.2744502E-011  0.5052886E+02  0.7816164E-02  0.1300439E+00
        -11   -1    0    0    0    0  0.00000000000E+00  0.00000000000E+00  0.45593999997E+02  0.45594000000E+02  0.51100000000E-03 0.  1.
         11   -1    0    0    0    0 -0.00000000000E+00 -0.00000000000E+00 -0.45593999997E+02  0.45594000000E+02  0.51100000000E-03 0. -1.
    9900012    2    1    2    0    0 -0.23033364029E+02  0.13289744707E+02  0.30757315976E+02  0.50528860081E+02  0.30000000703E+02 0.  0.
         12    1    1    2    0    0  0.23033364029E+02 -0.13289744707E+02 -0.30757315976E+02  0.40659139919E+02  0.00000000000E+00 0. -1.
         11    1    3    3    0    0 -0.67927413419E+01  0.67952954040E+01  0.27420939673E+01  0.99918193615E+01  0.51100000000E-03 0. -1.
        -11    1    3    3    0    0 -0.20926586322E+02  0.57497587728E-01  0.23148869426E+02  0.31205696227E+02  0.51100000000E-03 0.  1.
         12    1    3    3    0    0  0.46859636352E+01  0.64369517157E+01  0.48663525829E+01  0.93313444928E+01  0.00000000000E+00 0. -1.
</event>
<event>
 7    1  0.2744502E-011  0.5052887E+02  0.7816164E-02  0.1300439E+00
        -11   -1    0    0    0    0  0.00000000000E+00  0.00000000000E+00  0.45593999997E+02  0.45594000000E+02  0.51100000000E-03 0.  1.
         11   -1    0    0    0    0 -0.00000000000E+00 -0.00000000000E+00 -0.45593999997E+02  0.45594000000E+02  0.51100000000E-03 0. -1.
    9900012    2    1    2    0    0 -0.13437678765E+02  0.99829364123E+01  0.37053136381E+02  0.50528866393E+02  0.30000019888E+02 0.  0.
         12    1    1    2    0    0  0.13437678765E+02 -0.99829364123E+01 -0.37053136381E+02  0.40659133607E+02  0.00000000000E+00 0. -1.
         11    1    3    3    0    0  0.59419675068E+01  0.74581753671E+01  0.21776324470E+02  0.23772666349E+02  0.51100000000E-03 0. -1.
        -11    1    3    3    0    0 -0.71237034929E+00 -0.10719297869E+01  0.49647340106E+01  0.51288487050E+01  0.51100000000E-03 0.  1.
         12    1    3    3    0    0 -0.18667275922E+02  0.35966908321E+01  0.10312077901E+02  0.21627351339E+02  0.00000000000E+00 0. -1.
</event>
<event>
 7    1  0.2744502E-011  0.5052887E+02  0.7816164E-02  0.1300439E+00
        -11   -1    0    0    0    0  0.00000000000E+00  0.00000000000E+00  0.45593999997E+02  0.45594000000E+02  0.51100000000E-03 0.  1.
         11   -1    0    0    0    0 -0.00000000000E+00 -0.00000000000E+00 -0.45593999997E+02  0.45594000000E+02  0.51100000000E-03 0. -1.
    9900012    2    1    2    0    0 -0.38666664080E+01  0.38866991852E+02  0.11294736542E+02  0.50528865254E+02  0.30000016427E+02 0.  0.
         12    1    1    2    0    0  0.38666664080E+01 -0.38866991852E+02 -0.11294736542E+02  0.40659134746E+02  0.00000000000E+00 0. -1.
         11    1    3    3    0    0  0.23095468455E+01  0.33552698484E+00  0.69165329665E+01  0.72996584528E+01  0.51100000000E-03 0. -1.
        -11    1    3    3    0    0 -0.50765276810E+01  0.80426758187E+00 -0.53470468922E+00  0.51675805756E+01  0.51100000000E-03 0.  1.
         12    1    3    3    0    0 -0.10996855725E+01  0.37727197285E+02  0.49129082642E+01  0.38061626226E+02  0.00000000000E+00 0. -1.
</event>
<event>
 7    1  0.2744502E-011  0.5052884E+02  0.7816164E-02  0.1300439E+00
        -11   -1    0    0    0    0  0.00000000000E+00  0.00000000000E+00  0.45593999997E+02  0.45594000000E+02  0.51100000000E-03 0.  1.
         11   -1    0    0    0    0 -0.00000000000E+00 -0.00000000000E+00 -0.45593999997E+02  0.45594000000E+02  0.51100000000E-03 0. -1.
    9900012    2    1    2    0    0 -0.20053194968E+02 -0.15316678634E+02  0.31881594059E+02  0.50528839746E+02  0.29999938893E+02 0.  0.
         12    1    1    2    0    0  0.20053194968E+02  0.15316678634E+02 -0.31881594059E+02  0.40659160254E+02  0.00000000000E+00 0. -1.
         11    1    3    3    0    0  0.12483806760E+01  0.81956432975E-01  0.16206101195E+02  0.16254319037E+02  0.51100000000E-03 0. -1.
        -11    1    3    3    0    0 -0.19713815044E+01  0.12481615167E+01 -0.21345026787E+01  0.31623336564E+01  0.51100000000E-03 0.  1.
        -12    1    3    3    0    0 -0.19330194140E+02 -0.16646796583E+02  0.17809995543E+02  0.31112187053E+02  0.00000000000E+00 0.  1.
</event>
<event>
 7    1  0.2886810E-011  0.5052886E+02  0.7816164E-02  0.1300439E+00
        -11   -1    0    0    0    0  0.00000000000E+00  0.00000000000E+00  0.45593999997E+02  0.45594000000E+02  0.51100000000E-03 0. -1.
         11   -1    0    0    0    0 -0.00000000000E+00 -0.00000000000E+00 -0.45593999997E+02  0.45594000000E+02  0.51100000000E-03 0.  1.
    9900012    2    1    2    0    0 -0.33010376122E+00 -0.12906281311E+02 -0.38554954080E+02  0.50528861423E+02  0.30000004780E+02 0.  0.
         12    1    1    2    0    0  0.33010376122E+00  0.12906281311E+02  0.38554954080E+02  0.40659138577E+02  0.00000000000E+00 0. -1.
         11    1    3    3    0    0 -0.22926784437E+01  0.39809403076E+01  0.41911439532E-01  0.45941285364E+01  0.51100000000E-03 0.  1.
        -11    1    3    3    0    0 -0.12067526239E+01 -0.62371486609E+01 -0.64012935130E+00  0.63849856038E+01  0.51100000000E-03 0. -1.
        -12    1    3    3    0    0  0.31693273063E+01 -0.10650072958E+02 -0.37956736168E+02  0.39549747282E+02  0.00000000000E+00 0.  1.
</event>
<event>
 7    1  0.2744502E-011  0.5052886E+02  0.7816164E-02  0.1300439E+00
        -11   -1    0    0    0    0  0.00000000000E+00  0.00000000000E+00  0.45593999997E+02  0.45594000000E+02  0.51100000000E-03 0. -1.
         11   -1    0    0    0    0 -0.00000000000E+00 -0.00000000000E+00 -0.45593999997E+02  0.45594000000E+02  0.51100000000E-03 0.  1.
    9900012    2    1    2    0    0  0.36958187448E+02  0.14818419885E+01 -0.16883779884E+02  0.50528862057E+02  0.30000006708E+02 0.  0.
         12    1    1    2    0    0 -0.36958187448E+02 -0.14818419885E+01  0.16883779884E+02  0.40659137943E+02  0.00000000000E+00 0. -1.
         11    1    3    3    0    0  0.14271114440E+00 -0.27528932920E+01 -0.13676967875E+01  0.30772362132E+01  0.51100000000E-03 0. -1.
        -11    1    3    3    0    0 -0.32677719660E+01  0.33644948012E+01 -0.88696055109E+00  0.47733487375E+01  0.51100000000E-03 0.  1.
        -12    1    3    3    0    0  0.40083248269E+02  0.87024047936E+00 -0.14629122545E+02  0.42678277106E+02  0.00000000000E+00 0.  1.
</event>
<event>
 7    1  0.2744502E-011  0.5052886E+02  0.7816164E-02  0.1300439E+00
        -11   -1    0    0    0    0  0.00000000000E+00  0.00000000000E+00  0.45593999997E+02  0.45594000000E+02  0.51100000000E-03 0.  1.
         11   -1    0    0    0    0 -0.00000000000E+00 -0.00000000000E+00 -0.45593999997E+02  0.45594000000E+02  0.51100000000E-03 0. -1.
    9900012    2    1    2    0    0  0.16172190047E+02 -0.25664042699E+02  0.27073652821E+02  0.50528862090E+02  0.30000006808E+02 0.  0.
         12    1    1    2    0    0 -0.16172190047E+02  0.25664042699E+02 -0.27073652821E+02  0.40659137910E+02  0.00000000000E+00 0. -1.
         11    1    3    3    0    0  0.50069542543E+00 -0.63655578810E+01 -0.34118895917E+01  0.72396142088E+01  0.51100000000E-03 0. -1.
        -11    1    3    3    0    0  0.13783263265E+01 -0.13100315194E+02  0.65020571678E+01  0.14689955388E+02  0.51100000000E-03 0.  1.
         12    1    3    3    0    0  0.14293168295E+02 -0.61981696240E+01  0.23983485245E+02  0.28599292493E+02  0.00000000000E+00 0. -1.
</event>
<event>
 7    1  0.2744502E-011  0.5052886E+02  0.7816164E-02  0.1300439E+00
        -11   -1    0    0    0    0  0.00000000000E+00  0.00000000000E+00  0.45593999997E+02  0.45594000000E+02  0.51100000000E-03 0.  1.
         11   -1    0    0    0    0 -0.00000000000E+00 -0.00000000000E+00 -0.45593999997E+02  0.45594000000E+02  0.51100000000E-03 0. -1.
    9900012    2    1    2    0    0 -0.39039653275E+02  0.92165947858E+01  0.66426950969E+01  0.50528861477E+02  0.30000004946E+02 0.  0.
         12    1    1    2    0    0  0.39039653275E+02 -0.92165947858E+01 -0.66426950969E+01  0.40659138523E+02  0.00000000000E+00 0. -1.
         11    1    3    3    0    0 -0.13624299543E+02  0.58577099991E+01 -0.40027430885E+01  0.15360867715E+02  0.51100000000E-03 0. -1.
        -11    1    3    3    0    0 -0.21896563403E+02  0.47567136869E+01 -0.14888781271E+01  0.22456682131E+02  0.51100000000E-03 0.  1.
        -12    1    3    3    0    0 -0.35187903282E+01 -0.13978289002E+01  0.12134316313E+02  0.12711311631E+02  0.00000000000E+00 0.  1.
</event>
<event>
 7    1  0.2744502E-011  0.5052886E+02  0.7816164E-02  0.1300439E+00
        -11   -1    0    0    0    0  0.00000000000E+00  0.00000000000E+00  0.45593999997E+02  0.45594000000E+02  0.51100000000E-03 0.  1.
         11   -1    0    0    0    0 -0.00000000000E+00 -0.00000000000E+00 -0.45593999997E+02  0.45594000000E+02  0.51100000000E-03 0. -1.
    9900012    2    1    2    0    0 -0.29217688099E+02 -0.67895112632E+01 -0.27448045702E+02  0.50528856208E+02  0.29999988931E+02 0.  0.
         12    1    1    2    0    0  0.29217688099E+02  0.67895112632E+01  0.27448045702E+02  0.40659143792E+02  0.00000000000E+00 0. -1.
         11    1    3    3    0    0 -0.61333994391E+01 -0.10182743250E+01 -0.17194150885E+02  0.18283716695E+02  0.51100000000E-03 0. -1.
        -11    1    3    3    0    0 -0.64899249214E+01 -0.10283634056E+02  0.12121643319E+00  0.12160877787E+02  0.51100000000E-03 0.  1.
         12    1    3    3    0    0 -0.16594363738E+02  0.45123971174E+01 -0.10375111250E+02  0.20084261726E+02  0.00000000000E+00 0. -1.
</event>
<event>
 7    1  0.2744502E-011  0.5052887E+02  0.7816164E-02  0.1300439E+00
        -11   -1    0    0    0    0  0.00000000000E+00  0.00000000000E+00  0.45593999997E+02  0.45594000000E+02  0.51100000000E-03 0.  1.
         11   -1    0    0    0    0 -0.00000000000E+00 -0.00000000000E+00 -0.45593999997E+02  0.45594000000E+02  0.51100000000E-03 0. -1.
    9900012    2    1    2    0    0 -0.22626141480E+02 -0.25606006950E+01  0.33684804806E+02  0.50528867828E+02  0.30000024249E+02 0.  0.
         12    1    1    2    0    0  0.22626141480E+02  0.25606006950E+01 -0.33684804806E+02  0.40659132172E+02  0.00000000000E+00 0. -1.
         11    1    3    3    0    0 -0.12097615545E+02 -0.10970567375E+02  0.12680997899E+02  0.20676396165E+02  0.51100000000E-03 0. -1.
        -11    1    3    3    0    0 -0.10855213171E+02  0.93398523797E+01  0.72271052700E+01  0.16040559414E+02  0.51100000000E-03 0.  1.
         12    1    3    3    0    0  0.32668723623E+00 -0.92988569933E+00  0.13776701638E+02  0.13811912249E+02  0.00000000000E+00 0. -1.
</event>
<event>
 7    1  0.2744502E-011  0.5052887E+02  0.7816164E-02  0.1300439E+00
        -11   -1    0    0    0    0  0.00000000000E+00  0.00000000000E+00  0.45593999997E+02  0.45594000000E+02  0.51100000000E-03 0.  1.
         11   -1    0    0    0    0 -0.00000000000E+00 -0.00000000000E+00 -0.45593999997E+02  0.45594000000E+02  0.51100000000E-03 0. -1.
    9900012    2    1    2    0    0  0.16488923204E+01  0.78778762123E+01  0.39854551367E+02  0.50528867641E+02  0.30000023683E+02 0.  0.
         12    1    1    2    0    0 -0.16488923204E+01 -0.78778762123E+01 -0.39854551367E+02  0.40659132359E+02  0.00000000000E+00 0. -1.
         11    1    3    3    0    0 -0.25762346978E+00  0.25186207970E+01 -0.87160758184E+00  0.26775960504E+01  0.51100000000E-03 0. -1.
        -11    1    3    3    0    0  0.53870984118E+01  0.64188157623E+01  0.15690349418E+01  0.85254850888E+01  0.51100000000E-03 0.  1.
        -12    1    3    3    0    0 -0.34805826216E+01 -0.10595603470E+01  0.39157124007E+02  0.39325786502E+02  0.00000000000E+00 0.  1.
</event>
<event>
 7    1  0.2744502E-011  0.5052886E+02  0.7816164E-02  0.1300439E+00
        -11   -1    0    0    0    0  0.00000000000E+00  0.00000000000E+00  0.45593999997E+02  0.45594000000E+02  0.51100000000E-03 0.  1.
         11   -1    0    0    0    0 -0.00000000000E+00 -0.00000000000E+00 -0.45593999997E+02  0.45594000000E+02  0.51100000000E-03 0. -1.
    9900012    2    1    2    0    0  0.95379570128E+01  0.20822450404E+02  0.33594923581E+02  0.50528856438E+02  0.29999989627E+02 0.  0.
         12    1    1    2    0    0 -0.95379570128E+01 -0.20822450404E+02 -0.33594923581E+02  0.40659143562E+02  0.00000000000E+00 0. -1.
         11    1    3    3    0    0 -0.78001942127E+00  0.31680770024E-01 -0.27868076911E+01  0.28940855788E+01  0.51100000000E-03 0. -1.
        -11    1    3    3    0    0  0.11801998821E+02  0.47757367539E+01  0.80709897740E+01  0.15074339584E+02  0.51100000000E-03 0.  1.
        -12    1    3    3    0    0 -0.14840223867E+01  0.16015032880E+02  0.28310741498E+02  0.32560431274E+02  0.00000000000E+00 0.  1.
</event>
<event>
 7    1  0.2744502E-011  0.5052886E+02  0.7816164E-02  0.1300439E+00
        -11   -1    0    0    0    0  0.00000000000E+00  0.00000000000E+00  0.45593999997E+02  0.45594000000E+02  0.51100000000E-03 0.  1.
         11   -1    0    0    0    0 -0.00000000000E+00 -0.00000000000E+00 -0.45593999997E+02  0.45594000000E+02  0.51100000000E-03 0. -1.
    9900012    2    1    2    0    0  0.24893169819E+02  0.19105681282E+02  0.25854765145E+02  0.50528857835E+02  0.29999993876E+02 0.  0.
         12    1    1    2    0    0 -0.24893169819E+02 -0.19105681282E+02 -0.25854765145E+02  0.40659142165E+02  0.00000000000E+00 0. -1.
         11    1    3    3    0    0  0.46132814030E+01  0.18531902512E+02  0.95072349610E+01  0.21333103218E+02  0.51100000000E-03 0. -1.
        -11    1    3    3    0    0  0.22477631287E+01  0.47278438396E+01  0.14289567590E+01  0.54264964880E+01  0.51100000000E-03 0.  1.
         12    1    3    3    0    0  0.18032125288E+02 -0.41540650703E+01  0.14918573425E+02  0.23769258129E+02  0.00000000000E+00 0. -1.
</event>
<event>
 7    1  0.2744502E-011  0.5052887E+02  0.7816164E-02  0.1300439E+00
        -11   -1    0    0    0    0  0.00000000000E+00  0.00000000000E+00  0.45593999997E+02  0.45594000000E+02  0.51100000000E-03 0.  1.
         11   -1    0    0    0    0 -0.00000000000E+00 -0.00000000000E+00 -0.45593999997E+02  0.45594000000E+02  0.51100000000E-03 0. -1.
    9900012    2    1    2    0    0 -0.13226227302E+02 -0.36060944364E+02  0.13335664274E+02  0.50528871398E+02  0.30000035100E+02 0.  0.
         12    1    1    2    0    0  0.13226227302E+02  0.36060944364E+02 -0.13335664274E+02  0.40659128602E+02  0.00000000000E+00 0. -1.
         11    1    3    3    0    0 -0.51881627137E+01 -0.53279190217E+01 -0.55358126948E+01  0.92708670522E+01  0.51100000000E-03 0. -1.
        -11    1    3    3    0    0 -0.17164394238E+01  0.22813520911E+01  0.28020351110E+01  0.40002665765E+01  0.51100000000E-03 0.  1.
        -12    1    3    3    0    0 -0.63216251644E+01 -0.33014377434E+02  0.16069441858E+02  0.37257737769E+02  0.00000000000E+00 0.  1.
</event>
<event>
 7    1  0.2744502E-011  0.5052886E+02  0.7816164E-02  0.1300439E+00
        -11   -1    0    0    0    0  0.00000000000E+00  0.00000000000E+00  0.45593999997E+02  0.45594000000E+02  0.51100000000E-03 0.  1.
         11   -1    0    0    0    0 -0.00000000000E+00 -0.00000000000E+00 -0.45593999997E+02  0.45594000000E+02  0.51100000000E-03 0. -1.
    9900012    2    1    2    0    0  0.10013730157E+02  0.39054491266E+02  0.52571500423E+01  0.50528859499E+02  0.29999998932E+02 0.  0.
         12    1    1    2    0    0 -0.10013730157E+02 -0.39054491266E+02 -0.52571500423E+01  0.40659140501E+02  0.00000000000E+00 0. -1.
         11    1    3    3    0    0  0.95475776425E+01  0.63559509055E+01 -0.21039878564E+01  0.11661094113E+02  0.51100000000E-03 0. -1.
        -11    1    3    3    0    0 -0.91151925598E+01  0.12495425343E+02  0.55582978111E+01  0.16435238505E+02  0.51100000000E-03 0.  1.
         12    1    3    3    0    0  0.95813450745E+01  0.20203115018E+02  0.18028400876E+01  0.22432526880E+02  0.00000000000E+00 0. -1.
</event>
<event>
 7    1  0.2744502E-011  0.5052886E+02  0.7816164E-02  0.1300439E+00
        -11   -1    0    0    0    0  0.00000000000E+00  0.00000000000E+00  0.45593999997E+02  0.45594000000E+02  0.51100000000E-03 0. -1.
         11   -1    0    0    0    0 -0.00000000000E+00 -0.00000000000E+00 -0.45593999997E+02  0.45594000000E+02  0.51100000000E-03 0.  1.
    9900012    2    1    2    0    0 -0.19272539775E+02  0.34300182838E+02  0.10258273612E+02  0.50528861917E+02  0.30000006284E+02 0.  0.
         12    1    1    2    0    0  0.19272539775E+02 -0.34300182838E+02 -0.10258273612E+02  0.40659138083E+02  0.00000000000E+00 0. -1.
         11    1    3    3    0    0 -0.11943168519E+02  0.29974873244E+02 -0.51206295736E+01  0.32670371099E+02  0.51100000000E-03 0.  1.
        -11    1    3    3    0    0 -0.72088078676E+00 -0.37202134594E+00  0.62685553619E+00  0.10251912577E+01  0.51100000000E-03 0. -1.
        -12    1    3    3    0    0 -0.66084904701E+01  0.46973309406E+01  0.14752047649E+02  0.16833299561E+02  0.00000000000E+00 0.  1.
</event>
<event>
 7    1  0.2744502E-011  0.5052888E+02  0.7816164E-02  0.1300439E+00
        -11   -1    0    0    0    0  0.00000000000E+00  0.00000000000E+00  0.45593999997E+02  0.45594000000E+02  0.51100000000E-03 0.  1.
         11   -1    0    0    0    0 -0.00000000000E+00 -0.00000000000E+00 -0.45593999997E+02  0.45594000000E+02  0.51100000000E-03 0. -1.
    9900012    2    1    2    0    0  0.10274139332E+02  0.30253994622E+02  0.25145616019E+02  0.50528878827E+02  0.30000057683E+02 0.  0.
         12    1    1    2    0    0 -0.10274139332E+02 -0.30253994622E+02 -0.25145616019E+02  0.40659121173E+02  0.00000000000E+00 0. -1.
         11    1    3    3    0    0  0.77328200649E+01  0.89970701269E+01  0.14906675652E+01  0.11956833489E+02  0.51100000000E-03 0. -1.
        -11    1    3    3    0    0  0.53380994204E+01  0.60891270256E+01 -0.22666333566E+01  0.84089476387E+01  0.51100000000E-03 0.  1.
        -12    1    3    3    0    0 -0.27967801534E+01  0.15167797470E+02  0.25921581810E+02  0.30163097700E+02  0.00000000000E+00 0.  1.
</event>
<event>
 7    1  0.2744502E-011  0.5052886E+02  0.7816164E-02  0.1300439E+00
        -11   -1    0    0    0    0  0.00000000000E+00  0.00000000000E+00  0.45593999997E+02  0.45594000000E+02  0.51100000000E-03 0. -1.
         11   -1    0    0    0    0 -0.00000000000E+00 -0.00000000000E+00 -0.45593999997E+02  0.45594000000E+02  0.51100000000E-03 0.  1.
    9900012    2    1    2    0    0  0.40054915872E+02 -0.20486986995E+01  0.66762424106E+01  0.50528860011E+02  0.30000000490E+02 0.  0.
         12    1    1    2    0    0 -0.40054915872E+02  0.20486986995E+01 -0.66762424106E+01  0.40659139989E+02  0.00000000000E+00 0. -1.
         11    1    3    3    0    0  0.80286912284E+01  0.51029305725E+01  0.41356620482E+00  0.95221226907E+01  0.51100000000E-03 0. -1.
        -11    1    3    3    0    0  0.35917341394E+02 -0.72060962925E+01  0.57501981665E+01  0.37081639875E+02  0.51100000000E-03 0.  1.
         12    1    3    3    0    0 -0.38911167500E+01  0.54467020427E-01  0.51247803927E+00  0.39250974458E+01  0.00000000000E+00 0. -1.
</event>
<event>
 7    1  0.2744502E-011  0.5052886E+02  0.7816164E-02  0.1300439E+00
        -11   -1    0    0    0    0  0.00000000000E+00  0.00000000000E+00  0.45593999997E+02  0.45594000000E+02  0.51100000000E-03 0. -1.
         11   -1    0    0    0    0 -0.00000000000E+00 -0.00000000000E+00 -0.45593999997E+02  0.45594000000E+02  0.51100000000E-03 0.  1.
    9900012    2    1    2    0    0 -0.21875418239E+02 -0.33980353412E+02  0.44684602842E+01  0.50528862300E+02  0.30000007448E+02 0.  0.
         12    1    1    2    0    0  0.21875418239E+02  0.33980353412E+02 -0.44684602842E+01  0.40659137700E+02  0.00000000000E+00 0. -1.
         11    1    3    3    0    0 -0.18804508511E+02 -0.17109357049E+02 -0.48971457856E+01  0.25890571181E+02  0.51100000000E-03 0. -1.
        -11    1    3    3    0    0  0.20825295986E+01 -0.16473122258E+01 -0.32567277214E+01  0.42020046181E+01  0.51100000000E-03 0.  1.
         12    1    3    3    0    0 -0.51534393270E+01 -0.15223684138E+02  0.12622333791E+02  0.20436286501E+02  0.00000000000E+00 0. -1.
</event>
<event>
 7    1  0.2744502E-011  0.5052886E+02  0.7816164E-02  0.1300439E+00
        -11   -1    0    0    0    0  0.00000000000E+00  0.00000000000E+00  0.45593999997E+02  0.45594000000E+02  0.51100000000E-03 0.  1.
         11   -1    0    0    0    0 -0.00000000000E+00 -0.00000000000E+00 -0.45593999997E+02  0.45594000000E+02  0.51100000000E-03 0. -1.
    9900012    2    1    2    0    0 -0.25120318868E+02 -0.42808563589E+01  0.31682953488E+02  0.50528859663E+02  0.29999999432E+02 0.  0.
         12    1    1    2    0    0  0.25120318868E+02  0.42808563589E+01 -0.31682953488E+02  0.40659140337E+02  0.00000000000E+00 0. -1.
         11    1    3    3    0    0 -0.91642258181E+00 -0.32536815578E+00 -0.34461967850E+01  0.35807774752E+01  0.51100000000E-03 0. -1.
        -11    1    3    3    0    0 -0.88114578746E+01  0.75272892564E+01  0.16737708435E+02  0.20358112814E+02  0.51100000000E-03 0.  1.
         12    1    3    3    0    0 -0.15392438412E+02 -0.11482777460E+02  0.18391441838E+02  0.26589969375E+02  0.00000000000E+00 0. -1.
</event>
<event>
 7    1  0.2744502E-011  0.5052886E+02  0.7816164E-02  0.1300439E+00
        -11   -1    0    0    0    0  0.00000000000E+00  0.00000000000E+00  0.45593999997E+02  0.45594000000E+02  0.51100000000E-03 0.  1.
         11   -1    0    0    0    0 -0.00000000000E+00 -0.00000000000E+00 -0.45593999997E+02  0.45594000000E+02  0.51100000000E-03 0. -1.
    9900012    2    1    2    0    0  0.10376153705E+02  0.12643134096E+02  0.37224353949E+02  0.50528856718E+02  0.29999990482E+02 0.  0.
         12    1    1    2    0    0 -0.10376153705E+02 -0.12643134096E+02 -0.37224353949E+02  0.40659143282E+02  0.00000000000E+00 0. -1.
         11    1    3    3    0    0 -0.11244034687E+01  0.24952945458E+01  0.27441028397E+02  0.27577179293E+02  0.51100000000E-03 0. -1.
        -11    1    3    3    0    0  0.40024869984E+01  0.34358557837E+01  0.11583985001E+02  0.12728460862E+02  0.51100000000E-03 0.  1.
         12    1    3    3    0    0  0.74980701756E+01  0.67119837667E+01 -0.18006594499E+01  0.10223216563E+02  0.00000000000E+00 0. -1.
</event>
<event>
 7    1  0.2744502E-011  0.5052886E+02  0.7816164E-02  0.1300439E+00
        -11   -1    0    0    0    0  0.00000000000E+00  0.00000000000E+00  0.45593999997E+02  0.45594000000E+02  0.51100000000E-03 0. -1.
         11   -1    0    0    0    0 -0.00000000000E+00 -0.00000000000E+00 -0.45593999997E+02  0.45594000000E+02  0.51100000000E-03 0.  1.
    9900012    2    1    2    0    0  0.36862244927E+02 -0.48961593743E+01 -0.16442879234E+02  0.50528858897E+02  0.29999997105E+02 0.  0.
         12    1    1    2    0    0 -0.36862244927E+02  0.48961593743E+01  0.16442879234E+02  0.40659141103E+02  0.00000000000E+00 0. -1.
         11    1    3    3    0    0  0.14603462921E+02  0.76156546613E+01  0.18866646404E+01  0.16577660538E+02  0.51100000000E-03 0. -1.
        -11    1    3    3    0    0  0.95913229802E+01 -0.13287639151E+01 -0.97937330767E+00  0.97323307789E+01  0.51100000000E-03 0.  1.
        -12    1    3    3    0    0  0.12667459027E+02 -0.11183050120E+02 -0.17350170567E+02  0.24218867580E+02  0.00000000000E+00 0.  1.
</event>
<event>
 7    1  0.2744502E-011  0.5052886E+02  0.7816164E-02  0.1300439E+00
        -11   -1    0    0    0    0  0.00000000000E+00  0.00000000000E+00  0.45593999997E+02  0.45594000000E+02  0.51100000000E-03 0. -1.
         11   -1    0    0    0    0 -0.00000000000E+00 -0.00000000000E+00 -0.45593999997E+02  0.45594000000E+02  0.51100000000E-03 0.  1.
    9900012    2    1    2    0    0 -0.38709259263E+02  0.12414953762E+02  0.79220550043E+00  0.50528863029E+02  0.30000009664E+02 0.  0.
         12    1    1    2    0    0  0.38709259263E+02 -0.12414953762E+02 -0.79220550043E+00  0.40659136971E+02  0.00000000000E+00 0. -1.
         11    1    3    3    0    0 -0.16070071489E+02  0.14118760041E+02  0.71715939347E-01  0.21391393741E+02  0.51100000000E-03 0. -1.
        -11    1    3    3    0    0 -0.66832313512E+01  0.49042388728E+01 -0.63841726795E+01  0.10463020657E+02  0.51100000000E-03 0.  1.
        -12    1    3    3    0    0 -0.15955956423E+02 -0.66080451517E+01  0.71046622406E+01  0.18674448631E+02  0.00000000000E+00 0.  1.
</event>
<event>
 7    1  0.2744502E-011  0.5052886E+02  0.7816164E-02  0.1300439E+00
        -11   -1    0    0    0    0  0.00000000000E+00  0.00000000000E+00  0.45593999997E+02  0.45594000000E+02  0.51100000000E-03 0. -1.
         11   -1    0    0    0    0 -0.00000000000E+00 -0.00000000000E+00 -0.45593999997E+02  0.45594000000E+02  0.51100000000E-03 0.  1.
    9900012    2    1    2    0    0  0.10227072373E+02 -0.35025695158E+02 -0.17938047174E+02  0.50528857522E+02  0.29999992925E+02 0.  0.
         12    1    1    2    0    0 -0.10227072373E+02  0.35025695158E+02  0.17938047174E+02  0.40659142478E+02  0.00000000000E+00 0. -1.
         11    1    3    3    0    0  0.72395752004E+01 -0.89444813022E+01  0.79388089651E+00  0.11534532586E+02  0.51100000000E-03 0. -1.
        -11    1    3    3    0    0  0.46863025634E+01 -0.20912621730E+02 -0.21455101676E+01  0.21538393475E+02  0.51100000000E-03 0.  1.
        -12    1    3    3    0    0 -0.16988053909E+01 -0.51685921254E+01 -0.16586417903E+02  0.17455931461E+02  0.00000000000E+00 0.  1.
</event>
<event>
 7    1  0.2744502E-011  0.5052886E+02  0.7816164E-02  0.1300439E+00
        -11   -1    0    0    0    0  0.00000000000E+00  0.00000000000E+00  0.45593999997E+02  0.45594000000E+02  0.51100000000E-03 0. -1.
         11   -1    0    0    0    0 -0.00000000000E+00 -0.00000000000E+00 -0.45593999997E+02  0.45594000000E+02  0.51100000000E-03 0.  1.
    9900012    2    1    2    0    0 -0.32466475914E+02 -0.21182108284E+02 -0.12264247946E+02  0.50528861454E+02  0.30000004876E+02 0.  0.
         12    1    1    2    0    0  0.32466475914E+02  0.21182108284E+02  0.12264247946E+02  0.40659138546E+02  0.00000000000E+00 0. -1.
         11    1    3    3    0    0 -0.60177215165E+01  0.42043433842E+01 -0.90778474211E+01  0.11674621604E+02  0.51100000000E-03 0. -1.
        -11    1    3    3    0    0  0.10738722321E+01 -0.11707972074E+01  0.11188736469E+01  0.19431536663E+01  0.51100000000E-03 0.  1.
         12    1    3    3    0    0 -0.27522626630E+02 -0.24215654461E+02 -0.43052741719E+01  0.36911086183E+02  0.00000000000E+00 0. -1.
</event>
<event>
 7    1  0.2744502E-011  0.5052886E+02  0.7816164E-02  0.1300439E+00
        -11   -1    0    0    0    0  0.00000000000E+00  0.00000000000E+00  0.45593999997E+02  0.45594000000E+02  0.51100000000E-03 0.  1.
         11   -1    0    0    0    0 -0.00000000000E+00 -0.00000000000E+00 -0.45593999997E+02  0.45594000000E+02  0.51100000000E-03 0. -1.
    9900012    2    1    2    0    0 -0.93588315214E+01  0.30452438639E+02  0.25263158309E+02  0.50528856941E+02  0.29999991159E+02 0.  0.
         12    1    1    2    0    0  0.93588315214E+01 -0.30452438639E+02 -0.25263158309E+02  0.40659143059E+02  0.00000000000E+00 0. -1.
         11    1    3    3    0    0  0.66632888377E+01  0.57792613712E+01  0.97126570894E+01  0.13120022413E+02  0.51100000000E-03 0. -1.
        -11    1    3    3    0    0 -0.71555345957E+01  0.15835104343E+02  0.17588844544E+02  0.24724879323E+02  0.51100000000E-03 0.  1.
        -12    1    3    3    0    0 -0.88665857633E+01  0.88380729250E+01 -0.20383433240E+01  0.12683955205E+02  0.00000000000E+00 0.  1.
</event>
<event>
 7    1  0.2744502E-011  0.5052886E+02  0.7816164E-02  0.1300439E+00
        -11   -1    0    0    0    0  0.00000000000E+00  0.00000000000E+00  0.45593999997E+02  0.45594000000E+02  0.51100000000E-03 0. -1.
         11   -1    0    0    0    0 -0.00000000000E+00 -0.00000000000E+00 -0.45593999997E+02  0.45594000000E+02  0.51100000000E-03 0.  1.
    9900012    2    1    2    0    0  0.40106598734E+02  0.45438873083E+01  0.48968708842E+01  0.50528861810E+02  0.30000005958E+02 0.  0.
         12    1    1    2    0    0 -0.40106598734E+02 -0.45438873083E+01 -0.48968708842E+01  0.40659138190E+02  0.00000000000E+00 0. -1.
         11    1    3    3    0    0  0.58608413171E+01  0.69498509813E+01  0.29277286872E+01  0.95509939343E+01  0.51100000000E-03 0. -1.
        -11    1    3    3    0    0  0.38163080501E+01 -0.92716716823E+00 -0.80089981169E+01  0.89200839227E+01  0.51100000000E-03 0.  1.
         12    1    3    3    0    0  0.30429449367E+02 -0.14787965047E+01  0.99781403139E+01  0.32057783953E+02  0.00000000000E+00 0. -1.
</event>
<event>
 7    1  0.2744502E-011  0.5052886E+02  0.7816164E-02  0.1300439E+00
        -11   -1    0    0    0    0  0.00000000000E+00  0.00000000000E+00  0.45593999997E+02  0.45594000000E+02  0.51100000000E-03 0. -1.
         11   -1    0    0    0    0 -0.00000000000E+00 -0.00000000000E+00 -0.45593999997E+02  0.45594000000E+02  0.51100000000E-03 0.  1.
    9900012    2    1    2    0    0  0.27228874163E+02 -0.10720221398E+02 -0.28228189971E+02  0.50528862724E+02  0.30000008735E+02 0.  0.
         12    1    1    2    0    0 -0.27228874163E+02  0.10720221398E+02  0.28228189971E+02  0.40659137276E+02  0.00000000000E+00 0. -1.
         11    1    3    3    0    0  0.44124362289E+00 -0.61580025196E+00 -0.12397541074E+02  0.12420665474E+02  0.51100000000E-03 0. -1.
        -11    1    3    3    0    0  0.65874387114E+01 -0.72611690545E+01 -0.14710481120E+02  0.17678155443E+02  0.51100000000E-03 0.  1.
        -12    1    3    3    0    0  0.20200191829E+02 -0.28432520920E+01 -0.11201677768E+01  0.20430041807E+02  0.00000000000E+00 0.  1.
</event>
<event>
 7    1  0.2744502E-011  0.5052883E+02  0.7816164E-02  0.1300439E+00
        -11   -1    0    0    0    0  0.00000000000E+00  0.00000000000E+00  0.45593999997E+02  0.45594000000E+02  0.51100000000E-03 0. -1.
         11   -1    0    0    0    0 -0.00000000000E+00 -0.00000000000E+00 -0.45593999997E+02  0.45594000000E+02  0.51100000000E-03 0.  1.
    9900012    2    1    2    0    0 -0.58065108215E+01 -0.30496699225E+02 -0.26256505179E+02  0.50528827655E+02  0.29999902140E+02 0.  0.
         12    1    1    2    0    0  0.58065108215E+01  0.30496699225E+02  0.26256505179E+02  0.40659172345E+02  0.00000000000E+00 0. -1.
         11    1    3    3    0    0 -0.55705908037E+01 -0.10052954822E+01  0.16929936284E+01  0.59083270556E+01  0.51100000000E-03 0. -1.
        -11    1    3    3    0    0 -0.52703231406E+01 -0.22910543026E+02 -0.11431670726E+02  0.26141009613E+02  0.51100000000E-03 0.  1.
         12    1    3    3    0    0  0.50344031228E+01 -0.65808607174E+01 -0.16517828082E+02  0.18479490987E+02  0.00000000000E+00 0. -1.
</event>
<event>
 7    1  0.2744502E-011  0.5052886E+02  0.7816164E-02  0.1300439E+00
        -11   -1    0    0    0    0  0.00000000000E+00  0.00000000000E+00  0.45593999997E+02  0.45594000000E+02  0.51100000000E-03 0. -1.
         11   -1    0    0    0    0 -0.00000000000E+00 -0.00000000000E+00 -0.45593999997E+02  0.45594000000E+02  0.51100000000E-03 0.  1.
    9900012    2    1    2    0    0  0.37663084185E+02 -0.14976777879E+02 -0.32177733791E+01  0.50528857713E+02  0.29999993504E+02 0.  0.
         12    1    1    2    0    0 -0.37663084185E+02  0.14976777879E+02  0.32177733791E+01  0.40659142287E+02  0.00000000000E+00 0. -1.
         11    1    3    3    0    0  0.78370081333E+01 -0.51870077754E+01  0.35872488785E+01  0.10059428459E+02  0.51100000000E-03 0. -1.
        -11    1    3    3    0    0  0.12328405876E+02 -0.12659926621E+02  0.59290333037E+01  0.18639119337E+02  0.51100000000E-03 0.  1.
        -12    1    3    3    0    0  0.17497670176E+02  0.28701565174E+01 -0.12734055561E+02  0.21830309917E+02  0.00000000000E+00 0.  1.
</event>
<event>
 7    1  0.2744502E-011  0.5052886E+02  0.7816164E-02  0.1300439E+00
        -11   -1    0    0    0    0  0.00000000000E+00  0.00000000000E+00  0.45593999997E+02  0.45594000000E+02  0.51100000000E-03 0. -1.
         11   -1    0    0    0    0 -0.00000000000E+00 -0.00000000000E+00 -0.45593999997E+02  0.45594000000E+02  0.51100000000E-03 0.  1.
    9900012    2    1    2    0    0  0.19882665683E+02 -0.23521917106E+02 -0.26543629838E+02  0.50528864938E+02  0.30000015467E+02 0.  0.
         12    1    1    2    0    0 -0.19882665683E+02  0.23521917106E+02  0.26543629838E+02  0.40659135062E+02  0.00000000000E+00 0. -1.
         11    1    3    3    0    0  0.49376347109E+01 -0.17438083299E+02 -0.12766667491E+02  0.22168779505E+02  0.51100000000E-03 0. -1.
        -11    1    3    3    0    0  0.69917758364E+01 -0.11892664446E+02 -0.12139318837E+02  0.18376165516E+02  0.51100000000E-03 0.  1.
        -12    1    3    3    0    0  0.79532551355E+01  0.58088306389E+01 -0.16376435090E+01  0.99839199168E+01  0.00000000000E+00 0.  1.
</event>
<event>
 7    1  0.2744502E-011  0.5052886E+02  0.7816164E-02  0.1300439E+00
        -11   -1    0    0    0    0  0.00000000000E+00  0.00000000000E+00  0.45593999997E+02  0.45594000000E+02  0.51100000000E-03 0.  1.
         11   -1    0    0    0    0 -0.00000000000E+00 -0.00000000000E+00 -0.45593999997E+02  0.45594000000E+02  0.51100000000E-03 0. -1.
    9900012    2    1    2    0    0 -0.20859433111E+02  0.14328362820E+02  0.31823696909E+02  0.50528860612E+02  0.30000002318E+02 0.  0.
         12    1    1    2    0    0  0.20859433111E+02 -0.14328362820E+02 -0.31823696909E+02  0.40659139388E+02  0.00000000000E+00 0. -1.
         11    1    3    3    0    0  0.20563116460E+01 -0.13247879643E+01  0.13282115759E+01  0.27834559431E+01  0.51100000000E-03 0. -1.
        -11    1    3    3    0    0 -0.13560398241E+01 -0.47170845220E+01 -0.39038569266E+00  0.49236299254E+01  0.51100000000E-03 0.  1.
        -12    1    3    3    0    0 -0.21559704932E+02  0.20370235307E+02  0.30885871025E+02  0.42821774744E+02  0.00000000000E+00 0.  1.
</event>
<event>
 7    1  0.2744502E-011  0.5052886E+02  0.7816164E-02  0.1300439E+00
        -11   -1    0    0    0    0  0.00000000000E+00  0.00000000000E+00  0.45593999997E+02  0.45594000000E+02  0.51100000000E-03 0.  1.
         11   -1    0    0    0    0 -0.00000000000E+00 -0.00000000000E+00 -0.45593999997E+02  0.45594000000E+02  0.51100000000E-03 0. -1.
    9900012    2    1    2    0    0 -0.11411155333E+01 -0.34787334920E+02  0.21016772223E+02  0.50528861665E+02  0.30000005518E+02 0.  0.
         12    1    1    2    0    0  0.11411155333E+01  0.34787334920E+02 -0.21016772223E+02  0.40659138335E+02  0.00000000000E+00 0. -1.
         11    1    3    3    0    0 -0.35641472794E+01 -0.49807964535E+01  0.13866291854E+02  0.15158678345E+02  0.51100000000E-03 0. -1.
        -11    1    3    3    0    0  0.50889053979E+01 -0.99114568728E+01  0.10153291711E+02  0.15073926772E+02  0.51100000000E-03 0.  1.
        -12    1    3    3    0    0 -0.26658736518E+01 -0.19895081593E+02 -0.30028113418E+01  0.20296256549E+02  0.00000000000E+00 0.  1.
</event>
<event>
 7    1  0.2744502E-011  0.5052883E+02  0.7816164E-02  0.1300439E+00
        -11   -1    0    0    0    0  0.00000000000E+00  0.00000000000E+00  0.45593999997E+02  0.45594000000E+02  0.51100000000E-03 0.  1.
         11   -1    0    0    0    0 -0.00000000000E+00 -0.00000000000E+00 -0.45593999997E+02  0.45594000000E+02  0.51100000000E-03 0. -1.
    9900012    2    1    2    0    0 -0.44189919544E+01 -0.30880135903E+02  0.26077920086E+02  0.50528828841E+02  0.29999905745E+02 0.  0.
         12    1    1    2    0    0  0.44189919544E+01  0.30880135903E+02 -0.26077920086E+02  0.40659171159E+02  0.00000000000E+00 0. -1.
         11    1    3    3    0    0 -0.40288875568E+01 -0.27516694741E+01  0.11784263651E+02  0.12754312600E+02  0.51100000000E-03 0. -1.
        -11    1    3    3    0    0 -0.62225315778E+01 -0.13926128133E+02  0.16261542775E+02  0.22295621043E+02  0.51100000000E-03 0.  1.
         12    1    3    3    0    0  0.58324271801E+01 -0.14202338297E+02 -0.19678863397E+01  0.15478895198E+02  0.00000000000E+00 0. -1.
</event>
<event>
 7    1  0.2744502E-011  0.5052887E+02  0.7816164E-02  0.1300439E+00
        -11   -1    0    0    0    0  0.00000000000E+00  0.00000000000E+00  0.45593999997E+02  0.45594000000E+02  0.51100000000E-03 0.  1.
         11   -1    0    0    0    0 -0.00000000000E+00 -0.00000000000E+00 -0.45593999997E+02  0.45594000000E+02  0.51100000000E-03 0. -1.
    9900012    2    1    2    0    0 -0.16561402484E+02 -0.47395199560E+01  0.36829634630E+02  0.50528867095E+02  0.30000022021E+02 0.  0.
         12    1    1    2    0    0  0.16561402484E+02  0.47395199560E+01 -0.36829634630E+02  0.40659132905E+02  0.00000000000E+00 0. -1.
         11    1    3    3    0    0 -0.84567817282E+01  0.54892556924E+00  0.10617904497E+01  0.85408357729E+01  0.51100000000E-03 0. -1.
        -11    1    3    3    0    0 -0.97893633404E+01  0.20017886859E+01  0.32169203162E+02  0.33685255304E+02  0.51100000000E-03 0.  1.
        -12    1    3    3    0    0  0.16847425848E+01 -0.72902342110E+01  0.35986410180E+01  0.83027760180E+01  0.00000000000E+00 0.  1.
</event>
<event>
 7    1  0.2744502E-011  0.5052886E+02  0.7816164E-02  0.1300439E+00
        -11   -1    0    0    0    0  0.00000000000E+00  0.00000000000E+00  0.45593999997E+02  0.45594000000E+02  0.51100000000E-03 0. -1.
         11   -1    0    0    0    0 -0.00000000000E+00 -0.00000000000E+00 -0.45593999997E+02  0.45594000000E+02  0.51100000000E-03 0.  1.
    9900012    2    1    2    0    0 -0.23460052134E+02 -0.29458672544E+02 -0.15329008899E+02  0.50528856526E+02  0.29999989897E+02 0.  0.
         12    1    1    2    0    0  0.23460052134E+02  0.29458672544E+02  0.15329008899E+02  0.40659143474E+02  0.00000000000E+00 0. -1.
         11    1    3    3    0    0 -0.15707277337E+02 -0.55436474809E+01 -0.34739659351E+01  0.17015258691E+02  0.51100000000E-03 0.  1.
        -11    1    3    3    0    0 -0.57039078748E+01 -0.87412276802E+00 -0.83020207694E+01  0.10110499729E+02  0.51100000000E-03 0. -1.
        -12    1    3    3    0    0 -0.20488669222E+01 -0.23040902295E+02 -0.35530221949E+01  0.23403098106E+02  0.00000000000E+00 0.  1.
</event>
<event>
 7    1  0.2744502E-011  0.5052887E+02  0.7816164E-02  0.1300439E+00
        -11   -1    0    0    0    0  0.00000000000E+00  0.00000000000E+00  0.45593999997E+02  0.45594000000E+02  0.51100000000E-03 0.  1.
         11   -1    0    0    0    0 -0.00000000000E+00 -0.00000000000E+00 -0.45593999997E+02  0.45594000000E+02  0.51100000000E-03 0. -1.
    9900012    2    1    2    0    0  0.36498942652E+02  0.23411590971E+01  0.17762636213E+02  0.50528867128E+02  0.30000022123E+02 0.  0.
         12    1    1    2    0    0 -0.36498942652E+02 -0.23411590971E+01 -0.17762636213E+02  0.40659132872E+02  0.00000000000E+00 0. -1.
         11    1    3    3    0    0  0.12778513806E+02  0.46827087576E+01  0.85642189458E+01  0.16079926083E+02  0.51100000000E-03 0. -1.
        -11    1    3    3    0    0  0.18127287493E+02  0.81552306070E+01  0.10506717258E+02  0.22483270356E+02  0.51100000000E-03 0.  1.
         12    1    3    3    0    0  0.55931413529E+01 -0.10496780267E+02 -0.13082999910E+01  0.11965670689E+02  0.00000000000E+00 0. -1.
</event>
<event>
 7    1  0.2744502E-011  0.5052886E+02  0.7816164E-02  0.1300439E+00
        -11   -1    0    0    0    0  0.00000000000E+00  0.00000000000E+00  0.45593999997E+02  0.45594000000E+02  0.51100000000E-03 0. -1.
         11   -1    0    0    0    0 -0.00000000000E+00 -0.00000000000E+00 -0.45593999997E+02  0.45594000000E+02  0.51100000000E-03 0.  1.
    9900012    2    1    2    0    0  0.14277937258E+02 -0.34291995101E+02  0.16533768677E+02  0.50528856785E+02  0.29999990683E+02 0.  0.
         12    1    1    2    0    0 -0.14277937258E+02  0.34291995101E+02 -0.16533768677E+02  0.40659143215E+02  0.00000000000E+00 0. -1.
         11    1    3    3    0    0 -0.33375180986E+00  0.93260472281E+00  0.30587297456E+01  0.32151158234E+01  0.51100000000E-03 0. -1.
        -11    1    3    3    0    0 -0.56753328157E+01 -0.22614561477E+01  0.44818823908E+01  0.75769952160E+01  0.51100000000E-03 0.  1.
        -12    1    3    3    0    0  0.20287021883E+02 -0.32963143676E+02  0.89931565406E+01  0.39736745746E+02  0.00000000000E+00 0.  1.
</event>
<event>
 7    1  0.2957173E-011  0.5052886E+02  0.7816164E-02  0.1300439E+00
        -11   -1    0    0    0    0  0.00000000000E+00  0.00000000000E+00  0.45593999997E+02  0.45594000000E+02  0.51100000000E-03 0. -1.
         11   -1    0    0    0    0 -0.00000000000E+00 -0.00000000000E+00 -0.45593999997E+02  0.45594000000E+02  0.51100000000E-03 0.  1.
    9900012    2    1    2    0    0 -0.46040293262E+01  0.35933293872E+02 -0.18459883528E+02  0.50528855956E+02  0.29999988164E+02 0.  0.
         12    1    1    2    0    0  0.46040293262E+01 -0.35933293872E+02  0.18459883528E+02  0.40659144044E+02  0.00000000000E+00 0. -1.
         11    1    3    3    0    0  0.13917960836E+01 -0.31664244202E+01 -0.96348012139E+00  0.35904921881E+01  0.51100000000E-03 0. -1.
        -11    1    3    3    0    0 -0.11602583689E+02  0.25196511585E+02 -0.15606898914E+02  0.31828594664E+02  0.51100000000E-03 0.  1.
         12    1    3    3    0    0  0.56067582789E+01  0.13903206708E+02 -0.18895044922E+01  0.15109769104E+02  0.00000000000E+00 0. -1.
</event>
<event>
 7    1  0.2744502E-011  0.5052886E+02  0.7816164E-02  0.1300439E+00
        -11   -1    0    0    0    0  0.00000000000E+00  0.00000000000E+00  0.45593999997E+02  0.45594000000E+02  0.51100000000E-03 0.  1.
         11   -1    0    0    0    0 -0.00000000000E+00 -0.00000000000E+00 -0.45593999997E+02  0.45594000000E+02  0.51100000000E-03 0. -1.
    9900012    2    1    2    0    0  0.74579610692E+01 -0.25731592297E+02  0.30584795111E+02  0.50528859362E+02  0.29999998516E+02 0.  0.
         12    1    1    2    0    0 -0.74579610692E+01  0.25731592297E+02 -0.30584795111E+02  0.40659140638E+02  0.00000000000E+00 0. -1.
         11    1    3    3    0    0  0.22788619321E+01  0.21227331905E+01  0.48550093014E+01  0.57680432975E+01  0.51100000000E-03 0. -1.
        -11    1    3    3    0    0 -0.43675193934E+01  0.18298311189E+01  0.72242321320E+00  0.47901360247E+01  0.51100000000E-03 0.  1.
        -12    1    3    3    0    0  0.95466185304E+01 -0.29684156607E+02  0.25007362596E+02  0.39970680040E+02  0.00000000000E+00 0.  1.
</event>
<event>
 7    1  0.2744502E-011  0.5052887E+02  0.7816164E-02  0.1300439E+00
        -11   -1    0    0    0    0  0.00000000000E+00  0.00000000000E+00  0.45593999997E+02  0.45594000000E+02  0.51100000000E-03 0. -1.
         11   -1    0    0    0    0 -0.00000000000E+00 -0.00000000000E+00 -0.45593999997E+02  0.45594000000E+02  0.51100000000E-03 0.  1.
    9900012    2    1    2    0    0  0.34394388968E+02 -0.49755284524E+01 -0.21105340134E+02  0.50528865012E+02  0.30000015690E+02 0.  0.
         12    1    1    2    0    0 -0.34394388968E+02  0.49755284524E+01  0.21105340134E+02  0.40659134988E+02  0.00000000000E+00 0. -1.
         11    1    3    3    0    0  0.48891021827E+01  0.69317764799E+01 -0.40581153446E+01  0.94032518700E+01  0.51100000000E-03 0. -1.
        -11    1    3    3    0    0  0.97571338784E+01  0.47987166299E+01 -0.87626094027E+01  0.13964693574E+02  0.51100000000E-03 0.  1.
         12    1    3    3    0    0  0.19748152907E+02 -0.16706021562E+02 -0.82846153863E+01  0.27160919568E+02  0.00000000000E+00 0. -1.
</event>
<event>
 7    1  0.2744502E-011  0.5052886E+02  0.7816164E-02  0.1300439E+00
        -11   -1    0    0    0    0  0.00000000000E+00  0.00000000000E+00  0.45593999997E+02  0.45594000000E+02  0.51100000000E-03 0. -1.
         11   -1    0    0    0    0 -0.00000000000E+00 -0.00000000000E+00 -0.45593999997E+02  0.45594000000E+02  0.51100000000E-03 0.  1.
    9900012    2    1    2    0    0 -0.34054603905E+02 -0.13462934318E+02 -0.17669161937E+02  0.50528856733E+02  0.29999990527E+02 0.  0.
         12    1    1    2    0    0  0.34054603905E+02  0.13462934318E+02  0.17669161937E+02  0.40659143267E+02  0.00000000000E+00 0. -1.
         11    1    3    3    0    0 -0.65734826196E+01  0.59335644968E+01 -0.37366130764E+01  0.96114587307E+01  0.51100000000E-03 0. -1.
        -11    1    3    3    0    0 -0.27110697596E+02 -0.10128988070E+02 -0.84772564743E+01  0.30157092053E+02  0.51100000000E-03 0.  1.
         12    1    3    3    0    0 -0.37042368974E+00 -0.92675107450E+01 -0.54552923864E+01  0.10760305950E+02  0.00000000000E+00 0. -1.
</event>
<event>
 7    1  0.2744502E-011  0.5052885E+02  0.7816164E-02  0.1300439E+00
        -11   -1    0    0    0    0  0.00000000000E+00  0.00000000000E+00  0.45593999997E+02  0.45594000000E+02  0.51100000000E-03 0. -1.
         11   -1    0    0    0    0 -0.00000000000E+00 -0.00000000000E+00 -0.45593999997E+02  0.45594000000E+02  0.51100000000E-03 0.  1.
    9900012    2    1    2    0    0  0.77309075614E+01 -0.38719850354E+02 -0.97042507255E+01  0.50528853116E+02  0.29999979532E+02 0.  0.
         12    1    1    2    0    0 -0.77309075614E+01  0.38719850354E+02  0.97042507255E+01  0.40659146884E+02  0.00000000000E+00 0. -1.
         11    1    3    3    0    0  0.10358435977E+02 -0.49226625272E+01 -0.74800210326E+01  0.13692352506E+02  0.51100000000E-03 0. -1.
        -11    1    3    3    0    0  0.20656491323E+01 -0.43731609990E+00  0.19703603254E+01  0.28879874968E+01  0.51100000000E-03 0.  1.
        -12    1    3    3    0    0 -0.46931775481E+01 -0.33359871727E+02 -0.41945900183E+01  0.33948513113E+02  0.00000000000E+00 0.  1.
</event>
<event>
 7    1  0.2744502E-011  0.5052886E+02  0.7816164E-02  0.1300439E+00
        -11   -1    0    0    0    0  0.00000000000E+00  0.00000000000E+00  0.45593999997E+02  0.45594000000E+02  0.51100000000E-03 0.  1.
         11   -1    0    0    0    0 -0.00000000000E+00 -0.00000000000E+00 -0.45593999997E+02  0.45594000000E+02  0.51100000000E-03 0. -1.
    9900012    2    1    2    0    0 -0.51551144062E+01  0.22607850871E+02  0.33398733788E+02  0.50528861492E+02  0.30000004992E+02 0.  0.
         12    1    1    2    0    0  0.51551144062E+01 -0.22607850871E+02 -0.33398733788E+02  0.40659138508E+02  0.00000000000E+00 0. -1.
         11    1    3    3    0    0 -0.86665620729E+01  0.39146908368E+00  0.73465135102E+01  0.11368104821E+02  0.51100000000E-03 0. -1.
        -11    1    3    3    0    0 -0.47873708107E+01 -0.35098851545E+00  0.69750139891E+01  0.84671679224E+01  0.51100000000E-03 0.  1.
        -12    1    3    3    0    0  0.82988184774E+01  0.22567370303E+02  0.19077206289E+02  0.30693588749E+02  0.00000000000E+00 0.  1.
</event>
<event>
 7    1  0.2744502E-011  0.5052886E+02  0.7816164E-02  0.1300439E+00
        -11   -1    0    0    0    0  0.00000000000E+00  0.00000000000E+00  0.45593999997E+02  0.45594000000E+02  0.51100000000E-03 0. -1.
         11   -1    0    0    0    0 -0.00000000000E+00 -0.00000000000E+00 -0.45593999997E+02  0.45594000000E+02  0.51100000000E-03 0.  1.
    9900012    2    1    2    0    0 -0.18950438816E+02  0.35497448649E+02 -0.58290696647E+01  0.50528855333E+02  0.29999986272E+02 0.  0.
         12    1    1    2    0    0  0.18950438816E+02 -0.35497448649E+02  0.58290696647E+01  0.40659144667E+02  0.00000000000E+00 0. -1.
         11    1    3    3    0    0 -0.58617719934E+01  0.17739082325E+02 -0.14809187554E+02  0.23840038777E+02  0.51100000000E-03 0. -1.
        -11    1    3    3    0    0 -0.68692010642E+01  0.78365587351E+01 -0.20285768786E+01  0.10616623780E+02  0.51100000000E-03 0.  1.
         12    1    3    3    0    0 -0.62194657581E+01  0.99218075888E+01  0.11008694768E+02  0.16072192776E+02  0.00000000000E+00 0. -1.
</event>
<event>
 7    1  0.2744502E-011  0.5052885E+02  0.7816164E-02  0.1300439E+00
        -11   -1    0    0    0    0  0.00000000000E+00  0.00000000000E+00  0.45593999997E+02  0.45594000000E+02  0.51100000000E-03 0.  1.
         11   -1    0    0    0    0 -0.00000000000E+00 -0.00000000000E+00 -0.45593999997E+02  0.45594000000E+02  0.51100000000E-03 0. -1.
    9900012    2    1    2    0    0  0.18675861683E+02  0.21373898353E+02  0.29112457033E+02  0.50528849801E+02  0.29999969455E+02 0.  0.
         12    1    1    2    0    0 -0.18675861683E+02 -0.21373898353E+02 -0.29112457033E+02  0.40659150199E+02  0.00000000000E+00 0. -1.
         11    1    3    3    0    0  0.19939174461E+02  0.20064302983E+02  0.15415150445E+02  0.32214496673E+02  0.51100000000E-03 0. -1.
        -11    1    3    3    0    0  0.87764287247E+00  0.24743562035E+01 -0.14316221251E+01  0.29903574709E+01  0.51100000000E-03 0.  1.
        -12    1    3    3    0    0 -0.21409556510E+01 -0.11647608334E+01  0.15128928713E+02  0.15323995657E+02  0.00000000000E+00 0.  1.
</event>
<event>
 7    1  0.2744502E-011  0.5052886E+02  0.7816164E-02  0.1300439E+00
        -11   -1    0    0    0    0  0.00000000000E+00  0.00000000000E+00  0.45593999997E+02  0.45594000000E+02  0.51100000000E-03 0.  1.
         11   -1    0    0    0    0 -0.00000000000E+00 -0.00000000000E+00 -0.45593999997E+02  0.45594000000E+02  0.51100000000E-03 0. -1.
    9900012    2    1    2    0    0 -0.11469924146E+02 -0.38001762897E+02 -0.88018598626E+01  0.50528857360E+02  0.29999992431E+02 0.  0.
         12    1    1    2    0    0  0.11469924146E+02  0.38001762897E+02  0.88018598626E+01  0.40659142640E+02  0.00000000000E+00 0. -1.
         11    1    3    3    0    0 -0.91139670293E+01 -0.24482113070E+02 -0.49819601321E+01  0.26594326132E+02  0.51100000000E-03 0. -1.
        -11    1    3    3    0    0 -0.28532165343E+01 -0.17621392368E+02  0.63025849309E+00  0.17862013874E+02  0.51100000000E-03 0.  1.
         12    1    3    3    0    0  0.49725941746E+00  0.41017425414E+01 -0.44501582235E+01  0.60725173544E+01  0.00000000000E+00 0. -1.
</event>
<event>
 7    1  0.2744502E-011  0.5052886E+02  0.7816164E-02  0.1300439E+00
        -11   -1    0    0    0    0  0.00000000000E+00  0.00000000000E+00  0.45593999997E+02  0.45594000000E+02  0.51100000000E-03 0. -1.
         11   -1    0    0    0    0 -0.00000000000E+00 -0.00000000000E+00 -0.45593999997E+02  0.45594000000E+02  0.51100000000E-03 0.  1.
    9900012    2    1    2    0    0  0.22701427198E+02  0.29922999591E+02 -0.15570007204E+02  0.50528858031E+02  0.29999994471E+02 0.  0.
         12    1    1    2    0    0 -0.22701427198E+02 -0.29922999591E+02  0.15570007204E+02  0.40659141969E+02  0.00000000000E+00 0. -1.
         11    1    3    3    0    0  0.10054494225E+01  0.13246220807E+02 -0.22531600185E+01  0.13474050042E+02  0.51100000000E-03 0. -1.
        -11    1    3    3    0    0  0.56276320887E+01  0.15053532987E+02  0.80258500122E-01  0.16071264419E+02  0.51100000000E-03 0.  1.
         12    1    3    3    0    0  0.16068345686E+02  0.16232457964E+01 -0.13397105686E+02  0.20983543570E+02  0.00000000000E+00 0. -1.
</event>
<event>
 7    1  0.2744502E-011  0.5052887E+02  0.7816164E-02  0.1300439E+00
        -11   -1    0    0    0    0  0.00000000000E+00  0.00000000000E+00  0.45593999997E+02  0.45594000000E+02  0.51100000000E-03 0.  1.
         11   -1    0    0    0    0 -0.00000000000E+00 -0.00000000000E+00 -0.45593999997E+02  0.45594000000E+02  0.51100000000E-03 0. -1.
    9900012    2    1    2    0    0  0.20752450015E+02 -0.15084401449E+02  0.31543013981E+02  0.50528867204E+02  0.30000022354E+02 0.  0.
         12    1    1    2    0    0 -0.20752450015E+02  0.15084401449E+02 -0.31543013981E+02  0.40659132796E+02  0.00000000000E+00 0. -1.
         11    1    3    3    0    0 -0.92339563396E-01 -0.83821076804E+01  0.94987284624E+01  0.12668626541E+02  0.51100000000E-03 0.  1.
        -11    1    3    3    0    0  0.28673960611E+01  0.71168953143E+01  0.29634692245E+01  0.82252239600E+01  0.51100000000E-03 0. -1.
         12    1    3    3    0    0  0.17977393517E+02 -0.13819189083E+02  0.19080816294E+02  0.29635016704E+02  0.00000000000E+00 0. -1.
</event>
<event>
 7    1  0.2744502E-011  0.5052886E+02  0.7816164E-02  0.1300439E+00
        -11   -1    0    0    0    0  0.00000000000E+00  0.00000000000E+00  0.45593999997E+02  0.45594000000E+02  0.51100000000E-03 0.  1.
         11   -1    0    0    0    0 -0.00000000000E+00 -0.00000000000E+00 -0.45593999997E+02  0.45594000000E+02  0.51100000000E-03 0. -1.
    9900012    2    1    2    0    0  0.25213860966E+01 -0.23954575005E+02  0.32756470438E+02  0.50528863179E+02  0.30000010118E+02 0.  0.
         12    1    1    2    0    0 -0.25213860966E+01  0.23954575005E+02 -0.32756470438E+02  0.40659136821E+02  0.00000000000E+00 0. -1.
         11    1    3    3    0    0  0.37967299582E+01 -0.24079338940E+02  0.22120991930E+02  0.32917594177E+02  0.51100000000E-03 0. -1.
        -11    1    3    3    0    0 -0.43866760701E+01 -0.45099379863E+01  0.85418060938E+00  0.63491804478E+01  0.51100000000E-03 0.  1.
         12    1    3    3    0    0  0.31113322085E+01  0.46347019218E+01  0.97812978984E+01  0.11262088554E+02  0.00000000000E+00 0. -1.
</event>
<event>
 7    1  0.2744502E-011  0.5052886E+02  0.7816164E-02  0.1300439E+00
        -11   -1    0    0    0    0  0.00000000000E+00  0.00000000000E+00  0.45593999997E+02  0.45594000000E+02  0.51100000000E-03 0. -1.
         11   -1    0    0    0    0 -0.00000000000E+00 -0.00000000000E+00 -0.45593999997E+02  0.45594000000E+02  0.51100000000E-03 0.  1.
    9900012    2    1    2    0    0 -0.72189028140E+01  0.19516039874E+02 -0.34931035020E+02  0.50528861080E+02  0.30000003738E+02 0.  0.
         12    1    1    2    0    0  0.72189028140E+01 -0.19516039874E+02  0.34931035020E+02  0.40659138920E+02  0.00000000000E+00 0. -1.
         11    1    3    3    0    0 -0.66887335589E+01  0.78701534109E+00 -0.14845567518E+02  0.16301822750E+02  0.51100000000E-03 0. -1.
        -11    1    3    3    0    0  0.56050719274E+01 -0.50089361061E+00 -0.10430795627E+02  0.11851971287E+02  0.51100000000E-03 0.  1.
        -12    1    3    3    0    0 -0.61352411825E+01  0.19229918143E+02 -0.96546718747E+01  0.22375067043E+02  0.00000000000E+00 0.  1.
</event>
<event>
 7    1  0.2744502E-011  0.5052888E+02  0.7816164E-02  0.1300439E+00
        -11   -1    0    0    0    0  0.00000000000E+00  0.00000000000E+00  0.45593999997E+02  0.45594000000E+02  0.51100000000E-03 0. -1.
         11   -1    0    0    0    0 -0.00000000000E+00 -0.00000000000E+00 -0.45593999997E+02  0.45594000000E+02  0.51100000000E-03 0.  1.
    9900012    2    1    2    0    0 -0.18833594180E+02 -0.36027263158E+02  0.70461016000E+00  0.50528875122E+02  0.30000046420E+02 0.  0.
         12    1    1    2    0    0  0.18833594180E+02  0.36027263158E+02 -0.70461016000E+00  0.40659124878E+02  0.00000000000E+00 0. -1.
         11    1    3    3    0    0 -0.39171615510E+00 -0.77792945601E+01 -0.22128229294E+01  0.80973730911E+01  0.51100000000E-03 0.  1.
        -11    1    3    3    0    0 -0.40924071947E+01 -0.21848881689E+02 -0.76367864661E+01  0.23504083379E+02  0.51100000000E-03 0. -1.
         12    1    3    3    0    0 -0.14349470831E+02 -0.63990869089E+01  0.10554219555E+02  0.18927418652E+02  0.00000000000E+00 0. -1.
</event>
<event>
 7    1  0.2744502E-011  0.5052886E+02  0.7816164E-02  0.1300439E+00
        -11   -1    0    0    0    0  0.00000000000E+00  0.00000000000E+00  0.45593999997E+02  0.45594000000E+02  0.51100000000E-03 0.  1.
         11   -1    0    0    0    0 -0.00000000000E+00 -0.00000000000E+00 -0.45593999997E+02  0.45594000000E+02  0.51100000000E-03 0. -1.
    9900012    2    1    2    0    0  0.36969775103E+02  0.18772135647E+01  0.16818968739E+02  0.50528856977E+02  0.29999991268E+02 0.  0.
         12    1    1    2    0    0 -0.36969775103E+02 -0.18772135647E+01 -0.16818968739E+02  0.40659143023E+02  0.00000000000E+00 0. -1.
         11    1    3    3    0    0  0.13013907113E+02  0.55223537027E+01  0.29150603122E+01  0.14434533094E+02  0.51100000000E-03 0.  1.
        -11    1    3    3    0    0  0.10758246007E+02  0.72161321113E+01 -0.15562580527E+01  0.13047388980E+02  0.51100000000E-03 0. -1.
        -12    1    3    3    0    0  0.13197621982E+02 -0.10861272249E+02  0.15460166479E+02  0.23046934903E+02  0.00000000000E+00 0.  1.
</event>
<event>
 7    1  0.2744502E-011  0.5052886E+02  0.7816164E-02  0.1300439E+00
        -11   -1    0    0    0    0  0.00000000000E+00  0.00000000000E+00  0.45593999997E+02  0.45594000000E+02  0.51100000000E-03 0.  1.
         11   -1    0    0    0    0 -0.00000000000E+00 -0.00000000000E+00 -0.45593999997E+02  0.45594000000E+02  0.51100000000E-03 0. -1.
    9900012    2    1    2    0    0  0.16254668467E+02 -0.37570611172E+01  0.37078779907E+02  0.50528859888E+02  0.30000000117E+02 0.  0.
         12    1    1    2    0    0 -0.16254668467E+02  0.37570611172E+01 -0.37078779907E+02  0.40659140112E+02  0.00000000000E+00 0. -1.
         11    1    3    3    0    0  0.50279962210E+01 -0.11615715379E+02  0.11746669512E+02  0.17268174039E+02  0.51100000000E-03 0. -1.
        -11    1    3    3    0    0 -0.36906317558E+01  0.62473854341E+00  0.10005742625E+02  0.10682974620E+02  0.51100000000E-03 0.  1.
        -12    1    3    3    0    0  0.14917304002E+02  0.72339157184E+01  0.15326367771E+02  0.22577711229E+02  0.00000000000E+00 0.  1.
</event>
<event>
 7    1  0.2744502E-011  0.5052886E+02  0.7816164E-02  0.1300439E+00
        -11   -1    0    0    0    0  0.00000000000E+00  0.00000000000E+00  0.45593999997E+02  0.45594000000E+02  0.51100000000E-03 0.  1.
         11   -1    0    0    0    0 -0.00000000000E+00 -0.00000000000E+00 -0.45593999997E+02  0.45594000000E+02  0.51100000000E-03 0. -1.
    9900012    2    1    2    0    0 -0.35965205377E+02 -0.17608232948E+02  0.70441458661E+01  0.50528857653E+02  0.29999993322E+02 0.  0.
         12    1    1    2    0    0  0.35965205377E+02  0.17608232948E+02 -0.70441458661E+01  0.40659142347E+02  0.00000000000E+00 0. -1.
         11    1    3    3    0    0 -0.58900673285E+01 -0.39345587796E+01 -0.22289457399E+01  0.74257555371E+01  0.51100000000E-03 0. -1.
        -11    1    3    3    0    0 -0.29852752764E+02 -0.11658476915E+02 -0.15556090168E+01  0.32086240840E+02  0.51100000000E-03 0.  1.
        -12    1    3    3    0    0 -0.22238528453E+00 -0.20151972540E+01  0.10828700623E+02  0.11016861276E+02  0.00000000000E+00 0.  1.
</event>
<event>
 7    1  0.2744502E-011  0.5052887E+02  0.7816164E-02  0.1300439E+00
        -11   -1    0    0    0    0  0.00000000000E+00  0.00000000000E+00  0.45593999997E+02  0.45594000000E+02  0.51100000000E-03 0.  1.
         11   -1    0    0    0    0 -0.00000000000E+00 -0.00000000000E+00 -0.45593999997E+02  0.45594000000E+02  0.51100000000E-03 0. -1.
    9900012    2    1    2    0    0 -0.21279376443E+01 -0.37967428247E+02  0.14391362004E+02  0.50528867857E+02  0.30000024339E+02 0.  0.
         12    1    1    2    0    0  0.21279376443E+01  0.37967428247E+02 -0.14391362004E+02  0.40659132143E+02  0.00000000000E+00 0. -1.
         11    1    3    3    0    0 -0.38926925985E+01 -0.10917939906E+02 -0.43633768923E+01  0.12385213992E+02  0.51100000000E-03 0. -1.
        -11    1    3    3    0    0 -0.23312110142E+01 -0.20156487513E+02  0.30612295109E+01  0.20520469294E+02  0.51100000000E-03 0.  1.
         12    1    3    3    0    0  0.40959659684E+01 -0.68930008278E+01  0.15693509385E+02  0.17623184572E+02  0.00000000000E+00 0. -1.
</event>
<event>
 7    1  0.2744502E-011  0.5052887E+02  0.7816164E-02  0.1300439E+00
        -11   -1    0    0    0    0  0.00000000000E+00  0.00000000000E+00  0.45593999997E+02  0.45594000000E+02  0.51100000000E-03 0.  1.
         11   -1    0    0    0    0 -0.00000000000E+00 -0.00000000000E+00 -0.45593999997E+02  0.45594000000E+02  0.51100000000E-03 0. -1.
    9900012    2    1    2    0    0 -0.87991472829E+01  0.26169699112E+02  0.29847727992E+02  0.50528868052E+02  0.30000024930E+02 0.  0.
         12    1    1    2    0    0  0.87991472829E+01 -0.26169699112E+02 -0.29847727992E+02  0.40659131948E+02  0.00000000000E+00 0. -1.
         11    1    3    3    0    0  0.45531077804E+01  0.10994906056E+02  0.20188946397E+01  0.12070405357E+02  0.51100000000E-03 0. -1.
        -11    1    3    3    0    0 -0.11974594105E+00  0.13156365138E+02  0.13558271143E+02  0.18892617590E+02  0.51100000000E-03 0.  1.
         12    1    3    3    0    0 -0.13232509122E+02  0.20184279173E+01  0.14270562209E+02  0.19565845105E+02  0.00000000000E+00 0. -1.
</event>
<event>
 7    1  0.2744502E-011  0.5052886E+02  0.7816164E-02  0.1300439E+00
        -11   -1    0    0    0    0  0.00000000000E+00  0.00000000000E+00  0.45593999997E+02  0.45594000000E+02  0.51100000000E-03 0.  1.
         11   -1    0    0    0    0 -0.00000000000E+00 -0.00000000000E+00 -0.45593999997E+02  0.45594000000E+02  0.51100000000E-03 0. -1.
    9900012    2    1    2    0    0 -0.35537679709E+02 -0.19114708077E+02 -0.49866488742E+01  0.50528863130E+02  0.30000009970E+02 0.  0.
         12    1    1    2    0    0  0.35537679709E+02  0.19114708077E+02  0.49866488742E+01  0.40659136870E+02  0.00000000000E+00 0. -1.
         11    1    3    3    0    0 -0.90940360696E+01  0.13534827264E+01 -0.68217127220E+01  0.11448544547E+02  0.51100000000E-03 0. -1.
        -11    1    3    3    0    0 -0.12910178686E+02 -0.82672257109E+01 -0.91017571513E+01  0.17828676848E+02  0.51100000000E-03 0.  1.
        -12    1    3    3    0    0 -0.13533464954E+02 -0.12200965093E+02  0.10936820999E+02  0.21251641735E+02  0.00000000000E+00 0.  1.
</event>
<event>
 7    1  0.2744502E-011  0.5052886E+02  0.7816164E-02  0.1300439E+00
        -11   -1    0    0    0    0  0.00000000000E+00  0.00000000000E+00  0.45593999997E+02  0.45594000000E+02  0.51100000000E-03 0. -1.
         11   -1    0    0    0    0 -0.00000000000E+00 -0.00000000000E+00 -0.45593999997E+02  0.45594000000E+02  0.51100000000E-03 0.  1.
    9900012    2    1    2    0    0 -0.36301715886E+02 -0.14780143471E+02 -0.10811968111E+02  0.50528857464E+02  0.29999992749E+02 0.  0.
         12    1    1    2    0    0  0.36301715886E+02  0.14780143471E+02  0.10811968111E+02  0.40659142536E+02  0.00000000000E+00 0. -1.
         11    1    3    3    0    0 -0.17666253164E+01 -0.27904493515E+01  0.17871883416E+01  0.37552117146E+01  0.51100000000E-03 0. -1.
        -11    1    3    3    0    0 -0.91756676736E+01 -0.11951460368E+02  0.50340754155E+01  0.15886226668E+02  0.51100000000E-03 0.  1.
         12    1    3    3    0    0 -0.25359422896E+02 -0.38233751489E-01 -0.17633231868E+02  0.30887419082E+02  0.00000000000E+00 0. -1.
</event>
<event>
 7    1  0.2744502E-011  0.5052885E+02  0.7816164E-02  0.1300439E+00
        -11   -1    0    0    0    0  0.00000000000E+00  0.00000000000E+00  0.45593999997E+02  0.45594000000E+02  0.51100000000E-03 0.  1.
         11   -1    0    0    0    0 -0.00000000000E+00 -0.00000000000E+00 -0.45593999997E+02  0.45594000000E+02  0.51100000000E-03 0. -1.
    9900012    2    1    2    0    0 -0.28460461623E+02 -0.26688009628E+02  0.11441962710E+02  0.50528852882E+02  0.29999978820E+02 0.  0.
         12    1    1    2    0    0  0.28460461623E+02  0.26688009628E+02 -0.11441962710E+02  0.40659147118E+02  0.00000000000E+00 0. -1.
         11    1    3    3    0    0 -0.14673563964E+02 -0.25156576493E+02  0.65913901256E+01  0.29859893575E+02  0.51100000000E-03 0. -1.
        -11    1    3    3    0    0 -0.15100842722E+02 -0.51264092955E+01  0.53233392260E+01  0.16812300971E+02  0.51100000000E-03 0.  1.
         12    1    3    3    0    0  0.13139450631E+01  0.35949761602E+01 -0.47276664202E+00  0.38566583358E+01  0.00000000000E+00 0. -1.
</event>
<event>
 7    1  0.2744502E-011  0.5052886E+02  0.7816164E-02  0.1300439E+00
        -11   -1    0    0    0    0  0.00000000000E+00  0.00000000000E+00  0.45593999997E+02  0.45594000000E+02  0.51100000000E-03 0.  1.
         11   -1    0    0    0    0 -0.00000000000E+00 -0.00000000000E+00 -0.45593999997E+02  0.45594000000E+02  0.51100000000E-03 0. -1.
    9900012    2    1    2    0    0 -0.15583850790E+02 -0.67262684118E+01  0.36946804434E+02  0.50528862649E+02  0.30000008509E+02 0.  0.
         12    1    1    2    0    0  0.15583850790E+02  0.67262684118E+01 -0.36946804434E+02  0.40659137351E+02  0.00000000000E+00 0. -1.
         11    1    3    3    0    0 -0.71234510434E+01 -0.74804121769E+01  0.24737615089E+01  0.10621657939E+02  0.51100000000E-03 0. -1.
        -11    1    3    3    0    0 -0.93868584418E+01  0.82454778774E+01  0.22982962934E+02  0.26159464870E+02  0.51100000000E-03 0.  1.
         12    1    3    3    0    0  0.92645869533E+00 -0.74913341122E+01  0.11490079992E+02  0.13747739840E+02  0.00000000000E+00 0. -1.
</event>
<event>
 7    1  0.2744502E-011  0.5052887E+02  0.7816164E-02  0.1300439E+00
        -11   -1    0    0    0    0  0.00000000000E+00  0.00000000000E+00  0.45593999997E+02  0.45594000000E+02  0.51100000000E-03 0.  1.
         11   -1    0    0    0    0 -0.00000000000E+00 -0.00000000000E+00 -0.45593999997E+02  0.45594000000E+02  0.51100000000E-03 0. -1.
    9900012    2    1    2    0    0  0.44302890565E+01  0.20019967450E+02  0.35110378796E+02  0.50528865024E+02  0.30000015726E+02 0.  0.
         12    1    1    2    0    0 -0.44302890565E+01 -0.20019967450E+02 -0.35110378796E+02  0.40659134976E+02  0.00000000000E+00 0. -1.
         11    1    3    3    0    0  0.59441605861E+01  0.11909940617E+02  0.19005688276E+02  0.23203360051E+02  0.51100000000E-03 0.  1.
        -11    1    3    3    0    0 -0.17506306485E+01  0.89091532722E+01 -0.19210340516E+01  0.92805221719E+01  0.51100000000E-03 0. -1.
         12    1    3    3    0    0  0.23675911892E+00 -0.79912643853E+00  0.18025724571E+02  0.18044982800E+02  0.00000000000E+00 0. -1.
</event>
<event>
 7    1  0.2744502E-011  0.5052886E+02  0.7816164E-02  0.1300439E+00
        -11   -1    0    0    0    0  0.00000000000E+00  0.00000000000E+00  0.45593999997E+02  0.45594000000E+02  0.51100000000E-03 0.  1.
         11   -1    0    0    0    0 -0.00000000000E+00 -0.00000000000E+00 -0.45593999997E+02  0.45594000000E+02  0.51100000000E-03 0. -1.
    9900012    2    1    2    0    0 -0.14633147337E+02  0.26428193337E+02  0.27213734681E+02  0.50528858847E+02  0.29999996950E+02 0.  0.
         12    1    1    2    0    0  0.14633147337E+02 -0.26428193337E+02 -0.27213734681E+02  0.40659141153E+02  0.00000000000E+00 0. -1.
         11    1    3    3    0    0 -0.12152512837E+02  0.17792928725E+02  0.17322326003E+01  0.21616487016E+02  0.51100000000E-03 0. -1.
        -11    1    3    3    0    0  0.82640213078E+00  0.21096365995E+01 -0.13691434309E+00  0.22698574541E+01  0.51100000000E-03 0.  1.
        -12    1    3    3    0    0 -0.33070366310E+01  0.65256280122E+01  0.25618416424E+02  0.26642514376E+02  0.00000000000E+00 0.  1.
</event>
<event>
 7    1  0.2744502E-011  0.5052886E+02  0.7816164E-02  0.1300439E+00
        -11   -1    0    0    0    0  0.00000000000E+00  0.00000000000E+00  0.45593999997E+02  0.45594000000E+02  0.51100000000E-03 0. -1.
         11   -1    0    0    0    0 -0.00000000000E+00 -0.00000000000E+00 -0.45593999997E+02  0.45594000000E+02  0.51100000000E-03 0.  1.
    9900012    2    1    2    0    0  0.27459180671E+02  0.12960767792E+02 -0.27040291271E+02  0.50528862566E+02  0.30000008255E+02 0.  0.
         12    1    1    2    0    0 -0.27459180671E+02 -0.12960767792E+02  0.27040291271E+02  0.40659137434E+02  0.00000000000E+00 0. -1.
         11    1    3    3    0    0 -0.21936232694E+01  0.19315868454E+01 -0.55417632836E+01  0.62653133475E+01  0.51100000000E-03 0. -1.
        -11    1    3    3    0    0  0.60132984786E+00  0.83999701009E+01 -0.95722494534E+01  0.12749472740E+02  0.51100000000E-03 0.  1.
        -12    1    3    3    0    0  0.29051474093E+02  0.26292108454E+01 -0.11926278534E+02  0.31514076479E+02  0.00000000000E+00 0.  1.
</event>
<event>
 7    1  0.2744502E-011  0.5052886E+02  0.7816164E-02  0.1300439E+00
        -11   -1    0    0    0    0  0.00000000000E+00  0.00000000000E+00  0.45593999997E+02  0.45594000000E+02  0.51100000000E-03 0.  1.
         11   -1    0    0    0    0 -0.00000000000E+00 -0.00000000000E+00 -0.45593999997E+02  0.45594000000E+02  0.51100000000E-03 0. -1.
    9900012    2    1    2    0    0  0.82632981475E+01 -0.29444237215E+02  0.26794032445E+02  0.50528863559E+02  0.30000011273E+02 0.  0.
         12    1    1    2    0    0 -0.82632981475E+01  0.29444237215E+02 -0.26794032445E+02  0.40659136441E+02  0.00000000000E+00 0. -1.
         11    1    3    3    0    0 -0.21597106304E+01 -0.25884855090E+00  0.59792491666E+00  0.22558517342E+01  0.51100000000E-03 0. -1.
        -11    1    3    3    0    0 -0.12115672253E+01 -0.24456321938E+02  0.25996160686E+02  0.35712462090E+02  0.51100000000E-03 0.  1.
        -12    1    3    3    0    0  0.11634576003E+02 -0.47290667269E+01  0.19994684205E+00  0.12560549734E+02  0.00000000000E+00 0.  1.
</event>
<event>
 7    1  0.2744502E-011  0.5052885E+02  0.7816164E-02  0.1300439E+00
        -11   -1    0    0    0    0  0.00000000000E+00  0.00000000000E+00  0.45593999997E+02  0.45594000000E+02  0.51100000000E-03 0.  1.
         11   -1    0    0    0    0 -0.00000000000E+00 -0.00000000000E+00 -0.45593999997E+02  0.45594000000E+02  0.51100000000E-03 0. -1.
    9900012    2    1    2    0    0  0.30497780352E+02  0.26763224448E+02  0.26042113083E+01  0.50528847207E+02  0.29999961571E+02 0.  0.
         12    1    1    2    0    0 -0.30497780352E+02 -0.26763224448E+02 -0.26042113083E+01  0.40659152793E+02  0.00000000000E+00 0. -1.
         11    1    3    3    0    0  0.52831006777E+01  0.91403137673E+01  0.70273655500E+01  0.12682285100E+02  0.51100000000E-03 0. -1.
        -11    1    3    3    0    0  0.80197881897E+00  0.10484607801E+02  0.36980781178E+01  0.11146566861E+02  0.51100000000E-03 0.  1.
         12    1    3    3    0    0  0.24412700856E+02  0.71383028804E+01 -0.81212323595E+01  0.26699995246E+02  0.00000000000E+00 0. -1.
</event>
<event>
 7    1  0.2744502E-011  0.5052886E+02  0.7816164E-02  0.1300439E+00
        -11   -1    0    0    0    0  0.00000000000E+00  0.00000000000E+00  0.45593999997E+02  0.45594000000E+02  0.51100000000E-03 0.  1.
         11   -1    0    0    0    0 -0.00000000000E+00 -0.00000000000E+00 -0.45593999997E+02  0.45594000000E+02  0.51100000000E-03 0. -1.
    9900012    2    1    2    0    0 -0.30123403699E+02  0.48125514977E+01  0.26880956090E+02  0.50528857084E+02  0.29999991592E+02 0.  0.
         12    1    1    2    0    0  0.30123403699E+02 -0.48125514977E+01 -0.26880956090E+02  0.40659142916E+02  0.00000000000E+00 0. -1.
         11    1    3    3    0    0  0.13156211559E+01  0.39922594323E+01  0.92351176808E+00  0.43037040614E+01  0.51100000000E-03 0. -1.
        -11    1    3    3    0    0 -0.85058039900E+01 -0.58968689008E+01  0.18488612824E+02  0.21188453666E+02  0.51100000000E-03 0.  1.
        -12    1    3    3    0    0 -0.22933220865E+02  0.67171609662E+01  0.74688314981E+01  0.25036699356E+02  0.00000000000E+00 0.  1.
</event>
<event>
 7    1  0.2744502E-011  0.5052892E+02  0.7816164E-02  0.1300439E+00
        -11   -1    0    0    0    0  0.00000000000E+00  0.00000000000E+00  0.45593999997E+02  0.45594000000E+02  0.51100000000E-03 0.  1.
         11   -1    0    0    0    0 -0.00000000000E+00 -0.00000000000E+00 -0.45593999997E+02  0.45594000000E+02  0.51100000000E-03 0. -1.
    9900012    2    1    2    0    0 -0.34536916765E+02  0.18657093763E+02  0.10595998408E+02  0.50528917994E+02  0.30000176733E+02 0.  0.
         12    1    1    2    0    0  0.34536916765E+02 -0.18657093763E+02 -0.10595998408E+02  0.40659082006E+02  0.00000000000E+00 0. -1.
         11    1    3    3    0    0 -0.28728072535E+02  0.14226816756E+02 -0.15315881322E+01  0.32094395602E+02  0.51100000000E-03 0. -1.
        -11    1    3    3    0    0 -0.30540211438E+01 -0.32809078885E+01  0.95572685968E+00  0.45831011129E+01  0.51100000000E-03 0.  1.
        -12    1    3    3    0    0 -0.27548230868E+01  0.77111848958E+01  0.11171859680E+02  0.13851421279E+02  0.00000000000E+00 0.  1.
</event>
<event>
 7    1  0.2744502E-011  0.5052886E+02  0.7816164E-02  0.1300439E+00
        -11   -1    0    0    0    0  0.00000000000E+00  0.00000000000E+00  0.45593999997E+02  0.45594000000E+02  0.51100000000E-03 0. -1.
         11   -1    0    0    0    0 -0.00000000000E+00 -0.00000000000E+00 -0.45593999997E+02  0.45594000000E+02  0.51100000000E-03 0.  1.
    9900012    2    1    2    0    0 -0.27156478297E+02 -0.78315169956E+01 -0.29229418867E+02  0.50528857126E+02  0.29999991721E+02 0.  0.
         12    1    1    2    0    0  0.27156478297E+02  0.78315169956E+01  0.29229418867E+02  0.40659142874E+02  0.00000000000E+00 0. -1.
         11    1    3    3    0    0  0.85889408738E+00 -0.15497574558E+01 -0.54541582946E+01  0.57347441258E+01  0.51100000000E-03 0. -1.
        -11    1    3    3    0    0 -0.30922516348E+02 -0.89171613460E+01 -0.24924239382E+02  0.40705472516E+02  0.51100000000E-03 0.  1.
         12    1    3    3    0    0  0.29071439630E+01  0.26354018062E+01  0.11489788101E+01  0.40886404841E+01  0.00000000000E+00 0. -1.
</event>
<event>
 7    1  0.2744502E-011  0.5052886E+02  0.7816164E-02  0.1300439E+00
        -11   -1    0    0    0    0  0.00000000000E+00  0.00000000000E+00  0.45593999997E+02  0.45594000000E+02  0.51100000000E-03 0.  1.
         11   -1    0    0    0    0 -0.00000000000E+00 -0.00000000000E+00 -0.45593999997E+02  0.45594000000E+02  0.51100000000E-03 0. -1.
    9900012    2    1    2    0    0 -0.23823246813E+02  0.30553290258E+02  0.12333490698E+02  0.50528860473E+02  0.30000001894E+02 0.  0.
         12    1    1    2    0    0  0.23823246813E+02 -0.30553290258E+02 -0.12333490698E+02  0.40659139527E+02  0.00000000000E+00 0. -1.
         11    1    3    3    0    0  0.18170022596E+01  0.17217955080E+01  0.18362550575E+01  0.31044983298E+01  0.51100000000E-03 0. -1.
        -11    1    3    3    0    0 -0.18887123496E+02  0.33139633709E+02  0.75164752759E+01  0.38877450497E+02  0.51100000000E-03 0.  1.
         12    1    3    3    0    0 -0.67531255767E+01 -0.43081389588E+01  0.29807603648E+01  0.85469116466E+01  0.00000000000E+00 0. -1.
</event>
<event>
 7    1  0.2744502E-011  0.5052886E+02  0.7816164E-02  0.1300439E+00
        -11   -1    0    0    0    0  0.00000000000E+00  0.00000000000E+00  0.45593999997E+02  0.45594000000E+02  0.51100000000E-03 0.  1.
         11   -1    0    0    0    0 -0.00000000000E+00 -0.00000000000E+00 -0.45593999997E+02  0.45594000000E+02  0.51100000000E-03 0. -1.
    9900012    2    1    2    0    0 -0.34711545198E+02  0.10756332708E+02  0.18236660370E+02  0.50528857795E+02  0.29999993755E+02 0.  0.
         12    1    1    2    0    0  0.34711545198E+02 -0.10756332708E+02 -0.18236660370E+02  0.40659142205E+02  0.00000000000E+00 0. -1.
         11    1    3    3    0    0 -0.11832261330E+02  0.49153614870E+01  0.18586970868E+02  0.22575178251E+02  0.51100000000E-03 0. -1.
        -11    1    3    3    0    0 -0.25037174449E+01  0.65162927972E+01 -0.25868166321E+01  0.74446150614E+01  0.51100000000E-03 0.  1.
        -12    1    3    3    0    0 -0.20375566423E+02 -0.67532157653E+00  0.22365061341E+01  0.20509064483E+02  0.00000000000E+00 0.  1.
</event>
<event>
 7    1  0.2744502E-011  0.5052886E+02  0.7816164E-02  0.1300439E+00
        -11   -1    0    0    0    0  0.00000000000E+00  0.00000000000E+00  0.45593999997E+02  0.45594000000E+02  0.51100000000E-03 0. -1.
         11   -1    0    0    0    0 -0.00000000000E+00 -0.00000000000E+00 -0.45593999997E+02  0.45594000000E+02  0.51100000000E-03 0.  1.
    9900012    2    1    2    0    0 -0.49817448890E+01  0.21557816111E+02 -0.34111701870E+02  0.50528862993E+02  0.30000009554E+02 0.  0.
         12    1    1    2    0    0  0.49817448890E+01 -0.21557816111E+02  0.34111701870E+02  0.40659137007E+02  0.00000000000E+00 0. -1.
         11    1    3    3    0    0  0.27843325413E+01  0.10788380457E+01  0.19279751399E+01  0.35543617754E+01  0.51100000000E-03 0. -1.
        -11    1    3    3    0    0 -0.12296883560E+02  0.19508772189E+02 -0.20833240543E+02  0.31077796727E+02  0.51100000000E-03 0.  1.
         12    1    3    3    0    0  0.45308061302E+01  0.97020587679E+00 -0.15206436468E+02  0.15896704491E+02  0.00000000000E+00 0. -1.
</event>
<event>
 7    1  0.2744502E-011  0.5052886E+02  0.7816164E-02  0.1300439E+00
        -11   -1    0    0    0    0  0.00000000000E+00  0.00000000000E+00  0.45593999997E+02  0.45594000000E+02  0.51100000000E-03 0.  1.
         11   -1    0    0    0    0 -0.00000000000E+00 -0.00000000000E+00 -0.45593999997E+02  0.45594000000E+02  0.51100000000E-03 0. -1.
    9900012    2    1    2    0    0 -0.11110961429E+02  0.27262817562E+02  0.28043738803E+02  0.50528856239E+02  0.29999989024E+02 0.  0.
         12    1    1    2    0    0  0.11110961429E+02 -0.27262817562E+02 -0.28043738803E+02  0.40659143761E+02  0.00000000000E+00 0. -1.
         11    1    3    3    0    0 -0.12494553552E+02  0.21384132520E+02  0.76441396953E+01  0.25919642437E+02  0.51100000000E-03 0. -1.
        -11    1    3    3    0    0  0.23304938087E-01  0.68885786545E+01  0.36913935858E+01  0.78153340214E+01  0.51100000000E-03 0.  1.
         12    1    3    3    0    0  0.13602871845E+01 -0.10098936123E+01  0.16708205522E+02  0.16793879781E+02  0.00000000000E+00 0. -1.
</event>
<event>
 7    1  0.2744502E-011  0.5052886E+02  0.7816164E-02  0.1300439E+00
        -11   -1    0    0    0    0  0.00000000000E+00  0.00000000000E+00  0.45593999997E+02  0.45594000000E+02  0.51100000000E-03 0.  1.
         11   -1    0    0    0    0 -0.00000000000E+00 -0.00000000000E+00 -0.45593999997E+02  0.45594000000E+02  0.51100000000E-03 0. -1.
    9900012    2    1    2    0    0  0.18599782817E+02 -0.32980109486E+02  0.14816422463E+02  0.50528856906E+02  0.29999991051E+02 0.  0.
         12    1    1    2    0    0 -0.18599782817E+02  0.32980109486E+02 -0.14816422463E+02  0.40659143094E+02  0.00000000000E+00 0. -1.
         11    1    3    3    0    0  0.69799306273E+01 -0.15661132833E+01  0.82591761104E+01  0.10926396142E+02  0.51100000000E-03 0. -1.
        -11    1    3    3    0    0  0.28810280730E+00 -0.33112934471E+01  0.86123914344E+01  0.92315195933E+01  0.51100000000E-03 0.  1.
         12    1    3    3    0    0  0.11331749382E+02 -0.28102702756E+02 -0.20551450815E+01  0.30370941170E+02  0.00000000000E+00 0. -1.
</event>
<event>
 7    1  0.2744502E-011  0.5052886E+02  0.7816164E-02  0.1300439E+00
        -11   -1    0    0    0    0  0.00000000000E+00  0.00000000000E+00  0.45593999997E+02  0.45594000000E+02  0.51100000000E-03 0. -1.
         11   -1    0    0    0    0 -0.00000000000E+00 -0.00000000000E+00 -0.45593999997E+02  0.45594000000E+02  0.51100000000E-03 0.  1.
    9900012    2    1    2    0    0 -0.15949876204E+02  0.11512453620E+01 -0.37382367936E+02  0.50528863888E+02  0.30000012275E+02 0.  0.
         12    1    1    2    0    0  0.15949876204E+02 -0.11512453620E+01  0.37382367936E+02  0.40659136112E+02  0.00000000000E+00 0. -1.
         11    1    3    3    0    0 -0.31335488970E+01  0.48295565198E+00  0.19031902483E+01  0.36979059255E+01  0.51100000000E-03 0. -1.
        -11    1    3    3    0    0  0.44536271846E+01 -0.54256213001E+01 -0.13326183645E+02  0.15061850232E+02  0.51100000000E-03 0.  1.
        -12    1    3    3    0    0 -0.17269954492E+02  0.60939110102E+01 -0.25959374539E+02  0.31769107731E+02  0.00000000000E+00 0.  1.
</event>
<event>
 7    1  0.2744502E-011  0.5052888E+02  0.7816164E-02  0.1300439E+00
        -11   -1    0    0    0    0  0.00000000000E+00  0.00000000000E+00  0.45593999997E+02  0.45594000000E+02  0.51100000000E-03 0.  1.
         11   -1    0    0    0    0 -0.00000000000E+00 -0.00000000000E+00 -0.45593999997E+02  0.45594000000E+02  0.51100000000E-03 0. -1.
    9900012    2    1    2    0    0 -0.17986107406E+02 -0.35091873597E+02  0.99108393602E+01  0.50528875698E+02  0.30000048172E+02 0.  0.
         12    1    1    2    0    0  0.17986107406E+02  0.35091873597E+02 -0.99108393602E+01  0.40659124302E+02  0.00000000000E+00 0. -1.
         11    1    3    3    0    0 -0.96998039201E+01 -0.13753515251E+02  0.12380888893E+02  0.20893343148E+02  0.51100000000E-03 0. -1.
        -11    1    3    3    0    0 -0.14117432920E+02 -0.14214389236E+02 -0.36189322953E+01  0.20357982337E+02  0.51100000000E-03 0.  1.
        -12    1    3    3    0    0  0.58311294342E+01 -0.71239691100E+01  0.11488827625E+01  0.92775502133E+01  0.00000000000E+00 0.  1.
</event>
<event>
 7    1  0.2744502E-011  0.5052883E+02  0.7816164E-02  0.1300439E+00
        -11   -1    0    0    0    0  0.00000000000E+00  0.00000000000E+00  0.45593999997E+02  0.45594000000E+02  0.51100000000E-03 0.  1.
         11   -1    0    0    0    0 -0.00000000000E+00 -0.00000000000E+00 -0.45593999997E+02  0.45594000000E+02  0.51100000000E-03 0. -1.
    9900012    2    1    2    0    0  0.18300336021E+02 -0.36159429345E+02 -0.32804642030E+01  0.50528830377E+02  0.29999910414E+02 0.  0.
         12    1    1    2    0    0 -0.18300336021E+02  0.36159429345E+02  0.32804642030E+01  0.40659169623E+02  0.00000000000E+00 0. -1.
         11    1    3    3    0    0  0.22704546528E+00  0.17918427467E+01 -0.22481769395E+01  0.28838429022E+01  0.51100000000E-03 0. -1.
        -11    1    3    3    0    0 -0.19049043555E+01  0.17876646888E+01 -0.17788803190E+01  0.31605096256E+01  0.51100000000E-03 0.  1.
        -12    1    3    3    0    0  0.19978194911E+02 -0.39738936780E+02  0.74659305547E+00  0.44484477849E+02  0.00000000000E+00 0.  1.
</event>
<event>
 7    1  0.2744502E-011  0.5052887E+02  0.7816164E-02  0.1300439E+00
        -11   -1    0    0    0    0  0.00000000000E+00  0.00000000000E+00  0.45593999997E+02  0.45594000000E+02  0.51100000000E-03 0. -1.
         11   -1    0    0    0    0 -0.00000000000E+00 -0.00000000000E+00 -0.45593999997E+02  0.45594000000E+02  0.51100000000E-03 0.  1.
    9900012    2    1    2    0    0  0.30504026663E+02 -0.68487070366E+01 -0.25995467174E+02  0.50528871328E+02  0.30000034889E+02 0.  0.
         12    1    1    2    0    0 -0.30504026663E+02  0.68487070366E+01  0.25995467174E+02  0.40659128672E+02  0.00000000000E+00 0. -1.
         11    1    3    3    0    0  0.20011941054E+02 -0.13054502314E+02 -0.54398474216E+01  0.24504892484E+02  0.51100000000E-03 0.  1.
        -11    1    3    3    0    0  0.16330314944E+01  0.39481709407E+01 -0.92876939390E+00  0.43723515969E+01  0.51100000000E-03 0. -1.
        -12    1    3    3    0    0  0.88590541149E+01  0.22576243371E+01 -0.19626850359E+02  0.21651627247E+02  0.00000000000E+00 0.  1.
</event>
<event>
 7    1  0.2744502E-011  0.5052887E+02  0.7816164E-02  0.1300439E+00
        -11   -1    0    0    0    0  0.00000000000E+00  0.00000000000E+00  0.45593999997E+02  0.45594000000E+02  0.51100000000E-03 0.  1.
         11   -1    0    0    0    0 -0.00000000000E+00 -0.00000000000E+00 -0.45593999997E+02  0.45594000000E+02  0.51100000000E-03 0. -1.
    9900012    2    1    2    0    0  0.34599206448E+02 -0.20442544585E+02  0.61775284936E+01  0.50528873421E+02  0.30000041250E+02 0.  0.
         12    1    1    2    0    0 -0.34599206448E+02  0.20442544585E+02 -0.61775284936E+01  0.40659126579E+02  0.00000000000E+00 0. -1.
         11    1    3    3    0    0  0.93174301560E+01 -0.10200620094E+02 -0.16945722961E+01  0.13919006091E+02  0.51100000000E-03 0. -1.
        -11    1    3    3    0    0  0.13483158812E+02 -0.14757741487E+02 -0.26552781023E+01  0.20165242557E+02  0.51100000000E-03 0.  1.
        -12    1    3    3    0    0  0.11798617480E+02  0.45158169966E+01  0.10527378892E+02  0.16444624773E+02  0.00000000000E+00 0.  1.
</event>
<event>
 7    1  0.2744502E-011  0.5052885E+02  0.7816164E-02  0.1300439E+00
        -11   -1    0    0    0    0  0.00000000000E+00  0.00000000000E+00  0.45593999997E+02  0.45594000000E+02  0.51100000000E-03 0.  1.
         11   -1    0    0    0    0 -0.00000000000E+00 -0.00000000000E+00 -0.45593999997E+02  0.45594000000E+02  0.51100000000E-03 0. -1.
    9900012    2    1    2    0    0 -0.35802898659E+02  0.17029111745E+01  0.19194246398E+02  0.50528849079E+02  0.29999967261E+02 0.  0.
         12    1    1    2    0    0  0.35802898659E+02 -0.17029111745E+01 -0.19194246398E+02  0.40659150921E+02  0.00000000000E+00 0. -1.
         11    1    3    3    0    0 -0.43080054031E+01  0.72760921959E+01  0.25780995197E+01  0.88400806326E+01  0.51100000000E-03 0. -1.
        -11    1    3    3    0    0 -0.13064936506E+02 -0.76430941498E+01  0.17480145249E+02  0.23122822758E+02  0.51100000000E-03 0.  1.
         12    1    3    3    0    0 -0.18429956749E+02  0.20699131284E+01 -0.86399837096E+00  0.18565945689E+02  0.00000000000E+00 0. -1.
</event>
<event>
 7    1  0.2744502E-011  0.5052886E+02  0.7816164E-02  0.1300439E+00
        -11   -1    0    0    0    0  0.00000000000E+00  0.00000000000E+00  0.45593999997E+02  0.45594000000E+02  0.51100000000E-03 0.  1.
         11   -1    0    0    0    0 -0.00000000000E+00 -0.00000000000E+00 -0.45593999997E+02  0.45594000000E+02  0.51100000000E-03 0. -1.
    9900012    2    1    2    0    0  0.33964908028E+02 -0.60076054377E+01  0.21528112785E+02  0.50528856618E+02  0.29999990176E+02 0.  0.
         12    1    1    2    0    0 -0.33964908028E+02  0.60076054377E+01 -0.21528112785E+02  0.40659143382E+02  0.00000000000E+00 0. -1.
         11    1    3    3    0    0  0.65452614377E+01 -0.88688228650E+01  0.83751836704E+01  0.13843416055E+02  0.51100000000E-03 0. -1.
        -11    1    3    3    0    0  0.12173094426E+02 -0.28313050833E+01  0.15854386393E+02  0.20188166944E+02  0.51100000000E-03 0.  1.
        -12    1    3    3    0    0  0.15246552165E+02  0.56925225105E+01 -0.27014572784E+01  0.16497273619E+02  0.00000000000E+00 0.  1.
</event>
<event>
 7    1  0.2744502E-011  0.5052887E+02  0.7816164E-02  0.1300439E+00
        -11   -1    0    0    0    0  0.00000000000E+00  0.00000000000E+00  0.45593999997E+02  0.45594000000E+02  0.51100000000E-03 0. -1.
         11   -1    0    0    0    0 -0.00000000000E+00 -0.00000000000E+00 -0.45593999997E+02  0.45594000000E+02  0.51100000000E-03 0.  1.
    9900012    2    1    2    0    0 -0.29553229164E+02  0.21306851352E+02 -0.18049646208E+02  0.50528868224E+02  0.30000025454E+02 0.  0.
         12    1    1    2    0    0  0.29553229164E+02 -0.21306851352E+02  0.18049646208E+02  0.40659131776E+02  0.00000000000E+00 0. -1.
         11    1    3    3    0    0 -0.70701262445E+01  0.71259452561E+01 -0.77798198493E+01  0.12700054254E+02  0.51100000000E-03 0. -1.
        -11    1    3    3    0    0 -0.26586702422E+02  0.94442298511E+01 -0.12910899943E+02  0.31028012517E+02  0.51100000000E-03 0.  1.
         12    1    3    3    0    0  0.41035995029E+01  0.47366762450E+01  0.26410735841E+01  0.68008014532E+01  0.00000000000E+00 0. -1.
</event>
<event>
 7    1  0.2744502E-011  0.5052885E+02  0.7816164E-02  0.1300439E+00
        -11   -1    0    0    0    0  0.00000000000E+00  0.00000000000E+00  0.45593999997E+02  0.45594000000E+02  0.51100000000E-03 0.  1.
         11   -1    0    0    0    0 -0.00000000000E+00 -0.00000000000E+00 -0.45593999997E+02  0.45594000000E+02  0.51100000000E-03 0. -1.
    9900012    2    1    2    0    0 -0.20757351913E+02  0.39739537381E+01  0.34734803200E+02  0.50528849491E+02  0.29999968513E+02 0.  0.
         12    1    1    2    0    0  0.20757351913E+02 -0.39739537381E+01 -0.34734803200E+02  0.40659150509E+02  0.00000000000E+00 0. -1.
         11    1    3    3    0    0 -0.23840032841E+01 -0.27710444714E+01 -0.13728599203E+01  0.39047283827E+01  0.51100000000E-03 0. -1.
        -11    1    3    3    0    0 -0.19829101845E+02 -0.18423822899E+01  0.19503948282E+02  0.27874569975E+02  0.51100000000E-03 0.  1.
        -12    1    3    3    0    0  0.14557532151E+01  0.85873804994E+01  0.16603714838E+02  0.18749551133E+02  0.00000000000E+00 0.  1.
</event>
<event>
 7    1  0.2744502E-011  0.5052885E+02  0.7816164E-02  0.1300439E+00
        -11   -1    0    0    0    0  0.00000000000E+00  0.00000000000E+00  0.45593999997E+02  0.45594000000E+02  0.51100000000E-03 0.  1.
         11   -1    0    0    0    0 -0.00000000000E+00 -0.00000000000E+00 -0.45593999997E+02  0.45594000000E+02  0.51100000000E-03 0. -1.
    9900012    2    1    2    0    0 -0.15216636867E+02  0.32536551430E+02  0.19052376640E+02  0.50528852540E+02  0.29999977782E+02 0.  0.
         12    1    1    2    0    0  0.15216636867E+02 -0.32536551430E+02 -0.19052376640E+02  0.40659147460E+02  0.00000000000E+00 0. -1.
         11    1    3    3    0    0 -0.81023604468E+01 -0.78845272003E+00  0.33969800403E+01  0.88209623147E+01  0.51100000000E-03 0. -1.
        -11    1    3    3    0    0 -0.84160100142E+01  0.94872650327E+01  0.12178538062E+02  0.17582781689E+02  0.51100000000E-03 0.  1.
        -12    1    3    3    0    0  0.13017335942E+01  0.23837739118E+02  0.34768585383E+01  0.24125108536E+02  0.00000000000E+00 0.  1.
</event>
<event>
 7    1  0.2744502E-011  0.5052885E+02  0.7816164E-02  0.1300439E+00
        -11   -1    0    0    0    0  0.00000000000E+00  0.00000000000E+00  0.45593999997E+02  0.45594000000E+02  0.51100000000E-03 0. -1.
         11   -1    0    0    0    0 -0.00000000000E+00 -0.00000000000E+00 -0.45593999997E+02  0.45594000000E+02  0.51100000000E-03 0.  1.
    9900012    2    1    2    0    0 -0.74807036699E+01 -0.22475115500E+02 -0.33046550791E+02  0.50528852649E+02  0.29999978111E+02 0.  0.
         12    1    1    2    0    0  0.74807036699E+01  0.22475115500E+02  0.33046550791E+02  0.40659147351E+02  0.00000000000E+00 0. -1.
         11    1    3    3    0    0 -0.84011811610E+01 -0.20764605323E+01 -0.82294602783E+00  0.86930301776E+01  0.51100000000E-03 0. -1.
        -11    1    3    3    0    0  0.12147449127E+01 -0.29822781333E+01  0.17441591316E+01  0.36621959812E+01  0.51100000000E-03 0.  1.
        -12    1    3    3    0    0 -0.29426742159E+00 -0.17416376834E+02 -0.33967763895E+02  0.38173626490E+02  0.00000000000E+00 0.  1.
</event>
<event>
 7    1  0.2744502E-011  0.5052886E+02  0.7816164E-02  0.1300439E+00
        -11   -1    0    0    0    0  0.00000000000E+00  0.00000000000E+00  0.45593999997E+02  0.45594000000E+02  0.51100000000E-03 0.  1.
         11   -1    0    0    0    0 -0.00000000000E+00 -0.00000000000E+00 -0.45593999997E+02  0.45594000000E+02  0.51100000000E-03 0. -1.
    9900012    2    1    2    0    0 -0.24606920188E+02 -0.10905855395E+02  0.30475035079E+02  0.50528856304E+02  0.29999989222E+02 0.  0.
         12    1    1    2    0    0  0.24606920188E+02  0.10905855395E+02 -0.30475035079E+02  0.40659143696E+02  0.00000000000E+00 0. -1.
         11    1    3    3    0    0 -0.82779168926E+01 -0.17352543746E+00 -0.50872339784E+01  0.97177141845E+01  0.51100000000E-03 0. -1.
        -11    1    3    3    0    0 -0.10268191828E+01 -0.22587261806E+01  0.54272899953E+01  0.59675521403E+01  0.51100000000E-03 0.  1.
        -12    1    3    3    0    0 -0.15302184113E+02 -0.84736037765E+01  0.30134979062E+02  0.34843589979E+02  0.00000000000E+00 0.  1.
</event>
<event>
 7    1  0.2744502E-011  0.5052886E+02  0.7816164E-02  0.1300439E+00
        -11   -1    0    0    0    0  0.00000000000E+00  0.00000000000E+00  0.45593999997E+02  0.45594000000E+02  0.51100000000E-03 0.  1.
         11   -1    0    0    0    0 -0.00000000000E+00 -0.00000000000E+00 -0.45593999997E+02  0.45594000000E+02  0.51100000000E-03 0. -1.
    9900012    2    1    2    0    0 -0.25839671457E+02 -0.17813565569E+02  0.25848672998E+02  0.50528860375E+02  0.30000001595E+02 0.  0.
         12    1    1    2    0    0  0.25839671457E+02  0.17813565569E+02 -0.25848672998E+02  0.40659139625E+02  0.00000000000E+00 0. -1.
         11    1    3    3    0    0 -0.24255587515E+00 -0.41722387296E+01 -0.25343737472E+01  0.48876845153E+01  0.51100000000E-03 0. -1.
        -11    1    3    3    0    0 -0.74912201796E+01 -0.15206596947E+02  0.17935310039E+02  0.24678620645E+02  0.51100000000E-03 0.  1.
         12    1    3    3    0    0 -0.18105895402E+02  0.15652701078E+01  0.10447736706E+02  0.20962555214E+02  0.00000000000E+00 0. -1.
</event>
<event>
 7    1  0.2744502E-011  0.5052886E+02  0.7816164E-02  0.1300439E+00
        -11   -1    0    0    0    0  0.00000000000E+00  0.00000000000E+00  0.45593999997E+02  0.45594000000E+02  0.51100000000E-03 0. -1.
         11   -1    0    0    0    0 -0.00000000000E+00 -0.00000000000E+00 -0.45593999997E+02  0.45594000000E+02  0.51100000000E-03 0.  1.
    9900012    2    1    2    0    0 -0.81490541024E+01  0.20384699362E+01 -0.39781944364E+02  0.50528861546E+02  0.30000005155E+02 0.  0.
         12    1    1    2    0    0  0.81490541024E+01 -0.20384699362E+01  0.39781944364E+02  0.40659138454E+02  0.00000000000E+00 0. -1.
         11    1    3    3    0    0  0.68000616538E+01  0.28995701945E+01 -0.16400607009E+02  0.17989670823E+02  0.51100000000E-03 0. -1.
        -11    1    3    3    0    0 -0.73082832347E+01 -0.61520288143E+01 -0.20807266248E+02  0.22895431670E+02  0.51100000000E-03 0.  1.
         12    1    3    3    0    0 -0.76408325215E+01  0.52909285560E+01 -0.25740711073E+01  0.96437590530E+01  0.00000000000E+00 0. -1.
</event>
<event>
 7    1  0.2744502E-011  0.5052885E+02  0.7816164E-02  0.1300439E+00
        -11   -1    0    0    0    0  0.00000000000E+00  0.00000000000E+00  0.45593999997E+02  0.45594000000E+02  0.51100000000E-03 0.  1.
         11   -1    0    0    0    0 -0.00000000000E+00 -0.00000000000E+00 -0.45593999997E+02  0.45594000000E+02  0.51100000000E-03 0. -1.
    9900012    2    1    2    0    0  0.10559362528E+02  0.37647877509E+02 -0.11149143066E+02  0.50528853317E+02  0.29999980141E+02 0.  0.
         12    1    1    2    0    0 -0.10559362528E+02 -0.37647877509E+02  0.11149143066E+02  0.40659146683E+02  0.00000000000E+00 0. -1.
         11    1    3    3    0    0  0.12563644619E+02  0.28084738438E+02 -0.90448578917E+01  0.32068787844E+02  0.51100000000E-03 0. -1.
        -11    1    3    3    0    0  0.12410507402E+01  0.13022845824E+02  0.41610321627E+00  0.13088462951E+02  0.51100000000E-03 0.  1.
         12    1    3    3    0    0 -0.32453328309E+01 -0.34597067532E+01 -0.25203883904E+01  0.53716025206E+01  0.00000000000E+00 0. -1.
</event>
<event>
 7    1  0.2744502E-011  0.5052882E+02  0.7816164E-02  0.1300439E+00
        -11   -1    0    0    0    0  0.00000000000E+00  0.00000000000E+00  0.45593999997E+02  0.45594000000E+02  0.51100000000E-03 0. -1.
         11   -1    0    0    0    0 -0.00000000000E+00 -0.00000000000E+00 -0.45593999997E+02  0.45594000000E+02  0.51100000000E-03 0.  1.
    9900012    2    1    2    0    0  0.33137025697E+02  0.72672246114E+00  0.23549479733E+02  0.50528823997E+02  0.29999891020E+02 0.  0.
         12    1    1    2    0    0 -0.33137025697E+02 -0.72672246114E+00 -0.23549479733E+02  0.40659176003E+02  0.00000000000E+00 0. -1.
         11    1    3    3    0    0  0.36927039644E+01 -0.17257474104E+01  0.68227441854E+01  0.79475848642E+01  0.51100000000E-03 0. -1.
        -11    1    3    3    0    0  0.17186121854E+02 -0.11426317075E+02  0.85391520018E+01  0.22334740282E+02  0.51100000000E-03 0.  1.
        -12    1    3    3    0    0  0.12258199879E+02  0.13878786947E+02  0.81875835454E+01  0.20246498850E+02  0.00000000000E+00 0.  1.
</event>
<event>
 7    1  0.2744502E-011  0.5052887E+02  0.7816164E-02  0.1300439E+00
        -11   -1    0    0    0    0  0.00000000000E+00  0.00000000000E+00  0.45593999997E+02  0.45594000000E+02  0.51100000000E-03 0.  1.
         11   -1    0    0    0    0 -0.00000000000E+00 -0.00000000000E+00 -0.45593999997E+02  0.45594000000E+02  0.51100000000E-03 0. -1.
    9900012    2    1    2    0    0 -0.19524633205E+02 -0.15801321890E+01  0.35629438756E+02  0.50528867870E+02  0.30000024377E+02 0.  0.
         12    1    1    2    0    0  0.19524633205E+02  0.15801321890E+01 -0.35629438756E+02  0.40659132130E+02  0.00000000000E+00 0. -1.
         11    1    3    3    0    0 -0.10295351500E+02 -0.11209558662E+02  0.11815782889E+02  0.19268139335E+02  0.51100000000E-03 0.  1.
        -11    1    3    3    0    0  0.29988262556E+01 -0.18085567749E+01  0.44172989104E+01  0.56370529928E+01  0.51100000000E-03 0. -1.
        -12    1    3    3    0    0 -0.12228107960E+02  0.11437983248E+02  0.19396356957E+02  0.25623675542E+02  0.00000000000E+00 0.  1.
</event>
<event>
 7    1  0.2744502E-011  0.5052883E+02  0.7816164E-02  0.1300439E+00
        -11   -1    0    0    0    0  0.00000000000E+00  0.00000000000E+00  0.45593999997E+02  0.45594000000E+02  0.51100000000E-03 0. -1.
         11   -1    0    0    0    0 -0.00000000000E+00 -0.00000000000E+00 -0.45593999997E+02  0.45594000000E+02  0.51100000000E-03 0.  1.
    9900012    2    1    2    0    0 -0.36850064997E+02 -0.12820979302E+02 -0.11439560078E+02  0.50528827169E+02  0.29999900662E+02 0.  0.
         12    1    1    2    0    0  0.36850064997E+02  0.12820979302E+02  0.11439560078E+02  0.40659172831E+02  0.00000000000E+00 0. -1.
         11    1    3    3    0    0 -0.51315827819E+01  0.84756215688E+00  0.42164955271E+01  0.66955461502E+01  0.51100000000E-03 0. -1.
        -11    1    3    3    0    0 -0.72684029685E+01 -0.10991572470E+02  0.23046304259E+01  0.13377431321E+02  0.51100000000E-03 0.  1.
        -12    1    3    3    0    0 -0.24450079247E+02 -0.26769689885E+01 -0.17960686031E+02  0.30455849698E+02  0.00000000000E+00 0.  1.
</event>
<event>
 7    1  0.2744502E-011  0.5052879E+02  0.7816164E-02  0.1300439E+00
        -11   -1    0    0    0    0  0.00000000000E+00  0.00000000000E+00  0.45593999997E+02  0.45594000000E+02  0.51100000000E-03 0. -1.
         11   -1    0    0    0    0 -0.00000000000E+00 -0.00000000000E+00 -0.45593999997E+02  0.45594000000E+02  0.51100000000E-03 0.  1.
    9900012    2    1    2    0    0 -0.28639092141E+02  0.20583533101E+02 -0.20230970210E+02  0.50528787155E+02  0.29999779035E+02 0.  0.
         12    1    1    2    0    0  0.28639092141E+02 -0.20583533101E+02  0.20230970210E+02  0.40659212845E+02  0.00000000000E+00 0. -1.
         11    1    3    3    0    0 -0.10594518326E+02  0.10047970207E+02  0.25824046546E+01  0.14828160300E+02  0.51100000000E-03 0. -1.
        -11    1    3    3    0    0 -0.12993346133E+02  0.38654319525E+01 -0.25717566364E+01  0.13797917973E+02  0.51100000000E-03 0.  1.
        -12    1    3    3    0    0 -0.50512276814E+01  0.66701309420E+01 -0.20241618228E+02  0.21902708882E+02  0.00000000000E+00 0.  1.
</event>
<event>
 7    1  0.2744502E-011  0.5052888E+02  0.7816164E-02  0.1300439E+00
        -11   -1    0    0    0    0  0.00000000000E+00  0.00000000000E+00  0.45593999997E+02  0.45594000000E+02  0.51100000000E-03 0. -1.
         11   -1    0    0    0    0 -0.00000000000E+00 -0.00000000000E+00 -0.45593999997E+02  0.45594000000E+02  0.51100000000E-03 0.  1.
    9900012    2    1    2    0    0  0.35353257274E+02 -0.11428352982E+02 -0.16513754328E+02  0.50528878837E+02  0.30000057712E+02 0.  0.
         12    1    1    2    0    0 -0.35353257274E+02  0.11428352982E+02  0.16513754328E+02  0.40659121163E+02  0.00000000000E+00 0. -1.
         11    1    3    3    0    0  0.12229252358E+02 -0.53423154090E+01 -0.82349790269E+01  0.15681512268E+02  0.51100000000E-03 0. -1.
        -11    1    3    3    0    0  0.28002193547E+02 -0.40959736266E+01 -0.52906243251E+01  0.28790459347E+02  0.51100000000E-03 0.  1.
         12    1    3    3    0    0 -0.48781886316E+01 -0.19900639467E+01 -0.29881509758E+01  0.60569072217E+01  0.00000000000E+00 0. -1.
</event>
<event>
 7    1  0.2744502E-011  0.5052886E+02  0.7816164E-02  0.1300439E+00
        -11   -1    0    0    0    0  0.00000000000E+00  0.00000000000E+00  0.45593999997E+02  0.45594000000E+02  0.51100000000E-03 0.  1.
         11   -1    0    0    0    0 -0.00000000000E+00 -0.00000000000E+00 -0.45593999997E+02  0.45594000000E+02  0.51100000000E-03 0. -1.
    9900012    2    1    2    0    0 -0.52568753647E+00  0.35042693039E+01  0.40504434652E+02  0.50528862316E+02  0.30000007495E+02 0.  0.
         12    1    1    2    0    0  0.52568753647E+00 -0.35042693039E+01 -0.40504434652E+02  0.40659137684E+02  0.00000000000E+00 0. -1.
         11    1    3    3    0    0  0.25637478296E+01  0.22807803805E+01  0.61630817742E+01  0.70539591220E+01  0.51100000000E-03 0. -1.
        -11    1    3    3    0    0  0.61529790915E+01  0.17827397129E+01 -0.13969623653E+01  0.65565857499E+01  0.51100000000E-03 0.  1.
        -12    1    3    3    0    0 -0.92424144576E+01 -0.55925078947E+00  0.35738315243E+02  0.36918317444E+02  0.00000000000E+00 0.  1.
</event>
<event>
 7    1  0.2744502E-011  0.5052886E+02  0.7816164E-02  0.1300439E+00
        -11   -1    0    0    0    0  0.00000000000E+00  0.00000000000E+00  0.45593999997E+02  0.45594000000E+02  0.51100000000E-03 0.  1.
         11   -1    0    0    0    0 -0.00000000000E+00 -0.00000000000E+00 -0.45593999997E+02  0.45594000000E+02  0.51100000000E-03 0. -1.
    9900012    2    1    2    0    0 -0.33822848108E+02 -0.16399864946E+02 -0.15499199448E+02  0.50528858249E+02  0.29999995133E+02 0.  0.
         12    1    1    2    0    0  0.33822848108E+02  0.16399864946E+02  0.15499199448E+02  0.40659141751E+02  0.00000000000E+00 0. -1.
         11    1    3    3    0    0 -0.25529185174E+02 -0.16106105460E+02 -0.10794415703E+02  0.32057219770E+02  0.51100000000E-03 0. -1.
        -11    1    3    3    0    0 -0.29532900985E+01 -0.45004327130E+01 -0.89591910006E+01  0.10451933824E+02  0.51100000000E-03 0.  1.
        -12    1    3    3    0    0 -0.53403728354E+01  0.42066732265E+01  0.42544072558E+01  0.80197046550E+01  0.00000000000E+00 0.  1.
</event>
<event>
 7    1  0.2744502E-011  0.5052886E+02  0.7816164E-02  0.1300439E+00
        -11   -1    0    0    0    0  0.00000000000E+00  0.00000000000E+00  0.45593999997E+02  0.45594000000E+02  0.51100000000E-03 0.  1.
         11   -1    0    0    0    0 -0.00000000000E+00 -0.00000000000E+00 -0.45593999997E+02  0.45594000000E+02  0.51100000000E-03 0. -1.
    9900012    2    1    2    0    0 -0.20471357020E+02 -0.29408367757E+02  0.19215537898E+02  0.50528862662E+02  0.30000008546E+02 0.  0.
         12    1    1    2    0    0  0.20471357020E+02  0.29408367757E+02 -0.19215537898E+02  0.40659137338E+02  0.00000000000E+00 0. -1.
         11    1    3    3    0    0  0.21126614442E+01  0.33765683658E+00 -0.38870271576E+01  0.44369280929E+01  0.51100000000E-03 0. -1.
        -11    1    3    3    0    0 -0.87174114363E+01 -0.92293785180E+01  0.15811823160E+02  0.20277781976E+02  0.51100000000E-03 0.  1.
        -12    1    3    3    0    0 -0.13866607028E+02 -0.20516646076E+02  0.72907418960E+01  0.25814152593E+02  0.00000000000E+00 0.  1.
</event>
<event>
 7    1  0.2744502E-011  0.5052886E+02  0.7816164E-02  0.1300439E+00
        -11   -1    0    0    0    0  0.00000000000E+00  0.00000000000E+00  0.45593999997E+02  0.45594000000E+02  0.51100000000E-03 0. -1.
         11   -1    0    0    0    0 -0.00000000000E+00 -0.00000000000E+00 -0.45593999997E+02  0.45594000000E+02  0.51100000000E-03 0.  1.
    9900012    2    1    2    0    0 -0.19695489136E+02 -0.96002348770E+01 -0.34250387620E+02  0.50528857680E+02  0.29999993405E+02 0.  0.
         12    1    1    2    0    0  0.19695489136E+02  0.96002348770E+01  0.34250387620E+02  0.40659142320E+02  0.00000000000E+00 0. -1.
         11    1    3    3    0    0 -0.12329091562E+02 -0.31160658745E+01 -0.11663156858E+02  0.17255306239E+02  0.51100000000E-03 0. -1.
        -11    1    3    3    0    0 -0.14887992697E+02 -0.26737999213E+01 -0.10034625664E+02  0.18152003885E+02  0.51100000000E-03 0.  1.
         12    1    3    3    0    0  0.75215951223E+01 -0.38103690812E+01 -0.12552605099E+02  0.15121547556E+02  0.00000000000E+00 0. -1.
</event>
<event>
 7    1  0.2744502E-011  0.5052886E+02  0.7816164E-02  0.1300439E+00
        -11   -1    0    0    0    0  0.00000000000E+00  0.00000000000E+00  0.45593999997E+02  0.45594000000E+02  0.51100000000E-03 0.  1.
         11   -1    0    0    0    0 -0.00000000000E+00 -0.00000000000E+00 -0.45593999997E+02  0.45594000000E+02  0.51100000000E-03 0. -1.
    9900012    2    1    2    0    0  0.77261299288E+00  0.12955536959E+02  0.38532103164E+02  0.50528857818E+02  0.29999993824E+02 0.  0.
         12    1    1    2    0    0 -0.77261299288E+00 -0.12955536959E+02 -0.38532103164E+02  0.40659142182E+02  0.00000000000E+00 0. -1.
         11    1    3    3    0    0  0.70842688499E+01  0.47609154940E+01  0.21155193934E+02  0.22812176839E+02  0.51100000000E-03 0.  1.
        -11    1    3    3    0    0 -0.56034099702E+01 -0.54702674675E+01  0.74817139531E+01  0.10830423510E+02  0.51100000000E-03 0. -1.
         12    1    3    3    0    0 -0.70824588678E+00  0.13664888932E+02  0.98951952766E+01  0.16886257470E+02  0.00000000000E+00 0. -1.
</event>
<event>
 7    1  0.2744502E-011  0.5052887E+02  0.7816164E-02  0.1300439E+00
        -11   -1    0    0    0    0  0.00000000000E+00  0.00000000000E+00  0.45593999997E+02  0.45594000000E+02  0.51100000000E-03 0.  1.
         11   -1    0    0    0    0 -0.00000000000E+00 -0.00000000000E+00 -0.45593999997E+02  0.45594000000E+02  0.51100000000E-03 0. -1.
    9900012    2    1    2    0    0 -0.18926371252E+02  0.15492247185E+02  0.32479956074E+02  0.50528870667E+02  0.30000032878E+02 0.  0.
         12    1    1    2    0    0  0.18926371252E+02 -0.15492247185E+02 -0.32479956074E+02  0.40659129333E+02  0.00000000000E+00 0. -1.
         11    1    3    3    0    0 -0.19507032323E+01 -0.41709819528E-01  0.23262827549E+02  0.23344509604E+02  0.51100000000E-03 0. -1.
        -11    1    3    3    0    0  0.77328015701E+00  0.20631328971E+01 -0.12858252363E+01  0.25510441689E+01  0.51100000000E-03 0.  1.
        -12    1    3    3    0    0 -0.17748948176E+02  0.13470824107E+02  0.10502953761E+02  0.24633316894E+02  0.00000000000E+00 0.  1.
</event>
<event>
 7    1  0.2744502E-011  0.5052885E+02  0.7816164E-02  0.1300439E+00
        -11   -1    0    0    0    0  0.00000000000E+00  0.00000000000E+00  0.45593999997E+02  0.45594000000E+02  0.51100000000E-03 0. -1.
         11   -1    0    0    0    0 -0.00000000000E+00 -0.00000000000E+00 -0.45593999997E+02  0.45594000000E+02  0.51100000000E-03 0.  1.
    9900012    2    1    2    0    0 -0.29318299138E+02  0.26061712002E+02 -0.10695371542E+02  0.50528850116E+02  0.29999970414E+02 0.  0.
         12    1    1    2    0    0  0.29318299138E+02 -0.26061712002E+02  0.10695371542E+02  0.40659149884E+02  0.00000000000E+00 0. -1.
         11    1    3    3    0    0 -0.14526793237E+02  0.10265578810E+02 -0.88669558190E+00  0.17809998859E+02  0.51100000000E-03 0. -1.
        -11    1    3    3    0    0 -0.17113501533E+02  0.15807894673E+02 -0.68817439302E+00  0.23307403394E+02  0.51100000000E-03 0.  1.
        -12    1    3    3    0    0  0.23219956315E+01 -0.11761480710E-01 -0.91205015675E+01  0.94114478635E+01  0.00000000000E+00 0.  1.
</event>
<event>
 7    1  0.2744502E-011  0.5052885E+02  0.7816164E-02  0.1300439E+00
        -11   -1    0    0    0    0  0.00000000000E+00  0.00000000000E+00  0.45593999997E+02  0.45594000000E+02  0.51100000000E-03 0.  1.
         11   -1    0    0    0    0 -0.00000000000E+00 -0.00000000000E+00 -0.45593999997E+02  0.45594000000E+02  0.51100000000E-03 0. -1.
    9900012    2    1    2    0    0 -0.14012580861E+02 -0.17335809247E+02  0.34004168217E+02  0.50528853910E+02  0.29999981944E+02 0.  0.
         12    1    1    2    0    0  0.14012580861E+02  0.17335809247E+02 -0.34004168217E+02  0.40659146090E+02  0.00000000000E+00 0. -1.
         11    1    3    3    0    0 -0.55384663017E+01 -0.70935422074E+01 -0.30788215154E+01  0.95116818812E+01  0.51100000000E-03 0. -1.
        -11    1    3    3    0    0  0.20326316305E+01 -0.47711436840E+01  0.72117758562E+01  0.88828550962E+01  0.51100000000E-03 0.  1.
        -12    1    3    3    0    0 -0.10506746190E+02 -0.54711233554E+01  0.29871213876E+02  0.32134316932E+02  0.00000000000E+00 0.  1.
</event>
<event>
 7    1  0.2744502E-011  0.5052886E+02  0.7816164E-02  0.1300439E+00
        -11   -1    0    0    0    0  0.00000000000E+00  0.00000000000E+00  0.45593999997E+02  0.45594000000E+02  0.51100000000E-03 0. -1.
         11   -1    0    0    0    0 -0.00000000000E+00 -0.00000000000E+00 -0.45593999997E+02  0.45594000000E+02  0.51100000000E-03 0.  1.
    9900012    2    1    2    0    0 -0.32983688309E+02  0.16765608578E+02 -0.16856933246E+02  0.50528861741E+02  0.30000005749E+02 0.  0.
         12    1    1    2    0    0  0.32983688309E+02 -0.16765608578E+02  0.16856933246E+02  0.40659138259E+02  0.00000000000E+00 0. -1.
         11    1    3    3    0    0 -0.28432212319E+02  0.98362816933E+01 -0.83757639571E+01  0.31229738344E+02  0.51100000000E-03 0. -1.
        -11    1    3    3    0    0 -0.98627168494E+01  0.19537357098E+01 -0.51126288254E+01  0.11279593993E+02  0.51100000000E-03 0.  1.
        -12    1    3    3    0    0  0.53112408597E+01  0.49755911752E+01 -0.33685404638E+01  0.80195294044E+01  0.00000000000E+00 0.  1.
</event>
<event>
 7    1  0.2744502E-011  0.5052884E+02  0.7816164E-02  0.1300439E+00
        -11   -1    0    0    0    0  0.00000000000E+00  0.00000000000E+00  0.45593999997E+02  0.45594000000E+02  0.51100000000E-03 0.  1.
         11   -1    0    0    0    0 -0.00000000000E+00 -0.00000000000E+00 -0.45593999997E+02  0.45594000000E+02  0.51100000000E-03 0. -1.
    9900012    2    1    2    0    0  0.31304947158E+02  0.12745325689E+02  0.22599210570E+02  0.50528839140E+02  0.29999937050E+02 0.  0.
         12    1    1    2    0    0 -0.31304947158E+02 -0.12745325689E+02 -0.22599210570E+02  0.40659160860E+02  0.00000000000E+00 0. -1.
         11    1    3    3    0    0  0.57328629685E+01 -0.52994488484E+01  0.64582468633E+01  0.10132069321E+02  0.51100000000E-03 0. -1.
        -11    1    3    3    0    0  0.22926533102E+02  0.10857462068E+02  0.19537035018E+02  0.32018840394E+02  0.51100000000E-03 0.  1.
         12    1    3    3    0    0  0.26455510873E+01  0.71873124701E+01 -0.33960713120E+01  0.83779294252E+01  0.00000000000E+00 0. -1.
</event>
<event>
 7    1  0.2744502E-011  0.5052885E+02  0.7816164E-02  0.1300439E+00
        -11   -1    0    0    0    0  0.00000000000E+00  0.00000000000E+00  0.45593999997E+02  0.45594000000E+02  0.51100000000E-03 0.  1.
         11   -1    0    0    0    0 -0.00000000000E+00 -0.00000000000E+00 -0.45593999997E+02  0.45594000000E+02  0.51100000000E-03 0. -1.
    9900012    2    1    2    0    0 -0.72359928491E+01 -0.75079155751E+01  0.39299337722E+02  0.50528851777E+02  0.29999975462E+02 0.  0.
         12    1    1    2    0    0  0.72359928491E+01  0.75079155751E+01 -0.39299337722E+02  0.40659148223E+02  0.00000000000E+00 0. -1.
         11    1    3    3    0    0  0.56370770619E+01 -0.36628563133E+01  0.30440189313E+02  0.31173679280E+02  0.51100000000E-03 0. -1.
        -11    1    3    3    0    0  0.18598768160E+01 -0.10736426666E+01  0.17164517636E+01  0.27491921112E+01  0.51100000000E-03 0.  1.
         12    1    3    3    0    0 -0.14732946727E+02 -0.27714165952E+01  0.71426966455E+01  0.16605980386E+02  0.00000000000E+00 0. -1.
</event>
<event>
 7    1  0.2744502E-011  0.5052886E+02  0.7816164E-02  0.1300439E+00
        -11   -1    0    0    0    0  0.00000000000E+00  0.00000000000E+00  0.45593999997E+02  0.45594000000E+02  0.51100000000E-03 0.  1.
         11   -1    0    0    0    0 -0.00000000000E+00 -0.00000000000E+00 -0.45593999997E+02  0.45594000000E+02  0.51100000000E-03 0. -1.
    9900012    2    1    2    0    0 -0.23657317082E+02  0.16188361039E+02  0.28834594921E+02  0.50528861434E+02  0.30000004815E+02 0.  0.
         12    1    1    2    0    0  0.23657317082E+02 -0.16188361039E+02 -0.28834594921E+02  0.40659138566E+02  0.00000000000E+00 0. -1.
         11    1    3    3    0    0 -0.13712131388E+02  0.12466985951E+02  0.41191777545E+01  0.18984623029E+02  0.51100000000E-03 0. -1.
        -11    1    3    3    0    0 -0.10989003174E+02  0.82289402616E+01  0.12832009366E+02  0.18791862952E+02  0.51100000000E-03 0.  1.
        -12    1    3    3    0    0  0.10438174802E+01 -0.45075651738E+01  0.11883407801E+02  0.12752375453E+02  0.00000000000E+00 0.  1.
</event>
<event>
 7    1  0.2744502E-011  0.5052886E+02  0.7816164E-02  0.1300439E+00
        -11   -1    0    0    0    0  0.00000000000E+00  0.00000000000E+00  0.45593999997E+02  0.45594000000E+02  0.51100000000E-03 0.  1.
         11   -1    0    0    0    0 -0.00000000000E+00 -0.00000000000E+00 -0.45593999997E+02  0.45594000000E+02  0.51100000000E-03 0. -1.
    9900012    2    1    2    0    0  0.31890841564E+02 -0.60018870970E+01  0.24497298405E+02  0.50528855229E+02  0.29999985953E+02 0.  0.
         12    1    1    2    0    0 -0.31890841564E+02  0.60018870970E+01 -0.24497298405E+02  0.40659144771E+02  0.00000000000E+00 0. -1.
         11    1    3    3    0    0 -0.64724399417E+00 -0.14738871320E+01 -0.85051015335E+00  0.18206141403E+01  0.51100000000E-03 0. -1.
        -11    1    3    3    0    0  0.21824563101E+02 -0.18271954588E+01  0.94565711983E+00  0.21921324445E+02  0.51100000000E-03 0.  1.
        -12    1    3    3    0    0  0.10713522458E+02 -0.27008045062E+01  0.24402151438E+02  0.26786916643E+02  0.00000000000E+00 0.  1.
</event>
<event>
 7    1  0.2744502E-011  0.5052887E+02  0.7816164E-02  0.1300439E+00
        -11   -1    0    0    0    0  0.00000000000E+00  0.00000000000E+00  0.45593999997E+02  0.45594000000E+02  0.51100000000E-03 0.  1.
         11   -1    0    0    0    0 -0.00000000000E+00 -0.00000000000E+00 -0.45593999997E+02  0.45594000000E+02  0.51100000000E-03 0. -1.
    9900012    2    1    2    0    0 -0.34616184046E+01 -0.14338329356E+02  0.37889234073E+02  0.50528873726E+02  0.30000042178E+02 0.  0.
         12    1    1    2    0    0  0.34616184046E+01  0.14338329356E+02 -0.37889234073E+02  0.40659126274E+02  0.00000000000E+00 0. -1.
         11    1    3    3    0    0  0.61695591868E+00 -0.10221875909E+02  0.33068599952E+02  0.34617909885E+02  0.51100000000E-03 0. -1.
        -11    1    3    3    0    0  0.28646217015E+01 -0.22608385572E+01  0.74196802619E+01  0.82685611762E+01  0.51100000000E-03 0.  1.
         12    1    3    3    0    0 -0.69431960248E+01 -0.18556148900E+01 -0.25990461412E+01  0.76424026655E+01  0.00000000000E+00 0. -1.
</event>
<event>
 7    1  0.2744502E-011  0.5052885E+02  0.7816164E-02  0.1300439E+00
        -11   -1    0    0    0    0  0.00000000000E+00  0.00000000000E+00  0.45593999997E+02  0.45594000000E+02  0.51100000000E-03 0.  1.
         11   -1    0    0    0    0 -0.00000000000E+00 -0.00000000000E+00 -0.45593999997E+02  0.45594000000E+02  0.51100000000E-03 0. -1.
    9900012    2    1    2    0    0  0.30114166669E+02 -0.65234618565E+01  0.26528242099E+02  0.50528853211E+02  0.29999979820E+02 0.  0.
         12    1    1    2    0    0 -0.30114166669E+02  0.65234618565E+01 -0.26528242099E+02  0.40659146789E+02  0.00000000000E+00 0. -1.
         11    1    3    3    0    0  0.30615611662E+02 -0.59323712643E+01  0.21400983769E+02  0.37822094241E+02  0.51100000000E-03 0. -1.
        -11    1    3    3    0    0  0.54473654862E+01 -0.90378100849E+00  0.14606536911E+01  0.57117528236E+01  0.51100000000E-03 0.  1.
         12    1    3    3    0    0 -0.59488104788E+01  0.31269041634E+00  0.36666046384E+01  0.69950061461E+01  0.00000000000E+00 0. -1.
</event>
<event>
 7    1  0.2744502E-011  0.5052886E+02  0.7816164E-02  0.1300439E+00
        -11   -1    0    0    0    0  0.00000000000E+00  0.00000000000E+00  0.45593999997E+02  0.45594000000E+02  0.51100000000E-03 0.  1.
         11   -1    0    0    0    0 -0.00000000000E+00 -0.00000000000E+00 -0.45593999997E+02  0.45594000000E+02  0.51100000000E-03 0. -1.
    9900012    2    1    2    0    0  0.20033650993E+02 -0.34076096990E+02 -0.95204226002E+01  0.50528855830E+02  0.29999987780E+02 0.  0.
         12    1    1    2    0    0 -0.20033650993E+02  0.34076096990E+02  0.95204226002E+01  0.40659144170E+02  0.00000000000E+00 0. -1.
         11    1    3    3    0    0  0.40728921788E+01 -0.78638778045E+01 -0.14914698656E+02  0.17345813936E+02  0.51100000000E-03 0. -1.
        -11    1    3    3    0    0  0.30112175882E+01 -0.14592844693E+02 -0.21822974233E+00  0.14901884850E+02  0.51100000000E-03 0.  1.
        -12    1    3    3    0    0  0.12949541226E+02 -0.11619374493E+02  0.56125057982E+01  0.18281157045E+02  0.00000000000E+00 0.  1.
</event>
<event>
 7    1  0.2744502E-011  0.5052886E+02  0.7816164E-02  0.1300439E+00
        -11   -1    0    0    0    0  0.00000000000E+00  0.00000000000E+00  0.45593999997E+02  0.45594000000E+02  0.51100000000E-03 0. -1.
         11   -1    0    0    0    0 -0.00000000000E+00 -0.00000000000E+00 -0.45593999997E+02  0.45594000000E+02  0.51100000000E-03 0.  1.
    9900012    2    1    2    0    0 -0.33484281974E+02 -0.18238299702E+02 -0.14118532871E+02  0.50528859752E+02  0.29999999701E+02 0.  0.
         12    1    1    2    0    0  0.33484281974E+02  0.18238299702E+02  0.14118532871E+02  0.40659140248E+02  0.00000000000E+00 0. -1.
         11    1    3    3    0    0 -0.21397929907E+02  0.69214031808E+00 -0.11587047709E+02  0.24343585138E+02  0.51100000000E-03 0. -1.
        -11    1    3    3    0    0 -0.63618991749E+01 -0.98781398615E+01 -0.79458492909E+01  0.14184073091E+02  0.51100000000E-03 0.  1.
        -12    1    3    3    0    0 -0.57244528921E+01 -0.90523001586E+01  0.54143641285E+01  0.12001201523E+02  0.00000000000E+00 0.  1.
</event>
<event>
 7    1  0.2744502E-011  0.5052886E+02  0.7816164E-02  0.1300439E+00
        -11   -1    0    0    0    0  0.00000000000E+00  0.00000000000E+00  0.45593999997E+02  0.45594000000E+02  0.51100000000E-03 0.  1.
         11   -1    0    0    0    0 -0.00000000000E+00 -0.00000000000E+00 -0.45593999997E+02  0.45594000000E+02  0.51100000000E-03 0. -1.
    9900012    2    1    2    0    0  0.29961372357E+02  0.18517895007E+02  0.20311803499E+02  0.50528860432E+02  0.30000001770E+02 0.  0.
         12    1    1    2    0    0 -0.29961372357E+02 -0.18517895007E+02 -0.20311803499E+02  0.40659139568E+02  0.00000000000E+00 0. -1.
         11    1    3    3    0    0  0.60870653652E+01 -0.20807122783E+01  0.61894571431E+01  0.89269876405E+01  0.51100000000E-03 0. -1.
        -11    1    3    3    0    0  0.11798895843E+02 -0.20122072288E+01  0.10087209010E+02  0.15652945631E+02  0.51100000000E-03 0.  1.
         12    1    3    3    0    0  0.12075411149E+02  0.22610814515E+02  0.40351373460E+01  0.25948927161E+02  0.00000000000E+00 0. -1.
</event>
<event>
 7    1  0.2744502E-011  0.5052885E+02  0.7816164E-02  0.1300439E+00
        -11   -1    0    0    0    0  0.00000000000E+00  0.00000000000E+00  0.45593999997E+02  0.45594000000E+02  0.51100000000E-03 0.  1.
         11   -1    0    0    0    0 -0.00000000000E+00 -0.00000000000E+00 -0.45593999997E+02  0.45594000000E+02  0.51100000000E-03 0. -1.
    9900012    2    1    2    0    0  0.22248583858E+02  0.14834645835E+02  0.30628420587E+02  0.50528851602E+02  0.29999974931E+02 0.  0.
         12    1    1    2    0    0 -0.22248583858E+02 -0.14834645835E+02 -0.30628420587E+02  0.40659148398E+02  0.00000000000E+00 0. -1.
         11    1    3    3    0    0 -0.46715894451E+01  0.23299127575E+01  0.31487077472E+01  0.60964417606E+01  0.51100000000E-03 0. -1.
        -11    1    3    3    0    0  0.13623433771E+02 -0.32685934459E+01  0.84204211873E+01  0.16345798973E+02  0.51100000000E-03 0.  1.
        -12    1    3    3    0    0  0.13296739532E+02  0.15773326524E+02  0.19059291653E+02  0.28086610869E+02  0.00000000000E+00 0.  1.
</event>
<event>
 7    1  0.2744502E-011  0.5052899E+02  0.7816164E-02  0.1300438E+00
        -11   -1    0    0    0    0  0.00000000000E+00  0.00000000000E+00  0.45593999997E+02  0.45594000000E+02  0.51100000000E-03 0.  1.
         11   -1    0    0    0    0 -0.00000000000E+00 -0.00000000000E+00 -0.45593999997E+02  0.45594000000E+02  0.51100000000E-03 0. -1.
    9900012    2    1    2    0    0  0.14382547061E+02  0.20133418625E+02  0.32263641360E+02  0.50528994118E+02  0.30000408118E+02 0.  0.
         12    1    1    2    0    0 -0.14382547061E+02 -0.20133418625E+02 -0.32263641360E+02  0.40659005882E+02  0.00000000000E+00 0. -1.
         11    1    3    3    0    0  0.74373897325E+01  0.67258543169E+01  0.12570056024E+02  0.16079744744E+02  0.51100000000E-03 0.  1.
        -11    1    3    3    0    0  0.38636322189E+01 -0.44920746798E+01 -0.19097184786E+01  0.62252239944E+01  0.51100000000E-03 0. -1.
         12    1    3    3    0    0  0.30815251091E+01  0.17899638988E+02  0.21603303815E+02  0.28224025380E+02  0.00000000000E+00 0. -1.
</event>
<event>
 7    1  0.2744502E-011  0.5052886E+02  0.7816164E-02  0.1300439E+00
        -11   -1    0    0    0    0  0.00000000000E+00  0.00000000000E+00  0.45593999997E+02  0.45594000000E+02  0.51100000000E-03 0.  1.
         11   -1    0    0    0    0 -0.00000000000E+00 -0.00000000000E+00 -0.45593999997E+02  0.45594000000E+02  0.51100000000E-03 0. -1.
    9900012    2    1    2    0    0  0.28975049751E+02 -0.21410387707E+02  0.18846954256E+02  0.50528857184E+02  0.29999991897E+02 0.  0.
         12    1    1    2    0    0 -0.28975049751E+02  0.21410387707E+02 -0.18846954256E+02  0.40659142816E+02  0.00000000000E+00 0. -1.
         11    1    3    3    0    0  0.61265339087E+01  0.34544124943E+01 -0.20290113107E+01  0.73201277704E+01  0.51100000000E-03 0. -1.
        -11    1    3    3    0    0  0.12663324681E+02 -0.58514439579E+01  0.11802747841E+01  0.13999722755E+02  0.51100000000E-03 0.  1.
         12    1    3    3    0    0  0.10185191160E+02 -0.19013356243E+02  0.19695690782E+02  0.29209006659E+02  0.00000000000E+00 0. -1.
</event>
<event>
 7    1  0.2744502E-011  0.5052885E+02  0.7816164E-02  0.1300439E+00
        -11   -1    0    0    0    0  0.00000000000E+00  0.00000000000E+00  0.45593999997E+02  0.45594000000E+02  0.51100000000E-03 0.  1.
         11   -1    0    0    0    0 -0.00000000000E+00 -0.00000000000E+00 -0.45593999997E+02  0.45594000000E+02  0.51100000000E-03 0. -1.
    9900012    2    1    2    0    0  0.21753821685E+02 -0.34160065946E+02  0.36093725467E+01  0.50528850556E+02  0.29999971751E+02 0.  0.
         12    1    1    2    0    0 -0.21753821685E+02  0.34160065946E+02 -0.36093725467E+01  0.40659149444E+02  0.00000000000E+00 0. -1.
         11    1    3    3    0    0  0.54336660132E+01 -0.62253385046E+01 -0.12689241237E+01  0.83600080462E+01  0.51100000000E-03 0. -1.
        -11    1    3    3    0    0  0.34142294315E+01 -0.23499404110E+02 -0.62557039447E+01  0.24556318703E+02  0.51100000000E-03 0.  1.
         12    1    3    3    0    0  0.12905926240E+02 -0.44353233306E+01  0.11134000615E+02  0.17612523807E+02  0.00000000000E+00 0. -1.
</event>
<event>
 7    1  0.2744502E-011  0.5052887E+02  0.7816164E-02  0.1300439E+00
        -11   -1    0    0    0    0  0.00000000000E+00  0.00000000000E+00  0.45593999997E+02  0.45594000000E+02  0.51100000000E-03 0.  1.
         11   -1    0    0    0    0 -0.00000000000E+00 -0.00000000000E+00 -0.45593999997E+02  0.45594000000E+02  0.51100000000E-03 0. -1.
    9900012    2    1    2    0    0 -0.72204229468E+01 -0.34352737231E+02  0.20516338898E+02  0.50528865423E+02  0.30000016941E+02 0.  0.
         12    1    1    2    0    0  0.72204229468E+01  0.34352737231E+02 -0.20516338898E+02  0.40659134577E+02  0.00000000000E+00 0. -1.
         11    1    3    3    0    0 -0.56795709500E+01 -0.77381402559E+01 -0.14492348394E+01  0.97075549278E+01  0.51100000000E-03 0. -1.
        -11    1    3    3    0    0 -0.77582760562E+00 -0.82465394227E+01 -0.38458056816E+01  0.91322254968E+01  0.51100000000E-03 0.  1.
        -12    1    3    3    0    0 -0.76502439117E+00 -0.18368057552E+02  0.25811379419E+02  0.31689084999E+02  0.00000000000E+00 0.  1.
</event>
<event>
 7    1  0.2744502E-011  0.5052886E+02  0.7816164E-02  0.1300439E+00
        -11   -1    0    0    0    0  0.00000000000E+00  0.00000000000E+00  0.45593999997E+02  0.45594000000E+02  0.51100000000E-03 0.  1.
         11   -1    0    0    0    0 -0.00000000000E+00 -0.00000000000E+00 -0.45593999997E+02  0.45594000000E+02  0.51100000000E-03 0. -1.
    9900012    2    1    2    0    0  0.15893559240E+02 -0.15105265445E+02  0.34240204064E+02  0.50528857808E+02  0.29999993792E+02 0.  0.
         12    1    1    2    0    0 -0.15893559240E+02  0.15105265445E+02 -0.34240204064E+02  0.40659142192E+02  0.00000000000E+00 0. -1.
         11    1    3    3    0    0 -0.69152974183E+00  0.39778902486E+00 -0.80746035242E+00  0.11350955792E+01  0.51100000000E-03 0. -1.
        -11    1    3    3    0    0 -0.61211629211E+01 -0.50937695845E+01  0.24608283314E+01  0.83349145421E+01  0.51100000000E-03 0.  1.
        -12    1    3    3    0    0  0.22706251903E+02 -0.10409284885E+02  0.32586836085E+02  0.41058847686E+02  0.00000000000E+00 0.  1.
</event>
<event>
 7    1  0.2744502E-011  0.5052885E+02  0.7816164E-02  0.1300439E+00
        -11   -1    0    0    0    0  0.00000000000E+00  0.00000000000E+00  0.45593999997E+02  0.45594000000E+02  0.51100000000E-03 0. -1.
         11   -1    0    0    0    0 -0.00000000000E+00 -0.00000000000E+00 -0.45593999997E+02  0.45594000000E+02  0.51100000000E-03 0.  1.
    9900012    2    1    2    0    0  0.85444049694E+00 -0.40483581670E+02 -0.36764071663E+01  0.50528850685E+02  0.29999972142E+02 0.  0.
         12    1    1    2    0    0 -0.85444049694E+00  0.40483581670E+02  0.36764071663E+01  0.40659149315E+02  0.00000000000E+00 0. -1.
         11    1    3    3    0    0  0.33677385424E+01 -0.13949814819E+01  0.67269285857E+01  0.76510917315E+01  0.51100000000E-03 0. -1.
        -11    1    3    3    0    0  0.43886520661E+01 -0.79614164043E+01  0.69677643722E+00  0.91175608463E+01  0.51100000000E-03 0.  1.
        -12    1    3    3    0    0 -0.69019501116E+01 -0.31127183783E+02 -0.11100112189E+02  0.33760198107E+02  0.00000000000E+00 0.  1.
</event>
<event>
 7    1  0.2744502E-011  0.5052885E+02  0.7816164E-02  0.1300439E+00
        -11   -1    0    0    0    0  0.00000000000E+00  0.00000000000E+00  0.45593999997E+02  0.45594000000E+02  0.51100000000E-03 0. -1.
         11   -1    0    0    0    0 -0.00000000000E+00 -0.00000000000E+00 -0.45593999997E+02  0.45594000000E+02  0.51100000000E-03 0.  1.
    9900012    2    1    2    0    0 -0.37607153233E+02 -0.15383822452E+02 -0.14855493534E+01  0.50528845750E+02  0.29999957141E+02 0.  0.
         12    1    1    2    0    0  0.37607153233E+02  0.15383822452E+02  0.14855493534E+01  0.40659154250E+02  0.00000000000E+00 0. -1.
         11    1    3    3    0    0 -0.29544762106E+02 -0.13642503295E+01 -0.43413566335E+01  0.29893168526E+02  0.51100000000E-03 0. -1.
        -11    1    3    3    0    0 -0.64154063747E+01 -0.41843498195E+01 -0.38954866768E+01  0.85930808838E+01  0.51100000000E-03 0.  1.
         12    1    3    3    0    0 -0.16469847521E+01 -0.98352223025E+01  0.67512939568E+01  0.12042596340E+02  0.00000000000E+00 0. -1.
</event>
<event>
 7    1  0.2744502E-011  0.5052886E+02  0.7816164E-02  0.1300439E+00
        -11   -1    0    0    0    0  0.00000000000E+00  0.00000000000E+00  0.45593999997E+02  0.45594000000E+02  0.51100000000E-03 0. -1.
         11   -1    0    0    0    0 -0.00000000000E+00 -0.00000000000E+00 -0.45593999997E+02  0.45594000000E+02  0.51100000000E-03 0.  1.
    9900012    2    1    2    0    0  0.30106348417E+02  0.13854810783E+02 -0.23554568838E+02  0.50528859453E+02  0.29999998794E+02 0.  0.
         12    1    1    2    0    0 -0.30106348417E+02 -0.13854810783E+02  0.23554568838E+02  0.40659140547E+02  0.00000000000E+00 0. -1.
         11    1    3    3    0    0  0.16773846760E+02 -0.25364241076E+01 -0.11282773788E+02  0.20373913885E+02  0.51100000000E-03 0. -1.
        -11    1    3    3    0    0  0.14672045230E+02  0.93624269405E+01 -0.18354025619E+01  0.17501218594E+02  0.51100000000E-03 0.  1.
        -12    1    3    3    0    0 -0.13395435722E+01  0.70288079501E+01 -0.10436392488E+02  0.12653726975E+02  0.00000000000E+00 0.  1.
</event>
<event>
 7    1  0.2744502E-011  0.5052885E+02  0.7816164E-02  0.1300439E+00
        -11   -1    0    0    0    0  0.00000000000E+00  0.00000000000E+00  0.45593999997E+02  0.45594000000E+02  0.51100000000E-03 0.  1.
         11   -1    0    0    0    0 -0.00000000000E+00 -0.00000000000E+00 -0.45593999997E+02  0.45594000000E+02  0.51100000000E-03 0. -1.
    9900012    2    1    2    0    0 -0.19608013925E+02 -0.46292332653E+01  0.35316605718E+02  0.50528847892E+02  0.29999963652E+02 0.  0.
         12    1    1    2    0    0  0.19608013925E+02  0.46292332653E+01 -0.35316605718E+02  0.40659152108E+02  0.00000000000E+00 0. -1.
         11    1    3    3    0    0 -0.16559619827E+02  0.71481776703E+01  0.14801701077E+02  0.23332548251E+02  0.51100000000E-03 0. -1.
        -11    1    3    3    0    0 -0.29713806004E+01  0.15174789114E+01  0.90328900682E+01  0.96293794277E+01  0.51100000000E-03 0.  1.
         12    1    3    3    0    0 -0.77013496739E-01 -0.13294889847E+02  0.11482014573E+02  0.17566920214E+02  0.00000000000E+00 0. -1.
</event>
<event>
 7    1  0.2744502E-011  0.5052886E+02  0.7816164E-02  0.1300439E+00
        -11   -1    0    0    0    0  0.00000000000E+00  0.00000000000E+00  0.45593999997E+02  0.45594000000E+02  0.51100000000E-03 0. -1.
         11   -1    0    0    0    0 -0.00000000000E+00 -0.00000000000E+00 -0.45593999997E+02  0.45594000000E+02  0.51100000000E-03 0.  1.
    9900012    2    1    2    0    0  0.26442828762E+02  0.96402177072E+01  0.29342945054E+02  0.50528863084E+02  0.30000009830E+02 0.  0.
         12    1    1    2    0    0 -0.26442828762E+02 -0.96402177072E+01 -0.29342945054E+02  0.40659136916E+02  0.00000000000E+00 0. -1.
         11    1    3    3    0    0  0.86206394956E+01  0.85444389820E+00  0.23738137178E+02  0.25269441162E+02  0.51100000000E-03 0. -1.
        -11    1    3    3    0    0 -0.19367427093E+01 -0.61599330875E+00  0.23989940539E+01  0.31441362582E+01  0.51100000000E-03 0.  1.
        -12    1    3    3    0    0  0.19758931975E+02  0.94017671177E+01  0.32058138218E+01  0.22115285664E+02  0.00000000000E+00 0.  1.
</event>
<event>
 7    1  0.2744502E-011  0.5052886E+02  0.7816164E-02  0.1300439E+00
        -11   -1    0    0    0    0  0.00000000000E+00  0.00000000000E+00  0.45593999997E+02  0.45594000000E+02  0.51100000000E-03 0.  1.
         11   -1    0    0    0    0 -0.00000000000E+00 -0.00000000000E+00 -0.45593999997E+02  0.45594000000E+02  0.51100000000E-03 0. -1.
    9900012    2    1    2    0    0  0.22976818954E+02 -0.60361832933E+01  0.32996913853E+02  0.50528855373E+02  0.29999986391E+02 0.  0.
         12    1    1    2    0    0 -0.22976818954E+02  0.60361832933E+01 -0.32996913853E+02  0.40659144627E+02  0.00000000000E+00 0. -1.
         11    1    3    3    0    0 -0.35673181645E+01 -0.82779068559E+00  0.19098243530E+01  0.41301846964E+01  0.51100000000E-03 0. -1.
        -11    1    3    3    0    0 -0.36130452101E+01  0.10674105785E+00  0.50096251086E+01  0.61775264737E+01  0.51100000000E-03 0.  1.
        -12    1    3    3    0    0  0.30157182328E+02 -0.53151336655E+01  0.26077464392E+02  0.40221144203E+02  0.00000000000E+00 0.  1.
</event>
<event>
 7    1  0.2744502E-011  0.5052886E+02  0.7816164E-02  0.1300439E+00
        -11   -1    0    0    0    0  0.00000000000E+00  0.00000000000E+00  0.45593999997E+02  0.45594000000E+02  0.51100000000E-03 0.  1.
         11   -1    0    0    0    0 -0.00000000000E+00 -0.00000000000E+00 -0.45593999997E+02  0.45594000000E+02  0.51100000000E-03 0. -1.
    9900012    2    1    2    0    0 -0.13074620723E+02 -0.36799333312E+02  0.11314991247E+02  0.50528859992E+02  0.30000000431E+02 0.  0.
         12    1    1    2    0    0  0.13074620723E+02  0.36799333312E+02 -0.11314991247E+02  0.40659140008E+02  0.00000000000E+00 0. -1.
         11    1    3    3    0    0 -0.18101072202E+02 -0.19714993811E+02  0.70921605854E+01  0.27688057675E+02  0.51100000000E-03 0. -1.
        -11    1    3    3    0    0  0.17789567839E+01  0.17725341038E+01 -0.14285986913E+01  0.28891969248E+01  0.51100000000E-03 0.  1.
        -12    1    3    3    0    0  0.32474946946E+01 -0.18856873606E+02  0.56514293530E+01  0.19951605391E+02  0.00000000000E+00 0.  1.
</event>
<event>
 7    1  0.2744502E-011  0.5052892E+02  0.7816164E-02  0.1300439E+00
        -11   -1    0    0    0    0  0.00000000000E+00  0.00000000000E+00  0.45593999997E+02  0.45594000000E+02  0.51100000000E-03 0. -1.
         11   -1    0    0    0    0 -0.00000000000E+00 -0.00000000000E+00 -0.45593999997E+02  0.45594000000E+02  0.51100000000E-03 0.  1.
    9900012    2    1    2    0    0  0.57256320811E+01 -0.28530033676E+02 -0.28397443785E+02  0.50528923549E+02  0.30000193620E+02 0.  0.
         12    1    1    2    0    0 -0.57256320811E+01  0.28530033676E+02  0.28397443785E+02  0.40659076451E+02  0.00000000000E+00 0. -1.
         11    1    3    3    0    0  0.50295911601E+01 -0.12743540575E+02 -0.10419154402E+02  0.17212013024E+02  0.51100000000E-03 0.  1.
        -11    1    3    3    0    0 -0.33777524898E+01 -0.20118492716E+02 -0.84406419997E+01  0.22077305059E+02  0.51100000000E-03 0. -1.
         12    1    3    3    0    0  0.40737934108E+01  0.43319996153E+01 -0.95376473833E+01  0.11239605466E+02  0.00000000000E+00 0. -1.
</event>
<event>
 7    1  0.2744502E-011  0.5052885E+02  0.7816164E-02  0.1300439E+00
        -11   -1    0    0    0    0  0.00000000000E+00  0.00000000000E+00  0.45593999997E+02  0.45594000000E+02  0.51100000000E-03 0.  1.
         11   -1    0    0    0    0 -0.00000000000E+00 -0.00000000000E+00 -0.45593999997E+02  0.45594000000E+02  0.51100000000E-03 0. -1.
    9900012    2    1    2    0    0  0.16881181968E+02 -0.24120100923E+02  0.28043056577E+02  0.50528848566E+02  0.29999965700E+02 0.  0.
         12    1    1    2    0    0 -0.16881181968E+02  0.24120100923E+02 -0.28043056577E+02  0.40659151434E+02  0.00000000000E+00 0. -1.
         11    1    3    3    0    0  0.77499270127E+01 -0.32782939480E+01  0.18012182200E+02  0.19880827140E+02  0.51100000000E-03 0. -1.
        -11    1    3    3    0    0  0.52303641311E+01 -0.62746591113E+01  0.12927347171E+02  0.15291970476E+02  0.51100000000E-03 0.  1.
         12    1    3    3    0    0  0.39008908245E+01 -0.14567147864E+02 -0.28964727938E+01  0.15356050949E+02  0.00000000000E+00 0. -1.
</event>
<event>
 7    1  0.2744502E-011  0.5052886E+02  0.7816164E-02  0.1300439E+00
        -11   -1    0    0    0    0  0.00000000000E+00  0.00000000000E+00  0.45593999997E+02  0.45594000000E+02  0.51100000000E-03 0.  1.
         11   -1    0    0    0    0 -0.00000000000E+00 -0.00000000000E+00 -0.45593999997E+02  0.45594000000E+02  0.51100000000E-03 0. -1.
    9900012    2    1    2    0    0 -0.37265179927E+02  0.15476567810E+02  0.49947941784E+01  0.50528858899E+02  0.29999997109E+02 0.  0.
         12    1    1    2    0    0  0.37265179927E+02 -0.15476567810E+02 -0.49947941784E+01  0.40659141101E+02  0.00000000000E+00 0. -1.
         11    1    3    3    0    0 -0.31133489764E+01  0.82037741457E+01 -0.29179426680E+01  0.92471207280E+01  0.51100000000E-03 0. -1.
        -11    1    3    3    0    0  0.45776942005E+00  0.41729928134E+01 -0.26489923264E+01  0.49639281289E+01  0.51100000000E-03 0.  1.
        -12    1    3    3    0    0 -0.34609600371E+02  0.30998008514E+01  0.10561729173E+02  0.36317810042E+02  0.00000000000E+00 0.  1.
</event>
<event>
 7    1  0.2744502E-011  0.5052886E+02  0.7816164E-02  0.1300439E+00
        -11   -1    0    0    0    0  0.00000000000E+00  0.00000000000E+00  0.45593999997E+02  0.45594000000E+02  0.51100000000E-03 0. -1.
         11   -1    0    0    0    0 -0.00000000000E+00 -0.00000000000E+00 -0.45593999997E+02  0.45594000000E+02  0.51100000000E-03 0.  1.
    9900012    2    1    2    0    0 -0.34194566773E+02 -0.10346418713E+02 -0.19412594654E+02  0.50528860706E+02  0.30000002601E+02 0.  0.
         12    1    1    2    0    0  0.34194566773E+02  0.10346418713E+02  0.19412594654E+02  0.40659139294E+02  0.00000000000E+00 0. -1.
         11    1    3    3    0    0  0.30550044369E+01 -0.52380593655E+01 -0.19973207030E+01  0.63843252014E+01  0.51100000000E-03 0. -1.
        -11    1    3    3    0    0  0.98341383194E+00  0.12707235024E+01 -0.16396456940E+01  0.22957088769E+01  0.51100000000E-03 0.  1.
        -12    1    3    3    0    0 -0.38232985041E+02 -0.63790828498E+01 -0.15775628257E+02  0.41848826627E+02  0.00000000000E+00 0.  1.
</event>
<event>
 7    1  0.2744502E-011  0.5052886E+02  0.7816164E-02  0.1300439E+00
        -11   -1    0    0    0    0  0.00000000000E+00  0.00000000000E+00  0.45593999997E+02  0.45594000000E+02  0.51100000000E-03 0.  1.
         11   -1    0    0    0    0 -0.00000000000E+00 -0.00000000000E+00 -0.45593999997E+02  0.45594000000E+02  0.51100000000E-03 0. -1.
    9900012    2    1    2    0    0  0.34947358171E+02  0.10921641480E+01  0.20752229850E+02  0.50528859461E+02  0.29999998817E+02 0.  0.
         12    1    1    2    0    0 -0.34947358171E+02 -0.10921641480E+01 -0.20752229850E+02  0.40659140539E+02  0.00000000000E+00 0. -1.
         11    1    3    3    0    0  0.77542711724E+01 -0.69276044692E+01  0.49352343515E+01  0.11509863746E+02  0.51100000000E-03 0. -1.
        -11    1    3    3    0    0  0.11581316460E+02 -0.71182779422E+01  0.86930107854E+01  0.16135836160E+02  0.51100000000E-03 0.  1.
         12    1    3    3    0    0  0.15611770539E+02  0.15138046559E+02  0.71239847126E+01  0.22883159554E+02  0.00000000000E+00 0. -1.
</event>
<event>
 7    1  0.2744502E-011  0.5052887E+02  0.7816164E-02  0.1300439E+00
        -11   -1    0    0    0    0  0.00000000000E+00  0.00000000000E+00  0.45593999997E+02  0.45594000000E+02  0.51100000000E-03 0.  1.
         11   -1    0    0    0    0 -0.00000000000E+00 -0.00000000000E+00 -0.45593999997E+02  0.45594000000E+02  0.51100000000E-03 0. -1.
    9900012    2    1    2    0    0  0.11828968192E+02 -0.51364680714E+01  0.38559787247E+02  0.50528868366E+02  0.30000025885E+02 0.  0.
         12    1    1    2    0    0 -0.11828968192E+02  0.51364680714E+01 -0.38559787247E+02  0.40659131634E+02  0.00000000000E+00 0. -1.
         11    1    3    3    0    0 -0.15991591397E+01  0.97814568784E+00  0.36044160629E+00  0.19089257066E+01  0.51100000000E-03 0. -1.
        -11    1    3    3    0    0 -0.73311023438E+01  0.96948331741E+00  0.14815657446E+02  0.16558643221E+02  0.51100000000E-03 0.  1.
        -12    1    3    3    0    0  0.20759229676E+02 -0.70840970767E+01  0.23383688194E+02  0.32061299438E+02  0.00000000000E+00 0.  1.
</event>
<event>
 7    1  0.2744502E-011  0.5052887E+02  0.7816164E-02  0.1300439E+00
        -11   -1    0    0    0    0  0.00000000000E+00  0.00000000000E+00  0.45593999997E+02  0.45594000000E+02  0.51100000000E-03 0.  1.
         11   -1    0    0    0    0 -0.00000000000E+00 -0.00000000000E+00 -0.45593999997E+02  0.45594000000E+02  0.51100000000E-03 0. -1.
    9900012    2    1    2    0    0  0.96019442097E+01  0.19468183731E+02  0.34379611426E+02  0.50528865821E+02  0.30000018148E+02 0.  0.
         12    1    1    2    0    0 -0.96019442097E+01 -0.19468183731E+02 -0.34379611426E+02  0.40659134179E+02  0.00000000000E+00 0. -1.
         11    1    3    3    0    0  0.24835888562E+01 -0.65527646848E+00  0.22850809139E+01  0.34379057435E+01  0.51100000000E-03 0. -1.
        -11    1    3    3    0    0  0.10982634331E+02 -0.17620323969E+01  0.16664129702E+02  0.20035374566E+02  0.51100000000E-03 0.  1.
        -12    1    3    3    0    0 -0.38642789773E+01  0.21885492596E+02  0.15430400811E+02  0.27055585512E+02  0.00000000000E+00 0.  1.
</event>
<event>
 7    1  0.2744502E-011  0.5052884E+02  0.7816164E-02  0.1300439E+00
        -11   -1    0    0    0    0  0.00000000000E+00  0.00000000000E+00  0.45593999997E+02  0.45594000000E+02  0.51100000000E-03 0. -1.
         11   -1    0    0    0    0 -0.00000000000E+00 -0.00000000000E+00 -0.45593999997E+02  0.45594000000E+02  0.51100000000E-03 0.  1.
    9900012    2    1    2    0    0  0.29383575866E+02  0.30331923825E+01 -0.27938721599E+02  0.50528844189E+02  0.29999952396E+02 0.  0.
         12    1    1    2    0    0 -0.29383575866E+02 -0.30331923825E+01  0.27938721599E+02  0.40659155811E+02  0.00000000000E+00 0. -1.
         11    1    3    3    0    0  0.42372837646E+00 -0.54606170862E+01 -0.73249136964E+01  0.91461601571E+01  0.51100000000E-03 0. -1.
        -11    1    3    3    0    0  0.28361987074E+02  0.14356020677E+01 -0.13878266329E+02  0.31608061324E+02  0.51100000000E-03 0.  1.
         12    1    3    3    0    0  0.59786041496E+00  0.70582074010E+01 -0.67355415733E+01  0.97746227077E+01  0.00000000000E+00 0. -1.
</event>
<event>
 7    1  0.2744502E-011  0.5052886E+02  0.7816164E-02  0.1300439E+00
        -11   -1    0    0    0    0  0.00000000000E+00  0.00000000000E+00  0.45593999997E+02  0.45594000000E+02  0.51100000000E-03 0.  1.
         11   -1    0    0    0    0 -0.00000000000E+00 -0.00000000000E+00 -0.45593999997E+02  0.45594000000E+02  0.51100000000E-03 0. -1.
    9900012    2    1    2    0    0  0.47573089962E+01  0.37186965998E+02  0.15737316650E+02  0.50528861244E+02  0.30000004237E+02 0.  0.
         12    1    1    2    0    0 -0.47573089962E+01 -0.37186965998E+02 -0.15737316650E+02  0.40659138756E+02  0.00000000000E+00 0. -1.
         11    1    3    3    0    0 -0.55611884269E+00  0.64464141884E+01  0.73821937704E+01  0.98164305723E+01  0.51100000000E-03 0. -1.
        -11    1    3    3    0    0  0.71097297620E+01  0.16280805536E+02  0.16305248475E+02  0.24113772295E+02  0.51100000000E-03 0.  1.
         12    1    3    3    0    0 -0.17963019231E+01  0.14459746274E+02 -0.79501255963E+01  0.16598658376E+02  0.00000000000E+00 0. -1.
</event>
<event>
 7    1  0.2744502E-011  0.5052886E+02  0.7816164E-02  0.1300439E+00
        -11   -1    0    0    0    0  0.00000000000E+00  0.00000000000E+00  0.45593999997E+02  0.45594000000E+02  0.51100000000E-03 0. -1.
         11   -1    0    0    0    0 -0.00000000000E+00 -0.00000000000E+00 -0.45593999997E+02  0.45594000000E+02  0.51100000000E-03 0.  1.
    9900012    2    1    2    0    0  0.29096743255E+02 -0.28226442030E+02  0.31326554105E+01  0.50528855547E+02  0.29999986922E+02 0.  0.
         12    1    1    2    0    0 -0.29096743255E+02  0.28226442030E+02 -0.31326554105E+01  0.40659144453E+02  0.00000000000E+00 0. -1.
         11    1    3    3    0    0  0.19418927819E+02 -0.11106653370E+02 -0.41754670230E+01  0.22757131450E+02  0.51100000000E-03 0.  1.
        -11    1    3    3    0    0  0.56302194197E+01  0.18374550843E+01 -0.20227292687E+01  0.62583580799E+01  0.51100000000E-03 0. -1.
         12    1    3    3    0    0  0.40475960158E+01 -0.18957243745E+02  0.93308517021E+01  0.21513366017E+02  0.00000000000E+00 0. -1.
</event>
<event>
 7    1  0.2744502E-011  0.5052888E+02  0.7816164E-02  0.1300439E+00
        -11   -1    0    0    0    0  0.00000000000E+00  0.00000000000E+00  0.45593999997E+02  0.45594000000E+02  0.51100000000E-03 0. -1.
         11   -1    0    0    0    0 -0.00000000000E+00 -0.00000000000E+00 -0.45593999997E+02  0.45594000000E+02  0.51100000000E-03 0.  1.
    9900012    2    1    2    0    0  0.36421496839E+02  0.14336106486E+02  0.11005226645E+02  0.50528875628E+02  0.30000047960E+02 0.  0.
         12    1    1    2    0    0 -0.36421496839E+02 -0.14336106486E+02 -0.11005226645E+02  0.40659124372E+02  0.00000000000E+00 0. -1.
         11    1    3    3    0    0  0.15632866544E+02 -0.13737686937E+01 -0.43810488130E+01  0.16293168684E+02  0.51100000000E-03 0. -1.
        -11    1    3    3    0    0  0.10441313075E+02  0.49817268397E+01 -0.15528239473E+01  0.11672612540E+02  0.51100000000E-03 0.  1.
         12    1    3    3    0    0  0.10347317221E+02  0.10728148340E+02  0.16939099405E+02  0.22563094405E+02  0.00000000000E+00 0. -1.
</event>
<event>
 7    1  0.2744502E-011  0.5052886E+02  0.7816164E-02  0.1300439E+00
        -11   -1    0    0    0    0  0.00000000000E+00  0.00000000000E+00  0.45593999997E+02  0.45594000000E+02  0.51100000000E-03 0.  1.
         11   -1    0    0    0    0 -0.00000000000E+00 -0.00000000000E+00 -0.45593999997E+02  0.45594000000E+02  0.51100000000E-03 0. -1.
    9900012    2    1    2    0    0 -0.94354708155E+01  0.12655737707E+02  0.37469589624E+02  0.50528856465E+02  0.29999989711E+02 0.  0.
         12    1    1    2    0    0  0.94354708155E+01 -0.12655737707E+02 -0.37469589624E+02  0.40659143535E+02  0.00000000000E+00 0. -1.
         11    1    3    3    0    0 -0.12414713130E+01 -0.32408539754E+01  0.14535381943E+02  0.14943952422E+02  0.51100000000E-03 0. -1.
        -11    1    3    3    0    0  0.12349468551E+01 -0.40324229866E+01  0.70350586308E+00  0.42755642479E+01  0.51100000000E-03 0.  1.
        -12    1    3    3    0    0 -0.94289463576E+01  0.19929014669E+02  0.22230701818E+02  0.31309339795E+02  0.00000000000E+00 0.  1.
</event>
<event>
 7    1  0.2744502E-011  0.5052886E+02  0.7816164E-02  0.1300439E+00
        -11   -1    0    0    0    0  0.00000000000E+00  0.00000000000E+00  0.45593999997E+02  0.45594000000E+02  0.51100000000E-03 0.  1.
         11   -1    0    0    0    0 -0.00000000000E+00 -0.00000000000E+00 -0.45593999997E+02  0.45594000000E+02  0.51100000000E-03 0. -1.
    9900012    2    1    2    0    0  0.24373793381E+02 -0.68805670935E+00  0.32536289236E+02  0.50528863966E+02  0.30000012511E+02 0.  0.
         12    1    1    2    0    0 -0.24373793381E+02  0.68805670935E+00 -0.32536289236E+02  0.40659136034E+02  0.00000000000E+00 0. -1.
         11    1    3    3    0    0  0.60888295255E+01 -0.49981754739E+01  0.69644592994E+01  0.10514718097E+02  0.51100000000E-03 0. -1.
        -11    1    3    3    0    0 -0.11154500321E+01 -0.71261327852E+01  0.21606324517E+01  0.75295637389E+01  0.51100000000E-03 0.  1.
        -12    1    3    3    0    0  0.19400413887E+02  0.11436251550E+02  0.23411197485E+02  0.32484582130E+02  0.00000000000E+00 0.  1.
</event>
<event>
 7    1  0.2744502E-011  0.5052886E+02  0.7816164E-02  0.1300439E+00
        -11   -1    0    0    0    0  0.00000000000E+00  0.00000000000E+00  0.45593999997E+02  0.45594000000E+02  0.51100000000E-03 0. -1.
         11   -1    0    0    0    0 -0.00000000000E+00 -0.00000000000E+00 -0.45593999997E+02  0.45594000000E+02  0.51100000000E-03 0.  1.
    9900012    2    1    2    0    0  0.52383678213E+01 -0.13255392682E+02 -0.38079127075E+02  0.50528857715E+02  0.29999993509E+02 0.  0.
         12    1    1    2    0    0 -0.52383678213E+01  0.13255392682E+02  0.38079127075E+02  0.40659142285E+02  0.00000000000E+00 0. -1.
         11    1    3    3    0    0 -0.86070779652E+00  0.28500163658E+01 -0.23467230742E+02  0.23655323506E+02  0.51100000000E-03 0. -1.
        -11    1    3    3    0    0  0.40307873973E-01 -0.58466717916E+01 -0.13734223698E+02  0.14926958719E+02  0.51100000000E-03 0.  1.
         12    1    3    3    0    0  0.60587677439E+01 -0.10258737256E+02 -0.87767263483E+00  0.11946575489E+02  0.00000000000E+00 0. -1.
</event>
<event>
 7    1  0.2744502E-011  0.5052886E+02  0.7816164E-02  0.1300439E+00
        -11   -1    0    0    0    0  0.00000000000E+00  0.00000000000E+00  0.45593999997E+02  0.45594000000E+02  0.51100000000E-03 0. -1.
         11   -1    0    0    0    0 -0.00000000000E+00 -0.00000000000E+00 -0.45593999997E+02  0.45594000000E+02  0.51100000000E-03 0.  1.
    9900012    2    1    2    0    0 -0.65972973607E+01  0.33728912618E+02 -0.21725599061E+02  0.50528861625E+02  0.30000005395E+02 0.  0.
         12    1    1    2    0    0  0.65972973607E+01 -0.33728912618E+02  0.21725599061E+02  0.40659138375E+02  0.00000000000E+00 0. -1.
         11    1    3    3    0    0  0.37121250241E+00  0.48594936959E+01 -0.47788423273E+01  0.68256730037E+01  0.51100000000E-03 0. -1.
        -11    1    3    3    0    0 -0.83774405222E+01  0.33804166025E+02 -0.12797215992E+02  0.37103529317E+02  0.51100000000E-03 0.  1.
         12    1    3    3    0    0  0.14089306591E+01 -0.49347471030E+01 -0.41495407412E+01  0.65996593045E+01  0.00000000000E+00 0. -1.
</event>
<event>
 7    1  0.2744502E-011  0.5052885E+02  0.7816164E-02  0.1300439E+00
        -11   -1    0    0    0    0  0.00000000000E+00  0.00000000000E+00  0.45593999997E+02  0.45594000000E+02  0.51100000000E-03 0.  1.
         11   -1    0    0    0    0 -0.00000000000E+00 -0.00000000000E+00 -0.45593999997E+02  0.45594000000E+02  0.51100000000E-03 0. -1.
    9900012    2    1    2    0    0 -0.19930865726E+02  0.77440881375E+01  0.34582600567E+02  0.50528848857E+02  0.29999966587E+02 0.  0.
         12    1    1    2    0    0  0.19930865726E+02 -0.77440881375E+01 -0.34582600567E+02  0.40659151143E+02  0.00000000000E+00 0. -1.
         11    1    3    3    0    0  0.21074798609E+01  0.71695666912E+00 -0.27091159788E+01  0.35063952825E+01  0.51100000000E-03 0. -1.
        -11    1    3    3    0    0 -0.31891381674E+01 -0.66336898481E+00 -0.12060194080E+01  0.34734915768E+01  0.51100000000E-03 0.  1.
        -12    1    3    3    0    0 -0.18849207419E+02  0.76905004532E+01  0.38497735954E+02  0.43548961998E+02  0.00000000000E+00 0.  1.
</event>
<event>
 7    1  0.2744502E-011  0.5052887E+02  0.7816164E-02  0.1300439E+00
        -11   -1    0    0    0    0  0.00000000000E+00  0.00000000000E+00  0.45593999997E+02  0.45594000000E+02  0.51100000000E-03 0.  1.
         11   -1    0    0    0    0 -0.00000000000E+00 -0.00000000000E+00 -0.45593999997E+02  0.45594000000E+02  0.51100000000E-03 0. -1.
    9900012    2    1    2    0    0  0.17370388872E+02  0.24096582319E+02  0.27763090648E+02  0.50528869520E+02  0.30000029394E+02 0.  0.
         12    1    1    2    0    0 -0.17370388872E+02 -0.24096582319E+02 -0.27763090648E+02  0.40659130480E+02  0.00000000000E+00 0. -1.
         11    1    3    3    0    0  0.68493035920E+01 -0.38066348725E+01  0.40003366032E+01  0.87980749001E+01  0.51100000000E-03 0. -1.
        -11    1    3    3    0    0 -0.35141719033E+01  0.11213106840E+02  0.43353690338E+01  0.12525118526E+02  0.51100000000E-03 0.  1.
        -12    1    3    3    0    0  0.14035257183E+02  0.16690110352E+02  0.19427385011E+02  0.29205676095E+02  0.00000000000E+00 0.  1.
</event>
<event>
 7    1  0.2744502E-011  0.5052882E+02  0.7816164E-02  0.1300439E+00
        -11   -1    0    0    0    0  0.00000000000E+00  0.00000000000E+00  0.45593999997E+02  0.45594000000E+02  0.51100000000E-03 0.  1.
         11   -1    0    0    0    0 -0.00000000000E+00 -0.00000000000E+00 -0.45593999997E+02  0.45594000000E+02  0.51100000000E-03 0. -1.
    9900012    2    1    2    0    0  0.13025565069E+02 -0.25630780782E+02  0.28750074139E+02  0.50528818603E+02  0.29999874627E+02 0.  0.
         12    1    1    2    0    0 -0.13025565069E+02  0.25630780782E+02 -0.28750074139E+02  0.40659181397E+02  0.00000000000E+00 0. -1.
         11    1    3    3    0    0 -0.43390494570E+01 -0.29123028325E+01  0.98425460891E+01  0.11143813160E+02  0.51100000000E-03 0. -1.
        -11    1    3    3    0    0 -0.12300344540E+01 -0.12418885415E+02  0.11217473746E+02  0.16780149499E+02  0.51100000000E-03 0.  1.
         12    1    3    3    0    0  0.18594648980E+02 -0.10299592534E+02  0.76900543041E+01  0.22604855944E+02  0.00000000000E+00 0. -1.
</event>
<event>
 7    1  0.2744502E-011  0.5052885E+02  0.7816164E-02  0.1300439E+00
        -11   -1    0    0    0    0  0.00000000000E+00  0.00000000000E+00  0.45593999997E+02  0.45594000000E+02  0.51100000000E-03 0.  1.
         11   -1    0    0    0    0 -0.00000000000E+00 -0.00000000000E+00 -0.45593999997E+02  0.45594000000E+02  0.51100000000E-03 0. -1.
    9900012    2    1    2    0    0  0.25036592085E+02  0.30832237623E+02 -0.87010639495E+01  0.50528851780E+02  0.29999975471E+02 0.  0.
         12    1    1    2    0    0 -0.25036592085E+02 -0.30832237623E+02  0.87010639495E+01  0.40659148220E+02  0.00000000000E+00 0. -1.
         11    1    3    3    0    0 -0.14139695375E+01 -0.14984732767E+01  0.20934994678E+00  0.20708837909E+01  0.51100000000E-03 0. -1.
        -11    1    3    3    0    0 -0.32901731697E+01  0.86959607386E+01  0.53513660650E+00  0.93129664502E+01  0.51100000000E-03 0.  1.
         12    1    3    3    0    0  0.29740734793E+02  0.23634750161E+02 -0.94455505028E+01  0.39145001539E+02  0.00000000000E+00 0. -1.
</event>
<event>
 7    1  0.2744502E-011  0.5052886E+02  0.7816164E-02  0.1300439E+00
        -11   -1    0    0    0    0  0.00000000000E+00  0.00000000000E+00  0.45593999997E+02  0.45594000000E+02  0.51100000000E-03 0.  1.
         11   -1    0    0    0    0 -0.00000000000E+00 -0.00000000000E+00 -0.45593999997E+02  0.45594000000E+02  0.51100000000E-03 0. -1.
    9900012    2    1    2    0    0 -0.10814367059E+02 -0.34067615615E+02  0.19380736937E+02  0.50528856713E+02  0.29999990466E+02 0.  0.
         12    1    1    2    0    0  0.10814367059E+02  0.34067615615E+02 -0.19380736937E+02  0.40659143287E+02  0.00000000000E+00 0. -1.
         11    1    3    3    0    0 -0.11209746311E+02  0.70194941159E+00  0.20133741850E+01  0.11410732720E+02  0.51100000000E-03 0. -1.
        -11    1    3    3    0    0 -0.14482875105E+01 -0.46020587195E+01  0.25699744024E+01  0.54663744713E+01  0.51100000000E-03 0.  1.
         12    1    3    3    0    0  0.18436667630E+01 -0.30167506307E+02  0.14797388349E+02  0.33651749522E+02  0.00000000000E+00 0. -1.
</event>
<event>
 7    1  0.2744502E-011  0.5052886E+02  0.7816164E-02  0.1300439E+00
        -11   -1    0    0    0    0  0.00000000000E+00  0.00000000000E+00  0.45593999997E+02  0.45594000000E+02  0.51100000000E-03 0. -1.
         11   -1    0    0    0    0 -0.00000000000E+00 -0.00000000000E+00 -0.45593999997E+02  0.45594000000E+02  0.51100000000E-03 0.  1.
    9900012    2    1    2    0    0  0.72494433257E+00  0.34540267589E+02 -0.21438514201E+02  0.50528861783E+02  0.30000005875E+02 0.  0.
         12    1    1    2    0    0 -0.72494433257E+00 -0.34540267589E+02  0.21438514201E+02  0.40659138217E+02  0.00000000000E+00 0. -1.
         11    1    3    3    0    0  0.21494440345E+01  0.84781225992E+01  0.29557109674E+01  0.92322749119E+01  0.51100000000E-03 0. -1.
        -11    1    3    3    0    0 -0.10741340151E+02  0.18002306766E+02 -0.14392323307E+02  0.25428299345E+02  0.51100000000E-03 0.  1.
         12    1    3    3    0    0  0.93168404492E+01  0.80598382241E+01 -0.10001901862E+02  0.15868287526E+02  0.00000000000E+00 0. -1.
</event>
<event>
 7    1  0.2744502E-011  0.5052886E+02  0.7816164E-02  0.1300439E+00
        -11   -1    0    0    0    0  0.00000000000E+00  0.00000000000E+00  0.45593999997E+02  0.45594000000E+02  0.51100000000E-03 0.  1.
         11   -1    0    0    0    0 -0.00000000000E+00 -0.00000000000E+00 -0.45593999997E+02  0.45594000000E+02  0.51100000000E-03 0. -1.
    9900012    2    1    2    0    0  0.28418757186E+02  0.33008646216E+01  0.28890210754E+02  0.50528859027E+02  0.29999997497E+02 0.  0.
         12    1    1    2    0    0 -0.28418757186E+02 -0.33008646216E+01 -0.28890210754E+02  0.40659140973E+02  0.00000000000E+00 0. -1.
         11    1    3    3    0    0  0.16702191571E+02 -0.17348100821E+00  0.47671413895E+01  0.17370058613E+02  0.51100000000E-03 0. -1.
        -11    1    3    3    0    0  0.50093980401E+01 -0.45374506485E+01 -0.11995753560E+00  0.67599494956E+01  0.51100000000E-03 0.  1.
         12    1    3    3    0    0  0.67071675752E+01  0.80117962783E+01  0.24243026901E+02  0.26398850918E+02  0.00000000000E+00 0. -1.
</event>
<event>
 7    1  0.2744502E-011  0.5052887E+02  0.7816164E-02  0.1300439E+00
        -11   -1    0    0    0    0  0.00000000000E+00  0.00000000000E+00  0.45593999997E+02  0.45594000000E+02  0.51100000000E-03 0.  1.
         11   -1    0    0    0    0 -0.00000000000E+00 -0.00000000000E+00 -0.45593999997E+02  0.45594000000E+02  0.51100000000E-03 0. -1.
    9900012    2    1    2    0    0 -0.53157167984E+01 -0.12221690807E+02  0.38412734718E+02  0.50528871139E+02  0.30000034314E+02 0.  0.
         12    1    1    2    0    0  0.53157167984E+01  0.12221690807E+02 -0.38412734718E+02  0.40659128861E+02  0.00000000000E+00 0. -1.
         11    1    3    3    0    0 -0.40238469656E+01  0.20320757446E+01  0.19872218517E+01  0.49264314857E+01  0.51100000000E-03 0. -1.
        -11    1    3    3    0    0  0.58224207665E+01 -0.12222811846E+02  0.69613860318E+01  0.15223620094E+02  0.51100000000E-03 0.  1.
         12    1    3    3    0    0 -0.71142905992E+01 -0.20309547053E+01  0.29464126834E+02  0.30378819560E+02  0.00000000000E+00 0. -1.
</event>
<event>
 7    1  0.2744502E-011  0.5052886E+02  0.7816164E-02  0.1300439E+00
        -11   -1    0    0    0    0  0.00000000000E+00  0.00000000000E+00  0.45593999997E+02  0.45594000000E+02  0.51100000000E-03 0. -1.
         11   -1    0    0    0    0 -0.00000000000E+00 -0.00000000000E+00 -0.45593999997E+02  0.45594000000E+02  0.51100000000E-03 0.  1.
    9900012    2    1    2    0    0 -0.38586229110E+01 -0.26053383839E+02 -0.30975756913E+02  0.50528864538E+02  0.30000014249E+02 0.  0.
         12    1    1    2    0    0  0.38586229110E+01  0.26053383839E+02  0.30975756913E+02  0.40659135462E+02  0.00000000000E+00 0. -1.
         11    1    3    3    0    0  0.28611011615E+01 -0.93172696825E+01 -0.99371945654E+00  0.97971880054E+01  0.51100000000E-03 0. -1.
        -11    1    3    3    0    0  0.23728000905E+01 -0.39890200494E+01  0.20527954265E+01  0.50750793637E+01  0.51100000000E-03 0.  1.
        -12    1    3    3    0    0 -0.90925241631E+01 -0.12747094107E+02 -0.32034832883E+02  0.35656597169E+02  0.00000000000E+00 0.  1.
</event>
<event>
 7    1  0.2744502E-011  0.5052886E+02  0.7816164E-02  0.1300439E+00
        -11   -1    0    0    0    0  0.00000000000E+00  0.00000000000E+00  0.45593999997E+02  0.45594000000E+02  0.51100000000E-03 0. -1.
         11   -1    0    0    0    0 -0.00000000000E+00 -0.00000000000E+00 -0.45593999997E+02  0.45594000000E+02  0.51100000000E-03 0.  1.
    9900012    2    1    2    0    0  0.36585480791E+02 -0.13161104850E+02  0.11893420960E+02  0.50528861450E+02  0.30000004862E+02 0.  0.
         12    1    1    2    0    0 -0.36585480791E+02  0.13161104850E+02 -0.11893420960E+02  0.40659138550E+02  0.00000000000E+00 0. -1.
         11    1    3    3    0    0  0.35401789071E+01  0.65123643456E+00 -0.26887018176E+01  0.44928936459E+01  0.51100000000E-03 0. -1.
        -11    1    3    3    0    0  0.11984453768E+02  0.13494933727E+01 -0.54680663654E+01  0.13241903735E+02  0.51100000000E-03 0.  1.
        -12    1    3    3    0    0  0.21060848115E+02 -0.15161834657E+02  0.20050189143E+02  0.32794064069E+02  0.00000000000E+00 0.  1.
</event>
<event>
 7    1  0.2744502E-011  0.5052886E+02  0.7816164E-02  0.1300439E+00
        -11   -1    0    0    0    0  0.00000000000E+00  0.00000000000E+00  0.45593999997E+02  0.45594000000E+02  0.51100000000E-03 0. -1.
         11   -1    0    0    0    0 -0.00000000000E+00 -0.00000000000E+00 -0.45593999997E+02  0.45594000000E+02  0.51100000000E-03 0.  1.
    9900012    2    1    2    0    0 -0.31013269466E+01  0.40086186517E+02 -0.60534875155E+01  0.50528864625E+02  0.30000014515E+02 0.  0.
         12    1    1    2    0    0  0.31013269466E+01 -0.40086186517E+02  0.60534875155E+01  0.40659135375E+02  0.00000000000E+00 0. -1.
         11    1    3    3    0    0 -0.17568934772E+01  0.14094145163E+02  0.52247298497E+01  0.15133717483E+02  0.51100000000E-03 0. -1.
        -11    1    3    3    0    0  0.31451568418E+01  0.23781461079E+02 -0.10537122282E+01  0.24011668254E+02  0.51100000000E-03 0.  1.
         12    1    3    3    0    0 -0.44895903112E+01  0.22105802746E+01 -0.10224505137E+02  0.11383478889E+02  0.00000000000E+00 0. -1.
</event>
<event>
 7    1  0.2744502E-011  0.5052886E+02  0.7816164E-02  0.1300439E+00
        -11   -1    0    0    0    0  0.00000000000E+00  0.00000000000E+00  0.45593999997E+02  0.45594000000E+02  0.51100000000E-03 0. -1.
         11   -1    0    0    0    0 -0.00000000000E+00 -0.00000000000E+00 -0.45593999997E+02  0.45594000000E+02  0.51100000000E-03 0.  1.
    9900012    2    1    2    0    0  0.58545555615E+01  0.38884864075E+01 -0.40047086968E+02  0.50528864225E+02  0.30000013299E+02 0.  0.
         12    1    1    2    0    0 -0.58545555615E+01 -0.38884864075E+01  0.40047086968E+02  0.40659135775E+02  0.00000000000E+00 0. -1.
         11    1    3    3    0    0  0.84740985851E+01 -0.33157405553E+01 -0.75140586716E+01  0.11801083011E+02  0.51100000000E-03 0. -1.
        -11    1    3    3    0    0  0.16377281746E+01  0.10592271340E+01 -0.31044082929E+02  0.31105292168E+02  0.51100000000E-03 0.  1.
        -12    1    3    3    0    0 -0.42572711982E+01  0.61449998288E+01 -0.14889453673E+01  0.76224890461E+01  0.00000000000E+00 0.  1.
</event>
<event>
 7    1  0.2744502E-011  0.5052886E+02  0.7816164E-02  0.1300439E+00
        -11   -1    0    0    0    0  0.00000000000E+00  0.00000000000E+00  0.45593999997E+02  0.45594000000E+02  0.51100000000E-03 0.  1.
         11   -1    0    0    0    0 -0.00000000000E+00 -0.00000000000E+00 -0.45593999997E+02  0.45594000000E+02  0.51100000000E-03 0. -1.
    9900012    2    1    2    0    0 -0.26104036146E+02 -0.12192073883E+01  0.31148977719E+02  0.50528856100E+02  0.29999988601E+02 0.  0.
         12    1    1    2    0    0  0.26104036146E+02  0.12192073883E+01 -0.31148977719E+02  0.40659143900E+02  0.00000000000E+00 0. -1.
         11    1    3    3    0    0 -0.23628405713E+02  0.80916251734E+00  0.36917177147E+02  0.43838730243E+02  0.51100000000E-03 0.  1.
        -11    1    3    3    0    0 -0.18736494219E+01 -0.15493788290E+01 -0.32611837998E+01  0.40677336380E+01  0.51100000000E-03 0. -1.
        -12    1    3    3    0    0 -0.60198101105E+00 -0.47899107660E+00 -0.25070156284E+01  0.26223922189E+01  0.00000000000E+00 0.  1.
</event>
<event>
 7    1  0.2744502E-011  0.5052882E+02  0.7816164E-02  0.1300439E+00
        -11   -1    0    0    0    0  0.00000000000E+00  0.00000000000E+00  0.45593999997E+02  0.45594000000E+02  0.51100000000E-03 0. -1.
         11   -1    0    0    0    0 -0.00000000000E+00 -0.00000000000E+00 -0.45593999997E+02  0.45594000000E+02  0.51100000000E-03 0.  1.
    9900012    2    1    2    0    0  0.18950963893E+02  0.15608973531E+02 -0.32409720698E+02  0.50528817976E+02  0.29999872718E+02 0.  0.
         12    1    1    2    0    0 -0.18950963893E+02 -0.15608973531E+02  0.32409720698E+02  0.40659182024E+02  0.00000000000E+00 0. -1.
         11    1    3    3    0    0  0.22248633702E+02  0.10486259873E+02 -0.15378704190E+02  0.29008065957E+02  0.51100000000E-03 0. -1.
        -11    1    3    3    0    0  0.43989932672E+01  0.18718650088E+01 -0.56272498414E+01  0.73838310798E+01  0.51100000000E-03 0.  1.
         12    1    3    3    0    0 -0.76966630763E+01  0.32508486487E+01 -0.11403766667E+02  0.14136920939E+02  0.00000000000E+00 0. -1.
</event>
<event>
 7    1  0.2744502E-011  0.5052887E+02  0.7816164E-02  0.1300439E+00
        -11   -1    0    0    0    0  0.00000000000E+00  0.00000000000E+00  0.45593999997E+02  0.45594000000E+02  0.51100000000E-03 0. -1.
         11   -1    0    0    0    0 -0.00000000000E+00 -0.00000000000E+00 -0.45593999997E+02  0.45594000000E+02  0.51100000000E-03 0.  1.
    9900012    2    1    2    0    0 -0.25234851708E+02 -0.24395866578E+02 -0.20523379852E+02  0.50528866126E+02  0.30000019078E+02 0.  0.
         12    1    1    2    0    0  0.25234851708E+02  0.24395866578E+02  0.20523379852E+02  0.40659133874E+02  0.00000000000E+00 0. -1.
         11    1    3    3    0    0 -0.16133633777E+02 -0.12284835691E+02 -0.14444510632E+02  0.24896891663E+02  0.51100000000E-03 0.  1.
        -11    1    3    3    0    0 -0.51514841564E+01 -0.15876054798E+01 -0.11834099905E+02  0.13004007113E+02  0.51100000000E-03 0. -1.
        -12    1    3    3    0    0 -0.39497337741E+01 -0.10523425407E+02  0.57552306847E+01  0.12627967351E+02  0.00000000000E+00 0.  1.
</event>
<event>
 7    1  0.2744502E-011  0.5052887E+02  0.7816164E-02  0.1300439E+00
        -11   -1    0    0    0    0  0.00000000000E+00  0.00000000000E+00  0.45593999997E+02  0.45594000000E+02  0.51100000000E-03 0. -1.
         11   -1    0    0    0    0 -0.00000000000E+00 -0.00000000000E+00 -0.45593999997E+02  0.45594000000E+02  0.51100000000E-03 0.  1.
    9900012    2    1    2    0    0 -0.26797388531E+02 -0.30377610170E+02  0.35022794201E+01  0.50528865812E+02  0.30000018123E+02 0.  0.
         12    1    1    2    0    0  0.26797388531E+02  0.30377610170E+02 -0.35022794201E+01  0.40659134188E+02  0.00000000000E+00 0. -1.
         11    1    3    3    0    0 -0.27469500569E+02 -0.21572160622E+02  0.10494990191E+02  0.36470212431E+02  0.51100000000E-03 0. -1.
        -11    1    3    3    0    0 -0.38760771595E+01 -0.38347748376E+01 -0.33521772295E+01  0.64005128420E+01  0.51100000000E-03 0.  1.
        -12    1    3    3    0    0  0.45481891971E+01 -0.49706747110E+01 -0.36405335415E+01  0.76581405394E+01  0.00000000000E+00 0.  1.
</event>
<event>
 7    1  0.2744502E-011  0.5052886E+02  0.7816164E-02  0.1300439E+00
        -11   -1    0    0    0    0  0.00000000000E+00  0.00000000000E+00  0.45593999997E+02  0.45594000000E+02  0.51100000000E-03 0. -1.
         11   -1    0    0    0    0 -0.00000000000E+00 -0.00000000000E+00 -0.45593999997E+02  0.45594000000E+02  0.51100000000E-03 0.  1.
    9900012    2    1    2    0    0  0.19422507692E+02 -0.29230412218E+02 -0.20530821933E+02  0.50528862617E+02  0.30000008411E+02 0.  0.
         12    1    1    2    0    0 -0.19422507692E+02  0.29230412218E+02  0.20530821933E+02  0.40659137383E+02  0.00000000000E+00 0. -1.
         11    1    3    3    0    0 -0.39489921526E+01 -0.26435689321E+01 -0.14973378196E+01  0.49824709259E+01  0.51100000000E-03 0. -1.
        -11    1    3    3    0    0  0.51545653451E+01 -0.81155599135E+01  0.44125397459E+01  0.10578391365E+02  0.51100000000E-03 0.  1.
        -12    1    3    3    0    0  0.18216934500E+02 -0.18471283372E+02 -0.23446023859E+02  0.34968000326E+02  0.00000000000E+00 0.  1.
</event>
<event>
 7    1  0.2744502E-011  0.5052887E+02  0.7816164E-02  0.1300439E+00
        -11   -1    0    0    0    0  0.00000000000E+00  0.00000000000E+00  0.45593999997E+02  0.45594000000E+02  0.51100000000E-03 0. -1.
         11   -1    0    0    0    0 -0.00000000000E+00 -0.00000000000E+00 -0.45593999997E+02  0.45594000000E+02  0.51100000000E-03 0.  1.
    9900012    2    1    2    0    0  0.13231691762E+02  0.10905704327E+02 -0.36866689914E+02  0.50528869673E+02  0.30000029857E+02 0.  0.
         12    1    1    2    0    0 -0.13231691762E+02 -0.10905704327E+02  0.36866689914E+02  0.40659130327E+02  0.00000000000E+00 0. -1.
         11    1    3    3    0    0  0.13805759176E+02  0.24389032788E+01 -0.68702952622E+01  0.15612437122E+02  0.51100000000E-03 0. -1.
        -11    1    3    3    0    0  0.14373537579E+01  0.38997527984E+01  0.34208421072E+00  0.41702613326E+01  0.51100000000E-03 0.  1.
        -12    1    3    3    0    0 -0.20114211724E+01  0.45670482498E+01 -0.30338478863E+02  0.30746171218E+02  0.00000000000E+00 0.  1.
</event>
<event>
 7    1  0.2744502E-011  0.5052886E+02  0.7816164E-02  0.1300439E+00
        -11   -1    0    0    0    0  0.00000000000E+00  0.00000000000E+00  0.45593999997E+02  0.45594000000E+02  0.51100000000E-03 0. -1.
         11   -1    0    0    0    0 -0.00000000000E+00 -0.00000000000E+00 -0.45593999997E+02  0.45594000000E+02  0.51100000000E-03 0.  1.
    9900012    2    1    2    0    0  0.36250713647E+02  0.91475678771E+01  0.15980418326E+02  0.50528855790E+02  0.29999987659E+02 0.  0.
         12    1    1    2    0    0 -0.36250713647E+02 -0.91475678771E+01 -0.15980418326E+02  0.40659144210E+02  0.00000000000E+00 0. -1.
         11    1    3    3    0    0 -0.19044980201E+01 -0.43313328850E+01 -0.71567549845E+00  0.47853682146E+01  0.51100000000E-03 0. -1.
        -11    1    3    3    0    0  0.27865602117E+02  0.67152963951E+01  0.56783516412E+01  0.29220380981E+02  0.51100000000E-03 0.  1.
        -12    1    3    3    0    0  0.10289609550E+02  0.67636043670E+01  0.11017742183E+02  0.16523106595E+02  0.00000000000E+00 0.  1.
</event>
<event>
 7    1  0.2744502E-011  0.5052875E+02  0.7816164E-02  0.1300439E+00
        -11   -1    0    0    0    0  0.00000000000E+00  0.00000000000E+00  0.45593999997E+02  0.45594000000E+02  0.51100000000E-03 0. -1.
         11   -1    0    0    0    0 -0.00000000000E+00 -0.00000000000E+00 -0.45593999997E+02  0.45594000000E+02  0.51100000000E-03 0.  1.
    9900012    2    1    2    0    0  0.15580432982E+02  0.23450741199E+02 -0.29334065940E+02  0.50528750385E+02  0.29999667268E+02 0.  0.
         12    1    1    2    0    0 -0.15580432982E+02 -0.23450741199E+02  0.29334065940E+02  0.40659249615E+02  0.00000000000E+00 0. -1.
         11    1    3    3    0    0 -0.39856001272E+01  0.26915771785E+01  0.50295948448E+00  0.48355521490E+01  0.51100000000E-03 0. -1.
        -11    1    3    3    0    0 -0.16243824292E+01  0.87009984548E+01 -0.14186349506E+02  0.16721199268E+02  0.51100000000E-03 0.  1.
        -12    1    3    3    0    0  0.21190415538E+02  0.12058165566E+02 -0.15650675918E+02  0.28971998968E+02  0.00000000000E+00 0.  1.
</event>
<event>
 7    1  0.2744502E-011  0.5052885E+02  0.7816164E-02  0.1300439E+00
        -11   -1    0    0    0    0  0.00000000000E+00  0.00000000000E+00  0.45593999997E+02  0.45594000000E+02  0.51100000000E-03 0.  1.
         11   -1    0    0    0    0 -0.00000000000E+00 -0.00000000000E+00 -0.45593999997E+02  0.45594000000E+02  0.51100000000E-03 0. -1.
    9900012    2    1    2    0    0  0.36457417320E+02  0.59013278040E+01  0.17005807304E+02  0.50528850605E+02  0.29999971898E+02 0.  0.
         12    1    1    2    0    0 -0.36457417320E+02 -0.59013278040E+01 -0.17005807304E+02  0.40659149395E+02  0.00000000000E+00 0. -1.
         11    1    3    3    0    0  0.25524237035E+02  0.56467005698E+01  0.68158814170E+01  0.27015331634E+02  0.51100000000E-03 0. -1.
        -11    1    3    3    0    0  0.73103800530E+01  0.59698810980E+01 -0.19290282933E+01  0.96333943790E+01  0.51100000000E-03 0.  1.
         12    1    3    3    0    0  0.36228002318E+01 -0.57152538639E+01  0.12118954180E+02  0.13880124591E+02  0.00000000000E+00 0. -1.
</event>
<event>
 7    1  0.2744502E-011  0.5052894E+02  0.7816164E-02  0.1300439E+00
        -11   -1    0    0    0    0  0.00000000000E+00  0.00000000000E+00  0.45593999997E+02  0.45594000000E+02  0.51100000000E-03 0.  1.
         11   -1    0    0    0    0 -0.00000000000E+00 -0.00000000000E+00 -0.45593999997E+02  0.45594000000E+02  0.51100000000E-03 0. -1.
    9900012    2    1    2    0    0 -0.16198883114E+02 -0.36980456009E+02  0.48167810382E+01  0.50528938029E+02  0.30000237633E+02 0.  0.
         12    1    1    2    0    0  0.16198883114E+02  0.36980456009E+02 -0.48167810382E+01  0.40659061971E+02  0.00000000000E+00 0. -1.
         11    1    3    3    0    0 -0.94255424685E+01 -0.13141954915E+02 -0.98250794230E+01  0.18923107983E+02  0.51100000000E-03 0. -1.
        -11    1    3    3    0    0  0.27511638510E+01 -0.95734861901E+01  0.16686240690E+01  0.10099744893E+02  0.51100000000E-03 0.  1.
        -12    1    3    3    0    0 -0.95245044965E+01 -0.14265014904E+02  0.12973236392E+02  0.21506085153E+02  0.00000000000E+00 0.  1.
</event>
<event>
 7    1  0.2744502E-011  0.5052887E+02  0.7816164E-02  0.1300439E+00
        -11   -1    0    0    0    0  0.00000000000E+00  0.00000000000E+00  0.45593999997E+02  0.45594000000E+02  0.51100000000E-03 0. -1.
         11   -1    0    0    0    0 -0.00000000000E+00 -0.00000000000E+00 -0.45593999997E+02  0.45594000000E+02  0.51100000000E-03 0.  1.
    9900012    2    1    2    0    0 -0.20042215616E+02  0.32361079694E+02 -0.14291071028E+02  0.50528873142E+02  0.30000040402E+02 0.  0.
         12    1    1    2    0    0  0.20042215616E+02 -0.32361079694E+02  0.14291071028E+02  0.40659126858E+02  0.00000000000E+00 0. -1.
         11    1    3    3    0    0  0.20454349658E+00  0.12518102410E+02 -0.12399236572E+01  0.12581022888E+02  0.51100000000E-03 0. -1.
        -11    1    3    3    0    0 -0.70482282958E+01  0.19751176839E+02 -0.26390192711E+01  0.21136483426E+02  0.51100000000E-03 0.  1.
        -12    1    3    3    0    0 -0.13198530817E+02  0.91800445031E-01 -0.10412128099E+02  0.16811366827E+02  0.00000000000E+00 0.  1.
</event>
<event>
 7    1  0.2744502E-011  0.5052886E+02  0.7816164E-02  0.1300439E+00
        -11   -1    0    0    0    0  0.00000000000E+00  0.00000000000E+00  0.45593999997E+02  0.45594000000E+02  0.51100000000E-03 0.  1.
         11   -1    0    0    0    0 -0.00000000000E+00 -0.00000000000E+00 -0.45593999997E+02  0.45594000000E+02  0.51100000000E-03 0. -1.
    9900012    2    1    2    0    0  0.31060388975E+01  0.17501804788E+02  0.36567810932E+02  0.50528862715E+02  0.30000008708E+02 0.  0.
         12    1    1    2    0    0 -0.31060388975E+01 -0.17501804788E+02 -0.36567810932E+02  0.40659137285E+02  0.00000000000E+00 0. -1.
         11    1    3    3    0    0 -0.82945131205E+01  0.14421753846E+02  0.97236801305E+01  0.19270077516E+02  0.51100000000E-03 0. -1.
        -11    1    3    3    0    0  0.55775769532E+01  0.59804614901E+01  0.20914804154E+02  0.22456720984E+02  0.51100000000E-03 0.  1.
        -12    1    3    3    0    0  0.58229750648E+01 -0.29004105487E+01  0.59293266469E+01  0.88020642148E+01  0.00000000000E+00 0.  1.
</event>
<event>
 7    1  0.2744502E-011  0.5052887E+02  0.7816164E-02  0.1300439E+00
        -11   -1    0    0    0    0  0.00000000000E+00  0.00000000000E+00  0.45593999997E+02  0.45594000000E+02  0.51100000000E-03 0. -1.
         11   -1    0    0    0    0 -0.00000000000E+00 -0.00000000000E+00 -0.45593999997E+02  0.45594000000E+02  0.51100000000E-03 0.  1.
    9900012    2    1    2    0    0 -0.56677555673E+01 -0.30698125808E+02 -0.26051232979E+02  0.50528866696E+02  0.30000020808E+02 0.  0.
         12    1    1    2    0    0  0.56677555673E+01  0.30698125808E+02  0.26051232979E+02  0.40659133304E+02  0.00000000000E+00 0. -1.
         11    1    3    3    0    0 -0.10691017847E+01 -0.53501028197E+01 -0.15298463180E+02  0.16242215204E+02  0.51100000000E-03 0. -1.
        -11    1    3    3    0    0  0.68658655592E+01 -0.16751453476E+02 -0.74787490685E+01  0.19587827632E+02  0.51100000000E-03 0.  1.
         12    1    3    3    0    0 -0.11464519342E+02 -0.85965695124E+01 -0.32740207309E+01  0.14698823860E+02  0.00000000000E+00 0. -1.
</event>
<event>
 7    1  0.2744502E-011  0.5052886E+02  0.7816164E-02  0.1300439E+00
        -11   -1    0    0    0    0  0.00000000000E+00  0.00000000000E+00  0.45593999997E+02  0.45594000000E+02  0.51100000000E-03 0. -1.
         11   -1    0    0    0    0 -0.00000000000E+00 -0.00000000000E+00 -0.45593999997E+02  0.45594000000E+02  0.51100000000E-03 0.  1.
    9900012    2    1    2    0    0 -0.15494535181E+02 -0.24674035480E+01 -0.37509961123E+02  0.50528857311E+02  0.29999992284E+02 0.  0.
         12    1    1    2    0    0  0.15494535181E+02  0.24674035480E+01  0.37509961123E+02  0.40659142689E+02  0.00000000000E+00 0. -1.
         11    1    3    3    0    0 -0.11482129285E+02 -0.64814912865E+01 -0.11234416799E+02  0.17322273040E+02  0.51100000000E-03 0. -1.
        -11    1    3    3    0    0 -0.56251176531E-01 -0.78177149568E+01 -0.10655214165E+02  0.13215650590E+02  0.51100000000E-03 0.  1.
        -12    1    3    3    0    0 -0.39561547192E+01  0.11831802695E+02 -0.15620330159E+02  0.19990933682E+02  0.00000000000E+00 0.  1.
</event>
<event>
 7    1  0.2744502E-011  0.5052886E+02  0.7816164E-02  0.1300439E+00
        -11   -1    0    0    0    0  0.00000000000E+00  0.00000000000E+00  0.45593999997E+02  0.45594000000E+02  0.51100000000E-03 0.  1.
         11   -1    0    0    0    0 -0.00000000000E+00 -0.00000000000E+00 -0.45593999997E+02  0.45594000000E+02  0.51100000000E-03 0. -1.
    9900012    2    1    2    0    0  0.25260737738E+02  0.26467902193E+02  0.17734456403E+02  0.50528860050E+02  0.30000000607E+02 0.  0.
         12    1    1    2    0    0 -0.25260737738E+02 -0.26467902193E+02 -0.17734456403E+02  0.40659139950E+02  0.00000000000E+00 0. -1.
         11    1    3    3    0    0  0.14042825836E+02 -0.15544601732E+01  0.12822364356E+02  0.19079578922E+02  0.51100000000E-03 0. -1.
        -11    1    3    3    0    0 -0.16603961248E-01  0.81269382776E+00 -0.11357973612E+01  0.13967042837E+01  0.51100000000E-03 0.  1.
        -12    1    3    3    0    0  0.11234515863E+02  0.27209668539E+02  0.60478894080E+01  0.30052576844E+02  0.00000000000E+00 0.  1.
</event>
<event>
 7    1  0.2744502E-011  0.5052886E+02  0.7816164E-02  0.1300439E+00
        -11   -1    0    0    0    0  0.00000000000E+00  0.00000000000E+00  0.45593999997E+02  0.45594000000E+02  0.51100000000E-03 0.  1.
         11   -1    0    0    0    0 -0.00000000000E+00 -0.00000000000E+00 -0.45593999997E+02  0.45594000000E+02  0.51100000000E-03 0. -1.
    9900012    2    1    2    0    0 -0.98536671237E+01  0.28201104981E+02  0.27582031888E+02  0.50528861286E+02  0.30000004363E+02 0.  0.
         12    1    1    2    0    0  0.98536671237E+01 -0.28201104981E+02 -0.27582031888E+02  0.40659138714E+02  0.00000000000E+00 0. -1.
         11    1    3    3    0    0 -0.10793761209E+02  0.16647690385E+01  0.64182872020E+01  0.12667720705E+02  0.51100000000E-03 0. -1.
        -11    1    3    3    0    0 -0.75878958241E+01  0.85807619989E+01  0.88872126740E+01  0.14497868426E+02  0.51100000000E-03 0.  1.
         12    1    3    3    0    0  0.85279899094E+01  0.17955573943E+02  0.12276532012E+02  0.23363272155E+02  0.00000000000E+00 0. -1.
</event>
<event>
 7    1  0.2744502E-011  0.5052886E+02  0.7816164E-02  0.1300439E+00
        -11   -1    0    0    0    0  0.00000000000E+00  0.00000000000E+00  0.45593999997E+02  0.45594000000E+02  0.51100000000E-03 0. -1.
         11   -1    0    0    0    0 -0.00000000000E+00 -0.00000000000E+00 -0.45593999997E+02  0.45594000000E+02  0.51100000000E-03 0.  1.
    9900012    2    1    2    0    0 -0.35800971807E+02  0.19175313350E+02 -0.19400353635E+01  0.50528856360E+02  0.29999989391E+02 0.  0.
         12    1    1    2    0    0  0.35800971807E+02 -0.19175313350E+02  0.19400353635E+01  0.40659143640E+02  0.00000000000E+00 0. -1.
         11    1    3    3    0    0 -0.39361952009E+01  0.24294375592E+01 -0.47999755546E+01  0.66660006825E+01  0.51100000000E-03 0. -1.
        -11    1    3    3    0    0 -0.11839178747E+02 -0.54616537738E+01  0.48075398841E+01  0.13896339638E+02  0.51100000000E-03 0.  1.
         12    1    3    3    0    0 -0.20025597859E+02  0.22207529564E+02 -0.19475996930E+01  0.29966516039E+02  0.00000000000E+00 0. -1.
</event>
<event>
 7    1  0.2744502E-011  0.5052886E+02  0.7816164E-02  0.1300439E+00
        -11   -1    0    0    0    0  0.00000000000E+00  0.00000000000E+00  0.45593999997E+02  0.45594000000E+02  0.51100000000E-03 0.  1.
         11   -1    0    0    0    0 -0.00000000000E+00 -0.00000000000E+00 -0.45593999997E+02  0.45594000000E+02  0.51100000000E-03 0. -1.
    9900012    2    1    2    0    0  0.35114248529E+02 -0.90645678594E+01  0.18384474387E+02  0.50528859100E+02  0.29999997721E+02 0.  0.
         12    1    1    2    0    0 -0.35114248529E+02  0.90645678594E+01 -0.18384474387E+02  0.40659140900E+02  0.00000000000E+00 0. -1.
         11    1    3    3    0    0  0.49919556429E+01  0.65261578449E+01  0.86429720597E+00  0.82618016969E+01  0.51100000000E-03 0. -1.
        -11    1    3    3    0    0 -0.40432593855E+00  0.25876126301E+01 -0.74085143766E-01  0.26200586744E+01  0.51100000000E-03 0.  1.
        -12    1    3    3    0    0  0.30526618824E+02 -0.18178338334E+02  0.17594262325E+02  0.39646998729E+02  0.00000000000E+00 0.  1.
</event>
<event>
 7    1  0.2744502E-011  0.5052886E+02  0.7816164E-02  0.1300439E+00
        -11   -1    0    0    0    0  0.00000000000E+00  0.00000000000E+00  0.45593999997E+02  0.45594000000E+02  0.51100000000E-03 0.  1.
         11   -1    0    0    0    0 -0.00000000000E+00 -0.00000000000E+00 -0.45593999997E+02  0.45594000000E+02  0.51100000000E-03 0. -1.
    9900012    2    1    2    0    0 -0.93202492428E+01 -0.32215249616E+02  0.22988617833E+02  0.50528857072E+02  0.29999991556E+02 0.  0.
         12    1    1    2    0    0  0.93202492428E+01  0.32215249616E+02 -0.22988617833E+02  0.40659142928E+02  0.00000000000E+00 0. -1.
         11    1    3    3    0    0 -0.89896727031E+00 -0.10600876641E+01 -0.33306990748E+01  0.36090836228E+01  0.51100000000E-03 0. -1.
        -11    1    3    3    0    0  0.26689809543E+01 -0.68238214616E+01 -0.23703653238E+01  0.77010798401E+01  0.51100000000E-03 0.  1.
        -12    1    3    3    0    0 -0.11090262927E+02 -0.24331340491E+02  0.28689682231E+02  0.39218693609E+02  0.00000000000E+00 0.  1.
</event>
<event>
 7    1  0.2744502E-011  0.5052887E+02  0.7816164E-02  0.1300439E+00
        -11   -1    0    0    0    0  0.00000000000E+00  0.00000000000E+00  0.45593999997E+02  0.45594000000E+02  0.51100000000E-03 0.  1.
         11   -1    0    0    0    0 -0.00000000000E+00 -0.00000000000E+00 -0.45593999997E+02  0.45594000000E+02  0.51100000000E-03 0. -1.
    9900012    2    1    2    0    0  0.23857877062E+02 -0.32549978230E+02  0.49462608432E+01  0.50528869697E+02  0.30000029932E+02 0.  0.
         12    1    1    2    0    0 -0.23857877062E+02  0.32549978230E+02 -0.49462608432E+01  0.40659130303E+02  0.00000000000E+00 0. -1.
         11    1    3    3    0    0 -0.10025333990E+01 -0.26173690765E+01  0.49032104967E+01  0.56477577439E+01  0.51100000000E-03 0. -1.
        -11    1    3    3    0    0 -0.42096053949E+01 -0.44113877897E+01  0.10362256805E+01  0.61850532523E+01  0.51100000000E-03 0.  1.
        -12    1    3    3    0    0  0.29070015856E+02 -0.25521221363E+02 -0.99317533403E+00  0.38696058701E+02  0.00000000000E+00 0.  1.
</event>
<event>
 7    1  0.2744502E-011  0.5052886E+02  0.7816164E-02  0.1300439E+00
        -11   -1    0    0    0    0  0.00000000000E+00  0.00000000000E+00  0.45593999997E+02  0.45594000000E+02  0.51100000000E-03 0.  1.
         11   -1    0    0    0    0 -0.00000000000E+00 -0.00000000000E+00 -0.45593999997E+02  0.45594000000E+02  0.51100000000E-03 0. -1.
    9900012    2    1    2    0    0  0.11567916079E+02  0.12163165048E+02  0.37032502411E+02  0.50528862021E+02  0.30000006599E+02 0.  0.
         12    1    1    2    0    0 -0.11567916079E+02 -0.12163165048E+02 -0.37032502411E+02  0.40659137979E+02  0.00000000000E+00 0. -1.
         11    1    3    3    0    0  0.47449637008E+00  0.83052838765E+01 -0.10366419298E+01  0.83831684837E+01  0.51100000000E-03 0. -1.
        -11    1    3    3    0    0  0.20642260405E+01  0.51514227891E+01  0.39074238674E+01  0.67872046852E+01  0.51100000000E-03 0.  1.
        -12    1    3    3    0    0  0.90291936684E+01 -0.12935416180E+01  0.34161720473E+02  0.35358488852E+02  0.00000000000E+00 0.  1.
</event>
<event>
 7    1  0.2744502E-011  0.5052884E+02  0.7816164E-02  0.1300439E+00
        -11   -1    0    0    0    0  0.00000000000E+00  0.00000000000E+00  0.45593999997E+02  0.45594000000E+02  0.51100000000E-03 0.  1.
         11   -1    0    0    0    0 -0.00000000000E+00 -0.00000000000E+00 -0.45593999997E+02  0.45594000000E+02  0.51100000000E-03 0. -1.
    9900012    2    1    2    0    0 -0.25045214995E+02 -0.39894550446E+01  0.31780324427E+02  0.50528836625E+02  0.29999929404E+02 0.  0.
         12    1    1    2    0    0  0.25045214995E+02  0.39894550446E+01 -0.31780324427E+02  0.40659163375E+02  0.00000000000E+00 0. -1.
         11    1    3    3    0    0 -0.74329520838E+01 -0.14325020700E+01  0.46944557496E+01  0.89072304285E+01  0.51100000000E-03 0.  1.
        -11    1    3    3    0    0 -0.10113160708E+02 -0.43819513078E+01 -0.22829132070E+01  0.11255630135E+02  0.51100000000E-03 0. -1.
        -12    1    3    3    0    0 -0.74991022036E+01  0.18249983331E+01  0.29368781884E+02  0.30365976061E+02  0.00000000000E+00 0.  1.
</event>
<event>
 7    1  0.2744502E-011  0.5052886E+02  0.7816164E-02  0.1300439E+00
        -11   -1    0    0    0    0  0.00000000000E+00  0.00000000000E+00  0.45593999997E+02  0.45594000000E+02  0.51100000000E-03 0.  1.
         11   -1    0    0    0    0 -0.00000000000E+00 -0.00000000000E+00 -0.45593999997E+02  0.45594000000E+02  0.51100000000E-03 0. -1.
    9900012    2    1    2    0    0  0.28671889610E+02  0.16483601922E+02  0.23651202230E+02  0.50528858924E+02  0.29999997185E+02 0.  0.
         12    1    1    2    0    0 -0.28671889610E+02 -0.16483601922E+02 -0.23651202230E+02  0.40659141076E+02  0.00000000000E+00 0. -1.
         11    1    3    3    0    0  0.14681759194E+02  0.10515000083E+02 -0.28846585096E+01  0.18287715405E+02  0.51100000000E-03 0. -1.
        -11    1    3    3    0    0 -0.66940809388E+00  0.25469720956E+01  0.15073103778E+01  0.30343300559E+01  0.51100000000E-03 0.  1.
        -12    1    3    3    0    0  0.14659538510E+02  0.34216297435E+01  0.25028550362E+02  0.29206813463E+02  0.00000000000E+00 0.  1.
</event>
<event>
 7    1  0.2744502E-011  0.5052885E+02  0.7816164E-02  0.1300439E+00
        -11   -1    0    0    0    0  0.00000000000E+00  0.00000000000E+00  0.45593999997E+02  0.45594000000E+02  0.51100000000E-03 0.  1.
         11   -1    0    0    0    0 -0.00000000000E+00 -0.00000000000E+00 -0.45593999997E+02  0.45594000000E+02  0.51100000000E-03 0. -1.
    9900012    2    1    2    0    0 -0.12661161602E+02 -0.12160089793E+02  0.36674156386E+02  0.50528849203E+02  0.29999967639E+02 0.  0.
         12    1    1    2    0    0  0.12661161602E+02  0.12160089793E+02 -0.36674156386E+02  0.40659150797E+02  0.00000000000E+00 0. -1.
         11    1    3    3    0    0 -0.17517906564E+01 -0.15795480336E+02  0.23739160354E+02  0.28567703865E+02  0.51100000000E-03 0. -1.
        -11    1    3    3    0    0 -0.91799649569E+01 -0.33197872958E+01  0.10630928263E+02  0.14432926948E+02  0.51100000000E-03 0.  1.
        -12    1    3    3    0    0 -0.17294059885E+01  0.69551778392E+01  0.23040677692E+01  0.75282183903E+01  0.00000000000E+00 0.  1.
</event>
<event>
 7    1  0.2744502E-011  0.5052886E+02  0.7816164E-02  0.1300439E+00
        -11   -1    0    0    0    0  0.00000000000E+00  0.00000000000E+00  0.45593999997E+02  0.45594000000E+02  0.51100000000E-03 0. -1.
         11   -1    0    0    0    0 -0.00000000000E+00 -0.00000000000E+00 -0.45593999997E+02  0.45594000000E+02  0.51100000000E-03 0.  1.
    9900012    2    1    2    0    0  0.94606950505E+01 -0.39385542865E+02 -0.35270273939E+01  0.50528860070E+02  0.30000000669E+02 0.  0.
         12    1    1    2    0    0 -0.94606950505E+01  0.39385542865E+02  0.35270273939E+01  0.40659139930E+02  0.00000000000E+00 0. -1.
         11    1    3    3    0    0  0.21559254580E+01 -0.14577157672E+02  0.23303211220E+01  0.14918845035E+02  0.51100000000E-03 0. -1.
        -11    1    3    3    0    0  0.86134365444E+01 -0.29132727214E+02 -0.64402880529E+01  0.31054539032E+02  0.51100000000E-03 0.  1.
         12    1    3    3    0    0 -0.13086669520E+01  0.43243420215E+01  0.58293953705E+00  0.45554760030E+01  0.00000000000E+00 0. -1.
</event>
<event>
 7    1  0.2744502E-011  0.5052886E+02  0.7816164E-02  0.1300439E+00
        -11   -1    0    0    0    0  0.00000000000E+00  0.00000000000E+00  0.45593999997E+02  0.45594000000E+02  0.51100000000E-03 0. -1.
         11   -1    0    0    0    0 -0.00000000000E+00 -0.00000000000E+00 -0.45593999997E+02  0.45594000000E+02  0.51100000000E-03 0.  1.
    9900012    2    1    2    0    0  0.21624748674E+02 -0.90024220350E+01 -0.33233900181E+02  0.50528862295E+02  0.30000007431E+02 0.  0.
         12    1    1    2    0    0 -0.21624748674E+02  0.90024220350E+01  0.33233900181E+02  0.40659137705E+02  0.00000000000E+00 0. -1.
         11    1    3    3    0    0  0.24776773821E+01 -0.54529607347E+01 -0.70093950291E+01  0.92198310678E+01  0.51100000000E-03 0. -1.
        -11    1    3    3    0    0  0.59113250680E+01 -0.99699823179E+01 -0.23700977001E+02  0.26383339867E+02  0.51100000000E-03 0.  1.
         12    1    3    3    0    0  0.13235746224E+02  0.64205210176E+01 -0.25235281506E+01  0.14925691359E+02  0.00000000000E+00 0. -1.
</event>
<event>
 7    1  0.2744502E-011  0.5052886E+02  0.7816164E-02  0.1300439E+00
        -11   -1    0    0    0    0  0.00000000000E+00  0.00000000000E+00  0.45593999997E+02  0.45594000000E+02  0.51100000000E-03 0.  1.
         11   -1    0    0    0    0 -0.00000000000E+00 -0.00000000000E+00 -0.45593999997E+02  0.45594000000E+02  0.51100000000E-03 0. -1.
    9900012    2    1    2    0    0 -0.26320132016E+02  0.13800843966E+02  0.27748029500E+02  0.50528858535E+02  0.29999996003E+02 0.  0.
         12    1    1    2    0    0  0.26320132016E+02 -0.13800843966E+02 -0.27748029500E+02  0.40659141465E+02  0.00000000000E+00 0. -1.
         11    1    3    3    0    0 -0.12484062978E+02  0.43936886884E+01 -0.60390327857E+00  0.13248434932E+02  0.51100000000E-03 0. -1.
        -11    1    3    3    0    0 -0.13691820384E+02  0.52043869174E+01  0.83898357173E+01  0.16880193490E+02  0.51100000000E-03 0.  1.
        -12    1    3    3    0    0 -0.14424865361E+00  0.42027683601E+01  0.19962097062E+02  0.20400230113E+02  0.00000000000E+00 0.  1.
</event>
<event>
 7    1  0.2744502E-011  0.5052885E+02  0.7816164E-02  0.1300439E+00
        -11   -1    0    0    0    0  0.00000000000E+00  0.00000000000E+00  0.45593999997E+02  0.45594000000E+02  0.51100000000E-03 0. -1.
         11   -1    0    0    0    0 -0.00000000000E+00 -0.00000000000E+00 -0.45593999997E+02  0.45594000000E+02  0.51100000000E-03 0.  1.
    9900012    2    1    2    0    0  0.36886380297E+02 -0.67666365324E+00 -0.17091043644E+02  0.50528847304E+02  0.29999961866E+02 0.  0.
         12    1    1    2    0    0 -0.36886380297E+02  0.67666365324E+00  0.17091043644E+02  0.40659152696E+02  0.00000000000E+00 0. -1.
         11    1    3    3    0    0  0.22751717031E+02  0.24748155316E+01  0.25320183162E+00  0.22887320752E+02  0.51100000000E-03 0.  1.
        -11    1    3    3    0    0  0.11748512031E+02  0.40419420647E+01 -0.15456720020E+02  0.19831162967E+02  0.51100000000E-03 0. -1.
         12    1    3    3    0    0  0.23861512353E+01 -0.71934212495E+01 -0.18875254550E+01  0.78103635853E+01  0.00000000000E+00 0. -1.
</event>
<event>
 7    1  0.2744502E-011  0.5052886E+02  0.7816164E-02  0.1300439E+00
        -11   -1    0    0    0    0  0.00000000000E+00  0.00000000000E+00  0.45593999997E+02  0.45594000000E+02  0.51100000000E-03 0.  1.
         11   -1    0    0    0    0 -0.00000000000E+00 -0.00000000000E+00 -0.45593999997E+02  0.45594000000E+02  0.51100000000E-03 0. -1.
    9900012    2    1    2    0    0  0.38743371351E+02  0.11120766185E+02 -0.53334551234E+01  0.50528855792E+02  0.29999987665E+02 0.  0.
         12    1    1    2    0    0 -0.38743371351E+02 -0.11120766185E+02  0.53334551234E+01  0.40659144208E+02  0.00000000000E+00 0. -1.
         11    1    3    3    0    0  0.19196103730E+02  0.17256590759E+02 -0.55729154515E+01  0.26407152628E+02  0.51100000000E-03 0.  1.
        -11    1    3    3    0    0  0.11029289112E+02  0.31418335474E+01 -0.71781901286E+00  0.11490500457E+02  0.51100000000E-03 0. -1.
        -12    1    3    3    0    0  0.85179785091E+01 -0.92776581208E+01  0.95727934098E+00  0.12631202707E+02  0.00000000000E+00 0.  1.
</event>
<event>
 7    1  0.2744502E-011  0.5052886E+02  0.7816164E-02  0.1300439E+00
        -11   -1    0    0    0    0  0.00000000000E+00  0.00000000000E+00  0.45593999997E+02  0.45594000000E+02  0.51100000000E-03 0.  1.
         11   -1    0    0    0    0 -0.00000000000E+00 -0.00000000000E+00 -0.45593999997E+02  0.45594000000E+02  0.51100000000E-03 0. -1.
    9900012    2    1    2    0    0  0.27802444852E+02 -0.22954343488E+02  0.18795952557E+02  0.50528860102E+02  0.30000000766E+02 0.  0.
         12    1    1    2    0    0 -0.27802444852E+02  0.22954343488E+02 -0.18795952557E+02  0.40659139898E+02  0.00000000000E+00 0. -1.
         11    1    3    3    0    0  0.31072601502E+01  0.14062019352E+01 -0.31115779463E+01  0.46167507081E+01  0.51100000000E-03 0. -1.
        -11    1    3    3    0    0  0.56746647823E+01 -0.64454509269E+01 -0.36782658596E+01  0.93421249209E+01  0.51100000000E-03 0.  1.
        -12    1    3    3    0    0  0.19020519919E+02 -0.17915094497E+02  0.25585796363E+02  0.36569984473E+02  0.00000000000E+00 0.  1.
</event>
<event>
 7    1  0.2744502E-011  0.5052888E+02  0.7816164E-02  0.1300439E+00
        -11   -1    0    0    0    0  0.00000000000E+00  0.00000000000E+00  0.45593999997E+02  0.45594000000E+02  0.51100000000E-03 0.  1.
         11   -1    0    0    0    0 -0.00000000000E+00 -0.00000000000E+00 -0.45593999997E+02  0.45594000000E+02  0.51100000000E-03 0. -1.
    9900012    2    1    2    0    0  0.16372831819E+02 -0.36374454142E+02  0.78735744122E+01  0.50528884049E+02  0.30000073554E+02 0.  0.
         12    1    1    2    0    0 -0.16372831819E+02  0.36374454142E+02 -0.78735744122E+01  0.40659115951E+02  0.00000000000E+00 0. -1.
         11    1    3    3    0    0  0.12507696712E+02 -0.15760858052E+02 -0.98611016222E+01  0.22407330252E+02  0.51100000000E-03 0. -1.
        -11    1    3    3    0    0  0.22392852573E+01 -0.45967704986E+01  0.16717761637E+01  0.53795476839E+01  0.51100000000E-03 0.  1.
         12    1    3    3    0    0  0.16258498505E+01 -0.16016825592E+02  0.16062899871E+02  0.22742006113E+02  0.00000000000E+00 0. -1.
</event>
<event>
 7    1  0.2744502E-011  0.5052886E+02  0.7816164E-02  0.1300439E+00
        -11   -1    0    0    0    0  0.00000000000E+00  0.00000000000E+00  0.45593999997E+02  0.45594000000E+02  0.51100000000E-03 0.  1.
         11   -1    0    0    0    0 -0.00000000000E+00 -0.00000000000E+00 -0.45593999997E+02  0.45594000000E+02  0.51100000000E-03 0. -1.
    9900012    2    1    2    0    0 -0.38807408189E+02  0.86116658078E+01 -0.85434027275E+01  0.50528862669E+02  0.30000008568E+02 0.  0.
         12    1    1    2    0    0  0.38807408189E+02 -0.86116658078E+01  0.85434027275E+01  0.40659137331E+02  0.00000000000E+00 0. -1.
         11    1    3    3    0    0  0.28938240379E+01  0.35535366277E+01  0.87570008259E+00  0.46656929841E+01  0.51100000000E-03 0. -1.
        -11    1    3    3    0    0  0.10878167468E+01  0.15426679837E+01  0.88910601073E-01  0.18897288532E+01  0.51100000000E-03 0.  1.
        -12    1    3    3    0    0 -0.42789048974E+02  0.35154611964E+01 -0.95080134112E+01  0.43973440831E+02  0.00000000000E+00 0.  1.
</event>
<event>
 7    1  0.2744502E-011  0.5052886E+02  0.7816164E-02  0.1300439E+00
        -11   -1    0    0    0    0  0.00000000000E+00  0.00000000000E+00  0.45593999997E+02  0.45594000000E+02  0.51100000000E-03 0. -1.
         11   -1    0    0    0    0 -0.00000000000E+00 -0.00000000000E+00 -0.45593999997E+02  0.45594000000E+02  0.51100000000E-03 0.  1.
    9900012    2    1    2    0    0 -0.19189977453E+01 -0.29393912143E+02  0.28026430180E+02  0.50528863117E+02  0.30000009931E+02 0.  0.
         12    1    1    2    0    0  0.19189977453E+01  0.29393912143E+02 -0.28026430180E+02  0.40659136883E+02  0.00000000000E+00 0. -1.
         11    1    3    3    0    0  0.26951846251E+01 -0.11493697382E+02  0.66844369742E+01  0.13566532261E+02  0.51100000000E-03 0. -1.
        -11    1    3    3    0    0  0.32147905030E+01 -0.14968517421E+02  0.14419170294E+01  0.15377597886E+02  0.51100000000E-03 0.  1.
         12    1    3    3    0    0 -0.78289728734E+01 -0.29316973399E+01  0.19900076177E+02  0.21584732970E+02  0.00000000000E+00 0. -1.
</event>
<event>
 7    1  0.2744502E-011  0.5052885E+02  0.7816164E-02  0.1300439E+00
        -11   -1    0    0    0    0  0.00000000000E+00  0.00000000000E+00  0.45593999997E+02  0.45594000000E+02  0.51100000000E-03 0. -1.
         11   -1    0    0    0    0 -0.00000000000E+00 -0.00000000000E+00 -0.45593999997E+02  0.45594000000E+02  0.51100000000E-03 0.  1.
    9900012    2    1    2    0    0  0.14556306857E+02 -0.35122394003E+02 -0.14411712835E+02  0.50528854698E+02  0.29999984340E+02 0.  0.
         12    1    1    2    0    0 -0.14556306857E+02  0.35122394003E+02  0.14411712835E+02  0.40659145302E+02  0.00000000000E+00 0. -1.
         11    1    3    3    0    0  0.86688825402E+00  0.11307621727E+01 -0.60263190631E+01  0.61924663945E+01  0.51100000000E-03 0. -1.
        -11    1    3    3    0    0  0.87537378404E+01 -0.91008836935E+01 -0.10823923586E+02  0.16631636487E+02  0.51100000000E-03 0.  1.
         12    1    3    3    0    0  0.49356807629E+01 -0.27152272483E+02  0.24385298135E+01  0.27704751817E+02  0.00000000000E+00 0. -1.
</event>
<event>
 7    1  0.2744502E-011  0.5052885E+02  0.7816164E-02  0.1300439E+00
        -11   -1    0    0    0    0  0.00000000000E+00  0.00000000000E+00  0.45593999997E+02  0.45594000000E+02  0.51100000000E-03 0.  1.
         11   -1    0    0    0    0 -0.00000000000E+00 -0.00000000000E+00 -0.45593999997E+02  0.45594000000E+02  0.51100000000E-03 0. -1.
    9900012    2    1    2    0    0 -0.10762636886E+02  0.29720558398E+02  0.25573826434E+02  0.50528849213E+02  0.29999967667E+02 0.  0.
         12    1    1    2    0    0  0.10762636886E+02 -0.29720558398E+02 -0.25573826434E+02  0.40659150787E+02  0.00000000000E+00 0. -1.
         11    1    3    3    0    0  0.27903064552E+01  0.22941647694E+01  0.26349940174E+01  0.44712633378E+01  0.51100000000E-03 0. -1.
        -11    1    3    3    0    0  0.16437426249E+01  0.19969945668E+02  0.20989531940E+02  0.29018288562E+02  0.51100000000E-03 0.  1.
         12    1    3    3    0    0 -0.15196685966E+02  0.74564479610E+01  0.19493004773E+01  0.17039297313E+02  0.00000000000E+00 0. -1.
</event>
<event>
 7    1  0.2744502E-011  0.5052886E+02  0.7816164E-02  0.1300439E+00
        -11   -1    0    0    0    0  0.00000000000E+00  0.00000000000E+00  0.45593999997E+02  0.45594000000E+02  0.51100000000E-03 0. -1.
         11   -1    0    0    0    0 -0.00000000000E+00 -0.00000000000E+00 -0.45593999997E+02  0.45594000000E+02  0.51100000000E-03 0.  1.
    9900012    2    1    2    0    0  0.16809971024E+02 -0.36324219823E+02 -0.71513321922E+01  0.50528860515E+02  0.30000002021E+02 0.  0.
         12    1    1    2    0    0 -0.16809971024E+02  0.36324219823E+02  0.71513321922E+01  0.40659139485E+02  0.00000000000E+00 0. -1.
         11    1    3    3    0    0  0.99998792993E+00 -0.16437986827E-01 -0.25743350695E+01  0.27617833692E+01  0.51100000000E-03 0.  1.
        -11    1    3    3    0    0 -0.71154858108E+00 -0.27025242379E+01  0.78335831301E+01  0.83171487637E+01  0.51100000000E-03 0. -1.
        -12    1    3    3    0    0  0.16521531675E+02 -0.33605257598E+02 -0.12410580253E+02  0.39449928382E+02  0.00000000000E+00 0.  1.
</event>
<event>
 7    1  0.2744502E-011  0.5052888E+02  0.7816164E-02  0.1300439E+00
        -11   -1    0    0    0    0  0.00000000000E+00  0.00000000000E+00  0.45593999997E+02  0.45594000000E+02  0.51100000000E-03 0.  1.
         11   -1    0    0    0    0 -0.00000000000E+00 -0.00000000000E+00 -0.45593999997E+02  0.45594000000E+02  0.51100000000E-03 0. -1.
    9900012    2    1    2    0    0  0.90185643292E+01  0.34370142529E+02  0.19761647423E+02  0.50528881602E+02  0.30000066118E+02 0.  0.
         12    1    1    2    0    0 -0.90185643292E+01 -0.34370142529E+02 -0.19761647423E+02  0.40659118398E+02  0.00000000000E+00 0. -1.
         11    1    3    3    0    0 -0.15595288839E+01 -0.95668830085E+00 -0.32979499180E+00  0.18590717691E+01  0.51100000000E-03 0. -1.
        -11    1    3    3    0    0  0.50522523121E+01  0.10079528845E+02 -0.52825654738E+01  0.12451010136E+02  0.51100000000E-03 0.  1.
        -12    1    3    3    0    0  0.55258409010E+01  0.25247301984E+02  0.25374007889E+02  0.36218799697E+02  0.00000000000E+00 0.  1.
</event>
<event>
 7    1  0.2744502E-011  0.5052889E+02  0.7816164E-02  0.1300439E+00
        -11   -1    0    0    0    0  0.00000000000E+00  0.00000000000E+00  0.45593999997E+02  0.45594000000E+02  0.51100000000E-03 0.  1.
         11   -1    0    0    0    0 -0.00000000000E+00 -0.00000000000E+00 -0.45593999997E+02  0.45594000000E+02  0.51100000000E-03 0. -1.
    9900012    2    1    2    0    0 -0.22679005391E+02 -0.16111015915E+02  0.29652342543E+02  0.50528886168E+02  0.30000079996E+02 0.  0.
         12    1    1    2    0    0  0.22679005391E+02  0.16111015915E+02 -0.29652342543E+02  0.40659113832E+02  0.00000000000E+00 0. -1.
         11    1    3    3    0    0 -0.85936164626E+01 -0.83447402788E+01 -0.37571092127E+00  0.11984410423E+02  0.51100000000E-03 0. -1.
        -11    1    3    3    0    0 -0.34247180752E+01 -0.22815520181E+01 -0.18311878955E+01  0.45041561780E+01  0.51100000000E-03 0.  1.
        -12    1    3    3    0    0 -0.10660670854E+02 -0.54847236177E+01  0.31859241360E+02  0.34040319567E+02  0.00000000000E+00 0.  1.
</event>
<event>
 7    1  0.2744502E-011  0.5052886E+02  0.7816164E-02  0.1300439E+00
        -11   -1    0    0    0    0  0.00000000000E+00  0.00000000000E+00  0.45593999997E+02  0.45594000000E+02  0.51100000000E-03 0.  1.
         11   -1    0    0    0    0 -0.00000000000E+00 -0.00000000000E+00 -0.45593999997E+02  0.45594000000E+02  0.51100000000E-03 0. -1.
    9900012    2    1    2    0    0 -0.19128618304E+02 -0.25689885643E+02  0.25045784872E+02  0.50528860776E+02  0.30000002815E+02 0.  0.
         12    1    1    2    0    0  0.19128618304E+02  0.25689885643E+02 -0.25045784872E+02  0.40659139224E+02  0.00000000000E+00 0. -1.
         11    1    3    3    0    0 -0.12652314443E+02 -0.16164290798E+02  0.33329354861E+01  0.20796004832E+02  0.51100000000E-03 0. -1.
        -11    1    3    3    0    0 -0.11403910150E+02 -0.86794732679E+01  0.19657997815E+02  0.24327336502E+02  0.51100000000E-03 0.  1.
         12    1    3    3    0    0  0.49276062890E+01 -0.84612157755E+00  0.20548515704E+01  0.54055194422E+01  0.00000000000E+00 0. -1.
</event>
<event>
 7    1  0.2744502E-011  0.5052886E+02  0.7816164E-02  0.1300439E+00
        -11   -1    0    0    0    0  0.00000000000E+00  0.00000000000E+00  0.45593999997E+02  0.45594000000E+02  0.51100000000E-03 0.  1.
         11   -1    0    0    0    0 -0.00000000000E+00 -0.00000000000E+00 -0.45593999997E+02  0.45594000000E+02  0.51100000000E-03 0. -1.
    9900012    2    1    2    0    0 -0.40060019663E+02 -0.65082309571E+01  0.24501259919E+01  0.50528863721E+02  0.30000011766E+02 0.  0.
         12    1    1    2    0    0  0.40060019663E+02  0.65082309571E+01 -0.24501259919E+01  0.40659136279E+02  0.00000000000E+00 0. -1.
         11    1    3    3    0    0 -0.12715936606E+02  0.14869851238E+01 -0.38186589320E+01  0.13359952277E+02  0.51100000000E-03 0. -1.
        -11    1    3    3    0    0 -0.75403998165E+01  0.76344797483E+01 -0.13503031390E+01  0.10815092660E+02  0.51100000000E-03 0.  1.
         12    1    3    3    0    0 -0.19803683240E+02 -0.15629695829E+02  0.76190880629E+01  0.26353818784E+02  0.00000000000E+00 0. -1.
</event>
<event>
 7    1  0.2744502E-011  0.5052887E+02  0.7816164E-02  0.1300439E+00
        -11   -1    0    0    0    0  0.00000000000E+00  0.00000000000E+00  0.45593999997E+02  0.45594000000E+02  0.51100000000E-03 0.  1.
         11   -1    0    0    0    0 -0.00000000000E+00 -0.00000000000E+00 -0.45593999997E+02  0.45594000000E+02  0.51100000000E-03 0. -1.
    9900012    2    1    2    0    0 -0.40334444084E+02 -0.16139888485E+01  0.48674621727E+01  0.50528873994E+02  0.30000042991E+02 0.  0.
         12    1    1    2    0    0  0.40334444084E+02  0.16139888485E+01 -0.48674621727E+01  0.40659126006E+02  0.00000000000E+00 0. -1.
         11    1    3    3    0    0 -0.95390506855E+01  0.25313105479E+01 -0.28166986677E+01  0.10263274951E+02  0.51100000000E-03 0. -1.
        -11    1    3    3    0    0 -0.27535087594E+02 -0.43787647630E+01 -0.39694803809E+01  0.28162233654E+02  0.51100000000E-03 0.  1.
         12    1    3    3    0    0 -0.32603058051E+01  0.23346536662E+00  0.11653641221E+02  0.12103365389E+02  0.00000000000E+00 0. -1.
</event>
<event>
 7    1  0.2744502E-011  0.5052887E+02  0.7816164E-02  0.1300439E+00
        -11   -1    0    0    0    0  0.00000000000E+00  0.00000000000E+00  0.45593999997E+02  0.45594000000E+02  0.51100000000E-03 0.  1.
         11   -1    0    0    0    0 -0.00000000000E+00 -0.00000000000E+00 -0.45593999997E+02  0.45594000000E+02  0.51100000000E-03 0. -1.
    9900012    2    1    2    0    0 -0.32365495604E+02  0.98684282587E+01  0.22544474601E+02  0.50528874124E+02  0.30000043386E+02 0.  0.
         12    1    1    2    0    0  0.32365495604E+02 -0.98684282587E+01 -0.22544474601E+02  0.40659125876E+02  0.00000000000E+00 0. -1.
         11    1    3    3    0    0 -0.40331008399E+01 -0.41407256398E+00 -0.14095098891E+01  0.42923276741E+01  0.51100000000E-03 0. -1.
        -11    1    3    3    0    0 -0.15620961790E+02 -0.24111959579E+01 -0.59454021835E+00  0.15817136009E+02  0.51100000000E-03 0.  1.
        -12    1    3    3    0    0 -0.12711432974E+02  0.12693696781E+02  0.24548524708E+02  0.30419410441E+02  0.00000000000E+00 0.  1.
</event>
<event>
 7    1  0.2744502E-011  0.5052888E+02  0.7816164E-02  0.1300439E+00
        -11   -1    0    0    0    0  0.00000000000E+00  0.00000000000E+00  0.45593999997E+02  0.45594000000E+02  0.51100000000E-03 0.  1.
         11   -1    0    0    0    0 -0.00000000000E+00 -0.00000000000E+00 -0.45593999997E+02  0.45594000000E+02  0.51100000000E-03 0. -1.
    9900012    2    1    2    0    0 -0.11678594580E+02 -0.41182875621E+01  0.38727435360E+02  0.50528879088E+02  0.30000058475E+02 0.  0.
         12    1    1    2    0    0  0.11678594580E+02  0.41182875621E+01 -0.38727435360E+02  0.40659120912E+02  0.00000000000E+00 0. -1.
         11    1    3    3    0    0  0.16280880420E+01 -0.13090873330E+01  0.15575026458E+02  0.15714510166E+02  0.51100000000E-03 0. -1.
        -11    1    3    3    0    0 -0.18737531589E+02 -0.60002897912E+01  0.18197036544E+02  0.26799826620E+02  0.51100000000E-03 0.  1.
         12    1    3    3    0    0  0.54308489673E+01  0.31910895622E+01  0.49553723577E+01  0.80145423015E+01  0.00000000000E+00 0. -1.
</event>
<event>
 7    1  0.2744502E-011  0.5052886E+02  0.7816164E-02  0.1300439E+00
        -11   -1    0    0    0    0  0.00000000000E+00  0.00000000000E+00  0.45593999997E+02  0.45594000000E+02  0.51100000000E-03 0. -1.
         11   -1    0    0    0    0 -0.00000000000E+00 -0.00000000000E+00 -0.45593999997E+02  0.45594000000E+02  0.51100000000E-03 0.  1.
    9900012    2    1    2    0    0 -0.23885299145E+02  0.32685398185E+02  0.37845941447E+01  0.50528856839E+02  0.29999990847E+02 0.  0.
         12    1    1    2    0    0  0.23885299145E+02 -0.32685398185E+02 -0.37845941447E+01  0.40659143161E+02  0.00000000000E+00 0. -1.
         11    1    3    3    0    0 -0.74072846707E+01  0.23915015253E+01 -0.17512947172E+01  0.79783569227E+01  0.51100000000E-03 0. -1.
        -11    1    3    3    0    0 -0.33428978327E+01 -0.25677133775E+01  0.57878286255E+01  0.71601032372E+01  0.51100000000E-03 0.  1.
        -12    1    3    3    0    0 -0.13135116642E+02  0.32861610037E+02 -0.25193976363E+00  0.35390396679E+02  0.00000000000E+00 0.  1.
</event>
<event>
 7    1  0.2744502E-011  0.5052886E+02  0.7816164E-02  0.1300439E+00
        -11   -1    0    0    0    0  0.00000000000E+00  0.00000000000E+00  0.45593999997E+02  0.45594000000E+02  0.51100000000E-03 0. -1.
         11   -1    0    0    0    0 -0.00000000000E+00 -0.00000000000E+00 -0.45593999997E+02  0.45594000000E+02  0.51100000000E-03 0.  1.
    9900012    2    1    2    0    0  0.39011261683E+02 -0.78413977263E+01 -0.83546318610E+01  0.50528856749E+02  0.29999990573E+02 0.  0.
         12    1    1    2    0    0 -0.39011261683E+02  0.78413977263E+01  0.83546318610E+01  0.40659143251E+02  0.00000000000E+00 0. -1.
         11    1    3    3    0    0  0.18081853427E+02  0.92890893242E+01 -0.53818341284E+01  0.21028664786E+02  0.51100000000E-03 0. -1.
        -11    1    3    3    0    0 -0.12788448788E+00  0.11246325539E+01  0.78773691891E+00  0.13790150609E+01  0.51100000000E-03 0.  1.
        -12    1    3    3    0    0  0.21057292744E+02 -0.18255119604E+02 -0.37605346515E+01  0.28121176902E+02  0.00000000000E+00 0.  1.
</event>
<event>
 7    1  0.2744502E-011  0.5052886E+02  0.7816164E-02  0.1300439E+00
        -11   -1    0    0    0    0  0.00000000000E+00  0.00000000000E+00  0.45593999997E+02  0.45594000000E+02  0.51100000000E-03 0.  1.
         11   -1    0    0    0    0 -0.00000000000E+00 -0.00000000000E+00 -0.45593999997E+02  0.45594000000E+02  0.51100000000E-03 0. -1.
    9900012    2    1    2    0    0 -0.31605423111E+02  0.23823133739E+02  0.93124136576E+01  0.50528861799E+02  0.30000005923E+02 0.  0.
         12    1    1    2    0    0  0.31605423111E+02 -0.23823133739E+02 -0.93124136576E+01  0.40659138201E+02  0.00000000000E+00 0. -1.
         11    1    3    3    0    0 -0.67438834662E+01  0.11433498228E+02  0.83770575166E+01  0.15696494476E+02  0.51100000000E-03 0. -1.
        -11    1    3    3    0    0 -0.61464091919E+01  0.68269776284E+01  0.97628472219E+01  0.13405191369E+02  0.51100000000E-03 0.  1.
         12    1    3    3    0    0 -0.18715130453E+02  0.55626578827E+01 -0.88274910809E+01  0.21427175954E+02  0.00000000000E+00 0. -1.
</event>
<event>
 7    1  0.2882185E-011  0.5052887E+02  0.7816164E-02  0.1300439E+00
        -11   -1    0    0    0    0  0.00000000000E+00  0.00000000000E+00  0.45593999997E+02  0.45594000000E+02  0.51100000000E-03 0. -1.
         11   -1    0    0    0    0 -0.00000000000E+00 -0.00000000000E+00 -0.45593999997E+02  0.45594000000E+02  0.51100000000E-03 0.  1.
    9900012    2    1    2    0    0 -0.21506959098E+02  0.20565335154E+01 -0.34443962235E+02  0.50528866288E+02  0.30000019570E+02 0.  0.
         12    1    1    2    0    0  0.21506959098E+02 -0.20565335154E+01  0.34443962235E+02  0.40659133712E+02  0.00000000000E+00 0. -1.
         11    1    3    3    0    0 -0.63401319516E+01 -0.84420021048E+01 -0.52264458615E+01  0.11780509722E+02  0.51100000000E-03 0. -1.
        -11    1    3    3    0    0 -0.10065770057E+02  0.29855169397E+01 -0.27593155775E+02  0.29523131340E+02  0.51100000000E-03 0.  1.
         12    1    3    3    0    0 -0.51010570892E+01  0.75130186805E+01 -0.16243605981E+01  0.92252252262E+01  0.00000000000E+00 0. -1.
</event>
<event>
 7    1  0.2744502E-011  0.5052886E+02  0.7816164E-02  0.1300439E+00
        -11   -1    0    0    0    0  0.00000000000E+00  0.00000000000E+00  0.45593999997E+02  0.45594000000E+02  0.51100000000E-03 0.  1.
         11   -1    0    0    0    0 -0.00000000000E+00 -0.00000000000E+00 -0.45593999997E+02  0.45594000000E+02  0.51100000000E-03 0. -1.
    9900012    2    1    2    0    0 -0.16732834923E+01  0.20279960309E+02  0.35200697102E+02  0.50528859032E+02  0.29999997513E+02 0.  0.
         12    1    1    2    0    0  0.16732834923E+01 -0.20279960309E+02 -0.35200697102E+02  0.40659140968E+02  0.00000000000E+00 0. -1.
         11    1    3    3    0    0  0.27343798829E+01  0.73766594764E+01  0.72783634228E+00  0.79007394829E+01  0.51100000000E-03 0. -1.
        -11    1    3    3    0    0  0.73834907352E+01  0.68117346835E+01  0.73993799476E+01  0.12476637716E+02  0.51100000000E-03 0.  1.
        -12    1    3    3    0    0 -0.11791154110E+02  0.60915661487E+01  0.27073480813E+02  0.30151481833E+02  0.00000000000E+00 0.  1.
</event>
<event>
 7    1  0.2744502E-011  0.5052886E+02  0.7816164E-02  0.1300439E+00
        -11   -1    0    0    0    0  0.00000000000E+00  0.00000000000E+00  0.45593999997E+02  0.45594000000E+02  0.51100000000E-03 0.  1.
         11   -1    0    0    0    0 -0.00000000000E+00 -0.00000000000E+00 -0.45593999997E+02  0.45594000000E+02  0.51100000000E-03 0. -1.
    9900012    2    1    2    0    0  0.22777800953E+02 -0.33623517430E+02  0.19483667480E+01  0.50528864819E+02  0.30000015105E+02 0.  0.
         12    1    1    2    0    0 -0.22777800953E+02  0.33623517430E+02 -0.19483667480E+01  0.40659135181E+02  0.00000000000E+00 0. -1.
         11    1    3    3    0    0  0.36225704091E+01 -0.65201815328E+01 -0.33987428797E+01  0.81967821133E+01  0.51100000000E-03 0.  1.
        -11    1    3    3    0    0 -0.48032017837E+01 -0.93486438977E+01 -0.37435653226E+01  0.11157157868E+02  0.51100000000E-03 0. -1.
        -12    1    3    3    0    0  0.23958432328E+02 -0.17754692000E+02  0.90906749504E+01  0.31174924838E+02  0.00000000000E+00 0.  1.
</event>
<event>
 7    1  0.2744502E-011  0.5052886E+02  0.7816164E-02  0.1300439E+00
        -11   -1    0    0    0    0  0.00000000000E+00  0.00000000000E+00  0.45593999997E+02  0.45594000000E+02  0.51100000000E-03 0.  1.
         11   -1    0    0    0    0 -0.00000000000E+00 -0.00000000000E+00 -0.45593999997E+02  0.45594000000E+02  0.51100000000E-03 0. -1.
    9900012    2    1    2    0    0  0.32878157012E+02  0.18205470518E+01  0.23851165428E+02  0.50528859670E+02  0.29999999454E+02 0.  0.
         12    1    1    2    0    0 -0.32878157012E+02 -0.18205470518E+01 -0.23851165428E+02  0.40659140330E+02  0.00000000000E+00 0. -1.
         11    1    3    3    0    0 -0.11947993449E+01 -0.10476455623E+01  0.46270177000E+01  0.48922796073E+01  0.51100000000E-03 0.  1.
        -11    1    3    3    0    0 -0.27910247833E+01 -0.21010761219E+01  0.43411658437E+01  0.55722581917E+01  0.51100000000E-03 0. -1.
        -12    1    3    3    0    0  0.36863981140E+02  0.49692687360E+01  0.14882981884E+02  0.40064321872E+02  0.00000000000E+00 0.  1.
</event>
<event>
 7    1  0.2744502E-011  0.5052887E+02  0.7816164E-02  0.1300439E+00
        -11   -1    0    0    0    0  0.00000000000E+00  0.00000000000E+00  0.45593999997E+02  0.45594000000E+02  0.51100000000E-03 0.  1.
         11   -1    0    0    0    0 -0.00000000000E+00 -0.00000000000E+00 -0.45593999997E+02  0.45594000000E+02  0.51100000000E-03 0. -1.
    9900012    2    1    2    0    0 -0.14382794976E+02 -0.33521308846E+02 -0.17961682184E+02  0.50528868615E+02  0.30000026642E+02 0.  0.
         12    1    1    2    0    0  0.14382794976E+02  0.33521308846E+02  0.17961682184E+02  0.40659131385E+02  0.00000000000E+00 0. -1.
         11    1    3    3    0    0  0.14381286929E+01 -0.41083719171E+01 -0.18359198856E+01  0.47241439472E+01  0.51100000000E-03 0. -1.
        -11    1    3    3    0    0 -0.19525052431E+02 -0.92457227472E+01 -0.12569454232E+02  0.24994044121E+02  0.51100000000E-03 0.  1.
        -12    1    3    3    0    0  0.37041287630E+01 -0.20167214182E+02 -0.35563080669E+01  0.20810680547E+02  0.00000000000E+00 0.  1.
</event>
<event>
 7    1  0.2744502E-011  0.5052886E+02  0.7816164E-02  0.1300439E+00
        -11   -1    0    0    0    0  0.00000000000E+00  0.00000000000E+00  0.45593999997E+02  0.45594000000E+02  0.51100000000E-03 0.  1.
         11   -1    0    0    0    0 -0.00000000000E+00 -0.00000000000E+00 -0.45593999997E+02  0.45594000000E+02  0.51100000000E-03 0. -1.
    9900012    2    1    2    0    0 -0.16322410072E+02 -0.31786151437E+02  0.19400651110E+02  0.50528858872E+02  0.29999997028E+02 0.  0.
         12    1    1    2    0    0  0.16322410072E+02  0.31786151437E+02 -0.19400651110E+02  0.40659141128E+02  0.00000000000E+00 0. -1.
         11    1    3    3    0    0 -0.11884468500E+02 -0.14664533411E+01 -0.11358361637E+01  0.12028349886E+02  0.51100000000E-03 0. -1.
        -11    1    3    3    0    0 -0.32172444566E+01 -0.12328766894E+01  0.24424577095E+01  0.42232980890E+01  0.51100000000E-03 0.  1.
         12    1    3    3    0    0 -0.12206971154E+01 -0.29086821407E+02  0.18094029564E+02  0.34277210897E+02  0.00000000000E+00 0. -1.
</event>
<event>
 7    1  0.2744502E-011  0.5052886E+02  0.7816164E-02  0.1300439E+00
        -11   -1    0    0    0    0  0.00000000000E+00  0.00000000000E+00  0.45593999997E+02  0.45594000000E+02  0.51100000000E-03 0.  1.
         11   -1    0    0    0    0 -0.00000000000E+00 -0.00000000000E+00 -0.45593999997E+02  0.45594000000E+02  0.51100000000E-03 0. -1.
    9900012    2    1    2    0    0 -0.17441778012E+02 -0.22894478324E+02  0.28719206335E+02  0.50528861170E+02  0.30000004011E+02 0.  0.
         12    1    1    2    0    0  0.17441778012E+02  0.22894478324E+02 -0.28719206335E+02  0.40659138830E+02  0.00000000000E+00 0. -1.
         11    1    3    3    0    0 -0.12530792085E+02 -0.46268945481E+00  0.48339377840E+01  0.13438816413E+02  0.51100000000E-03 0. -1.
        -11    1    3    3    0    0  0.38448725595E+01  0.34811954346E+00  0.44555990017E+01  0.58954724103E+01  0.51100000000E-03 0.  1.
        -12    1    3    3    0    0 -0.87558584865E+01 -0.22779908412E+02  0.19429669549E+02  0.31194572347E+02  0.00000000000E+00 0.  1.
</event>
<event>
 7    1  0.2744502E-011  0.5052886E+02  0.7816164E-02  0.1300439E+00
        -11   -1    0    0    0    0  0.00000000000E+00  0.00000000000E+00  0.45593999997E+02  0.45594000000E+02  0.51100000000E-03 0.  1.
         11   -1    0    0    0    0 -0.00000000000E+00 -0.00000000000E+00 -0.45593999997E+02  0.45594000000E+02  0.51100000000E-03 0. -1.
    9900012    2    1    2    0    0  0.69093733060E+01  0.13257016601E+02  0.37811078104E+02  0.50528861347E+02  0.30000004550E+02 0.  0.
         12    1    1    2    0    0 -0.69093733060E+01 -0.13257016601E+02 -0.37811078104E+02  0.40659138653E+02  0.00000000000E+00 0. -1.
         11    1    3    3    0    0  0.88598379637E+01  0.10170172484E+02  0.82471096795E+01  0.15809615917E+02  0.51100000000E-03 0. -1.
        -11    1    3    3    0    0  0.24103616622E+01 -0.64559405935E+01  0.69369850673E+01  0.97780762103E+01  0.51100000000E-03 0.  1.
        -12    1    3    3    0    0 -0.43608263198E+01  0.95427847098E+01  0.22626983357E+02  0.24941169220E+02  0.00000000000E+00 0.  1.
</event>
<event>
 7    1  0.2744502E-011  0.5052887E+02  0.7816164E-02  0.1300439E+00
        -11   -1    0    0    0    0  0.00000000000E+00  0.00000000000E+00  0.45593999997E+02  0.45594000000E+02  0.51100000000E-03 0.  1.
         11   -1    0    0    0    0 -0.00000000000E+00 -0.00000000000E+00 -0.45593999997E+02  0.45594000000E+02  0.51100000000E-03 0. -1.
    9900012    2    1    2    0    0  0.47307966002E+01  0.20953183156E+02  0.34521716815E+02  0.50528865077E+02  0.30000015887E+02 0.  0.
         12    1    1    2    0    0 -0.47307966002E+01 -0.20953183156E+02 -0.34521716815E+02  0.40659134923E+02  0.00000000000E+00 0. -1.
         11    1    3    3    0    0 -0.43159996222E+01  0.13268240811E+02  0.18829493265E+02  0.23435526106E+02  0.51100000000E-03 0.  1.
        -11    1    3    3    0    0  0.12196302449E+02  0.11733243005E+02  0.12657722434E+02  0.21133781544E+02  0.51100000000E-03 0. -1.
        -12    1    3    3    0    0 -0.31495062270E+01 -0.40483006603E+01  0.30345011162E+01  0.59595574277E+01  0.00000000000E+00 0.  1.
</event>
<event>
 7    1  0.2744502E-011  0.5052886E+02  0.7816164E-02  0.1300439E+00
        -11   -1    0    0    0    0  0.00000000000E+00  0.00000000000E+00  0.45593999997E+02  0.45594000000E+02  0.51100000000E-03 0.  1.
         11   -1    0    0    0    0 -0.00000000000E+00 -0.00000000000E+00 -0.45593999997E+02  0.45594000000E+02  0.51100000000E-03 0. -1.
    9900012    2    1    2    0    0  0.26537048263E+02 -0.16007559535E+02  0.26319361038E+02  0.50528860090E+02  0.30000000730E+02 0.  0.
         12    1    1    2    0    0 -0.26537048263E+02  0.16007559535E+02 -0.26319361038E+02  0.40659139910E+02  0.00000000000E+00 0. -1.
         11    1    3    3    0    0  0.44929544120E+01 -0.47882583938E+00 -0.40269436371E+01  0.60524531266E+01  0.51100000000E-03 0. -1.
        -11    1    3    3    0    0  0.52459683100E+01 -0.93570747697E+01  0.19377185424E+01  0.10900907539E+02  0.51100000000E-03 0.  1.
         12    1    3    3    0    0  0.16798125541E+02 -0.61716589255E+01  0.28408586133E+02  0.33575499425E+02  0.00000000000E+00 0. -1.
</event>
<event>
 7    1  0.2744502E-011  0.5052886E+02  0.7816164E-02  0.1300439E+00
        -11   -1    0    0    0    0  0.00000000000E+00  0.00000000000E+00  0.45593999997E+02  0.45594000000E+02  0.51100000000E-03 0.  1.
         11   -1    0    0    0    0 -0.00000000000E+00 -0.00000000000E+00 -0.45593999997E+02  0.45594000000E+02  0.51100000000E-03 0. -1.
    9900012    2    1    2    0    0 -0.17203711104E+02 -0.20820615831E+02  0.30392433088E+02  0.50528859474E+02  0.29999998856E+02 0.  0.
         12    1    1    2    0    0  0.17203711104E+02  0.20820615831E+02 -0.30392433088E+02  0.40659140526E+02  0.00000000000E+00 0. -1.
         11    1    3    3    0    0 -0.82124595379E+01 -0.14269457232E+01  0.10136139805E+02  0.13123337844E+02  0.51100000000E-03 0. -1.
        -11    1    3    3    0    0 -0.15265460556E+01  0.40844591902E+01  0.96379182952E+01  0.10578403427E+02  0.51100000000E-03 0.  1.
         12    1    3    3    0    0 -0.74647055107E+01 -0.23478129298E+02  0.10618374988E+02  0.26827118203E+02  0.00000000000E+00 0. -1.
</event>
<event>
 7    1  0.2744502E-011  0.5052886E+02  0.7816164E-02  0.1300439E+00
        -11   -1    0    0    0    0  0.00000000000E+00  0.00000000000E+00  0.45593999997E+02  0.45594000000E+02  0.51100000000E-03 0.  1.
         11   -1    0    0    0    0 -0.00000000000E+00 -0.00000000000E+00 -0.45593999997E+02  0.45594000000E+02  0.51100000000E-03 0. -1.
    9900012    2    1    2    0    0  0.12364968716E+02 -0.87974695239E+01  0.37721049343E+02  0.50528862222E+02  0.30000007209E+02 0.  0.
         12    1    1    2    0    0 -0.12364968716E+02  0.87974695239E+01 -0.37721049343E+02  0.40659137778E+02  0.00000000000E+00 0. -1.
         11    1    3    3    0    0 -0.35915721371E+00  0.44364756015E+01  0.10877842875E+01  0.45819847865E+01  0.51100000000E-03 0. -1.
        -11    1    3    3    0    0  0.90559374352E+01 -0.90726122941E+01  0.48857100184E+01  0.13718325675E+02  0.51100000000E-03 0.  1.
        -12    1    3    3    0    0  0.36681884945E+01 -0.41613328313E+01  0.31747555037E+02  0.32228551760E+02  0.00000000000E+00 0.  1.
</event>
<event>
 7    1  0.2744502E-011  0.5052885E+02  0.7816164E-02  0.1300439E+00
        -11   -1    0    0    0    0  0.00000000000E+00  0.00000000000E+00  0.45593999997E+02  0.45594000000E+02  0.51100000000E-03 0. -1.
         11   -1    0    0    0    0 -0.00000000000E+00 -0.00000000000E+00 -0.45593999997E+02  0.45594000000E+02  0.51100000000E-03 0.  1.
    9900012    2    1    2    0    0  0.50543823534E+01  0.14170050277E+02 -0.37773393256E+02  0.50528851658E+02  0.29999975101E+02 0.  0.
         12    1    1    2    0    0 -0.50543823534E+01 -0.14170050277E+02  0.37773393256E+02  0.40659148342E+02  0.00000000000E+00 0. -1.
         11    1    3    3    0    0  0.10600867110E+01  0.65582011531E+01 -0.13053086309E+02  0.14646393708E+02  0.51100000000E-03 0. -1.
        -11    1    3    3    0    0 -0.40605163549E+01  0.13060194902E+01 -0.25280292164E+02  0.25637602309E+02  0.51100000000E-03 0.  1.
         12    1    3    3    0    0  0.80548119974E+01  0.63058296333E+01  0.55998521720E+00  0.10244855642E+02  0.00000000000E+00 0. -1.
</event>
<event>
 7    1  0.2744502E-011  0.5052886E+02  0.7816164E-02  0.1300439E+00
        -11   -1    0    0    0    0  0.00000000000E+00  0.00000000000E+00  0.45593999997E+02  0.45594000000E+02  0.51100000000E-03 0. -1.
         11   -1    0    0    0    0 -0.00000000000E+00 -0.00000000000E+00 -0.45593999997E+02  0.45594000000E+02  0.51100000000E-03 0.  1.
    9900012    2    1    2    0    0 -0.25772911378E+02 -0.14053921821E+01 -0.31415720208E+02  0.50528861246E+02  0.30000004242E+02 0.  0.
         12    1    1    2    0    0  0.25772911378E+02  0.14053921821E+01  0.31415720208E+02  0.40659138754E+02  0.00000000000E+00 0. -1.
         11    1    3    3    0    0 -0.40641754615E+01 -0.12828475002E+02 -0.15240445709E+02  0.20331219312E+02  0.51100000000E-03 0. -1.
        -11    1    3    3    0    0 -0.70434644932E+01  0.32315745646E+01 -0.91477178557E+01  0.11988920238E+02  0.51100000000E-03 0.  1.
        -12    1    3    3    0    0 -0.14665271423E+02  0.81915082557E+01 -0.70275566437E+01  0.18208721696E+02  0.00000000000E+00 0.  1.
</event>
<event>
 7    1  0.2744502E-011  0.5052882E+02  0.7816164E-02  0.1300439E+00
        -11   -1    0    0    0    0  0.00000000000E+00  0.00000000000E+00  0.45593999997E+02  0.45594000000E+02  0.51100000000E-03 0.  1.
         11   -1    0    0    0    0 -0.00000000000E+00 -0.00000000000E+00 -0.45593999997E+02  0.45594000000E+02  0.51100000000E-03 0. -1.
    9900012    2    1    2    0    0  0.62436904437E+01  0.38099779693E+02  0.12751165945E+02  0.50528817569E+02  0.29999871483E+02 0.  0.
         12    1    1    2    0    0 -0.62436904437E+01 -0.38099779693E+02 -0.12751165945E+02  0.40659182431E+02  0.00000000000E+00 0. -1.
         11    1    3    3    0    0  0.71478001788E+01  0.63920710681E+01  0.25404349148E+01  0.99198502888E+01  0.51100000000E-03 0. -1.
        -11    1    3    3    0    0  0.50325744204E+01  0.17827433251E+02  0.15963376197E+02  0.24453497940E+02  0.51100000000E-03 0.  1.
         12    1    3    3    0    0 -0.59366841555E+01  0.13880275374E+02 -0.57526451662E+01  0.16155469341E+02  0.00000000000E+00 0. -1.
</event>
<event>
 7    1  0.2744502E-011  0.5052884E+02  0.7816164E-02  0.1300439E+00
        -11   -1    0    0    0    0  0.00000000000E+00  0.00000000000E+00  0.45593999997E+02  0.45594000000E+02  0.51100000000E-03 0.  1.
         11   -1    0    0    0    0 -0.00000000000E+00 -0.00000000000E+00 -0.45593999997E+02  0.45594000000E+02  0.51100000000E-03 0. -1.
    9900012    2    1    2    0    0  0.29983333732E+02 -0.16538933532E+02  0.21923288530E+02  0.50528841081E+02  0.29999942949E+02 0.  0.
         12    1    1    2    0    0 -0.29983333732E+02  0.16538933532E+02 -0.21923288530E+02  0.40659158919E+02  0.00000000000E+00 0. -1.
         11    1    3    3    0    0  0.32026559720E+01  0.43172188165E+01  0.66684790894E+01  0.85652785834E+01  0.51100000000E-03 0. -1.
        -11    1    3    3    0    0 -0.22765456643E+01  0.38831779240E+00  0.33144184633E+01  0.40396560349E+01  0.51100000000E-03 0.  1.
        -12    1    3    3    0    0  0.29057223424E+02 -0.21244470141E+02  0.11940390978E+02  0.37923906462E+02  0.00000000000E+00 0.  1.
</event>
<event>
 7    1  0.2744502E-011  0.5052881E+02  0.7816164E-02  0.1300439E+00
        -11   -1    0    0    0    0  0.00000000000E+00  0.00000000000E+00  0.45593999997E+02  0.45594000000E+02  0.51100000000E-03 0. -1.
         11   -1    0    0    0    0 -0.00000000000E+00 -0.00000000000E+00 -0.45593999997E+02  0.45594000000E+02  0.51100000000E-03 0.  1.
    9900012    2    1    2    0    0 -0.33974849740E+02 -0.13607654716E+02 -0.17711879816E+02  0.50528814466E+02  0.29999862049E+02 0.  0.
         12    1    1    2    0    0  0.33974849740E+02  0.13607654716E+02  0.17711879816E+02  0.40659185534E+02  0.00000000000E+00 0. -1.
         11    1    3    3    0    0 -0.64334796944E+01 -0.37949824204E+00 -0.98454626663E+01  0.11767192327E+02  0.51100000000E-03 0. -1.
        -11    1    3    3    0    0 -0.16254965243E+02 -0.11758530728E+02 -0.15245268353E+02  0.25197324210E+02  0.51100000000E-03 0.  1.
         12    1    3    3    0    0 -0.11286404802E+02 -0.14696257467E+01  0.73788512037E+01  0.13564297928E+02  0.00000000000E+00 0. -1.
</event>
<event>
 7    1  0.2744502E-011  0.5052886E+02  0.7816164E-02  0.1300439E+00
        -11   -1    0    0    0    0  0.00000000000E+00  0.00000000000E+00  0.45593999997E+02  0.45594000000E+02  0.51100000000E-03 0. -1.
         11   -1    0    0    0    0 -0.00000000000E+00 -0.00000000000E+00 -0.45593999997E+02  0.45594000000E+02  0.51100000000E-03 0.  1.
    9900012    2    1    2    0    0  0.26073563539E+02  0.11329512980E+02  0.29068492294E+02  0.50528858048E+02  0.29999994523E+02 0.  0.
         12    1    1    2    0    0 -0.26073563539E+02 -0.11329512980E+02 -0.29068492294E+02  0.40659141952E+02  0.00000000000E+00 0. -1.
         11    1    3    3    0    0  0.14384832582E+02  0.11659095595E+02  0.13030234881E+02  0.22641663804E+02  0.51100000000E-03 0. -1.
        -11    1    3    3    0    0  0.16560516751E+02  0.30848163436E+01  0.12349451767E+02  0.20887215375E+02  0.51100000000E-03 0.  1.
         12    1    3    3    0    0 -0.48717857934E+01 -0.34143989586E+01  0.36888056470E+01  0.69999788690E+01  0.00000000000E+00 0. -1.
</event>
<event>
 7    1  0.2744502E-011  0.5052887E+02  0.7816164E-02  0.1300439E+00
        -11   -1    0    0    0    0  0.00000000000E+00  0.00000000000E+00  0.45593999997E+02  0.45594000000E+02  0.51100000000E-03 0.  1.
         11   -1    0    0    0    0 -0.00000000000E+00 -0.00000000000E+00 -0.45593999997E+02  0.45594000000E+02  0.51100000000E-03 0. -1.
    9900012    2    1    2    0    0 -0.24931884229E+01  0.40240667711E+02 -0.52571114785E+01  0.50528873750E+02  0.30000042250E+02 0.  0.
         12    1    1    2    0    0  0.24931884229E+01 -0.40240667711E+02  0.52571114785E+01  0.40659126250E+02  0.00000000000E+00 0. -1.
         11    1    3    3    0    0 -0.36970808376E+01  0.15570431259E+02 -0.52320929507E+01  0.16836909847E+02  0.51100000000E-03 0.  1.
        -11    1    3    3    0    0 -0.45038568987E+01  0.12058904789E+02 -0.10272437958E+02  0.16468906871E+02  0.51100000000E-03 0. -1.
        -12    1    3    3    0    0  0.57077493134E+01  0.12611331663E+02  0.10247419430E+02  0.17223057032E+02  0.00000000000E+00 0.  1.
</event>
<event>
 7    1  0.2744502E-011  0.5052887E+02  0.7816164E-02  0.1300439E+00
        -11   -1    0    0    0    0  0.00000000000E+00  0.00000000000E+00  0.45593999997E+02  0.45594000000E+02  0.51100000000E-03 0. -1.
         11   -1    0    0    0    0 -0.00000000000E+00 -0.00000000000E+00 -0.45593999997E+02  0.45594000000E+02  0.51100000000E-03 0.  1.
    9900012    2    1    2    0    0 -0.87883302634E+01  0.80259733917E+00 -0.39689875073E+02  0.50528867021E+02  0.30000021796E+02 0.  0.
         12    1    1    2    0    0  0.87883302634E+01 -0.80259733917E+00  0.39689875073E+02  0.40659132979E+02  0.00000000000E+00 0. -1.
         11    1    3    3    0    0  0.83691457522E+01  0.31660480771E+00 -0.17933555930E+02  0.19792808487E+02  0.51100000000E-03 0. -1.
        -11    1    3    3    0    0 -0.57188035695E+01 -0.50612791389E+00 -0.17620588895E+02  0.18532297024E+02  0.51100000000E-03 0.  1.
         12    1    3    3    0    0 -0.11438672446E+02  0.99212044534E+00 -0.41357302480E+01  0.12203761510E+02  0.00000000000E+00 0. -1.
</event>
<event>
 7    1  0.2744502E-011  0.5052886E+02  0.7816164E-02  0.1300439E+00
        -11   -1    0    0    0    0  0.00000000000E+00  0.00000000000E+00  0.45593999997E+02  0.45594000000E+02  0.51100000000E-03 0.  1.
         11   -1    0    0    0    0 -0.00000000000E+00 -0.00000000000E+00 -0.45593999997E+02  0.45594000000E+02  0.51100000000E-03 0. -1.
    9900012    2    1    2    0    0 -0.31547909698E+02 -0.16451510252E+02  0.19678480377E+02  0.50528863439E+02  0.30000010910E+02 0.  0.
         12    1    1    2    0    0  0.31547909698E+02  0.16451510252E+02 -0.19678480377E+02  0.40659136561E+02  0.00000000000E+00 0. -1.
         11    1    3    3    0    0 -0.20214755390E+02 -0.16571012130E+02  0.12892529175E+01  0.26170535949E+02  0.51100000000E-03 0. -1.
        -11    1    3    3    0    0 -0.57972719556E+00 -0.40653449668E+01  0.28297299390E+01  0.49870316932E+01  0.51100000000E-03 0.  1.
         12    1    3    3    0    0 -0.10753427113E+02  0.41848468447E+01  0.15559497521E+02  0.19371295798E+02  0.00000000000E+00 0. -1.
</event>
<event>
 7    1  0.2744502E-011  0.5052887E+02  0.7816164E-02  0.1300439E+00
        -11   -1    0    0    0    0  0.00000000000E+00  0.00000000000E+00  0.45593999997E+02  0.45594000000E+02  0.51100000000E-03 0.  1.
         11   -1    0    0    0    0 -0.00000000000E+00 -0.00000000000E+00 -0.45593999997E+02  0.45594000000E+02  0.51100000000E-03 0. -1.
    9900012    2    1    2    0    0  0.38124148931E+02 -0.13458246879E+02 -0.43116227254E+01  0.50528865340E+02  0.30000016687E+02 0.  0.
         12    1    1    2    0    0 -0.38124148931E+02  0.13458246879E+02  0.43116227254E+01  0.40659134660E+02  0.00000000000E+00 0. -1.
         11    1    3    3    0    0  0.10892420588E+02 -0.45428155475E+01  0.13680175433E+01  0.11880802651E+02  0.51100000000E-03 0. -1.
        -11    1    3    3    0    0  0.31463717163E+02 -0.10420875966E+02 -0.71781446246E+01  0.33912916627E+02  0.51100000000E-03 0.  1.
         12    1    3    3    0    0 -0.42319888203E+01  0.15054446350E+01  0.14985043558E+01  0.47351460621E+01  0.00000000000E+00 0. -1.
</event>
<event>
 7    1  0.2744502E-011  0.5052886E+02  0.7816164E-02  0.1300439E+00
        -11   -1    0    0    0    0  0.00000000000E+00  0.00000000000E+00  0.45593999997E+02  0.45594000000E+02  0.51100000000E-03 0. -1.
         11   -1    0    0    0    0 -0.00000000000E+00 -0.00000000000E+00 -0.45593999997E+02  0.45594000000E+02  0.51100000000E-03 0.  1.
    9900012    2    1    2    0    0  0.94449908397E+00 -0.13303980571E+02 -0.38409347510E+02  0.50528856456E+02  0.29999989684E+02 0.  0.
         12    1    1    2    0    0 -0.94449908397E+00  0.13303980571E+02  0.38409347510E+02  0.40659143544E+02  0.00000000000E+00 0. -1.
         11    1    3    3    0    0  0.78785456291E+01  0.12003523761E+01 -0.11721968137E+02  0.14174514606E+02  0.51100000000E-03 0.  1.
        -11    1    3    3    0    0  0.50249204983E+01 -0.32568698448E+01 -0.13101126270E+01  0.61297163520E+01  0.51100000000E-03 0. -1.
        -12    1    3    3    0    0 -0.11958967043E+02 -0.11247463102E+02 -0.25377266746E+02  0.30224625498E+02  0.00000000000E+00 0.  1.
</event>
<event>
 7    1  0.2744502E-011  0.5052889E+02  0.7816164E-02  0.1300439E+00
        -11   -1    0    0    0    0  0.00000000000E+00  0.00000000000E+00  0.45593999997E+02  0.45594000000E+02  0.51100000000E-03 0. -1.
         11   -1    0    0    0    0 -0.00000000000E+00 -0.00000000000E+00 -0.45593999997E+02  0.45594000000E+02  0.51100000000E-03 0.  1.
    9900012    2    1    2    0    0 -0.41659391162E+01  0.34535150169E+02 -0.21050688149E+02  0.50528891334E+02  0.30000095700E+02 0.  0.
         12    1    1    2    0    0  0.41659391162E+01 -0.34535150169E+02  0.21050688149E+02  0.40659108666E+02  0.00000000000E+00 0. -1.
         11    1    3    3    0    0  0.39719790922E+01  0.32809781813E+01 -0.29960905117E+01  0.59596975049E+01  0.51100000000E-03 0. -1.
        -11    1    3    3    0    0  0.54715897196E+01 -0.10346273763E+01 -0.12451383441E+01  0.57060597284E+01  0.51100000000E-03 0.  1.
        -12    1    3    3    0    0 -0.13609507928E+02  0.32288799364E+02 -0.16809459293E+02  0.38863134101E+02  0.00000000000E+00 0.  1.
</event>
<event>
 7    1  0.2744502E-011  0.5052886E+02  0.7816164E-02  0.1300439E+00
        -11   -1    0    0    0    0  0.00000000000E+00  0.00000000000E+00  0.45593999997E+02  0.45594000000E+02  0.51100000000E-03 0.  1.
         11   -1    0    0    0    0 -0.00000000000E+00 -0.00000000000E+00 -0.45593999997E+02  0.45594000000E+02  0.51100000000E-03 0. -1.
    9900012    2    1    2    0    0 -0.39775297294E+02 -0.72841050668E+01  0.42465986216E+01  0.50528855133E+02  0.29999985663E+02 0.  0.
         12    1    1    2    0    0  0.39775297294E+02  0.72841050668E+01 -0.42465986216E+01  0.40659144867E+02  0.00000000000E+00 0. -1.
         11    1    3    3    0    0 -0.30005155413E+02 -0.91237522840E+01 -0.30769744753E+00  0.31363145332E+02  0.51100000000E-03 0. -1.
        -11    1    3    3    0    0 -0.80648926467E+01 -0.54272189494E+00 -0.47743369746E+01  0.93878290497E+01  0.51100000000E-03 0.  1.
         12    1    3    3    0    0 -0.17052492338E+01  0.23823691121E+01  0.93286330437E+01  0.97778807520E+01  0.00000000000E+00 0. -1.
</event>
<event>
 7    1  0.2744502E-011  0.5052886E+02  0.7816164E-02  0.1300439E+00
        -11   -1    0    0    0    0  0.00000000000E+00  0.00000000000E+00  0.45593999997E+02  0.45594000000E+02  0.51100000000E-03 0. -1.
         11   -1    0    0    0    0 -0.00000000000E+00 -0.00000000000E+00 -0.45593999997E+02  0.45594000000E+02  0.51100000000E-03 0.  1.
    9900012    2    1    2    0    0  0.10026888159E+02  0.37826166356E+02 -0.11036682650E+02  0.50528859437E+02  0.29999998746E+02 0.  0.
         12    1    1    2    0    0 -0.10026888159E+02 -0.37826166356E+02  0.11036682650E+02  0.40659140563E+02  0.00000000000E+00 0. -1.
         11    1    3    3    0    0 -0.15574716888E+01  0.65929815020E+01 -0.35979039238E+01  0.76705955475E+01  0.51100000000E-03 0. -1.
        -11    1    3    3    0    0 -0.33591492824E+01  0.21323697662E+02 -0.11521197481E+02  0.24468795588E+02  0.51100000000E-03 0.  1.
        -12    1    3    3    0    0  0.14943509130E+02  0.99094871922E+01  0.40824187543E+01  0.18389468302E+02  0.00000000000E+00 0.  1.
</event>
<event>
 7    1  0.2744502E-011  0.5052884E+02  0.7816164E-02  0.1300439E+00
        -11   -1    0    0    0    0  0.00000000000E+00  0.00000000000E+00  0.45593999997E+02  0.45594000000E+02  0.51100000000E-03 0. -1.
         11   -1    0    0    0    0 -0.00000000000E+00 -0.00000000000E+00 -0.45593999997E+02  0.45594000000E+02  0.51100000000E-03 0.  1.
    9900012    2    1    2    0    0  0.14377773310E+02  0.29516654978E+02  0.23983621172E+02  0.50528839028E+02  0.29999936710E+02 0.  0.
         12    1    1    2    0    0 -0.14377773310E+02 -0.29516654978E+02 -0.23983621172E+02  0.40659160972E+02  0.00000000000E+00 0. -1.
         11    1    3    3    0    0  0.24850958058E+01  0.51082835959E+01  0.10211066178E+02  0.11684867788E+02  0.51100000000E-03 0. -1.
        -11    1    3    3    0    0 -0.10371511489E+01 -0.95327215155E+00  0.10033675909E+02  0.10132080872E+02  0.51100000000E-03 0.  1.
        -12    1    3    3    0    0  0.12929828653E+02  0.25361643533E+02  0.37388790855E+01  0.28711890368E+02  0.00000000000E+00 0.  1.
</event>
<event>
 7    1  0.2744502E-011  0.5052887E+02  0.7816164E-02  0.1300439E+00
        -11   -1    0    0    0    0  0.00000000000E+00  0.00000000000E+00  0.45593999997E+02  0.45594000000E+02  0.51100000000E-03 0.  1.
         11   -1    0    0    0    0 -0.00000000000E+00 -0.00000000000E+00 -0.45593999997E+02  0.45594000000E+02  0.51100000000E-03 0. -1.
    9900012    2    1    2    0    0 -0.24976842829E+02  0.31477304787E+02 -0.62049673667E+01  0.50528868008E+02  0.30000024796E+02 0.  0.
         12    1    1    2    0    0  0.24976842829E+02 -0.31477304787E+02  0.62049673667E+01  0.40659131992E+02  0.00000000000E+00 0. -1.
         11    1    3    3    0    0 -0.11585730262E+01 -0.40774117793E+00 -0.81827188791E+01  0.82743841367E+01  0.51100000000E-03 0.  1.
        -11    1    3    3    0    0 -0.55063893956E+01  0.82446281485E+01  0.67207467330E+01  0.11977589674E+02  0.51100000000E-03 0. -1.
        -12    1    3    3    0    0 -0.18311880407E+02  0.23640417816E+02 -0.47429952206E+01  0.30276894197E+02  0.00000000000E+00 0.  1.
</event>
<event>
 7    1  0.2744502E-011  0.5052883E+02  0.7816164E-02  0.1300439E+00
        -11   -1    0    0    0    0  0.00000000000E+00  0.00000000000E+00  0.45593999997E+02  0.45594000000E+02  0.51100000000E-03 0. -1.
         11   -1    0    0    0    0 -0.00000000000E+00 -0.00000000000E+00 -0.45593999997E+02  0.45594000000E+02  0.51100000000E-03 0.  1.
    9900012    2    1    2    0    0  0.38349280590E+02  0.27650131886E+00  0.13506440307E+02  0.50528834926E+02  0.29999924242E+02 0.  0.
         12    1    1    2    0    0 -0.38349280590E+02 -0.27650131886E+00 -0.13506440307E+02  0.40659165074E+02  0.00000000000E+00 0. -1.
         11    1    3    3    0    0  0.43607036988E+01 -0.23548764996E+01 -0.62044467753E+01  0.79408022344E+01  0.51100000000E-03 0. -1.
        -11    1    3    3    0    0  0.16506448766E+02  0.79473623285E+01  0.46303839103E+01  0.18896133845E+02  0.51100000000E-03 0.  1.
        -12    1    3    3    0    0  0.17482128125E+02 -0.53159845100E+01  0.15080503172E+02  0.23691898847E+02  0.00000000000E+00 0.  1.
</event>
<event>
 7    1  0.2744502E-011  0.5052886E+02  0.7816164E-02  0.1300439E+00
        -11   -1    0    0    0    0  0.00000000000E+00  0.00000000000E+00  0.45593999997E+02  0.45594000000E+02  0.51100000000E-03 0. -1.
         11   -1    0    0    0    0 -0.00000000000E+00 -0.00000000000E+00 -0.45593999997E+02  0.45594000000E+02  0.51100000000E-03 0.  1.
    9900012    2    1    2    0    0 -0.10661679523E+02 -0.30514685571E+02 -0.24664710960E+02  0.50528863112E+02  0.30000009914E+02 0.  0.
         12    1    1    2    0    0  0.10661679523E+02  0.30514685571E+02  0.24664710960E+02  0.40659136888E+02  0.00000000000E+00 0. -1.
         11    1    3    3    0    0 -0.70812221745E+01 -0.22366562935E+02 -0.23636298671E+01  0.23579516352E+02  0.51100000000E-03 0. -1.
        -11    1    3    3    0    0  0.40186321897E+01 -0.38054929841E+01 -0.45766935761E+01  0.71817341832E+01  0.51100000000E-03 0.  1.
        -12    1    3    3    0    0 -0.75990895377E+01 -0.43426296521E+01 -0.17724387517E+02  0.19767612576E+02  0.00000000000E+00 0.  1.
</event>
<event>
 7    1  0.2744502E-011  0.5052887E+02  0.7816164E-02  0.1300439E+00
        -11   -1    0    0    0    0  0.00000000000E+00  0.00000000000E+00  0.45593999997E+02  0.45594000000E+02  0.51100000000E-03 0.  1.
         11   -1    0    0    0    0 -0.00000000000E+00 -0.00000000000E+00 -0.45593999997E+02  0.45594000000E+02  0.51100000000E-03 0. -1.
    9900012    2    1    2    0    0  0.26773623908E+02 -0.14758433714E+02  0.26805341384E+02  0.50528872740E+02  0.30000039181E+02 0.  0.
         12    1    1    2    0    0 -0.26773623908E+02  0.14758433714E+02 -0.26805341384E+02  0.40659127260E+02  0.00000000000E+00 0. -1.
         11    1    3    3    0    0  0.12145338825E+02 -0.90556950427E+01  0.96748428342E+00  0.15180609144E+02  0.51100000000E-03 0. -1.
        -11    1    3    3    0    0  0.17262852668E+02 -0.93394293945E+01  0.21295198637E+02  0.28960602702E+02  0.51100000000E-03 0.  1.
         12    1    3    3    0    0 -0.26345675851E+01  0.36366907233E+01  0.45426584635E+01  0.63876608937E+01  0.00000000000E+00 0. -1.
</event>
<event>
 7    1  0.2744502E-011  0.5052882E+02  0.7816164E-02  0.1300439E+00
        -11   -1    0    0    0    0  0.00000000000E+00  0.00000000000E+00  0.45593999997E+02  0.45594000000E+02  0.51100000000E-03 0.  1.
         11   -1    0    0    0    0 -0.00000000000E+00 -0.00000000000E+00 -0.45593999997E+02  0.45594000000E+02  0.51100000000E-03 0. -1.
    9900012    2    1    2    0    0  0.32142461949E+01  0.33875999468E+02  0.22254300956E+02  0.50528823550E+02  0.29999889661E+02 0.  0.
         12    1    1    2    0    0 -0.32142461949E+01 -0.33875999468E+02 -0.22254300956E+02  0.40659176450E+02  0.00000000000E+00 0. -1.
         11    1    3    3    0    0 -0.68134460290E+01  0.21899691189E+02  0.96322301791E+01  0.24875678472E+02  0.51100000000E-03 0. -1.
        -11    1    3    3    0    0  0.30849338621E+01  0.42250895816E+01  0.14195630720E+02  0.15128917037E+02  0.51100000000E-03 0.  1.
        -12    1    3    3    0    0  0.69427583617E+01  0.77512186974E+01 -0.15735599424E+01  0.10524228041E+02  0.00000000000E+00 0.  1.
</event>
<event>
 7    1  0.2744502E-011  0.5052887E+02  0.7816164E-02  0.1300439E+00
        -11   -1    0    0    0    0  0.00000000000E+00  0.00000000000E+00  0.45593999997E+02  0.45594000000E+02  0.51100000000E-03 0. -1.
         11   -1    0    0    0    0 -0.00000000000E+00 -0.00000000000E+00 -0.45593999997E+02  0.45594000000E+02  0.51100000000E-03 0.  1.
    9900012    2    1    2    0    0 -0.13288053523E+02  0.26093406256E+02 -0.28208623010E+02  0.50528872752E+02  0.30000039216E+02 0.  0.
         12    1    1    2    0    0  0.13288053523E+02 -0.26093406256E+02  0.28208623010E+02  0.40659127248E+02  0.00000000000E+00 0. -1.
         11    1    3    3    0    0 -0.15053647591E+02  0.19812826643E+02 -0.19571690309E+02  0.31657723658E+02  0.51100000000E-03 0. -1.
        -11    1    3    3    0    0 -0.51088260535E+01  0.45039108643E+01 -0.95314951298E+01  0.11714722207E+02  0.51100000000E-03 0.  1.
         12    1    3    3    0    0  0.68744201214E+01  0.17766687487E+01  0.89456242857E+00  0.71564268868E+01  0.00000000000E+00 0. -1.
</event>
<event>
 7    1  0.2744502E-011  0.5052887E+02  0.7816164E-02  0.1300439E+00
        -11   -1    0    0    0    0  0.00000000000E+00  0.00000000000E+00  0.45593999997E+02  0.45594000000E+02  0.51100000000E-03 0.  1.
         11   -1    0    0    0    0 -0.00000000000E+00 -0.00000000000E+00 -0.45593999997E+02  0.45594000000E+02  0.51100000000E-03 0. -1.
    9900012    2    1    2    0    0 -0.21722160943E+01 -0.40600776792E+02 -0.15340896112E+00  0.50528866546E+02  0.30000020353E+02 0.  0.
         12    1    1    2    0    0  0.21722160943E+01  0.40600776792E+02  0.15340896112E+00  0.40659133454E+02  0.00000000000E+00 0. -1.
         11    1    3    3    0    0 -0.10060169213E+02 -0.15392936914E+02  0.22979350854E+01  0.18531864918E+02  0.51100000000E-03 0. -1.
        -11    1    3    3    0    0  0.17664910101E+01 -0.23458648164E+02  0.28700093601E+01  0.23699485610E+02  0.51100000000E-03 0.  1.
         12    1    3    3    0    0  0.61214621082E+01 -0.17491917145E+01 -0.53213534067E+01  0.82975160184E+01  0.00000000000E+00 0. -1.
</event>
<event>
 7    1  0.2744502E-011  0.5052885E+02  0.7816164E-02  0.1300439E+00
        -11   -1    0    0    0    0  0.00000000000E+00  0.00000000000E+00  0.45593999997E+02  0.45594000000E+02  0.51100000000E-03 0. -1.
         11   -1    0    0    0    0 -0.00000000000E+00 -0.00000000000E+00 -0.45593999997E+02  0.45594000000E+02  0.51100000000E-03 0.  1.
    9900012    2    1    2    0    0 -0.29805510891E+02 -0.27618757881E+02  0.14149436264E+01  0.50528851806E+02  0.29999975550E+02 0.  0.
         12    1    1    2    0    0  0.29805510891E+02  0.27618757881E+02 -0.14149436264E+01  0.40659148194E+02  0.00000000000E+00 0. -1.
         11    1    3    3    0    0 -0.12255898549E+02 -0.16404963024E+02 -0.48986003509E+01  0.21055311604E+02  0.51100000000E-03 0.  1.
        -11    1    3    3    0    0  0.41682817330E+01  0.24242835928E+00  0.25631059990E+00  0.41831853293E+01  0.51100000000E-03 0. -1.
         12    1    3    3    0    0 -0.21717894075E+02 -0.11456223216E+02  0.60572333774E+01  0.25290354873E+02  0.00000000000E+00 0. -1.
</event>
<event>
 7    1  0.2744502E-011  0.5052886E+02  0.7816164E-02  0.1300439E+00
        -11   -1    0    0    0    0  0.00000000000E+00  0.00000000000E+00  0.45593999997E+02  0.45594000000E+02  0.51100000000E-03 0.  1.
         11   -1    0    0    0    0 -0.00000000000E+00 -0.00000000000E+00 -0.45593999997E+02  0.45594000000E+02  0.51100000000E-03 0. -1.
    9900012    2    1    2    0    0 -0.22907850782E+02  0.32844003495E+02 -0.70474890895E+01  0.50528864551E+02  0.30000014288E+02 0.  0.
         12    1    1    2    0    0  0.22907850782E+02 -0.32844003495E+02  0.70474890895E+01  0.40659135449E+02  0.00000000000E+00 0. -1.
         11    1    3    3    0    0  0.30697533247E+01  0.81371996531E+01 -0.14882576981E+01  0.88233958828E+01  0.51100000000E-03 0. -1.
        -11    1    3    3    0    0 -0.16943755285E+02  0.93913384053E+01  0.62550330119E+01  0.20357149075E+02  0.51100000000E-03 0.  1.
         12    1    3    3    0    0 -0.90338488215E+01  0.15315465436E+02 -0.11814264403E+02  0.21348319593E+02  0.00000000000E+00 0. -1.
</event>
<event>
 7    1  0.2744502E-011  0.5052887E+02  0.7816164E-02  0.1300439E+00
        -11   -1    0    0    0    0  0.00000000000E+00  0.00000000000E+00  0.45593999997E+02  0.45594000000E+02  0.51100000000E-03 0.  1.
         11   -1    0    0    0    0 -0.00000000000E+00 -0.00000000000E+00 -0.45593999997E+02  0.45594000000E+02  0.51100000000E-03 0. -1.
    9900012    2    1    2    0    0  0.27840475060E+02 -0.11172516915E+02  0.27445364469E+02  0.50528865520E+02  0.30000017236E+02 0.  0.
         12    1    1    2    0    0 -0.27840475060E+02  0.11172516915E+02 -0.27445364469E+02  0.40659134480E+02  0.00000000000E+00 0. -1.
         11    1    3    3    0    0  0.47191965612E+00 -0.12249698441E+02  0.82718157720E+01  0.14788534630E+02  0.51100000000E-03 0. -1.
        -11    1    3    3    0    0  0.99605615588E+00 -0.35730725400E+00  0.62455358798E+01  0.63345493152E+01  0.51100000000E-03 0.  1.
         12    1    3    3    0    0  0.26372499248E+02  0.14344887807E+01  0.12928012818E+02  0.29405781576E+02  0.00000000000E+00 0. -1.
</event>
<event>
 7    1  0.2744502E-011  0.5052886E+02  0.7816164E-02  0.1300439E+00
        -11   -1    0    0    0    0  0.00000000000E+00  0.00000000000E+00  0.45593999997E+02  0.45594000000E+02  0.51100000000E-03 0.  1.
         11   -1    0    0    0    0 -0.00000000000E+00 -0.00000000000E+00 -0.45593999997E+02  0.45594000000E+02  0.51100000000E-03 0. -1.
    9900012    2    1    2    0    0 -0.16305724776E+02 -0.72917475342E+01  0.36525595934E+02  0.50528863254E+02  0.30000010348E+02 0.  0.
         12    1    1    2    0    0  0.16305724776E+02  0.72917475342E+01 -0.36525595934E+02  0.40659136746E+02  0.00000000000E+00 0. -1.
         11    1    3    3    0    0 -0.15778440904E+02 -0.61259861407E+01  0.11133506255E+02  0.20259364881E+02  0.51100000000E-03 0. -1.
        -11    1    3    3    0    0 -0.70572937651E+01 -0.26204366184E+01  0.56149760175E+01  0.93914875976E+01  0.51100000000E-03 0.  1.
        -12    1    3    3    0    0  0.65300098931E+01  0.14546752249E+01  0.19777113661E+02  0.20878010776E+02  0.00000000000E+00 0.  1.
</event>
<event>
 7    1  0.2744502E-011  0.5052885E+02  0.7816164E-02  0.1300439E+00
        -11   -1    0    0    0    0  0.00000000000E+00  0.00000000000E+00  0.45593999997E+02  0.45594000000E+02  0.51100000000E-03 0.  1.
         11   -1    0    0    0    0 -0.00000000000E+00 -0.00000000000E+00 -0.45593999997E+02  0.45594000000E+02  0.51100000000E-03 0. -1.
    9900012    2    1    2    0    0 -0.11978233559E+02 -0.12917395860E+02  0.36644632130E+02  0.50528852703E+02  0.29999978275E+02 0.  0.
         12    1    1    2    0    0  0.11978233559E+02  0.12917395860E+02 -0.36644632130E+02  0.40659147297E+02  0.00000000000E+00 0. -1.
         11    1    3    3    0    0  0.17130670899E+01  0.38845926553E+01 -0.27785531082E+00  0.42546283958E+01  0.51100000000E-03 0. -1.
        -11    1    3    3    0    0 -0.11124099069E+01  0.23842489271E+01  0.12468574454E+02  0.12743133363E+02  0.51100000000E-03 0.  1.
        -12    1    3    3    0    0 -0.12578890742E+02 -0.19186237442E+02  0.24453912987E+02  0.33531090944E+02  0.00000000000E+00 0.  1.
</event>
<event>
 7    1  0.2744502E-011  0.5052886E+02  0.7816164E-02  0.1300439E+00
        -11   -1    0    0    0    0  0.00000000000E+00  0.00000000000E+00  0.45593999997E+02  0.45594000000E+02  0.51100000000E-03 0.  1.
         11   -1    0    0    0    0 -0.00000000000E+00 -0.00000000000E+00 -0.45593999997E+02  0.45594000000E+02  0.51100000000E-03 0. -1.
    9900012    2    1    2    0    0  0.30971903532E+02  0.19138024986E+01  0.26272494596E+02  0.50528863011E+02  0.30000009607E+02 0.  0.
         12    1    1    2    0    0 -0.30971903532E+02 -0.19138024986E+01 -0.26272494596E+02  0.40659136989E+02  0.00000000000E+00 0. -1.
         11    1    3    3    0    0  0.42411715806E+01 -0.52007067839E+01  0.74838778704E+01  0.10052030425E+02  0.51100000000E-03 0. -1.
        -11    1    3    3    0    0  0.20730571162E+02 -0.53214523230E+01  0.76239747524E+01  0.22720022597E+02  0.51100000000E-03 0.  1.
        -12    1    3    3    0    0  0.60001607893E+01  0.12435961605E+02  0.11164641974E+02  0.17756809988E+02  0.00000000000E+00 0.  1.
</event>
<event>
 7    1  0.2744502E-011  0.5052885E+02  0.7816164E-02  0.1300439E+00
        -11   -1    0    0    0    0  0.00000000000E+00  0.00000000000E+00  0.45593999997E+02  0.45594000000E+02  0.51100000000E-03 0.  1.
         11   -1    0    0    0    0 -0.00000000000E+00 -0.00000000000E+00 -0.45593999997E+02  0.45594000000E+02  0.51100000000E-03 0. -1.
    9900012    2    1    2    0    0  0.36218471618E+02  0.46771072620E+01  0.17874933837E+02  0.50528852464E+02  0.29999977550E+02 0.  0.
         12    1    1    2    0    0 -0.36218471618E+02 -0.46771072620E+01 -0.17874933837E+02  0.40659147536E+02  0.00000000000E+00 0. -1.
         11    1    3    3    0    0  0.13172345144E+02  0.94930030348E+01 -0.37138374932E+01  0.16655941054E+02  0.51100000000E-03 0. -1.
        -11    1    3    3    0    0  0.42625161177E+01 -0.10356784580E+01 -0.74196639706E+00  0.44488411882E+01  0.51100000000E-03 0.  1.
        -12    1    3    3    0    0  0.18783610356E+02 -0.37802173149E+01  0.22330737728E+02  0.29424070222E+02  0.00000000000E+00 0.  1.
</event>
<event>
 7    1  0.2744502E-011  0.5052885E+02  0.7816164E-02  0.1300439E+00
        -11   -1    0    0    0    0  0.00000000000E+00  0.00000000000E+00  0.45593999997E+02  0.45594000000E+02  0.51100000000E-03 0.  1.
         11   -1    0    0    0    0 -0.00000000000E+00 -0.00000000000E+00 -0.45593999997E+02  0.45594000000E+02  0.51100000000E-03 0. -1.
    9900012    2    1    2    0    0  0.11954243337E+02 -0.17803868410E+02  0.34543950386E+02  0.50528853767E+02  0.29999981511E+02 0.  0.
         12    1    1    2    0    0 -0.11954243337E+02  0.17803868410E+02 -0.34543950386E+02  0.40659146233E+02  0.00000000000E+00 0. -1.
         11    1    3    3    0    0  0.87221781405E+01 -0.10945879780E+02  0.20276955296E+02  0.24638254646E+02  0.51100000000E-03 0. -1.
        -11    1    3    3    0    0  0.78216390140E+01 -0.11351383587E+02  0.13712236009E+02  0.19443697252E+02  0.51100000000E-03 0.  1.
        -12    1    3    3    0    0 -0.45895738176E+01  0.44933949577E+01  0.55475908190E+00  0.64469018693E+01  0.00000000000E+00 0.  1.
</event>
<event>
 7    1  0.2744502E-011  0.5052893E+02  0.7816164E-02  0.1300439E+00
        -11   -1    0    0    0    0  0.00000000000E+00  0.00000000000E+00  0.45593999997E+02  0.45594000000E+02  0.51100000000E-03 0. -1.
         11   -1    0    0    0    0 -0.00000000000E+00 -0.00000000000E+00 -0.45593999997E+02  0.45594000000E+02  0.51100000000E-03 0.  1.
    9900012    2    1    2    0    0  0.32595075364E+02  0.22611653461E+02 -0.89125721415E+01  0.50528932716E+02  0.30000221483E+02 0.  0.
         12    1    1    2    0    0 -0.32595075364E+02 -0.22611653461E+02  0.89125721415E+01  0.40659067284E+02  0.00000000000E+00 0. -1.
         11    1    3    3    0    0  0.58160026126E+01 -0.16331346978E+01  0.47929068984E+01  0.77113534563E+01  0.51100000000E-03 0. -1.
        -11    1    3    3    0    0  0.21632336377E+02  0.21027940744E+02 -0.18228865973E+02  0.35248032910E+02  0.51100000000E-03 0.  1.
         12    1    3    3    0    0  0.51467363741E+01  0.32168474152E+01  0.45233869333E+01  0.75695463500E+01  0.00000000000E+00 0. -1.
</event>
<event>
 7    1  0.2744502E-011  0.5052886E+02  0.7816164E-02  0.1300439E+00
        -11   -1    0    0    0    0  0.00000000000E+00  0.00000000000E+00  0.45593999997E+02  0.45594000000E+02  0.51100000000E-03 0.  1.
         11   -1    0    0    0    0 -0.00000000000E+00 -0.00000000000E+00 -0.45593999997E+02  0.45594000000E+02  0.51100000000E-03 0. -1.
    9900012    2    1    2    0    0 -0.24521494132E+02 -0.30065326150E+02 -0.12162990514E+02  0.50528857742E+02  0.29999993591E+02 0.  0.
         12    1    1    2    0    0  0.24521494132E+02  0.30065326150E+02  0.12162990514E+02  0.40659142258E+02  0.00000000000E+00 0. -1.
         11    1    3    3    0    0  0.11639010685E+01 -0.17273484085E+02  0.36676869422E+00  0.17316536538E+02  0.51100000000E-03 0. -1.
        -11    1    3    3    0    0 -0.86182716741E+01 -0.10285312655E+02 -0.42326930796E+01  0.14070463888E+02  0.51100000000E-03 0.  1.
         12    1    3    3    0    0 -0.17067123526E+02 -0.25065294097E+01 -0.82970661282E+01  0.19141857315E+02  0.00000000000E+00 0. -1.
</event>
<event>
 7    1  0.2744502E-011  0.5052888E+02  0.7816164E-02  0.1300439E+00
        -11   -1    0    0    0    0  0.00000000000E+00  0.00000000000E+00  0.45593999997E+02  0.45594000000E+02  0.51100000000E-03 0.  1.
         11   -1    0    0    0    0 -0.00000000000E+00 -0.00000000000E+00 -0.45593999997E+02  0.45594000000E+02  0.51100000000E-03 0. -1.
    9900012    2    1    2    0    0  0.40352708526E+02 -0.21621236950E+01 -0.44886837322E+01  0.50528878688E+02  0.30000057259E+02 0.  0.
         12    1    1    2    0    0 -0.40352708526E+02  0.21621236950E+01  0.44886837322E+01  0.40659121312E+02  0.00000000000E+00 0. -1.
         11    1    3    3    0    0  0.47866794617E+01  0.37051490125E+01  0.87900948580E+01  0.10672684636E+02  0.51100000000E-03 0.  1.
        -11    1    3    3    0    0  0.81101961970E+00 -0.22680371062E+01  0.17411572823E+00  0.24149661874E+01  0.51100000000E-03 0. -1.
        -12    1    3    3    0    0  0.34755009445E+02 -0.35992356013E+01 -0.13452894318E+02  0.37441227864E+02  0.00000000000E+00 0.  1.
</event>
<event>
 7    1  0.2744502E-011  0.5052885E+02  0.7816164E-02  0.1300439E+00
        -11   -1    0    0    0    0  0.00000000000E+00  0.00000000000E+00  0.45593999997E+02  0.45594000000E+02  0.51100000000E-03 0. -1.
         11   -1    0    0    0    0 -0.00000000000E+00 -0.00000000000E+00 -0.45593999997E+02  0.45594000000E+02  0.51100000000E-03 0.  1.
    9900012    2    1    2    0    0  0.38308803645E+02 -0.52029006277E+01 -0.12590955667E+02  0.50528846341E+02  0.29999958938E+02 0.  0.
         12    1    1    2    0    0 -0.38308803645E+02  0.52029006277E+01  0.12590955667E+02  0.40659153659E+02  0.00000000000E+00 0. -1.
         11    1    3    3    0    0  0.85809150326E+01  0.26529521264E+01  0.80698607163E+01  0.12074473488E+02  0.51100000000E-03 0. -1.
        -11    1    3    3    0    0  0.10273515594E+02  0.21092795352E+01 -0.54031972034E+01  0.11797827050E+02  0.51100000000E-03 0.  1.
        -12    1    3    3    0    0  0.19454373018E+02 -0.99651322892E+01 -0.15257619180E+02  0.26656545803E+02  0.00000000000E+00 0.  1.
</event>
<event>
 7    1  0.2744502E-011  0.5052887E+02  0.7816164E-02  0.1300439E+00
        -11   -1    0    0    0    0  0.00000000000E+00  0.00000000000E+00  0.45593999997E+02  0.45594000000E+02  0.51100000000E-03 0. -1.
         11   -1    0    0    0    0 -0.00000000000E+00 -0.00000000000E+00 -0.45593999997E+02  0.45594000000E+02  0.51100000000E-03 0.  1.
    9900012    2    1    2    0    0 -0.33615573239E+02 -0.21780514813E+02 -0.69833312500E+01  0.50528874271E+02  0.30000043835E+02 0.  0.
         12    1    1    2    0    0  0.33615573239E+02  0.21780514813E+02  0.69833312500E+01  0.40659125729E+02  0.00000000000E+00 0. -1.
         11    1    3    3    0    0 -0.53314912691E+01 -0.55864381369E+01 -0.68960760925E+01  0.10353209934E+02  0.51100000000E-03 0. -1.
        -11    1    3    3    0    0 -0.26397382587E+02 -0.17850630232E+02 -0.71682873883E+01  0.32662687450E+02  0.51100000000E-03 0.  1.
         12    1    3    3    0    0 -0.18866993826E+01  0.16565535560E+01  0.70810322308E+01  0.75129768866E+01  0.00000000000E+00 0. -1.
</event>
<event>
 7    1  0.2744502E-011  0.5052886E+02  0.7816164E-02  0.1300439E+00
        -11   -1    0    0    0    0  0.00000000000E+00  0.00000000000E+00  0.45593999997E+02  0.45594000000E+02  0.51100000000E-03 0. -1.
         11   -1    0    0    0    0 -0.00000000000E+00 -0.00000000000E+00 -0.45593999997E+02  0.45594000000E+02  0.51100000000E-03 0.  1.
    9900012    2    1    2    0    0  0.18488920106E+02 -0.30135680640E+02 -0.20079002745E+02  0.50528858770E+02  0.29999996718E+02 0.  0.
         12    1    1    2    0    0 -0.18488920106E+02  0.30135680640E+02  0.20079002745E+02  0.40659141230E+02  0.00000000000E+00 0. -1.
         11    1    3    3    0    0  0.97195334745E+01 -0.20723796082E+01 -0.12824924264E+02  0.16224757959E+02  0.51100000000E-03 0. -1.
        -11    1    3    3    0    0  0.46741994931E+01 -0.22070302239E+01 -0.62441250048E+01  0.81060607355E+01  0.51100000000E-03 0.  1.
         12    1    3    3    0    0  0.40951871381E+01 -0.25856270808E+02 -0.10099534769E+01  0.26198040076E+02  0.00000000000E+00 0. -1.
</event>
<event>
 7    1  0.2744502E-011  0.5052886E+02  0.7816164E-02  0.1300439E+00
        -11   -1    0    0    0    0  0.00000000000E+00  0.00000000000E+00  0.45593999997E+02  0.45594000000E+02  0.51100000000E-03 0. -1.
         11   -1    0    0    0    0 -0.00000000000E+00 -0.00000000000E+00 -0.45593999997E+02  0.45594000000E+02  0.51100000000E-03 0.  1.
    9900012    2    1    2    0    0  0.26349631304E+02 -0.15025157276E+02 -0.27075954438E+02  0.50528859210E+02  0.29999998055E+02 0.  0.
         12    1    1    2    0    0 -0.26349631304E+02  0.15025157276E+02  0.27075954438E+02  0.40659140790E+02  0.00000000000E+00 0. -1.
         11    1    3    3    0    0  0.79709681536E+01 -0.51072665505E+01  0.40756050191E+01  0.10306845369E+02  0.51100000000E-03 0. -1.
        -11    1    3    3    0    0  0.34212159930E+01  0.36761164637E+01 -0.84229845708E+01  0.98063867182E+01  0.51100000000E-03 0.  1.
        -12    1    3    3    0    0  0.14957447158E+02 -0.13594007189E+02 -0.22728574886E+02  0.30415627123E+02  0.00000000000E+00 0.  1.
</event>
<event>
 7    1  0.2744502E-011  0.5052886E+02  0.7816164E-02  0.1300439E+00
        -11   -1    0    0    0    0  0.00000000000E+00  0.00000000000E+00  0.45593999997E+02  0.45594000000E+02  0.51100000000E-03 0. -1.
         11   -1    0    0    0    0 -0.00000000000E+00 -0.00000000000E+00 -0.45593999997E+02  0.45594000000E+02  0.51100000000E-03 0.  1.
    9900012    2    1    2    0    0 -0.16429225587E+02 -0.11793517682E+02 -0.35272643210E+02  0.50528857464E+02  0.29999992749E+02 0.  0.
         12    1    1    2    0    0  0.16429225587E+02  0.11793517682E+02  0.35272643210E+02  0.40659142536E+02  0.00000000000E+00 0. -1.
         11    1    3    3    0    0 -0.60680670235E+01  0.25143670787E+01  0.16167908095E+01  0.67644284305E+01  0.51100000000E-03 0. -1.
        -11    1    3    3    0    0 -0.13920503034E+02 -0.10731117060E+02 -0.22732308555E+02  0.28734911355E+02  0.51100000000E-03 0.  1.
        -12    1    3    3    0    0  0.35593444706E+01 -0.35767677004E+01 -0.14157125465E+02  0.15029517679E+02  0.00000000000E+00 0.  1.
</event>
<event>
 7    1  0.2744502E-011  0.5052886E+02  0.7816164E-02  0.1300439E+00
        -11   -1    0    0    0    0  0.00000000000E+00  0.00000000000E+00  0.45593999997E+02  0.45594000000E+02  0.51100000000E-03 0.  1.
         11   -1    0    0    0    0 -0.00000000000E+00 -0.00000000000E+00 -0.45593999997E+02  0.45594000000E+02  0.51100000000E-03 0. -1.
    9900012    2    1    2    0    0 -0.18346172530E+02 -0.11379049147E+02  0.34454332142E+02  0.50528858232E+02  0.29999995081E+02 0.  0.
         12    1    1    2    0    0  0.18346172530E+02  0.11379049147E+02 -0.34454332142E+02  0.40659141768E+02  0.00000000000E+00 0. -1.
         11    1    3    3    0    0  0.35115736411E+01  0.58404205011E+01  0.90450015672E+01  0.11324915659E+02  0.51100000000E-03 0. -1.
        -11    1    3    3    0    0 -0.15166773526E+01  0.14512139192E+01  0.29033433174E+01  0.35826993609E+01  0.51100000000E-03 0.  1.
        -12    1    3    3    0    0 -0.20341068818E+02 -0.18670683567E+02  0.22505987258E+02  0.35621243212E+02  0.00000000000E+00 0.  1.
</event>
<event>
 7    1  0.2744502E-011  0.5052888E+02  0.7816164E-02  0.1300439E+00
        -11   -1    0    0    0    0  0.00000000000E+00  0.00000000000E+00  0.45593999997E+02  0.45594000000E+02  0.51100000000E-03 0.  1.
         11   -1    0    0    0    0 -0.00000000000E+00 -0.00000000000E+00 -0.45593999997E+02  0.45594000000E+02  0.51100000000E-03 0. -1.
    9900012    2    1    2    0    0  0.77291851335E+01 -0.38907976264E+02 -0.89215108040E+01  0.50528877102E+02  0.30000052441E+02 0.  0.
         12    1    1    2    0    0 -0.77291851335E+01  0.38907976264E+02  0.89215108040E+01  0.40659122898E+02  0.00000000000E+00 0. -1.
         11    1    3    3    0    0 -0.67380808901E+00 -0.27403999434E+01  0.23355445834E+01  0.36631377196E+01  0.51100000000E-03 0. -1.
        -11    1    3    3    0    0 -0.71145474042E+00  0.35299424472E+01  0.18890773867E+01  0.40663589564E+01  0.51100000000E-03 0.  1.
         12    1    3    3    0    0  0.91144479629E+01 -0.39697518768E+02 -0.13146132774E+02  0.42799380426E+02  0.00000000000E+00 0. -1.
</event>
<event>
 7    1  0.2744502E-011  0.5052887E+02  0.7816164E-02  0.1300439E+00
        -11   -1    0    0    0    0  0.00000000000E+00  0.00000000000E+00  0.45593999997E+02  0.45594000000E+02  0.51100000000E-03 0.  1.
         11   -1    0    0    0    0 -0.00000000000E+00 -0.00000000000E+00 -0.45593999997E+02  0.45594000000E+02  0.51100000000E-03 0. -1.
    9900012    2    1    2    0    0  0.37276455686E+02  0.14141701418E+02  0.79776567949E+01  0.50528869716E+02  0.30000029987E+02 0.  0.
         12    1    1    2    0    0 -0.37276455686E+02 -0.14141701418E+02 -0.79776567949E+01  0.40659130284E+02  0.00000000000E+00 0. -1.
         11    1    3    3    0    0  0.58422065649E+01  0.11672811922E+02  0.21104684454E+01  0.13222707478E+02  0.51100000000E-03 0. -1.
        -11    1    3    3    0    0 -0.47300519057E+00  0.23894164977E+01 -0.33059489933E+01  0.41063784674E+01  0.51100000000E-03 0.  1.
        -12    1    3    3    0    0  0.31907254312E+02  0.79472998349E-01  0.91731373428E+01  0.33199783770E+02  0.00000000000E+00 0.  1.
</event>
<event>
 7    1  0.2744502E-011  0.5052887E+02  0.7816164E-02  0.1300439E+00
        -11   -1    0    0    0    0  0.00000000000E+00  0.00000000000E+00  0.45593999997E+02  0.45594000000E+02  0.51100000000E-03 0. -1.
         11   -1    0    0    0    0 -0.00000000000E+00 -0.00000000000E+00 -0.45593999997E+02  0.45594000000E+02  0.51100000000E-03 0.  1.
    9900012    2    1    2    0    0  0.15273060146E+01 -0.17116803332E+02 -0.36848979189E+02  0.50528869571E+02  0.30000029549E+02 0.  0.
         12    1    1    2    0    0 -0.15273060146E+01  0.17116803332E+02  0.36848979189E+02  0.40659130429E+02  0.00000000000E+00 0. -1.
         11    1    3    3    0    0 -0.72999420142E+01  0.76421397482E-02 -0.17139992330E+01  0.74984668730E+01  0.51100000000E-03 0. -1.
        -11    1    3    3    0    0 -0.42630779273E+01 -0.37545392404E+01 -0.11992719514E+02  0.13270106251E+02  0.51100000000E-03 0.  1.
         12    1    3    3    0    0  0.13090325956E+02 -0.13369906231E+02 -0.23142260442E+02  0.29760296447E+02  0.00000000000E+00 0. -1.
</event>
<event>
 7    1  0.2744502E-011  0.5052886E+02  0.7816164E-02  0.1300439E+00
        -11   -1    0    0    0    0  0.00000000000E+00  0.00000000000E+00  0.45593999997E+02  0.45594000000E+02  0.51100000000E-03 0. -1.
         11   -1    0    0    0    0 -0.00000000000E+00 -0.00000000000E+00 -0.45593999997E+02  0.45594000000E+02  0.51100000000E-03 0.  1.
    9900012    2    1    2    0    0  0.11972038313E+02 -0.15894357285E+01 -0.38824088082E+02  0.50528858067E+02  0.29999994580E+02 0.  0.
         12    1    1    2    0    0 -0.11972038313E+02  0.15894357285E+01  0.38824088082E+02  0.40659141933E+02  0.00000000000E+00 0. -1.
         11    1    3    3    0    0  0.22378814567E+00  0.98645070924E+01 -0.45762059858E+01  0.10876591506E+02  0.51100000000E-03 0. -1.
        -11    1    3    3    0    0  0.12136359249E+02 -0.60050573676E+01 -0.18093519967E+02  0.22599278636E+02  0.51100000000E-03 0.  1.
        -12    1    3    3    0    0 -0.38810908118E+00 -0.54488854532E+01 -0.16154362129E+02  0.17052987924E+02  0.00000000000E+00 0.  1.
</event>
<event>
 7    1  0.2744502E-011  0.5052886E+02  0.7816164E-02  0.1300439E+00
        -11   -1    0    0    0    0  0.00000000000E+00  0.00000000000E+00  0.45593999997E+02  0.45594000000E+02  0.51100000000E-03 0. -1.
         11   -1    0    0    0    0 -0.00000000000E+00 -0.00000000000E+00 -0.45593999997E+02  0.45594000000E+02  0.51100000000E-03 0.  1.
    9900012    2    1    2    0    0 -0.64855205945E-01  0.20329700582E+02 -0.35211714645E+02  0.50528858590E+02  0.29999996171E+02 0.  0.
         12    1    1    2    0    0  0.64855205945E-01 -0.20329700582E+02  0.35211714645E+02  0.40659141410E+02  0.00000000000E+00 0. -1.
         11    1    3    3    0    0 -0.51541749447E+01  0.26216611942E+02 -0.27025333119E+02  0.38003222120E+02  0.51100000000E-03 0. -1.
        -11    1    3    3    0    0 -0.58202519089E+00 -0.37449667587E+00 -0.29742682043E+01  0.30537309468E+01  0.51100000000E-03 0.  1.
        -12    1    3    3    0    0  0.56713449296E+01 -0.55124146841E+01 -0.52121133220E+01  0.94719055232E+01  0.00000000000E+00 0.  1.
</event>
<event>
 7    1  0.2744502E-011  0.5052887E+02  0.7816164E-02  0.1300439E+00
        -11   -1    0    0    0    0  0.00000000000E+00  0.00000000000E+00  0.45593999997E+02  0.45594000000E+02  0.51100000000E-03 0. -1.
         11   -1    0    0    0    0 -0.00000000000E+00 -0.00000000000E+00 -0.45593999997E+02  0.45594000000E+02  0.51100000000E-03 0.  1.
    9900012    2    1    2    0    0  0.20833435603E+02 -0.33454460462E+01 -0.34755445386E+02  0.50528867787E+02  0.30000024126E+02 0.  0.
         12    1    1    2    0    0 -0.20833435603E+02  0.33454460462E+01  0.34755445386E+02  0.40659132213E+02  0.00000000000E+00 0. -1.
         11    1    3    3    0    0 -0.56332530101E+00 -0.24586659631E+01  0.15523070644E+01  0.29617615023E+01  0.51100000000E-03 0. -1.
        -11    1    3    3    0    0  0.97113479361E+01 -0.31339725080E+01 -0.93592690458E+00  0.10247342185E+02  0.51100000000E-03 0.  1.
        -12    1    3    3    0    0  0.11685412968E+02  0.22471924250E+01 -0.35371825546E+02  0.37319764100E+02  0.00000000000E+00 0.  1.
</event>
<event>
 7    1  0.2744502E-011  0.5052882E+02  0.7816164E-02  0.1300439E+00
        -11   -1    0    0    0    0  0.00000000000E+00  0.00000000000E+00  0.45593999997E+02  0.45594000000E+02  0.51100000000E-03 0. -1.
         11   -1    0    0    0    0 -0.00000000000E+00 -0.00000000000E+00 -0.45593999997E+02  0.45594000000E+02  0.51100000000E-03 0.  1.
    9900012    2    1    2    0    0 -0.15456133185E+02 -0.36038646883E+02 -0.10746742245E+02  0.50528824024E+02  0.29999891103E+02 0.  0.
         12    1    1    2    0    0  0.15456133185E+02  0.36038646883E+02  0.10746742245E+02  0.40659175976E+02  0.00000000000E+00 0. -1.
         11    1    3    3    0    0 -0.44649891054E+01 -0.19619332513E+02 -0.92054106279E+01  0.22126769331E+02  0.51100000000E-03 0. -1.
        -11    1    3    3    0    0 -0.14050988368E+01 -0.63673487638E+01 -0.10147512820E+02  0.12061900751E+02  0.51100000000E-03 0.  1.
         12    1    3    3    0    0 -0.95860452427E+01 -0.10051965606E+02  0.86061812030E+01  0.16340153942E+02  0.00000000000E+00 0. -1.
</event>
<event>
 7    1  0.2744502E-011  0.5052885E+02  0.7816164E-02  0.1300439E+00
        -11   -1    0    0    0    0  0.00000000000E+00  0.00000000000E+00  0.45593999997E+02  0.45594000000E+02  0.51100000000E-03 0.  1.
         11   -1    0    0    0    0 -0.00000000000E+00 -0.00000000000E+00 -0.45593999997E+02  0.45594000000E+02  0.51100000000E-03 0. -1.
    9900012    2    1    2    0    0  0.18005049887E+02  0.31377732008E+02  0.18558624814E+02  0.50528850447E+02  0.29999971417E+02 0.  0.
         12    1    1    2    0    0 -0.18005049887E+02 -0.31377732008E+02 -0.18558624814E+02  0.40659149553E+02  0.00000000000E+00 0. -1.
         11    1    3    3    0    0  0.14626209783E+02  0.25685698670E+02  0.33599833179E+01  0.29748455707E+02  0.51100000000E-03 0. -1.
        -11    1    3    3    0    0 -0.17051208363E+01  0.80057534920E+01  0.65435114884E+01  0.10479363955E+02  0.51100000000E-03 0.  1.
         12    1    3    3    0    0  0.50839609398E+01 -0.23137201531E+01  0.86551300077E+01  0.10301030785E+02  0.00000000000E+00 0. -1.
</event>
<event>
 7    1  0.2744502E-011  0.5052886E+02  0.7816164E-02  0.1300439E+00
        -11   -1    0    0    0    0  0.00000000000E+00  0.00000000000E+00  0.45593999997E+02  0.45594000000E+02  0.51100000000E-03 0. -1.
         11   -1    0    0    0    0 -0.00000000000E+00 -0.00000000000E+00 -0.45593999997E+02  0.45594000000E+02  0.51100000000E-03 0.  1.
    9900012    2    1    2    0    0  0.30832783951E+02 -0.76542778717E+01 -0.25375522415E+02  0.50528859899E+02  0.30000000148E+02 0.  0.
         12    1    1    2    0    0 -0.30832783951E+02  0.76542778717E+01  0.25375522415E+02  0.40659140101E+02  0.00000000000E+00 0. -1.
         11    1    3    3    0    0  0.14091439083E+02 -0.38765748852E+01 -0.64795318380E+01  0.15986895302E+02  0.51100000000E-03 0. -1.
        -11    1    3    3    0    0  0.50748994447E+01  0.61607371970E+01 -0.17399985789E+02  0.19143374648E+02  0.51100000000E-03 0.  1.
         12    1    3    3    0    0  0.11666445423E+02 -0.99384401835E+01 -0.14960047881E+01  0.15398589949E+02  0.00000000000E+00 0. -1.
</event>
<event>
 7    1  0.2744502E-011  0.5052885E+02  0.7816164E-02  0.1300439E+00
        -11   -1    0    0    0    0  0.00000000000E+00  0.00000000000E+00  0.45593999997E+02  0.45594000000E+02  0.51100000000E-03 0. -1.
         11   -1    0    0    0    0 -0.00000000000E+00 -0.00000000000E+00 -0.45593999997E+02  0.45594000000E+02  0.51100000000E-03 0.  1.
    9900012    2    1    2    0    0 -0.21309439877E+02 -0.31665439976E+02 -0.14013342911E+02  0.50528854703E+02  0.29999984355E+02 0.  0.
         12    1    1    2    0    0  0.21309439877E+02  0.31665439976E+02  0.14013342911E+02  0.40659145297E+02  0.00000000000E+00 0. -1.
         11    1    3    3    0    0 -0.12606833920E+02 -0.18886244994E+02 -0.15219006525E+02  0.27335703234E+02  0.51100000000E-03 0. -1.
        -11    1    3    3    0    0 -0.35032285329E+01 -0.32768142230E+01 -0.77661960814E+01  0.91281938763E+01  0.51100000000E-03 0.  1.
         12    1    3    3    0    0 -0.51993774238E+01 -0.95023807591E+01  0.89718596950E+01  0.14064957592E+02  0.00000000000E+00 0. -1.
</event>
<event>
 7    1  0.2744502E-011  0.5052888E+02  0.7816164E-02  0.1300439E+00
        -11   -1    0    0    0    0  0.00000000000E+00  0.00000000000E+00  0.45593999997E+02  0.45594000000E+02  0.51100000000E-03 0.  1.
         11   -1    0    0    0    0 -0.00000000000E+00 -0.00000000000E+00 -0.45593999997E+02  0.45594000000E+02  0.51100000000E-03 0. -1.
    9900012    2    1    2    0    0  0.40423818234E+02 -0.41267301235E+01  0.14314415859E+01  0.50528880394E+02  0.30000062447E+02 0.  0.
         12    1    1    2    0    0 -0.40423818234E+02  0.41267301235E+01 -0.14314415859E+01  0.40659119606E+02  0.00000000000E+00 0. -1.
         11    1    3    3    0    0  0.24112773068E+02  0.74372301266E+01 -0.72728602240E+01  0.26260858955E+02  0.51100000000E-03 0. -1.
        -11    1    3    3    0    0  0.63223632746E+01  0.11768898237E+01  0.18915496451E+01  0.67033802931E+01  0.51100000000E-03 0.  1.
        -12    1    3    3    0    0  0.99886818912E+01 -0.12740850074E+02  0.68127521647E+01  0.17564641146E+02  0.00000000000E+00 0.  1.
</event>
<event>
 7    1  0.2744502E-011  0.5052886E+02  0.7816164E-02  0.1300439E+00
        -11   -1    0    0    0    0  0.00000000000E+00  0.00000000000E+00  0.45593999997E+02  0.45594000000E+02  0.51100000000E-03 0. -1.
         11   -1    0    0    0    0 -0.00000000000E+00 -0.00000000000E+00 -0.45593999997E+02  0.45594000000E+02  0.51100000000E-03 0.  1.
    9900012    2    1    2    0    0  0.67387178112E+01 -0.25616422420E+02 -0.30847272018E+02  0.50528860729E+02  0.30000002672E+02 0.  0.
         12    1    1    2    0    0 -0.67387178112E+01  0.25616422420E+02  0.30847272018E+02  0.40659139271E+02  0.00000000000E+00 0. -1.
         11    1    3    3    0    0 -0.51827760426E+00 -0.82997106160E+00  0.25423637025E+00  0.10109896296E+01  0.51100000000E-03 0. -1.
        -11    1    3    3    0    0  0.15967929786E+02 -0.15981303493E+02 -0.29305281392E+02  0.37002383176E+02  0.51100000000E-03 0.  1.
        -12    1    3    3    0    0 -0.87109343704E+01 -0.88051478647E+01 -0.17962269958E+01  0.12515487923E+02  0.00000000000E+00 0.  1.
</event>
<event>
 7    1  0.2744502E-011  0.5052887E+02  0.7816164E-02  0.1300439E+00
        -11   -1    0    0    0    0  0.00000000000E+00  0.00000000000E+00  0.45593999997E+02  0.45594000000E+02  0.51100000000E-03 0. -1.
         11   -1    0    0    0    0 -0.00000000000E+00 -0.00000000000E+00 -0.45593999997E+02  0.45594000000E+02  0.51100000000E-03 0.  1.
    9900012    2    1    2    0    0  0.38911185632E+02 -0.27154151050E+00 -0.11790268857E+02  0.50528873819E+02  0.30000042461E+02 0.  0.
         12    1    1    2    0    0 -0.38911185632E+02  0.27154151050E+00  0.11790268857E+02  0.40659126181E+02  0.00000000000E+00 0. -1.
         11    1    3    3    0    0  0.96700934286E+01 -0.25574654629E+01 -0.11815637749E+01  0.10072111483E+02  0.51100000000E-03 0. -1.
        -11    1    3    3    0    0  0.30575987177E+02  0.83240885451E+01 -0.12384481095E+02  0.34022886623E+02  0.51100000000E-03 0.  1.
        -12    1    3    3    0    0 -0.13348949737E+01 -0.60381645927E+01  0.17757760130E+01  0.64338757128E+01  0.00000000000E+00 0.  1.
</event>
<event>
 7    1  0.2744502E-011  0.5052886E+02  0.7816164E-02  0.1300439E+00
        -11   -1    0    0    0    0  0.00000000000E+00  0.00000000000E+00  0.45593999997E+02  0.45594000000E+02  0.51100000000E-03 0.  1.
         11   -1    0    0    0    0 -0.00000000000E+00 -0.00000000000E+00 -0.45593999997E+02  0.45594000000E+02  0.51100000000E-03 0. -1.
    9900012    2    1    2    0    0 -0.69444947393E+01 -0.70363539924E+01  0.39438933498E+02  0.50528858836E+02  0.29999996919E+02 0.  0.
         12    1    1    2    0    0  0.69444947393E+01  0.70363539924E+01 -0.39438933498E+02  0.40659141164E+02  0.00000000000E+00 0. -1.
         11    1    3    3    0    0  0.11821042831E+01 -0.64633331017E+01  0.33783886211E+02  0.34416900109E+02  0.51100000000E-03 0. -1.
        -11    1    3    3    0    0  0.16547933029E+01 -0.23807970689E+01  0.54378681787E+01  0.61625438051E+01  0.51100000000E-03 0.  1.
         12    1    3    3    0    0 -0.97813923253E+01  0.18077761782E+01  0.21717910835E+00  0.99494149224E+01  0.00000000000E+00 0. -1.
</event>
<event>
 7    1  0.2744502E-011  0.5052888E+02  0.7816164E-02  0.1300439E+00
        -11   -1    0    0    0    0  0.00000000000E+00  0.00000000000E+00  0.45593999997E+02  0.45594000000E+02  0.51100000000E-03 0.  1.
         11   -1    0    0    0    0 -0.00000000000E+00 -0.00000000000E+00 -0.45593999997E+02  0.45594000000E+02  0.51100000000E-03 0. -1.
    9900012    2    1    2    0    0 -0.31836862010E+02  0.24364172483E+02  0.67798046402E+01  0.50528875140E+02  0.30000046475E+02 0.  0.
         12    1    1    2    0    0  0.31836862010E+02 -0.24364172483E+02 -0.67798046402E+01  0.40659124860E+02  0.00000000000E+00 0. -1.
         11    1    3    3    0    0 -0.12286971470E+02  0.17410185432E+02 -0.48583513271E+01  0.21856070153E+02  0.51100000000E-03 0. -1.
        -11    1    3    3    0    0  0.10212728231E+00  0.64181716464E+01  0.16796957936E+01  0.66351138260E+01  0.51100000000E-03 0.  1.
        -12    1    3    3    0    0 -0.19652017823E+02  0.53581540525E+00  0.99584601737E+01  0.22037691160E+02  0.00000000000E+00 0.  1.
</event>
<event>
 7    1  0.2744502E-011  0.5052886E+02  0.7816164E-02  0.1300439E+00
        -11   -1    0    0    0    0  0.00000000000E+00  0.00000000000E+00  0.45593999997E+02  0.45594000000E+02  0.51100000000E-03 0.  1.
         11   -1    0    0    0    0 -0.00000000000E+00 -0.00000000000E+00 -0.45593999997E+02  0.45594000000E+02  0.51100000000E-03 0. -1.
    9900012    2    1    2    0    0  0.53880168677E+01 -0.11333661630E+02  0.38674063992E+02  0.50528857887E+02  0.29999994035E+02 0.  0.
         12    1    1    2    0    0 -0.53880168677E+01  0.11333661630E+02 -0.38674063992E+02  0.40659142113E+02  0.00000000000E+00 0. -1.
         11    1    3    3    0    0  0.12068105808E+02 -0.63923618246E+00  0.18798699726E+02  0.22348129952E+02  0.51100000000E-03 0. -1.
        -11    1    3    3    0    0  0.34946571328E+01  0.13982117581E+01  0.18044678814E+01  0.41741740730E+01  0.51100000000E-03 0.  1.
         12    1    3    3    0    0 -0.10174746073E+02 -0.12092637205E+02  0.18070896384E+02  0.24006553863E+02  0.00000000000E+00 0. -1.
</event>
<event>
 7    1  0.2744502E-011  0.5052886E+02  0.7816164E-02  0.1300439E+00
        -11   -1    0    0    0    0  0.00000000000E+00  0.00000000000E+00  0.45593999997E+02  0.45594000000E+02  0.51100000000E-03 0.  1.
         11   -1    0    0    0    0 -0.00000000000E+00 -0.00000000000E+00 -0.45593999997E+02  0.45594000000E+02  0.51100000000E-03 0. -1.
    9900012    2    1    2    0    0 -0.21700942087E+02  0.33153377362E+02 -0.91152944360E+01  0.50528856986E+02  0.29999991295E+02 0.  0.
         12    1    1    2    0    0  0.21700942087E+02 -0.33153377362E+02  0.91152944360E+01  0.40659143014E+02  0.00000000000E+00 0. -1.
         11    1    3    3    0    0  0.12106239493E+01  0.10992910987E+02 -0.10744787324E+02  0.15419473312E+02  0.51100000000E-03 0. -1.
        -11    1    3    3    0    0 -0.49440119020E+01  0.29369601510E+01 -0.53841022365E+01  0.78776611865E+01  0.51100000000E-03 0.  1.
        -12    1    3    3    0    0 -0.17967554134E+02  0.19223506223E+02  0.70135951240E+01  0.27231722488E+02  0.00000000000E+00 0.  1.
</event>
<event>
 7    1  0.2744502E-011  0.5052886E+02  0.7816164E-02  0.1300439E+00
        -11   -1    0    0    0    0  0.00000000000E+00  0.00000000000E+00  0.45593999997E+02  0.45594000000E+02  0.51100000000E-03 0. -1.
         11   -1    0    0    0    0 -0.00000000000E+00 -0.00000000000E+00 -0.45593999997E+02  0.45594000000E+02  0.51100000000E-03 0.  1.
    9900012    2    1    2    0    0  0.25094852844E+02 -0.10498923876E+02 -0.30218972875E+02  0.50528863715E+02  0.30000011749E+02 0.  0.
         12    1    1    2    0    0 -0.25094852844E+02  0.10498923876E+02  0.30218972875E+02  0.40659136285E+02  0.00000000000E+00 0. -1.
         11    1    3    3    0    0 -0.84269220341E+00  0.50745881124E+01  0.16934182273E+01  0.54156477188E+01  0.51100000000E-03 0. -1.
        -11    1    3    3    0    0 -0.36224321842E+00 -0.20650877677E+01 -0.95034496568E+00  0.23019477519E+01  0.51100000000E-03 0.  1.
        -12    1    3    3    0    0  0.26299788266E+02 -0.13508424221E+02 -0.30962046136E+02  0.42811268245E+02  0.00000000000E+00 0.  1.
</event>
<event>
 7    1  0.2744502E-011  0.5052886E+02  0.7816164E-02  0.1300439E+00
        -11   -1    0    0    0    0  0.00000000000E+00  0.00000000000E+00  0.45593999997E+02  0.45594000000E+02  0.51100000000E-03 0.  1.
         11   -1    0    0    0    0 -0.00000000000E+00 -0.00000000000E+00 -0.45593999997E+02  0.45594000000E+02  0.51100000000E-03 0. -1.
    9900012    2    1    2    0    0  0.17891720483E+02  0.60376840531E+01  0.36008311129E+02  0.50528858827E+02  0.29999996891E+02 0.  0.
         12    1    1    2    0    0 -0.17891720483E+02 -0.60376840531E+01 -0.36008311129E+02  0.40659141173E+02  0.00000000000E+00 0. -1.
         11    1    3    3    0    0 -0.19567160820E+01 -0.61825753626E+01  0.10298385427E+02  0.12170033632E+02  0.51100000000E-03 0.  1.
        -11    1    3    3    0    0 -0.71808440906E+00 -0.26557943754E+01  0.45313580979E+01  0.53011409579E+01  0.51100000000E-03 0. -1.
        -12    1    3    3    0    0  0.20566520974E+02  0.14876053791E+02  0.21178567603E+02  0.33057684237E+02  0.00000000000E+00 0.  1.
</event>
<event>
 7    1  0.2744502E-011  0.5052884E+02  0.7816164E-02  0.1300439E+00
        -11   -1    0    0    0    0  0.00000000000E+00  0.00000000000E+00  0.45593999997E+02  0.45594000000E+02  0.51100000000E-03 0. -1.
         11   -1    0    0    0    0 -0.00000000000E+00 -0.00000000000E+00 -0.45593999997E+02  0.45594000000E+02  0.51100000000E-03 0.  1.
    9900012    2    1    2    0    0  0.36322872653E+02 -0.13960602831E+02 -0.11786341712E+02  0.50528839161E+02  0.29999937113E+02 0.  0.
         12    1    1    2    0    0 -0.36322872653E+02  0.13960602831E+02  0.11786341712E+02  0.40659160839E+02  0.00000000000E+00 0. -1.
         11    1    3    3    0    0 -0.17345753527E+01 -0.11748308426E+01 -0.27894506566E+00  0.21134781224E+01  0.51100000000E-03 0.  1.
        -11    1    3    3    0    0  0.32621092153E+00 -0.80844073338E+01 -0.58259252505E+01  0.99702287230E+01  0.51100000000E-03 0. -1.
        -12    1    3    3    0    0  0.37731237084E+02 -0.47013646548E+01 -0.56814713961E+01  0.38445132315E+02  0.00000000000E+00 0.  1.
</event>
<event>
 7    1  0.2744502E-011  0.5052885E+02  0.7816164E-02  0.1300439E+00
        -11   -1    0    0    0    0  0.00000000000E+00  0.00000000000E+00  0.45593999997E+02  0.45594000000E+02  0.51100000000E-03 0.  1.
         11   -1    0    0    0    0 -0.00000000000E+00 -0.00000000000E+00 -0.45593999997E+02  0.45594000000E+02  0.51100000000E-03 0. -1.
    9900012    2    1    2    0    0 -0.72178054020E+01  0.31177764901E+02  0.25080201295E+02  0.50528852984E+02  0.29999979130E+02 0.  0.
         12    1    1    2    0    0  0.72178054020E+01 -0.31177764901E+02 -0.25080201295E+02  0.40659147016E+02  0.00000000000E+00 0. -1.
         11    1    3    3    0    0 -0.12321598574E+02  0.11134970799E+02  0.53582408206E+01  0.17450504608E+02  0.51100000000E-03 0. -1.
        -11    1    3    3    0    0 -0.55396055251E+01  0.11567407163E+02  0.11174081887E+02  0.17010356967E+02  0.51100000000E-03 0.  1.
         12    1    3    3    0    0  0.10643398697E+02  0.84753869384E+01  0.85478785878E+01  0.16067991409E+02  0.00000000000E+00 0. -1.
</event>
<event>
 7    1  0.2744502E-011  0.5052886E+02  0.7816164E-02  0.1300439E+00
        -11   -1    0    0    0    0  0.00000000000E+00  0.00000000000E+00  0.45593999997E+02  0.45594000000E+02  0.51100000000E-03 0.  1.
         11   -1    0    0    0    0 -0.00000000000E+00 -0.00000000000E+00 -0.45593999997E+02  0.45594000000E+02  0.51100000000E-03 0. -1.
    9900012    2    1    2    0    0  0.12558692234E+02 -0.33639603584E+02 -0.19074119782E+02  0.50528859264E+02  0.29999998219E+02 0.  0.
         12    1    1    2    0    0 -0.12558692234E+02  0.33639603584E+02  0.19074119782E+02  0.40659140736E+02  0.00000000000E+00 0. -1.
         11    1    3    3    0    0 -0.16011281419E+01 -0.24352219410E+02 -0.42912080404E+01  0.24779198297E+02  0.51100000000E-03 0.  1.
        -11    1    3    3    0    0 -0.20727319139E+01 -0.12900510490E+00 -0.20328333315E+00  0.20866682244E+01  0.51100000000E-03 0. -1.
         12    1    3    3    0    0  0.16232552289E+02 -0.91583790690E+01 -0.14579628409E+02  0.23662992743E+02  0.00000000000E+00 0. -1.
</event>
<event>
 7    1  0.2744502E-011  0.5052886E+02  0.7816164E-02  0.1300439E+00
        -11   -1    0    0    0    0  0.00000000000E+00  0.00000000000E+00  0.45593999997E+02  0.45594000000E+02  0.51100000000E-03 0.  1.
         11   -1    0    0    0    0 -0.00000000000E+00 -0.00000000000E+00 -0.45593999997E+02  0.45594000000E+02  0.51100000000E-03 0. -1.
    9900012    2    1    2    0    0 -0.21626942281E+02 -0.21946495323E+02  0.26529080613E+02  0.50528863172E+02  0.30000010099E+02 0.  0.
         12    1    1    2    0    0  0.21626942281E+02  0.21946495323E+02 -0.26529080613E+02  0.40659136828E+02  0.00000000000E+00 0. -1.
         11    1    3    3    0    0 -0.21058556718E+02 -0.78381230573E+01  0.98044430812E+01  0.24515833425E+02  0.51100000000E-03 0. -1.
        -11    1    3    3    0    0 -0.59888791998E+01 -0.24306252492E+01  0.87158376561E+01  0.10850826673E+02  0.51100000000E-03 0.  1.
        -12    1    3    3    0    0  0.54204936365E+01 -0.11677747017E+02  0.80087998753E+01  0.15162203075E+02  0.00000000000E+00 0.  1.
</event>
<event>
 7    1  0.2744502E-011  0.5052886E+02  0.7816164E-02  0.1300439E+00
        -11   -1    0    0    0    0  0.00000000000E+00  0.00000000000E+00  0.45593999997E+02  0.45594000000E+02  0.51100000000E-03 0.  1.
         11   -1    0    0    0    0 -0.00000000000E+00 -0.00000000000E+00 -0.45593999997E+02  0.45594000000E+02  0.51100000000E-03 0. -1.
    9900012    2    1    2    0    0 -0.70346837489E+01 -0.26680724289E+02  0.29863323670E+02  0.50528856814E+02  0.29999990771E+02 0.  0.
         12    1    1    2    0    0  0.70346837489E+01  0.26680724289E+02 -0.29863323670E+02  0.40659143186E+02  0.00000000000E+00 0. -1.
         11    1    3    3    0    0  0.19372442597E+01  0.21201913125E+01  0.12421076008E+02  0.12748774686E+02  0.51100000000E-03 0. -1.
        -11    1    3    3    0    0  0.27250960364E+01 -0.11982146421E+02  0.10457921696E+02  0.16135864021E+02  0.51100000000E-03 0.  1.
        -12    1    3    3    0    0 -0.11697024045E+02 -0.16818769181E+02  0.69843259658E+01  0.21644218107E+02  0.00000000000E+00 0.  1.
</event>
<event>
 7    1  0.2744502E-011  0.5052886E+02  0.7816164E-02  0.1300439E+00
        -11   -1    0    0    0    0  0.00000000000E+00  0.00000000000E+00  0.45593999997E+02  0.45594000000E+02  0.51100000000E-03 0. -1.
         11   -1    0    0    0    0 -0.00000000000E+00 -0.00000000000E+00 -0.45593999997E+02  0.45594000000E+02  0.51100000000E-03 0.  1.
    9900012    2    1    2    0    0 -0.24800278786E+02  0.79304866183E+01 -0.31228498608E+02  0.50528861160E+02  0.30000003982E+02 0.  0.
         12    1    1    2    0    0  0.24800278786E+02 -0.79304866183E+01  0.31228498608E+02  0.40659138840E+02  0.00000000000E+00 0. -1.
         11    1    3    3    0    0 -0.78404090876E+01 -0.17199411855E+01 -0.74900920042E+01  0.10978692583E+02  0.51100000000E-03 0. -1.
        -11    1    3    3    0    0 -0.18587478118E+02 -0.71684886210E+00 -0.71647194520E+01  0.19933424697E+02  0.51100000000E-03 0.  1.
         12    1    3    3    0    0  0.16276084193E+01  0.10367276666E+02 -0.16573687152E+02  0.19616743880E+02  0.00000000000E+00 0. -1.
</event>
<event>
 7    1  0.2744502E-011  0.5052886E+02  0.7816164E-02  0.1300439E+00
        -11   -1    0    0    0    0  0.00000000000E+00  0.00000000000E+00  0.45593999997E+02  0.45594000000E+02  0.51100000000E-03 0.  1.
         11   -1    0    0    0    0 -0.00000000000E+00 -0.00000000000E+00 -0.45593999997E+02  0.45594000000E+02  0.51100000000E-03 0. -1.
    9900012    2    1    2    0    0  0.36980386362E+02  0.16603955320E+02  0.31504730104E+01  0.50528858495E+02  0.29999995881E+02 0.  0.
         12    1    1    2    0    0 -0.36980386362E+02 -0.16603955320E+02 -0.31504730104E+01  0.40659141505E+02  0.00000000000E+00 0. -1.
         11    1    3    3    0    0  0.23951402661E+02  0.10711919399E+02 -0.81187194204E+01  0.27465041633E+02  0.51100000000E-03 0. -1.
        -11    1    3    3    0    0 -0.26981189380E+01  0.86607739438E-01 -0.26848602751E+00  0.27128272544E+01  0.51100000000E-03 0.  1.
        -12    1    3    3    0    0  0.15727102639E+02  0.58054281817E+01  0.11537678458E+02  0.20350989607E+02  0.00000000000E+00 0.  1.
</event>
<event>
 7    1  0.2744502E-011  0.5052886E+02  0.7816164E-02  0.1300439E+00
        -11   -1    0    0    0    0  0.00000000000E+00  0.00000000000E+00  0.45593999997E+02  0.45594000000E+02  0.51100000000E-03 0.  1.
         11   -1    0    0    0    0 -0.00000000000E+00 -0.00000000000E+00 -0.45593999997E+02  0.45594000000E+02  0.51100000000E-03 0. -1.
    9900012    2    1    2    0    0  0.24540105368E+02  0.28436975749E+02 -0.15565591623E+02  0.50528855840E+02  0.29999987812E+02 0.  0.
         12    1    1    2    0    0 -0.24540105368E+02 -0.28436975749E+02  0.15565591623E+02  0.40659144160E+02  0.00000000000E+00 0. -1.
         11    1    3    3    0    0  0.34651920432E+01  0.11059412279E+02 -0.12816458842E+02  0.17279461027E+02  0.51100000000E-03 0. -1.
        -11    1    3    3    0    0  0.10519371663E+02  0.12322729944E+02 -0.10413160796E+02  0.19259822727E+02  0.51100000000E-03 0.  1.
        -12    1    3    3    0    0  0.10555541662E+02  0.50548335254E+01  0.76640280148E+01  0.13989572086E+02  0.00000000000E+00 0.  1.
</event>
<event>
 7    1  0.2744502E-011  0.5052887E+02  0.7816164E-02  0.1300439E+00
        -11   -1    0    0    0    0  0.00000000000E+00  0.00000000000E+00  0.45593999997E+02  0.45594000000E+02  0.51100000000E-03 0. -1.
         11   -1    0    0    0    0 -0.00000000000E+00 -0.00000000000E+00 -0.45593999997E+02  0.45594000000E+02  0.51100000000E-03 0.  1.
    9900012    2    1    2    0    0 -0.22820681477E+02 -0.25129317414E+02 -0.22380773232E+02  0.50528866865E+02  0.30000021323E+02 0.  0.
         12    1    1    2    0    0  0.22820681477E+02  0.25129317414E+02  0.22380773232E+02  0.40659133135E+02  0.00000000000E+00 0. -1.
         11    1    3    3    0    0 -0.82389317741E+01 -0.14956396783E+02 -0.28331278689E+01  0.17308969216E+02  0.51100000000E-03 0. -1.
        -11    1    3    3    0    0 -0.14000667123E+01 -0.13220330205E+02 -0.88260245887E+01  0.15957318943E+02  0.51100000000E-03 0.  1.
         12    1    3    3    0    0 -0.13181682991E+02  0.30474095742E+01 -0.10721620775E+02  0.17262578707E+02  0.00000000000E+00 0. -1.
</event>
<event>
 7    1  0.2744502E-011  0.5052886E+02  0.7816164E-02  0.1300439E+00
        -11   -1    0    0    0    0  0.00000000000E+00  0.00000000000E+00  0.45593999997E+02  0.45594000000E+02  0.51100000000E-03 0. -1.
         11   -1    0    0    0    0 -0.00000000000E+00 -0.00000000000E+00 -0.45593999997E+02  0.45594000000E+02  0.51100000000E-03 0.  1.
    9900012    2    1    2    0    0 -0.15075622006E+02  0.26248216385E+02 -0.27146307896E+02  0.50528864807E+02  0.30000015067E+02 0.  0.
         12    1    1    2    0    0  0.15075622006E+02 -0.26248216385E+02  0.27146307896E+02  0.40659135193E+02  0.00000000000E+00 0. -1.
         11    1    3    3    0    0  0.46047493502E+01 -0.12259402423E+01 -0.68325716354E+00  0.48138847794E+01  0.51100000000E-03 0. -1.
        -11    1    3    3    0    0 -0.13671725958E+02  0.68388757327E+01 -0.14729339243E+02  0.21228277056E+02  0.51100000000E-03 0.  1.
        -12    1    3    3    0    0 -0.60086453983E+01  0.20635280895E+02 -0.11733711489E+02  0.24486702972E+02  0.00000000000E+00 0.  1.
</event>
<event>
 7    1  0.2744502E-011  0.5052887E+02  0.7816164E-02  0.1300439E+00
        -11   -1    0    0    0    0  0.00000000000E+00  0.00000000000E+00  0.45593999997E+02  0.45594000000E+02  0.51100000000E-03 0.  1.
         11   -1    0    0    0    0 -0.00000000000E+00 -0.00000000000E+00 -0.45593999997E+02  0.45594000000E+02  0.51100000000E-03 0. -1.
    9900012    2    1    2    0    0  0.64535328601E+01  0.26195937114E+02  0.30418570582E+02  0.50528872563E+02  0.30000038643E+02 0.  0.
         12    1    1    2    0    0 -0.64535328601E+01 -0.26195937114E+02 -0.30418570582E+02  0.40659127437E+02  0.00000000000E+00 0. -1.
         11    1    3    3    0    0  0.10968930379E+02  0.28232660410E+02  0.19065757539E+02  0.35789714420E+02  0.51100000000E-03 0. -1.
        -11    1    3    3    0    0 -0.52804892219E+01  0.13114957825E+01  0.44493569233E+01  0.70285393150E+01  0.51100000000E-03 0.  1.
        -12    1    3    3    0    0  0.76509170322E+00 -0.33482190785E+01  0.69034561200E+01  0.77106188281E+01  0.00000000000E+00 0.  1.
</event>
<event>
 7    1  0.2744502E-011  0.5052885E+02  0.7816164E-02  0.1300439E+00
        -11   -1    0    0    0    0  0.00000000000E+00  0.00000000000E+00  0.45593999997E+02  0.45594000000E+02  0.51100000000E-03 0. -1.
         11   -1    0    0    0    0 -0.00000000000E+00 -0.00000000000E+00 -0.45593999997E+02  0.45594000000E+02  0.51100000000E-03 0.  1.
    9900012    2    1    2    0    0  0.39833505869E+02 -0.63517975791E+01 -0.51100563616E+01  0.50528853449E+02  0.29999980542E+02 0.  0.
         12    1    1    2    0    0 -0.39833505869E+02  0.63517975791E+01  0.51100563616E+01  0.40659146551E+02  0.00000000000E+00 0. -1.
         11    1    3    3    0    0  0.54560721819E+01  0.34637549754E+01  0.56624919081E+01  0.85924465115E+01  0.51100000000E-03 0. -1.
        -11    1    3    3    0    0  0.87768231083E+01  0.32078484175E+01  0.33531136456E+01  0.99280555360E+01  0.51100000000E-03 0.  1.
        -12    1    3    3    0    0  0.25600610578E+02 -0.13023400972E+02 -0.14125661915E+02  0.32008351401E+02  0.00000000000E+00 0.  1.
</event>
<event>
 7    1  0.2744502E-011  0.5052886E+02  0.7816164E-02  0.1300439E+00
        -11   -1    0    0    0    0  0.00000000000E+00  0.00000000000E+00  0.45593999997E+02  0.45594000000E+02  0.51100000000E-03 0.  1.
         11   -1    0    0    0    0 -0.00000000000E+00 -0.00000000000E+00 -0.45593999997E+02  0.45594000000E+02  0.51100000000E-03 0. -1.
    9900012    2    1    2    0    0 -0.90815100374E+01 -0.26210277792E+02  0.29727313564E+02  0.50528860090E+02  0.30000000729E+02 0.  0.
         12    1    1    2    0    0  0.90815100374E+01  0.26210277792E+02 -0.29727313564E+02  0.40659139910E+02  0.00000000000E+00 0. -1.
         11    1    3    3    0    0 -0.76851679268E+01 -0.29216879809E+01  0.67209028568E+00  0.82492285902E+01  0.51100000000E-03 0. -1.
        -11    1    3    3    0    0  0.21391144388E+01 -0.17651058683E+01 -0.26237204146E+01  0.38177635317E+01  0.51100000000E-03 0.  1.
        -12    1    3    3    0    0 -0.35354565495E+01 -0.21523483943E+02  0.31678943693E+02  0.38461867968E+02  0.00000000000E+00 0.  1.
</event>
<event>
 7    1  0.2744502E-011  0.5052886E+02  0.7816164E-02  0.1300439E+00
        -11   -1    0    0    0    0  0.00000000000E+00  0.00000000000E+00  0.45593999997E+02  0.45594000000E+02  0.51100000000E-03 0. -1.
         11   -1    0    0    0    0 -0.00000000000E+00 -0.00000000000E+00 -0.45593999997E+02  0.45594000000E+02  0.51100000000E-03 0.  1.
    9900012    2    1    2    0    0 -0.14208682677E+02  0.78815248316E+01 -0.37271443276E+02  0.50528861040E+02  0.30000003617E+02 0.  0.
         12    1    1    2    0    0  0.14208682677E+02 -0.78815248316E+01  0.37271443276E+02  0.40659138960E+02  0.00000000000E+00 0. -1.
         11    1    3    3    0    0 -0.13330773871E+02  0.43506979414E+00 -0.37044876256E+01  0.13842761522E+02  0.51100000000E-03 0. -1.
        -11    1    3    3    0    0 -0.67715228864E+01  0.30278929949E+01 -0.17779088533E+02  0.19264414020E+02  0.51100000000E-03 0.  1.
         12    1    3    3    0    0  0.58936140812E+01  0.44185620425E+01 -0.15787867118E+02  0.17421685498E+02  0.00000000000E+00 0. -1.
</event>
<event>
 7    1  0.2744502E-011  0.5052886E+02  0.7816164E-02  0.1300439E+00
        -11   -1    0    0    0    0  0.00000000000E+00  0.00000000000E+00  0.45593999997E+02  0.45594000000E+02  0.51100000000E-03 0.  1.
         11   -1    0    0    0    0 -0.00000000000E+00 -0.00000000000E+00 -0.45593999997E+02  0.45594000000E+02  0.51100000000E-03 0. -1.
    9900012    2    1    2    0    0 -0.11850177089E+02  0.96159353334E+01  0.37686503681E+02  0.50528862416E+02  0.30000007800E+02 0.  0.
         12    1    1    2    0    0  0.11850177089E+02 -0.96159353334E+01 -0.37686503681E+02  0.40659137584E+02  0.00000000000E+00 0. -1.
         11    1    3    3    0    0 -0.10813181567E+02  0.29889116913E+01  0.14120794374E+02  0.18034836365E+02  0.51100000000E-03 0. -1.
        -11    1    3    3    0    0  0.49670579072E+01 -0.70900153300E+00  0.22385707161E+02  0.22941103566E+02  0.51100000000E-03 0.  1.
         12    1    3    3    0    0 -0.60040534286E+01  0.73360251751E+01  0.11800021452E+01  0.95529224851E+01  0.00000000000E+00 0. -1.
</event>
<event>
 7    1  0.2744502E-011  0.5052886E+02  0.7816164E-02  0.1300439E+00
        -11   -1    0    0    0    0  0.00000000000E+00  0.00000000000E+00  0.45593999997E+02  0.45594000000E+02  0.51100000000E-03 0.  1.
         11   -1    0    0    0    0 -0.00000000000E+00 -0.00000000000E+00 -0.45593999997E+02  0.45594000000E+02  0.51100000000E-03 0. -1.
    9900012    2    1    2    0    0  0.50948204055E+01  0.11699834239E+02  0.38604693178E+02  0.50528860172E+02  0.30000000979E+02 0.  0.
         12    1    1    2    0    0 -0.50948204055E+01 -0.11699834239E+02 -0.38604693178E+02  0.40659139828E+02  0.00000000000E+00 0. -1.
         11    1    3    3    0    0  0.82816980248E+01  0.17336259457E+01  0.45662416440E+00  0.84735168013E+01  0.51100000000E-03 0. -1.
        -11    1    3    3    0    0 -0.18668350957E+01  0.10016845847E+02  0.11460506290E+02  0.15335106086E+02  0.51100000000E-03 0.  1.
         12    1    3    3    0    0 -0.13200425236E+01 -0.50637553967E-01  0.26687562723E+02  0.26720237284E+02  0.00000000000E+00 0. -1.
</event>
<event>
 7    1  0.2744502E-011  0.5052886E+02  0.7816164E-02  0.1300439E+00
        -11   -1    0    0    0    0  0.00000000000E+00  0.00000000000E+00  0.45593999997E+02  0.45594000000E+02  0.51100000000E-03 0.  1.
         11   -1    0    0    0    0 -0.00000000000E+00 -0.00000000000E+00 -0.45593999997E+02  0.45594000000E+02  0.51100000000E-03 0. -1.
    9900012    2    1    2    0    0 -0.78566958071E+01  0.15558907627E+01  0.39862481214E+02  0.50528857441E+02  0.29999992678E+02 0.  0.
         12    1    1    2    0    0  0.78566958071E+01 -0.15558907627E+01 -0.39862481214E+02  0.40659142559E+02  0.00000000000E+00 0. -1.
         11    1    3    3    0    0  0.74094011808E+01  0.52374726845E+01  0.52545728676E+01  0.10485269775E+02  0.51100000000E-03 0. -1.
        -11    1    3    3    0    0  0.59333860958E+00 -0.21074980217E+01  0.29389379415E+00  0.22090659657E+01  0.51100000000E-03 0.  1.
        -12    1    3    3    0    0 -0.15859435598E+02 -0.15740839000E+01  0.34314014552E+02  0.37834521700E+02  0.00000000000E+00 0.  1.
</event>
<event>
 7    1  0.2744502E-011  0.5052888E+02  0.7816164E-02  0.1300439E+00
        -11   -1    0    0    0    0  0.00000000000E+00  0.00000000000E+00  0.45593999997E+02  0.45594000000E+02  0.51100000000E-03 0.  1.
         11   -1    0    0    0    0 -0.00000000000E+00 -0.00000000000E+00 -0.45593999997E+02  0.45594000000E+02  0.51100000000E-03 0. -1.
    9900012    2    1    2    0    0 -0.27325584145E+02 -0.44038867041E+01  0.29783921219E+02  0.50528883801E+02  0.30000072800E+02 0.  0.
         12    1    1    2    0    0  0.27325584145E+02  0.44038867041E+01 -0.29783921219E+02  0.40659116199E+02  0.00000000000E+00 0. -1.
         11    1    3    3    0    0 -0.22452308140E+01  0.46851312815E+01 -0.16210339018E+01  0.54423586527E+01  0.51100000000E-03 0. -1.
        -11    1    3    3    0    0 -0.47735044433E+01 -0.10326210307E+02  0.71823669917E+01  0.13453748914E+02  0.51100000000E-03 0.  1.
         12    1    3    3    0    0 -0.20306848887E+02  0.12371923219E+01  0.24222588129E+02  0.31632776234E+02  0.00000000000E+00 0. -1.
</event>
<event>
 7    1  0.2744502E-011  0.5052887E+02  0.7816164E-02  0.1300439E+00
        -11   -1    0    0    0    0  0.00000000000E+00  0.00000000000E+00  0.45593999997E+02  0.45594000000E+02  0.51100000000E-03 0. -1.
         11   -1    0    0    0    0 -0.00000000000E+00 -0.00000000000E+00 -0.45593999997E+02  0.45594000000E+02  0.51100000000E-03 0.  1.
    9900012    2    1    2    0    0  0.10231598054E+02  0.13687403762E+02 -0.36893551619E+02  0.50528870994E+02  0.30000033873E+02 0.  0.
         12    1    1    2    0    0 -0.10231598054E+02 -0.13687403762E+02  0.36893551619E+02  0.40659129006E+02  0.00000000000E+00 0. -1.
         11    1    3    3    0    0 -0.71220212448E+00  0.37407848792E+01  0.60063881402E+00  0.38550577978E+01  0.51100000000E-03 0. -1.
        -11    1    3    3    0    0 -0.51917313672E+01  0.74537762626E+01 -0.51490322134E+01  0.10441522310E+02  0.51100000000E-03 0.  1.
         12    1    3    3    0    0  0.16135531545E+02  0.24928426205E+01 -0.32345158219E+02  0.36232290886E+02  0.00000000000E+00 0. -1.
</event>
<event>
 7    1  0.2744502E-011  0.5052886E+02  0.7816164E-02  0.1300439E+00
        -11   -1    0    0    0    0  0.00000000000E+00  0.00000000000E+00  0.45593999997E+02  0.45594000000E+02  0.51100000000E-03 0. -1.
         11   -1    0    0    0    0 -0.00000000000E+00 -0.00000000000E+00 -0.45593999997E+02  0.45594000000E+02  0.51100000000E-03 0.  1.
    9900012    2    1    2    0    0  0.61446055606E+01  0.29171585455E+02 -0.27648294823E+02  0.50528858567E+02  0.29999996099E+02 0.  0.
         12    1    1    2    0    0 -0.61446055606E+01 -0.29171585455E+02  0.27648294823E+02  0.40659141433E+02  0.00000000000E+00 0. -1.
         11    1    3    3    0    0  0.41365858753E+01 -0.20762734770E+01 -0.10902234486E+02  0.11844026820E+02  0.51100000000E-03 0. -1.
        -11    1    3    3    0    0  0.52710577049E+01  0.35354866429E+01 -0.43136989039E+00  0.63615874885E+01  0.51100000000E-03 0.  1.
        -12    1    3    3    0    0 -0.32630380195E+01  0.27712372289E+02 -0.16314690446E+02  0.32323244258E+02  0.00000000000E+00 0.  1.
</event>
<event>
 7    1  0.2744502E-011  0.5052884E+02  0.7816164E-02  0.1300439E+00
        -11   -1    0    0    0    0  0.00000000000E+00  0.00000000000E+00  0.45593999997E+02  0.45594000000E+02  0.51100000000E-03 0.  1.
         11   -1    0    0    0    0 -0.00000000000E+00 -0.00000000000E+00 -0.45593999997E+02  0.45594000000E+02  0.51100000000E-03 0. -1.
    9900012    2    1    2    0    0  0.17581057762E+02 -0.14574428950E+02  0.33640150094E+02  0.50528840274E+02  0.29999940497E+02 0.  0.
         12    1    1    2    0    0 -0.17581057762E+02  0.14574428950E+02 -0.33640150094E+02  0.40659159726E+02  0.00000000000E+00 0. -1.
         11    1    3    3    0    0  0.70382473866E+01 -0.37151944718E+01  0.54536758013E+01  0.96479104601E+01  0.51100000000E-03 0. -1.
        -11    1    3    3    0    0  0.16790941102E+02 -0.14462595838E+02  0.18923939900E+02  0.29141343192E+02  0.51100000000E-03 0.  1.
         12    1    3    3    0    0 -0.62481307262E+01  0.36033613602E+01  0.92625343934E+01  0.11739586622E+02  0.00000000000E+00 0. -1.
</event>
<event>
 7    1  0.2744502E-011  0.5052886E+02  0.7816164E-02  0.1300439E+00
        -11   -1    0    0    0    0  0.00000000000E+00  0.00000000000E+00  0.45593999997E+02  0.45594000000E+02  0.51100000000E-03 0.  1.
         11   -1    0    0    0    0 -0.00000000000E+00 -0.00000000000E+00 -0.45593999997E+02  0.45594000000E+02  0.51100000000E-03 0. -1.
    9900012    2    1    2    0    0 -0.35752194089E+02 -0.13542412664E+01  0.19316110009E+02  0.50528862559E+02  0.30000008235E+02 0.  0.
         12    1    1    2    0    0  0.35752194089E+02  0.13542412664E+01 -0.19316110009E+02  0.40659137441E+02  0.00000000000E+00 0. -1.
         11    1    3    3    0    0 -0.88956357744E+01  0.11991495594E+02  0.27881726079E+01  0.15188884395E+02  0.51100000000E-03 0. -1.
        -11    1    3    3    0    0 -0.48355337869E+01 -0.23398017865E+01  0.72682000554E+01  0.90379085916E+01  0.51100000000E-03 0.  1.
        -12    1    3    3    0    0 -0.22021024527E+02 -0.11005935074E+02  0.92597373459E+01  0.26302069572E+02  0.00000000000E+00 0.  1.
</event>
<event>
 7    1  0.2744502E-011  0.5052886E+02  0.7816164E-02  0.1300439E+00
        -11   -1    0    0    0    0  0.00000000000E+00  0.00000000000E+00  0.45593999997E+02  0.45594000000E+02  0.51100000000E-03 0. -1.
         11   -1    0    0    0    0 -0.00000000000E+00 -0.00000000000E+00 -0.45593999997E+02  0.45594000000E+02  0.51100000000E-03 0.  1.
    9900012    2    1    2    0    0  0.90057889159E+01  0.12273705044E+02 -0.37701689750E+02  0.50528862288E+02  0.30000007410E+02 0.  0.
         12    1    1    2    0    0 -0.90057889159E+01 -0.12273705044E+02  0.37701689750E+02  0.40659137712E+02  0.00000000000E+00 0. -1.
         11    1    3    3    0    0 -0.56162849433E+01 -0.22562606336E+01 -0.19821104077E+01  0.63688405962E+01  0.51100000000E-03 0. -1.
        -11    1    3    3    0    0  0.19280999105E+01 -0.10987463246E+01  0.88035817823E+00  0.23874345088E+01  0.51100000000E-03 0.  1.
         12    1    3    3    0    0  0.12693973949E+02  0.15628712002E+02 -0.36599937520E+02  0.41772587183E+02  0.00000000000E+00 0. -1.
</event>
<event>
 7    1  0.2744502E-011  0.5052884E+02  0.7816164E-02  0.1300439E+00
        -11   -1    0    0    0    0  0.00000000000E+00  0.00000000000E+00  0.45593999997E+02  0.45594000000E+02  0.51100000000E-03 0.  1.
         11   -1    0    0    0    0 -0.00000000000E+00 -0.00000000000E+00 -0.45593999997E+02  0.45594000000E+02  0.51100000000E-03 0. -1.
    9900012    2    1    2    0    0 -0.25567979390E+02  0.31507337868E+02  0.25948039290E+01  0.50528844610E+02  0.29999953676E+02 0.  0.
         12    1    1    2    0    0  0.25567979390E+02 -0.31507337868E+02 -0.25948039290E+01  0.40659155390E+02  0.00000000000E+00 0. -1.
         11    1    3    3    0    0 -0.15351998253E+01  0.10672256722E+02  0.48454419820E+00  0.10792992420E+02  0.51100000000E-03 0. -1.
        -11    1    3    3    0    0 -0.95675105344E+01  0.15012883708E+02 -0.96087963638E+01  0.20230000071E+02  0.51100000000E-03 0.  1.
         12    1    3    3    0    0 -0.14465269030E+02  0.58221974382E+01  0.11719056095E+02  0.19505852119E+02  0.00000000000E+00 0. -1.
</event>
<event>
 7    1  0.2744502E-011  0.5052890E+02  0.7816164E-02  0.1300439E+00
        -11   -1    0    0    0    0  0.00000000000E+00  0.00000000000E+00  0.45593999997E+02  0.45594000000E+02  0.51100000000E-03 0.  1.
         11   -1    0    0    0    0 -0.00000000000E+00 -0.00000000000E+00 -0.45593999997E+02  0.45594000000E+02  0.51100000000E-03 0. -1.
    9900012    2    1    2    0    0 -0.80764002826E+01 -0.39617770560E+02  0.42855642607E+01  0.50528904502E+02  0.30000135725E+02 0.  0.
         12    1    1    2    0    0  0.80764002826E+01  0.39617770560E+02 -0.42855642607E+01  0.40659095498E+02  0.00000000000E+00 0. -1.
         11    1    3    3    0    0 -0.14982359623E+02 -0.25244044590E+02  0.30968618630E+01  0.29518188304E+02  0.51100000000E-03 0. -1.
        -11    1    3    3    0    0 -0.38075371137E+01 -0.68008563695E+01  0.12318799961E+01  0.78909134336E+01  0.51100000000E-03 0.  1.
         12    1    3    3    0    0  0.10713496454E+02 -0.75728696010E+01 -0.43177598451E-01  0.13119802764E+02  0.00000000000E+00 0. -1.
</event>
<event>
 7    1  0.2744502E-011  0.5052886E+02  0.7816164E-02  0.1300439E+00
        -11   -1    0    0    0    0  0.00000000000E+00  0.00000000000E+00  0.45593999997E+02  0.45594000000E+02  0.51100000000E-03 0.  1.
         11   -1    0    0    0    0 -0.00000000000E+00 -0.00000000000E+00 -0.45593999997E+02  0.45594000000E+02  0.51100000000E-03 0. -1.
    9900012    2    1    2    0    0  0.73221970331E+01  0.38764615837E+02  0.98415109979E+01  0.50528863891E+02  0.30000012283E+02 0.  0.
         12    1    1    2    0    0 -0.73221970331E+01 -0.38764615837E+02 -0.98415109979E+01  0.40659136109E+02  0.00000000000E+00 0. -1.
         11    1    3    3    0    0  0.45715502059E+01  0.20058407928E+02  0.51970499011E+01  0.21219051058E+02  0.51100000000E-03 0. -1.
        -11    1    3    3    0    0  0.85887621377E+01  0.20168899996E+02  0.67442423809E+01  0.22935478361E+02  0.51100000000E-03 0.  1.
         12    1    3    3    0    0 -0.58381153104E+01 -0.14626920860E+01 -0.20997812841E+01  0.63743344717E+01  0.00000000000E+00 0. -1.
</event>
<event>
 7    1  0.2744502E-011  0.5052885E+02  0.7816164E-02  0.1300439E+00
        -11   -1    0    0    0    0  0.00000000000E+00  0.00000000000E+00  0.45593999997E+02  0.45594000000E+02  0.51100000000E-03 0. -1.
         11   -1    0    0    0    0 -0.00000000000E+00 -0.00000000000E+00 -0.45593999997E+02  0.45594000000E+02  0.51100000000E-03 0.  1.
    9900012    2    1    2    0    0  0.33361559538E+02 -0.19888960216E+02  0.12025048624E+02  0.50528853579E+02  0.29999980940E+02 0.  0.
         12    1    1    2    0    0 -0.33361559538E+02  0.19888960216E+02 -0.12025048624E+02  0.40659146421E+02  0.00000000000E+00 0. -1.
         11    1    3    3    0    0 -0.44241893006E+01 -0.10269117272E+01  0.36296282970E+01  0.58139659871E+01  0.51100000000E-03 0. -1.
        -11    1    3    3    0    0  0.14299327794E+02 -0.27554105362E+01 -0.13260855799E+01  0.14622638811E+02  0.51100000000E-03 0.  1.
        -12    1    3    3    0    0  0.23486421044E+02 -0.16106637952E+02  0.97215059068E+01  0.30092248781E+02  0.00000000000E+00 0.  1.
</event>
<event>
 7    1  0.2744502E-011  0.5052886E+02  0.7816164E-02  0.1300439E+00
        -11   -1    0    0    0    0  0.00000000000E+00  0.00000000000E+00  0.45593999997E+02  0.45594000000E+02  0.51100000000E-03 0.  1.
         11   -1    0    0    0    0 -0.00000000000E+00 -0.00000000000E+00 -0.45593999997E+02  0.45594000000E+02  0.51100000000E-03 0. -1.
    9900012    2    1    2    0    0  0.19667179302E+02 -0.34118673731E+02  0.10113544342E+02  0.50528860584E+02  0.30000002233E+02 0.  0.
         12    1    1    2    0    0 -0.19667179302E+02  0.34118673731E+02 -0.10113544342E+02  0.40659139416E+02  0.00000000000E+00 0. -1.
         11    1    3    3    0    0  0.22884466825E+01 -0.17106122733E+02  0.90994920472E+01  0.19510437693E+02  0.51100000000E-03 0. -1.
        -11    1    3    3    0    0  0.16604917097E+02 -0.12773242616E+02  0.83160473264E+01  0.22539646007E+02  0.51100000000E-03 0.  1.
         12    1    3    3    0    0  0.77381552295E+00 -0.42393083815E+01 -0.73019950320E+01  0.84787768849E+01  0.00000000000E+00 0. -1.
</event>
<event>
 7    1  0.2744502E-011  0.5052887E+02  0.7816164E-02  0.1300439E+00
        -11   -1    0    0    0    0  0.00000000000E+00  0.00000000000E+00  0.45593999997E+02  0.45594000000E+02  0.51100000000E-03 0.  1.
         11   -1    0    0    0    0 -0.00000000000E+00 -0.00000000000E+00 -0.45593999997E+02  0.45594000000E+02  0.51100000000E-03 0. -1.
    9900012    2    1    2    0    0  0.27434857836E+02 -0.42109931438E+01  0.29711289879E+02  0.50528872685E+02  0.30000039014E+02 0.  0.
         12    1    1    2    0    0 -0.27434857836E+02  0.42109931438E+01 -0.29711289879E+02  0.40659127315E+02  0.00000000000E+00 0. -1.
         11    1    3    3    0    0  0.46882353209E+01 -0.56535679499E+01  0.43441261755E+01  0.85331010470E+01  0.51100000000E-03 0. -1.
        -11    1    3    3    0    0  0.14509873383E+02 -0.11215417767E+02  0.14758507157E+02  0.23540084007E+02  0.51100000000E-03 0.  1.
        -12    1    3    3    0    0  0.82367491313E+01  0.12657992573E+02  0.10608656547E+02  0.18455687632E+02  0.00000000000E+00 0.  1.
</event>
<event>
 7    1  0.2744502E-011  0.5052885E+02  0.7816164E-02  0.1300439E+00
        -11   -1    0    0    0    0  0.00000000000E+00  0.00000000000E+00  0.45593999997E+02  0.45594000000E+02  0.51100000000E-03 0. -1.
         11   -1    0    0    0    0 -0.00000000000E+00 -0.00000000000E+00 -0.45593999997E+02  0.45594000000E+02  0.51100000000E-03 0.  1.
    9900012    2    1    2    0    0 -0.18076532429E+02  0.21287105363E+02 -0.29551054879E+02  0.50528846986E+02  0.29999960898E+02 0.  0.
         12    1    1    2    0    0  0.18076532429E+02 -0.21287105363E+02  0.29551054879E+02  0.40659153014E+02  0.00000000000E+00 0. -1.
         11    1    3    3    0    0 -0.51750760560E+01 -0.33602686661E+01 -0.11808653126E+02  0.13323554578E+02  0.51100000000E-03 0. -1.
        -11    1    3    3    0    0  0.19025283621E+01  0.15833473718E+01 -0.75826350438E+01  0.79764000361E+01  0.51100000000E-03 0.  1.
         12    1    3    3    0    0 -0.14803984735E+02  0.23064026657E+02 -0.10159766709E+02  0.29228892371E+02  0.00000000000E+00 0. -1.
</event>
<event>
 7    1  0.2744502E-011  0.5052885E+02  0.7816164E-02  0.1300439E+00
        -11   -1    0    0    0    0  0.00000000000E+00  0.00000000000E+00  0.45593999997E+02  0.45594000000E+02  0.51100000000E-03 0.  1.
         11   -1    0    0    0    0 -0.00000000000E+00 -0.00000000000E+00 -0.45593999997E+02  0.45594000000E+02  0.51100000000E-03 0. -1.
    9900012    2    1    2    0    0 -0.14402348261E+02  0.31657332402E+02 -0.21060681008E+02  0.50528848327E+02  0.29999964976E+02 0.  0.
         12    1    1    2    0    0  0.14402348261E+02 -0.31657332402E+02  0.21060681008E+02  0.40659151673E+02  0.00000000000E+00 0. -1.
         11    1    3    3    0    0 -0.11003795458E+02  0.22489824042E+02 -0.60365487008E+01  0.25754914491E+02  0.51100000000E-03 0. -1.
        -11    1    3    3    0    0 -0.88872932327E+01  0.70546960260E+01 -0.35652324504E+01  0.11893847137E+02  0.51100000000E-03 0.  1.
         12    1    3    3    0    0  0.54887404305E+01  0.21128123334E+01 -0.11458899857E+02  0.12880086700E+02  0.00000000000E+00 0. -1.
</event>
<event>
 7    1  0.2744502E-011  0.5052886E+02  0.7816164E-02  0.1300439E+00
        -11   -1    0    0    0    0  0.00000000000E+00  0.00000000000E+00  0.45593999997E+02  0.45594000000E+02  0.51100000000E-03 0.  1.
         11   -1    0    0    0    0 -0.00000000000E+00 -0.00000000000E+00 -0.45593999997E+02  0.45594000000E+02  0.51100000000E-03 0. -1.
    9900012    2    1    2    0    0  0.30356155577E+02  0.55348342074E+01  0.26477070765E+02  0.50528857763E+02  0.29999993657E+02 0.  0.
         12    1    1    2    0    0 -0.30356155577E+02 -0.55348342074E+01 -0.26477070765E+02  0.40659142237E+02  0.00000000000E+00 0. -1.
         11    1    3    3    0    0  0.13829382407E+02  0.39179939363E+00  0.78697709638E+01  0.15916614584E+02  0.51100000000E-03 0. -1.
        -11    1    3    3    0    0  0.19450408723E+02  0.11004900332E+02  0.16325210911E+02  0.27675598320E+02  0.51100000000E-03 0.  1.
         12    1    3    3    0    0 -0.29236355532E+01 -0.58618655181E+01  0.22820888907E+01  0.69366448594E+01  0.00000000000E+00 0. -1.
</event>
<event>
 7    1  0.2744502E-011  0.5052885E+02  0.7816164E-02  0.1300439E+00
        -11   -1    0    0    0    0  0.00000000000E+00  0.00000000000E+00  0.45593999997E+02  0.45594000000E+02  0.51100000000E-03 0.  1.
         11   -1    0    0    0    0 -0.00000000000E+00 -0.00000000000E+00 -0.45593999997E+02  0.45594000000E+02  0.51100000000E-03 0. -1.
    9900012    2    1    2    0    0  0.37985354602E+02 -0.13573968889E+02  0.51016604966E+01  0.50528846843E+02  0.29999960463E+02 0.  0.
         12    1    1    2    0    0 -0.37985354602E+02  0.13573968889E+02 -0.51016604966E+01  0.40659153157E+02  0.00000000000E+00 0. -1.
         11    1    3    3    0    0  0.16118982227E+02 -0.78564723996E+01 -0.10293099127E+02  0.20675919242E+02  0.51100000000E-03 0. -1.
        -11    1    3    3    0    0  0.11124124272E+02 -0.24255688268E+01  0.77112768154E+00  0.11411580220E+02  0.51100000000E-03 0.  1.
         12    1    3    3    0    0  0.10742248104E+02 -0.32919276623E+01  0.14623631942E+02  0.18441347381E+02  0.00000000000E+00 0. -1.
</event>
<event>
 7    1  0.2744502E-011  0.5052887E+02  0.7816164E-02  0.1300439E+00
        -11   -1    0    0    0    0  0.00000000000E+00  0.00000000000E+00  0.45593999997E+02  0.45594000000E+02  0.51100000000E-03 0.  1.
         11   -1    0    0    0    0 -0.00000000000E+00 -0.00000000000E+00 -0.45593999997E+02  0.45594000000E+02  0.51100000000E-03 0. -1.
    9900012    2    1    2    0    0  0.87175676697E+01 -0.37001003790E+02  0.14425480803E+02  0.50528871087E+02  0.30000034157E+02 0.  0.
         12    1    1    2    0    0 -0.87175676697E+01  0.37001003790E+02 -0.14425480803E+02  0.40659128913E+02  0.00000000000E+00 0. -1.
         11    1    3    3    0    0 -0.47993412499E+00 -0.16897079098E+02  0.75617988402E+01  0.18518164617E+02  0.51100000000E-03 0. -1.
        -11    1    3    3    0    0  0.43005263355E+01 -0.22766008188E+02  0.10414764637E+02  0.25401830216E+02  0.51100000000E-03 0.  1.
         12    1    3    3    0    0  0.48969754592E+01  0.26620834963E+01 -0.35510826748E+01  0.66088762549E+01  0.00000000000E+00 0. -1.
</event>
<event>
 7    1  0.2744502E-011  0.5052885E+02  0.7816164E-02  0.1300439E+00
        -11   -1    0    0    0    0  0.00000000000E+00  0.00000000000E+00  0.45593999997E+02  0.45594000000E+02  0.51100000000E-03 0. -1.
         11   -1    0    0    0    0 -0.00000000000E+00 -0.00000000000E+00 -0.45593999997E+02  0.45594000000E+02  0.51100000000E-03 0.  1.
    9900012    2    1    2    0    0 -0.27137882017E+02  0.21597492603E+02 -0.21219092711E+02  0.50528853149E+02  0.29999979633E+02 0.  0.
         12    1    1    2    0    0  0.27137882017E+02 -0.21597492603E+02  0.21219092711E+02  0.40659146851E+02  0.00000000000E+00 0. -1.
         11    1    3    3    0    0 -0.65503773504E+01 -0.89636988333E+00 -0.93930930015E+01  0.11486562532E+02  0.51100000000E-03 0. -1.
        -11    1    3    3    0    0  0.31937839166E+01 -0.73937409036E+00 -0.34452620722E+01  0.47557082290E+01  0.51100000000E-03 0.  1.
        -12    1    3    3    0    0 -0.23781288583E+02  0.23233236577E+02 -0.83807376377E+01  0.34286582389E+02  0.00000000000E+00 0.  1.
</event>
<event>
 7    1  0.2744502E-011  0.5052885E+02  0.7816164E-02  0.1300439E+00
        -11   -1    0    0    0    0  0.00000000000E+00  0.00000000000E+00  0.45593999997E+02  0.45594000000E+02  0.51100000000E-03 0. -1.
         11   -1    0    0    0    0 -0.00000000000E+00 -0.00000000000E+00 -0.45593999997E+02  0.45594000000E+02  0.51100000000E-03 0.  1.
    9900012    2    1    2    0    0 -0.44778497426E+01 -0.40356926741E+02  0.21056085676E+01  0.50528852668E+02  0.29999978169E+02 0.  0.
         12    1    1    2    0    0  0.44778497426E+01  0.40356926741E+02 -0.21056085676E+01  0.40659147332E+02  0.00000000000E+00 0. -1.
         11    1    3    3    0    0  0.81540428368E+01 -0.26159871169E+02  0.15902926228E+01  0.27447336939E+02  0.51100000000E-03 0. -1.
        -11    1    3    3    0    0 -0.33260576707E+01 -0.44547784020E+01 -0.59455454790E+01  0.81398539019E+01  0.51100000000E-03 0.  1.
        -12    1    3    3    0    0 -0.93058349087E+01 -0.97422771705E+01  0.64608614238E+01  0.14941661827E+02  0.00000000000E+00 0.  1.
</event>
<event>
 7    1  0.2744502E-011  0.5052886E+02  0.7816164E-02  0.1300439E+00
        -11   -1    0    0    0    0  0.00000000000E+00  0.00000000000E+00  0.45593999997E+02  0.45594000000E+02  0.51100000000E-03 0.  1.
         11   -1    0    0    0    0 -0.00000000000E+00 -0.00000000000E+00 -0.45593999997E+02  0.45594000000E+02  0.51100000000E-03 0. -1.
    9900012    2    1    2    0    0  0.13219988930E+02  0.37596479735E+02  0.80561961439E+01  0.50528859673E+02  0.29999999463E+02 0.  0.
         12    1    1    2    0    0 -0.13219988930E+02 -0.37596479735E+02 -0.80561961439E+01  0.40659140327E+02  0.00000000000E+00 0. -1.
         11    1    3    3    0    0 -0.54532511207E+01  0.49432462399E+01 -0.42850596088E+01  0.85167697683E+01  0.51100000000E-03 0. -1.
        -11    1    3    3    0    0 -0.15465963800E+00 -0.48540604015E+00 -0.14055343147E+01  0.14950135780E+01  0.51100000000E-03 0.  1.
        -12    1    3    3    0    0  0.18827899688E+02  0.33138639535E+02  0.13746790067E+02  0.40517076327E+02  0.00000000000E+00 0.  1.
</event>
<event>
 7    1  0.2744502E-011  0.5052887E+02  0.7816164E-02  0.1300439E+00
        -11   -1    0    0    0    0  0.00000000000E+00  0.00000000000E+00  0.45593999997E+02  0.45594000000E+02  0.51100000000E-03 0.  1.
         11   -1    0    0    0    0 -0.00000000000E+00 -0.00000000000E+00 -0.45593999997E+02  0.45594000000E+02  0.51100000000E-03 0. -1.
    9900012    2    1    2    0    0  0.24399025166E+01 -0.29296617079E+02  0.28087724655E+02  0.50528866059E+02  0.30000018871E+02 0.  0.
         12    1    1    2    0    0 -0.24399025166E+01  0.29296617079E+02 -0.28087724655E+02  0.40659133941E+02  0.00000000000E+00 0. -1.
         11    1    3    3    0    0  0.62960660644E+01 -0.46085827497E+01  0.42019654489E+01  0.88620537542E+01  0.51100000000E-03 0. -1.
        -11    1    3    3    0    0  0.86119545464E+01 -0.32716710918E+01  0.48014929196E+01  0.10388644154E+02  0.51100000000E-03 0.  1.
        -12    1    3    3    0    0 -0.12468118094E+02 -0.21416363237E+02  0.19084266287E+02  0.31278168150E+02  0.00000000000E+00 0.  1.
</event>
<event>
 7    1  0.2744502E-011  0.5052885E+02  0.7816164E-02  0.1300439E+00
        -11   -1    0    0    0    0  0.00000000000E+00  0.00000000000E+00  0.45593999997E+02  0.45594000000E+02  0.51100000000E-03 0.  1.
         11   -1    0    0    0    0 -0.00000000000E+00 -0.00000000000E+00 -0.45593999997E+02  0.45594000000E+02  0.51100000000E-03 0. -1.
    9900012    2    1    2    0    0 -0.32616874282E+02 -0.40063031714E+00  0.24272312250E+02  0.50528854232E+02  0.29999982924E+02 0.  0.
         12    1    1    2    0    0  0.32616874282E+02  0.40063031714E+00 -0.24272312250E+02  0.40659145768E+02  0.00000000000E+00 0. -1.
         11    1    3    3    0    0 -0.47823577657E+01  0.90605153451E+01  0.11560968175E+02  0.15447325643E+02  0.51100000000E-03 0. -1.
        -11    1    3    3    0    0 -0.63864497520E+01  0.31896131092E+01  0.33066267525E-01  0.71387299893E+01  0.51100000000E-03 0.  1.
         12    1    3    3    0    0 -0.21448066764E+02 -0.12650758771E+02  0.12678277808E+02  0.27942798600E+02  0.00000000000E+00 0. -1.
</event>
<event>
 7    1  0.2744502E-011  0.5052888E+02  0.7816164E-02  0.1300439E+00
        -11   -1    0    0    0    0  0.00000000000E+00  0.00000000000E+00  0.45593999997E+02  0.45594000000E+02  0.51100000000E-03 0. -1.
         11   -1    0    0    0    0 -0.00000000000E+00 -0.00000000000E+00 -0.45593999997E+02  0.45594000000E+02  0.51100000000E-03 0.  1.
    9900012    2    1    2    0    0  0.39847828914E+01 -0.16545753286E+02 -0.36925925793E+02  0.50528875044E+02  0.30000046183E+02 0.  0.
         12    1    1    2    0    0 -0.39847828914E+01  0.16545753286E+02  0.36925925793E+02  0.40659124956E+02  0.00000000000E+00 0. -1.
         11    1    3    3    0    0 -0.18646122176E+00 -0.15856945096E+01  0.24693382619E+01  0.29405486865E+01  0.51100000000E-03 0. -1.
        -11    1    3    3    0    0  0.78870817248E+01  0.28027428766E+01 -0.15085403332E+02  0.17251980168E+02  0.51100000000E-03 0.  1.
         12    1    3    3    0    0 -0.37158376116E+01 -0.17762801653E+02 -0.24309860723E+02  0.30336346189E+02  0.00000000000E+00 0. -1.
</event>
<event>
 7    1  0.2744502E-011  0.5052886E+02  0.7816164E-02  0.1300439E+00
        -11   -1    0    0    0    0  0.00000000000E+00  0.00000000000E+00  0.45593999997E+02  0.45594000000E+02  0.51100000000E-03 0.  1.
         11   -1    0    0    0    0 -0.00000000000E+00 -0.00000000000E+00 -0.45593999997E+02  0.45594000000E+02  0.51100000000E-03 0. -1.
    9900012    2    1    2    0    0 -0.81793753680E+01 -0.19367816429E+02  0.34801601519E+02  0.50528856342E+02  0.29999989339E+02 0.  0.
         12    1    1    2    0    0  0.81793753680E+01  0.19367816429E+02 -0.34801601519E+02  0.40659143658E+02  0.00000000000E+00 0. -1.
         11    1    3    3    0    0 -0.75778318654E+00 -0.19003996385E+02  0.80703743981E+01  0.20660519286E+02  0.51100000000E-03 0. -1.
        -11    1    3    3    0    0 -0.18373329379E+01 -0.52291490556E+01  0.15037493714E+02  0.16026415995E+02  0.51100000000E-03 0.  1.
        -12    1    3    3    0    0 -0.55842592435E+01  0.48653290117E+01  0.11693733407E+02  0.13841921062E+02  0.00000000000E+00 0.  1.
</event>
<event>
 7    1  0.2744502E-011  0.5052887E+02  0.7816164E-02  0.1300439E+00
        -11   -1    0    0    0    0  0.00000000000E+00  0.00000000000E+00  0.45593999997E+02  0.45594000000E+02  0.51100000000E-03 0.  1.
         11   -1    0    0    0    0 -0.00000000000E+00 -0.00000000000E+00 -0.45593999997E+02  0.45594000000E+02  0.51100000000E-03 0. -1.
    9900012    2    1    2    0    0  0.27192044153E+02  0.15936399988E+02  0.25686355249E+02  0.50528868728E+02  0.30000026984E+02 0.  0.
         12    1    1    2    0    0 -0.27192044153E+02 -0.15936399988E+02 -0.25686355249E+02  0.40659131272E+02  0.00000000000E+00 0. -1.
         11    1    3    3    0    0  0.98906706827E+01  0.25317882443E+01  0.78721957580E+01  0.12892121027E+02  0.51100000000E-03 0. -1.
        -11    1    3    3    0    0  0.21926416305E+02  0.15074976835E+02  0.18853094562E+02  0.32610762539E+02  0.51100000000E-03 0.  1.
         12    1    3    3    0    0 -0.46250428340E+01 -0.16703650916E+01 -0.10389350710E+01  0.50259851609E+01  0.00000000000E+00 0. -1.
</event>
<event>
 7    1  0.2744502E-011  0.5052886E+02  0.7816164E-02  0.1300439E+00
        -11   -1    0    0    0    0  0.00000000000E+00  0.00000000000E+00  0.45593999997E+02  0.45594000000E+02  0.51100000000E-03 0.  1.
         11   -1    0    0    0    0 -0.00000000000E+00 -0.00000000000E+00 -0.45593999997E+02  0.45594000000E+02  0.51100000000E-03 0. -1.
    9900012    2    1    2    0    0 -0.20744345781E+02 -0.31925432412E+02  0.14269015466E+02  0.50528856883E+02  0.29999990982E+02 0.  0.
         12    1    1    2    0    0  0.20744345781E+02  0.31925432412E+02 -0.14269015466E+02  0.40659143117E+02  0.00000000000E+00 0. -1.
         11    1    3    3    0    0 -0.46220560609E-01  0.66703198899E+00  0.27583149970E+01  0.28381983543E+01  0.51100000000E-03 0. -1.
        -11    1    3    3    0    0 -0.96175610692E+01 -0.27684810083E+01  0.12309707534E+02  0.15864768131E+02  0.51100000000E-03 0.  1.
         12    1    3    3    0    0 -0.11080564151E+02 -0.29823983393E+02 -0.79900706460E+00  0.31825890398E+02  0.00000000000E+00 0. -1.
</event>
<event>
 7    1  0.2744502E-011  0.5052886E+02  0.7816164E-02  0.1300439E+00
        -11   -1    0    0    0    0  0.00000000000E+00  0.00000000000E+00  0.45593999997E+02  0.45594000000E+02  0.51100000000E-03 0.  1.
         11   -1    0    0    0    0 -0.00000000000E+00 -0.00000000000E+00 -0.45593999997E+02  0.45594000000E+02  0.51100000000E-03 0. -1.
    9900012    2    1    2    0    0  0.14917692512E+02 -0.10722575462E+02  0.36271953959E+02  0.50528858120E+02  0.29999994740E+02 0.  0.
         12    1    1    2    0    0 -0.14917692512E+02  0.10722575462E+02 -0.36271953959E+02  0.40659141880E+02  0.00000000000E+00 0. -1.
         11    1    3    3    0    0  0.13897859207E+02 -0.23375343759E+01  0.11568106160E+02  0.18232817606E+02  0.51100000000E-03 0.  1.
        -11    1    3    3    0    0  0.88060927336E+01  0.22176370869E+00  0.76470879746E+01  0.11665093361E+02  0.51100000000E-03 0. -1.
        -12    1    3    3    0    0 -0.77862594280E+01 -0.86068047948E+01  0.17056759825E+02  0.20630947152E+02  0.00000000000E+00 0.  1.
</event>
<event>
 7    1  0.2744502E-011  0.5052887E+02  0.7816164E-02  0.1300439E+00
        -11   -1    0    0    0    0  0.00000000000E+00  0.00000000000E+00  0.45593999997E+02  0.45594000000E+02  0.51100000000E-03 0.  1.
         11   -1    0    0    0    0 -0.00000000000E+00 -0.00000000000E+00 -0.45593999997E+02  0.45594000000E+02  0.51100000000E-03 0. -1.
    9900012    2    1    2    0    0 -0.36307523229E+02  0.15673888890E+02  0.94476551143E+01  0.50528865440E+02  0.30000016992E+02 0.  0.
         12    1    1    2    0    0  0.36307523229E+02 -0.15673888890E+02 -0.94476551143E+01  0.40659134560E+02  0.00000000000E+00 0. -1.
         11    1    3    3    0    0 -0.12287836303E+02  0.10099915350E+01 -0.48271318457E+01  0.13240551576E+02  0.51100000000E-03 0. -1.
        -11    1    3    3    0    0 -0.15746709089E+02 -0.15749055347E+01  0.38277393172E+01  0.16281608124E+02  0.51100000000E-03 0.  1.
        -12    1    3    3    0    0 -0.82729778374E+01  0.16238802890E+02  0.10447047643E+02  0.21006705740E+02  0.00000000000E+00 0.  1.
</event>
<event>
 7    1  0.2744502E-011  0.5052886E+02  0.7816164E-02  0.1300439E+00
        -11   -1    0    0    0    0  0.00000000000E+00  0.00000000000E+00  0.45593999997E+02  0.45594000000E+02  0.51100000000E-03 0.  1.
         11   -1    0    0    0    0 -0.00000000000E+00 -0.00000000000E+00 -0.45593999997E+02  0.45594000000E+02  0.51100000000E-03 0. -1.
    9900012    2    1    2    0    0 -0.26847910933E+01 -0.14947774478E+02  0.37716330525E+02  0.50528860151E+02  0.30000000914E+02 0.  0.
         12    1    1    2    0    0  0.26847910933E+01  0.14947774478E+02 -0.37716330525E+02  0.40659139849E+02  0.00000000000E+00 0. -1.
         11    1    3    3    0    0  0.50558895294E+01 -0.34315183284E+01  0.13683867941E+02  0.14986179602E+02  0.51100000000E-03 0. -1.
        -11    1    3    3    0    0  0.25352514874E+01 -0.44102568263E+00  0.19641566245E+02  0.19809420198E+02  0.51100000000E-03 0.  1.
         12    1    3    3    0    0 -0.10275932110E+02 -0.11075230467E+02  0.43908963387E+01  0.15733260351E+02  0.00000000000E+00 0. -1.
</event>
<event>
 7    1  0.2744502E-011  0.5052886E+02  0.7816164E-02  0.1300439E+00
        -11   -1    0    0    0    0  0.00000000000E+00  0.00000000000E+00  0.45593999997E+02  0.45594000000E+02  0.51100000000E-03 0.  1.
         11   -1    0    0    0    0 -0.00000000000E+00 -0.00000000000E+00 -0.45593999997E+02  0.45594000000E+02  0.51100000000E-03 0. -1.
    9900012    2    1    2    0    0 -0.29806079119E+02 -0.21969250834E+02 -0.16796295842E+02  0.50528857256E+02  0.29999992115E+02 0.  0.
         12    1    1    2    0    0  0.29806079119E+02  0.21969250834E+02  0.16796295842E+02  0.40659142744E+02  0.00000000000E+00 0. -1.
         11    1    3    3    0    0  0.88362833822E+00  0.23209411074E+01  0.57892167995E+00  0.25500425950E+01  0.51100000000E-03 0.  1.
        -11    1    3    3    0    0  0.22634326633E+01 -0.22438851862E+01  0.20891161325E+01  0.38108469697E+01  0.51100000000E-03 0. -1.
        -12    1    3    3    0    0 -0.32953140121E+02 -0.22046306755E+02 -0.19464333654E+02  0.44167967691E+02  0.00000000000E+00 0.  1.
</event>
<event>
 7    1  0.2744502E-011  0.5052886E+02  0.7816164E-02  0.1300439E+00
        -11   -1    0    0    0    0  0.00000000000E+00  0.00000000000E+00  0.45593999997E+02  0.45594000000E+02  0.51100000000E-03 0. -1.
         11   -1    0    0    0    0 -0.00000000000E+00 -0.00000000000E+00 -0.45593999997E+02  0.45594000000E+02  0.51100000000E-03 0.  1.
    9900012    2    1    2    0    0  0.14600449006E+02  0.26219709554E+02 -0.27432082658E+02  0.50528862783E+02  0.30000008915E+02 0.  0.
         12    1    1    2    0    0 -0.14600449006E+02 -0.26219709554E+02  0.27432082658E+02  0.40659137217E+02  0.00000000000E+00 0. -1.
         11    1    3    3    0    0  0.51405752334E+01  0.55882860302E+01  0.43375068415E+01  0.87446223673E+01  0.51100000000E-03 0. -1.
        -11    1    3    3    0    0  0.35367151848E+01  0.11301968273E+02 -0.50587613442E+01  0.12877651484E+02  0.51100000000E-03 0.  1.
        -12    1    3    3    0    0  0.59231585882E+01  0.93294552512E+01 -0.26710828155E+02  0.28906588932E+02  0.00000000000E+00 0.  1.
</event>
<event>
 7    1  0.2744502E-011  0.5052886E+02  0.7816164E-02  0.1300439E+00
        -11   -1    0    0    0    0  0.00000000000E+00  0.00000000000E+00  0.45593999997E+02  0.45594000000E+02  0.51100000000E-03 0. -1.
         11   -1    0    0    0    0 -0.00000000000E+00 -0.00000000000E+00 -0.45593999997E+02  0.45594000000E+02  0.51100000000E-03 0.  1.
    9900012    2    1    2    0    0  0.38916503116E+02 -0.13643040787E+01  0.11696586622E+02  0.50528859834E+02  0.29999999952E+02 0.  0.
         12    1    1    2    0    0 -0.38916503116E+02  0.13643040787E+01 -0.11696586622E+02  0.40659140166E+02  0.00000000000E+00 0. -1.
         11    1    3    3    0    0  0.13239530864E+02  0.16673472975E+01 -0.39580353546E+01  0.13918738040E+02  0.51100000000E-03 0. -1.
        -11    1    3    3    0    0  0.19581114659E+02 -0.11359908166E+02  0.91912072515E+01  0.24432475434E+02  0.51100000000E-03 0.  1.
         12    1    3    3    0    0  0.60958575940E+01  0.83282567900E+01  0.64634147249E+01  0.12177646360E+02  0.00000000000E+00 0. -1.
</event>
<event>
 7    1  0.2744502E-011  0.5052886E+02  0.7816164E-02  0.1300439E+00
        -11   -1    0    0    0    0  0.00000000000E+00  0.00000000000E+00  0.45593999997E+02  0.45594000000E+02  0.51100000000E-03 0.  1.
         11   -1    0    0    0    0 -0.00000000000E+00 -0.00000000000E+00 -0.45593999997E+02  0.45594000000E+02  0.51100000000E-03 0. -1.
    9900012    2    1    2    0    0  0.19170201020E+02  0.57499370149E+01  0.35392196935E+02  0.50528856050E+02  0.29999988450E+02 0.  0.
         12    1    1    2    0    0 -0.19170201020E+02 -0.57499370149E+01 -0.35392196935E+02  0.40659143950E+02  0.00000000000E+00 0. -1.
         11    1    3    3    0    0 -0.18126089480E+01  0.38972825419E+01  0.92493602342E+00  0.43965747257E+01  0.51100000000E-03 0. -1.
        -11    1    3    3    0    0  0.14998175181E+01  0.11955044165E+00  0.23809933424E+02  0.23857423893E+02  0.51100000000E-03 0.  1.
        -12    1    3    3    0    0  0.19482992450E+02  0.17331040313E+01  0.10657327487E+02  0.22274857431E+02  0.00000000000E+00 0.  1.
</event>
<event>
 7    1  0.2744502E-011  0.5052886E+02  0.7816164E-02  0.1300439E+00
        -11   -1    0    0    0    0  0.00000000000E+00  0.00000000000E+00  0.45593999997E+02  0.45594000000E+02  0.51100000000E-03 0.  1.
         11   -1    0    0    0    0 -0.00000000000E+00 -0.00000000000E+00 -0.45593999997E+02  0.45594000000E+02  0.51100000000E-03 0. -1.
    9900012    2    1    2    0    0 -0.34433884387E+02  0.56262534011E+01  0.20876261061E+02  0.50528863300E+02  0.30000010487E+02 0.  0.
         12    1    1    2    0    0  0.34433884387E+02 -0.56262534011E+01 -0.20876261061E+02  0.40659136700E+02  0.00000000000E+00 0. -1.
         11    1    3    3    0    0 -0.92745667731E+01 -0.35348767105E+01  0.88687423316E+01  0.13310429482E+02  0.51100000000E-03 0. -1.
        -11    1    3    3    0    0 -0.25862406001E+02  0.53791712424E+01  0.16622334523E+02  0.31210599685E+02  0.51100000000E-03 0.  1.
         12    1    3    3    0    0  0.70308838772E+00  0.37819588691E+01 -0.46148157935E+01  0.60078341336E+01  0.00000000000E+00 0. -1.
</event>
<event>
 7    1  0.2744502E-011  0.5052886E+02  0.7816164E-02  0.1300439E+00
        -11   -1    0    0    0    0  0.00000000000E+00  0.00000000000E+00  0.45593999997E+02  0.45594000000E+02  0.51100000000E-03 0.  1.
         11   -1    0    0    0    0 -0.00000000000E+00 -0.00000000000E+00 -0.45593999997E+02  0.45594000000E+02  0.51100000000E-03 0. -1.
    9900012    2    1    2    0    0  0.25756963815E+02  0.88757526993E+01  0.30182209051E+02  0.50528856943E+02  0.29999991163E+02 0.  0.
         12    1    1    2    0    0 -0.25756963815E+02 -0.88757526993E+01 -0.30182209051E+02  0.40659143057E+02  0.00000000000E+00 0. -1.
         11    1    3    3    0    0  0.10819146820E+02  0.77291123341E+01 -0.89352823564E+00  0.13326346399E+02  0.51100000000E-03 0. -1.
        -11    1    3    3    0    0  0.30804606598E+01 -0.33165517425E+01  0.10984110974E+01  0.46578171430E+01  0.51100000000E-03 0.  1.
        -12    1    3    3    0    0  0.11857356335E+02  0.44631921077E+01  0.29977326190E+02  0.32544693400E+02  0.00000000000E+00 0.  1.
</event>
<event>
 7    1  0.2744502E-011  0.5052889E+02  0.7816164E-02  0.1300439E+00
        -11   -1    0    0    0    0  0.00000000000E+00  0.00000000000E+00  0.45593999997E+02  0.45594000000E+02  0.51100000000E-03 0.  1.
         11   -1    0    0    0    0 -0.00000000000E+00 -0.00000000000E+00 -0.45593999997E+02  0.45594000000E+02  0.51100000000E-03 0. -1.
    9900012    2    1    2    0    0 -0.14451481993E+02 -0.37853821315E+02 -0.33772413971E+01  0.50528894262E+02  0.30000104599E+02 0.  0.
         12    1    1    2    0    0  0.14451481993E+02  0.37853821315E+02  0.33772413971E+01  0.40659105738E+02  0.00000000000E+00 0. -1.
         11    1    3    3    0    0 -0.26172788607E+01 -0.17951570671E+02 -0.11716545814E+02  0.21595983059E+02  0.51100000000E-03 0. -1.
        -11    1    3    3    0    0 -0.29481525644E+01 -0.18301215847E+02  0.69516730619E+01  0.19797774209E+02  0.51100000000E-03 0.  1.
        -12    1    3    3    0    0 -0.88860505680E+01 -0.16010347965E+01  0.13876313556E+01  0.91351369938E+01  0.00000000000E+00 0.  1.
</event>
<event>
 7    1  0.2744502E-011  0.5052886E+02  0.7816164E-02  0.1300439E+00
        -11   -1    0    0    0    0  0.00000000000E+00  0.00000000000E+00  0.45593999997E+02  0.45594000000E+02  0.51100000000E-03 0.  1.
         11   -1    0    0    0    0 -0.00000000000E+00 -0.00000000000E+00 -0.45593999997E+02  0.45594000000E+02  0.51100000000E-03 0. -1.
    9900012    2    1    2    0    0  0.34420751578E+02 -0.88400366101E+01 -0.19754277972E+02  0.50528857305E+02  0.29999992264E+02 0.  0.
         12    1    1    2    0    0 -0.34420751578E+02  0.88400366101E+01  0.19754277972E+02  0.40659142695E+02  0.00000000000E+00 0. -1.
         11    1    3    3    0    0  0.74206778379E+01 -0.23870338376E+01  0.52205884355E+01  0.93818406504E+01  0.51100000000E-03 0.  1.
        -11    1    3    3    0    0  0.16818302779E+01  0.41876283929E+01 -0.84950909026E+00  0.45919985406E+01  0.51100000000E-03 0. -1.
        -12    1    3    3    0    0  0.25318243462E+02 -0.10640631165E+02 -0.24125357318E+02  0.36555018114E+02  0.00000000000E+00 0.  1.
</event>
<event>
 7    1  0.2744502E-011  0.5052883E+02  0.7816164E-02  0.1300439E+00
        -11   -1    0    0    0    0  0.00000000000E+00  0.00000000000E+00  0.45593999997E+02  0.45594000000E+02  0.51100000000E-03 0.  1.
         11   -1    0    0    0    0 -0.00000000000E+00 -0.00000000000E+00 -0.45593999997E+02  0.45594000000E+02  0.51100000000E-03 0. -1.
    9900012    2    1    2    0    0  0.36831837885E+02 -0.88707871064E+01  0.14761207833E+02  0.50528826342E+02  0.29999898149E+02 0.  0.
         12    1    1    2    0    0 -0.36831837885E+02  0.88707871064E+01 -0.14761207833E+02  0.40659173658E+02  0.00000000000E+00 0. -1.
         11    1    3    3    0    0  0.23021098259E+02 -0.70461315964E+01  0.46360845027E+01  0.24517589916E+02  0.51100000000E-03 0. -1.
        -11    1    3    3    0    0  0.13208757884E+02  0.63484982627E+01  0.25978378673E+01  0.14883664766E+02  0.51100000000E-03 0.  1.
         12    1    3    3    0    0  0.60198174275E+00 -0.81731537727E+01  0.75272854628E+01  0.11127571660E+02  0.00000000000E+00 0. -1.
</event>
<event>
 7    1  0.2744502E-011  0.5052886E+02  0.7816164E-02  0.1300439E+00
        -11   -1    0    0    0    0  0.00000000000E+00  0.00000000000E+00  0.45593999997E+02  0.45594000000E+02  0.51100000000E-03 0.  1.
         11   -1    0    0    0    0 -0.00000000000E+00 -0.00000000000E+00 -0.45593999997E+02  0.45594000000E+02  0.51100000000E-03 0. -1.
    9900012    2    1    2    0    0 -0.36188135874E+01 -0.17464117224E+02  0.36538672600E+02  0.50528858376E+02  0.29999995520E+02 0.  0.
         12    1    1    2    0    0  0.36188135874E+01  0.17464117224E+02 -0.36538672600E+02  0.40659141624E+02  0.00000000000E+00 0. -1.
         11    1    3    3    0    0  0.59150764340E+01  0.25134777253E+01  0.18710472060E+02  0.19783514967E+02  0.51100000000E-03 0. -1.
        -11    1    3    3    0    0  0.10752255805E+01 -0.51898470960E+01  0.91690223101E+01  0.10590637059E+02  0.51100000000E-03 0.  1.
         12    1    3    3    0    0 -0.10609115602E+02 -0.14787747853E+02  0.86591782307E+01  0.20154706350E+02  0.00000000000E+00 0. -1.
</event>
<event>
 7    1  0.2744502E-011  0.5052884E+02  0.7816164E-02  0.1300439E+00
        -11   -1    0    0    0    0  0.00000000000E+00  0.00000000000E+00  0.45593999997E+02  0.45594000000E+02  0.51100000000E-03 0. -1.
         11   -1    0    0    0    0 -0.00000000000E+00 -0.00000000000E+00 -0.45593999997E+02  0.45594000000E+02  0.51100000000E-03 0.  1.
    9900012    2    1    2    0    0  0.37132307428E+02  0.10359054792E+02  0.12924758886E+02  0.50528835432E+02  0.29999925779E+02 0.  0.
         12    1    1    2    0    0 -0.37132307428E+02 -0.10359054792E+02 -0.12924758886E+02  0.40659164568E+02  0.00000000000E+00 0. -1.
         11    1    3    3    0    0  0.22344031786E+02 -0.34014744784E+01  0.10877654017E+02  0.25082845577E+02  0.51100000000E-03 0. -1.
        -11    1    3    3    0    0  0.14676324284E+02  0.34827367195E+01  0.10952884504E+01  0.15123610898E+02  0.51100000000E-03 0.  1.
         12    1    3    3    0    0  0.11195135840E+00  0.10277792551E+02  0.95181641837E+00  0.10322378957E+02  0.00000000000E+00 0. -1.
</event>
<event>
 7    1  0.2744502E-011  0.5052886E+02  0.7816164E-02  0.1300439E+00
        -11   -1    0    0    0    0  0.00000000000E+00  0.00000000000E+00  0.45593999997E+02  0.45594000000E+02  0.51100000000E-03 0.  1.
         11   -1    0    0    0    0 -0.00000000000E+00 -0.00000000000E+00 -0.45593999997E+02  0.45594000000E+02  0.51100000000E-03 0. -1.
    9900012    2    1    2    0    0 -0.22937380837E+02  0.31160537421E+02  0.12492520513E+02  0.50528860797E+02  0.30000002878E+02 0.  0.
         12    1    1    2    0    0  0.22937380837E+02 -0.31160537421E+02 -0.12492520513E+02  0.40659139203E+02  0.00000000000E+00 0. -1.
         11    1    3    3    0    0 -0.32918923111E-01 -0.27155882156E+01  0.12697981914E+01  0.29979811074E+01  0.51100000000E-03 0. -1.
        -11    1    3    3    0    0 -0.13641288055E+02  0.34619483960E+01  0.60512171597E+01  0.15319499204E+02  0.51100000000E-03 0.  1.
         12    1    3    3    0    0 -0.92631738589E+01  0.30414177240E+02  0.51715051617E+01  0.32211380485E+02  0.00000000000E+00 0. -1.
</event>
<event>
 7    1  0.2744502E-011  0.5052886E+02  0.7816164E-02  0.1300439E+00
        -11   -1    0    0    0    0  0.00000000000E+00  0.00000000000E+00  0.45593999997E+02  0.45594000000E+02  0.51100000000E-03 0. -1.
         11   -1    0    0    0    0 -0.00000000000E+00 -0.00000000000E+00 -0.45593999997E+02  0.45594000000E+02  0.51100000000E-03 0.  1.
    9900012    2    1    2    0    0  0.24719795952E+02  0.32272288744E+02  0.77254098948E+00  0.50528858933E+02  0.29999997214E+02 0.  0.
         12    1    1    2    0    0 -0.24719795952E+02 -0.32272288744E+02 -0.77254098948E+00  0.40659141067E+02  0.00000000000E+00 0. -1.
         11    1    3    3    0    0  0.14151237342E+02  0.82078399977E+01 -0.54678417299E+01  0.17248868055E+02  0.51100000000E-03 0. -1.
        -11    1    3    3    0    0  0.13494813065E+02  0.81974238592E+01 -0.49196331515E+00  0.15797144228E+02  0.51100000000E-03 0.  1.
         12    1    3    3    0    0 -0.29262544540E+01  0.15867024887E+02  0.67323460345E+01  0.17482846651E+02  0.00000000000E+00 0. -1.
</event>
<event>
 7    1  0.2744502E-011  0.5052886E+02  0.7816164E-02  0.1300439E+00
        -11   -1    0    0    0    0  0.00000000000E+00  0.00000000000E+00  0.45593999997E+02  0.45594000000E+02  0.51100000000E-03 0.  1.
         11   -1    0    0    0    0 -0.00000000000E+00 -0.00000000000E+00 -0.45593999997E+02  0.45594000000E+02  0.51100000000E-03 0. -1.
    9900012    2    1    2    0    0  0.34413507029E+02  0.42261070773E+01  0.21237145366E+02  0.50528858464E+02  0.29999995788E+02 0.  0.
         12    1    1    2    0    0 -0.34413507029E+02 -0.42261070773E+01 -0.21237145366E+02  0.40659141536E+02  0.00000000000E+00 0. -1.
         11    1    3    3    0    0  0.99817495489E+01 -0.68139942473E+01  0.71785627360E+00  0.12107070643E+02  0.51100000000E-03 0. -1.
        -11    1    3    3    0    0  0.10488875673E+02 -0.45783639863E+01  0.58121632475E+01  0.12835854921E+02  0.51100000000E-03 0.  1.
        -12    1    3    3    0    0  0.13942881808E+02  0.15618465311E+02  0.14707125845E+02  0.25585932901E+02  0.00000000000E+00 0.  1.
</event>
<event>
 7    1  0.2744502E-011  0.5052886E+02  0.7816164E-02  0.1300439E+00
        -11   -1    0    0    0    0  0.00000000000E+00  0.00000000000E+00  0.45593999997E+02  0.45594000000E+02  0.51100000000E-03 0.  1.
         11   -1    0    0    0    0 -0.00000000000E+00 -0.00000000000E+00 -0.45593999997E+02  0.45594000000E+02  0.51100000000E-03 0. -1.
    9900012    2    1    2    0    0 -0.88804212108E+01  0.34818075632E+02  0.19026441376E+02  0.50528859047E+02  0.29999997560E+02 0.  0.
         12    1    1    2    0    0  0.88804212108E+01 -0.34818075632E+02 -0.19026441376E+02  0.40659140953E+02  0.00000000000E+00 0. -1.
         11    1    3    3    0    0 -0.65091785621E+01  0.12205913695E+02  0.51097940017E+01  0.14746651474E+02  0.51100000000E-03 0. -1.
        -11    1    3    3    0    0 -0.38569373890E+01  0.27073411088E+02  0.14649303380E+02  0.31023340306E+02  0.51100000000E-03 0.  1.
         12    1    3    3    0    0  0.14856947403E+01 -0.44612491514E+01 -0.73265600534E+00  0.47588672680E+01  0.00000000000E+00 0. -1.
</event>
<event>
 7    1  0.2744502E-011  0.5052887E+02  0.7816164E-02  0.1300439E+00
        -11   -1    0    0    0    0  0.00000000000E+00  0.00000000000E+00  0.45593999997E+02  0.45594000000E+02  0.51100000000E-03 0.  1.
         11   -1    0    0    0    0 -0.00000000000E+00 -0.00000000000E+00 -0.45593999997E+02  0.45594000000E+02  0.51100000000E-03 0. -1.
    9900012    2    1    2    0    0  0.97233803990E+01 -0.26737770895E+02  0.29046730840E+02  0.50528867061E+02  0.30000021920E+02 0.  0.
         12    1    1    2    0    0 -0.97233803990E+01  0.26737770895E+02 -0.29046730840E+02  0.40659132939E+02  0.00000000000E+00 0. -1.
         11    1    3    3    0    0 -0.61890234585E+01 -0.28827107885E+01  0.11493755281E+02  0.13368636564E+02  0.51100000000E-03 0. -1.
        -11    1    3    3    0    0 -0.23294933293E+01 -0.31349570142E+01 -0.83093618522E+00  0.39931128029E+01  0.51100000000E-03 0.  1.
        -12    1    3    3    0    0  0.18241897187E+02 -0.20720103092E+02  0.18383911745E+02  0.33167117694E+02  0.00000000000E+00 0.  1.
</event>
<event>
 7    1  0.2744502E-011  0.5052888E+02  0.7816164E-02  0.1300439E+00
        -11   -1    0    0    0    0  0.00000000000E+00  0.00000000000E+00  0.45593999997E+02  0.45594000000E+02  0.51100000000E-03 0.  1.
         11   -1    0    0    0    0 -0.00000000000E+00 -0.00000000000E+00 -0.45593999997E+02  0.45594000000E+02  0.51100000000E-03 0. -1.
    9900012    2    1    2    0    0 -0.63800019325E+01 -0.25097400038E+02  0.31346130764E+02  0.50528882607E+02  0.30000069172E+02 0.  0.
         12    1    1    2    0    0  0.63800019325E+01  0.25097400038E+02 -0.31346130764E+02  0.40659117393E+02  0.00000000000E+00 0. -1.
         11    1    3    3    0    0 -0.55809348045E+01 -0.46658007375E+01 -0.25921852506E+01  0.77224318999E+01  0.51100000000E-03 0. -1.
        -11    1    3    3    0    0 -0.73540026071E+01 -0.52356233291E+01  0.16209290348E+02  0.18553549521E+02  0.51100000000E-03 0.  1.
        -12    1    3    3    0    0  0.65549354791E+01 -0.15195975971E+02  0.17729025667E+02  0.24252901186E+02  0.00000000000E+00 0.  1.
</event>
<event>
 7    1  0.2744502E-011  0.5052886E+02  0.7816164E-02  0.1300439E+00
        -11   -1    0    0    0    0  0.00000000000E+00  0.00000000000E+00  0.45593999997E+02  0.45594000000E+02  0.51100000000E-03 0.  1.
         11   -1    0    0    0    0 -0.00000000000E+00 -0.00000000000E+00 -0.45593999997E+02  0.45594000000E+02  0.51100000000E-03 0. -1.
    9900012    2    1    2    0    0  0.33940608768E+01 -0.24462717698E+02  0.32298943469E+02  0.50528856433E+02  0.29999989613E+02 0.  0.
         12    1    1    2    0    0 -0.33940608768E+01  0.24462717698E+02 -0.32298943469E+02  0.40659143567E+02  0.00000000000E+00 0. -1.
         11    1    3    3    0    0 -0.12018084408E+01  0.31717201616E+01  0.38809563532E+01  0.51542191250E+01  0.51100000000E-03 0. -1.
        -11    1    3    3    0    0  0.36013745905E+01  0.93462685672E+00 -0.14848748712E+01  0.40060304476E+01  0.51100000000E-03 0.  1.
        -12    1    3    3    0    0  0.99449472710E+00 -0.28569064716E+02  0.29902861987E+02  0.41368606860E+02  0.00000000000E+00 0.  1.
</event>
<event>
 7    1  0.2744502E-011  0.5052884E+02  0.7816164E-02  0.1300439E+00
        -11   -1    0    0    0    0  0.00000000000E+00  0.00000000000E+00  0.45593999997E+02  0.45594000000E+02  0.51100000000E-03 0.  1.
         11   -1    0    0    0    0 -0.00000000000E+00 -0.00000000000E+00 -0.45593999997E+02  0.45594000000E+02  0.51100000000E-03 0. -1.
    9900012    2    1    2    0    0  0.29139146858E+02 -0.13286432587E+02  0.25050913379E+02  0.50528838282E+02  0.29999934442E+02 0.  0.
         12    1    1    2    0    0 -0.29139146858E+02  0.13286432587E+02 -0.25050913379E+02  0.40659161718E+02  0.00000000000E+00 0. -1.
         11    1    3    3    0    0  0.60683014063E+01 -0.10627729727E+02  0.47821884994E+01  0.13139339717E+02  0.51100000000E-03 0. -1.
        -11    1    3    3    0    0  0.22022072700E+01 -0.79544083673E+01  0.11469941397E+02  0.14130884093E+02  0.51100000000E-03 0.  1.
        -12    1    3    3    0    0  0.20868638182E+02  0.52957055069E+01  0.87987834820E+01  0.23258614472E+02  0.00000000000E+00 0.  1.
</event>
<event>
 7    1  0.2744502E-011  0.5052890E+02  0.7816164E-02  0.1300439E+00
        -11   -1    0    0    0    0  0.00000000000E+00  0.00000000000E+00  0.45593999997E+02  0.45594000000E+02  0.51100000000E-03 0.  1.
         11   -1    0    0    0    0 -0.00000000000E+00 -0.00000000000E+00 -0.45593999997E+02  0.45594000000E+02  0.51100000000E-03 0. -1.
    9900012    2    1    2    0    0 -0.61463305947E+01  0.12384727836E+02  0.38236158548E+02  0.50528896667E+02  0.30000111909E+02 0.  0.
         12    1    1    2    0    0  0.61463305947E+01 -0.12384727836E+02 -0.38236158548E+02  0.40659103333E+02  0.00000000000E+00 0. -1.
         11    1    3    3    0    0 -0.51356569377E+01  0.32772617853E+01  0.25903326570E+02  0.26610106063E+02  0.51100000000E-03 0. -1.
        -11    1    3    3    0    0 -0.72631003847E+01  0.32576227397E+01  0.13092870880E+02  0.15322793520E+02  0.51100000000E-03 0.  1.
         12    1    3    3    0    0  0.62524267277E+01  0.58498433105E+01 -0.76003890279E+00  0.85959970845E+01  0.00000000000E+00 0. -1.
</event>
<event>
 7    1  0.2744502E-011  0.5052886E+02  0.7816164E-02  0.1300439E+00
        -11   -1    0    0    0    0  0.00000000000E+00  0.00000000000E+00  0.45593999997E+02  0.45594000000E+02  0.51100000000E-03 0.  1.
         11   -1    0    0    0    0 -0.00000000000E+00 -0.00000000000E+00 -0.45593999997E+02  0.45594000000E+02  0.51100000000E-03 0. -1.
    9900012    2    1    2    0    0  0.18701542675E+02 -0.35842947753E+02  0.43244455549E+01  0.50528862879E+02  0.30000009207E+02 0.  0.
         12    1    1    2    0    0 -0.18701542675E+02  0.35842947753E+02 -0.43244455549E+01  0.40659137121E+02  0.00000000000E+00 0. -1.
         11    1    3    3    0    0 -0.85505781694E+00 -0.83081724367E+01  0.10076182613E+02  0.13087639566E+02  0.51100000000E-03 0.  1.
        -11    1    3    3    0    0  0.41993096319E+01 -0.40269766946E+00  0.28602351990E+01  0.50967943310E+01  0.51100000000E-03 0. -1.
         12    1    3    3    0    0  0.15357290860E+02 -0.27132077647E+02 -0.86119722566E+01  0.32344428982E+02  0.00000000000E+00 0. -1.
</event>
<event>
 7    1  0.2744502E-011  0.5052886E+02  0.7816164E-02  0.1300439E+00
        -11   -1    0    0    0    0  0.00000000000E+00  0.00000000000E+00  0.45593999997E+02  0.45594000000E+02  0.51100000000E-03 0. -1.
         11   -1    0    0    0    0 -0.00000000000E+00 -0.00000000000E+00 -0.45593999997E+02  0.45594000000E+02  0.51100000000E-03 0.  1.
    9900012    2    1    2    0    0  0.25563454514E+02  0.27305437103E+02 -0.15940161550E+02  0.50528857704E+02  0.29999993476E+02 0.  0.
         12    1    1    2    0    0 -0.25563454514E+02 -0.27305437103E+02  0.15940161550E+02  0.40659142296E+02  0.00000000000E+00 0. -1.
         11    1    3    3    0    0  0.53015297907E+01  0.11368244962E+02 -0.13508751984E+02  0.18434467501E+02  0.51100000000E-03 0. -1.
        -11    1    3    3    0    0  0.78836408062E+00  0.15038757385E+01 -0.71940328838E+01  0.73917027507E+01  0.51100000000E-03 0.  1.
         12    1    3    3    0    0  0.19473560642E+02  0.14433316403E+02  0.47626233180E+01  0.24702687452E+02  0.00000000000E+00 0. -1.
</event>
<event>
 7    1  0.2744502E-011  0.5052886E+02  0.7816164E-02  0.1300439E+00
        -11   -1    0    0    0    0  0.00000000000E+00  0.00000000000E+00  0.45593999997E+02  0.45594000000E+02  0.51100000000E-03 0.  1.
         11   -1    0    0    0    0 -0.00000000000E+00 -0.00000000000E+00 -0.45593999997E+02  0.45594000000E+02  0.51100000000E-03 0. -1.
    9900012    2    1    2    0    0  0.18992692695E+02 -0.99725427603E+01  0.34539716803E+02  0.50528855620E+02  0.29999987143E+02 0.  0.
         12    1    1    2    0    0 -0.18992692695E+02  0.99725427603E+01 -0.34539716803E+02  0.40659144380E+02  0.00000000000E+00 0. -1.
         11    1    3    3    0    0 -0.37320286056E+01  0.26031489835E+01  0.10011918440E+01  0.46590565046E+01  0.51100000000E-03 0. -1.
        -11    1    3    3    0    0  0.36306817846E+01  0.43468865689E+01  0.46537960589E+01  0.73304222991E+01  0.51100000000E-03 0.  1.
        -12    1    3    3    0    0  0.19094039516E+02 -0.16922578313E+02  0.28884728900E+02  0.38539376816E+02  0.00000000000E+00 0.  1.
</event>
<event>
 7    1  0.2744502E-011  0.5052886E+02  0.7816164E-02  0.1300439E+00
        -11   -1    0    0    0    0  0.00000000000E+00  0.00000000000E+00  0.45593999997E+02  0.45594000000E+02  0.51100000000E-03 0. -1.
         11   -1    0    0    0    0 -0.00000000000E+00 -0.00000000000E+00 -0.45593999997E+02  0.45594000000E+02  0.51100000000E-03 0.  1.
    9900012    2    1    2    0    0 -0.27535911458E+02 -0.29734102367E+02  0.32897327129E+01  0.50528860749E+02  0.30000002731E+02 0.  0.
         12    1    1    2    0    0  0.27535911458E+02  0.29734102367E+02 -0.32897327129E+01  0.40659139251E+02  0.00000000000E+00 0. -1.
         11    1    3    3    0    0 -0.27484153988E+01 -0.82264764291E+01 -0.53813432045E+01  0.10207230603E+02  0.51100000000E-03 0. -1.
        -11    1    3    3    0    0 -0.20225760783E+02 -0.62894426196E+01 -0.18575648339E+01  0.21262385452E+02  0.51100000000E-03 0.  1.
         12    1    3    3    0    0 -0.45617352756E+01 -0.15218183318E+02  0.10528640751E+02  0.19059244694E+02  0.00000000000E+00 0. -1.
</event>
<event>
 7    1  0.2744502E-011  0.5052886E+02  0.7816164E-02  0.1300439E+00
        -11   -1    0    0    0    0  0.00000000000E+00  0.00000000000E+00  0.45593999997E+02  0.45594000000E+02  0.51100000000E-03 0.  1.
         11   -1    0    0    0    0 -0.00000000000E+00 -0.00000000000E+00 -0.45593999997E+02  0.45594000000E+02  0.51100000000E-03 0. -1.
    9900012    2    1    2    0    0  0.23359761224E+02 -0.16719524089E+02 -0.28774033412E+02  0.50528856760E+02  0.29999990607E+02 0.  0.
         12    1    1    2    0    0 -0.23359761224E+02  0.16719524089E+02  0.28774033412E+02  0.40659143240E+02  0.00000000000E+00 0. -1.
         11    1    3    3    0    0 -0.41029681463E+01 -0.53627369886E+01 -0.48463072613E+01  0.83114372975E+01  0.51100000000E-03 0. -1.
        -11    1    3    3    0    0  0.86035651682E+00 -0.72003042339E+01 -0.20814403187E+01  0.75443348585E+01  0.51100000000E-03 0.  1.
         12    1    3    3    0    0  0.26602372853E+02 -0.41564828668E+01 -0.21846285833E+02  0.34673084604E+02  0.00000000000E+00 0. -1.
</event>
<event>
 7    1  0.2744502E-011  0.5052886E+02  0.7816164E-02  0.1300439E+00
        -11   -1    0    0    0    0  0.00000000000E+00  0.00000000000E+00  0.45593999997E+02  0.45594000000E+02  0.51100000000E-03 0. -1.
         11   -1    0    0    0    0 -0.00000000000E+00 -0.00000000000E+00 -0.45593999997E+02  0.45594000000E+02  0.51100000000E-03 0.  1.
    9900012    2    1    2    0    0  0.12302800171E+01  0.37520188889E+02 -0.15616889910E+02  0.50528863098E+02  0.30000009872E+02 0.  0.
         12    1    1    2    0    0 -0.12302800171E+01 -0.37520188889E+02  0.15616889910E+02  0.40659136902E+02  0.00000000000E+00 0. -1.
         11    1    3    3    0    0 -0.27497042475E+01  0.22170301789E+01  0.23158045260E+01  0.42236296152E+01  0.51100000000E-03 0. -1.
        -11    1    3    3    0    0  0.60360610525E+01  0.23614053775E+01  0.30822187131E+01  0.71770704917E+01  0.51100000000E-03 0.  1.
         12    1    3    3    0    0 -0.20560767879E+01  0.32941753332E+02 -0.21014913149E+02  0.39128162991E+02  0.00000000000E+00 0. -1.
</event>
<event>
 7    1  0.2744502E-011  0.5052886E+02  0.7816164E-02  0.1300439E+00
        -11   -1    0    0    0    0  0.00000000000E+00  0.00000000000E+00  0.45593999997E+02  0.45594000000E+02  0.51100000000E-03 0.  1.
         11   -1    0    0    0    0 -0.00000000000E+00 -0.00000000000E+00 -0.45593999997E+02  0.45594000000E+02  0.51100000000E-03 0. -1.
    9900012    2    1    2    0    0 -0.28990369208E+02 -0.15620018800E+02  0.23848253596E+02  0.50528859654E+02  0.29999999403E+02 0.  0.
         12    1    1    2    0    0  0.28990369208E+02  0.15620018800E+02 -0.23848253596E+02  0.40659140346E+02  0.00000000000E+00 0. -1.
         11    1    3    3    0    0  0.49816783475E+01 -0.76230066068E+00  0.16196526333E+01  0.52935334484E+01  0.51100000000E-03 0. -1.
        -11    1    3    3    0    0 -0.17316441541E+02 -0.10186842531E+01  0.13090193805E+02  0.21731314717E+02  0.51100000000E-03 0.  1.
        -12    1    3    3    0    0 -0.16655606015E+02 -0.13839033886E+02  0.91384071577E+01  0.23504011488E+02  0.00000000000E+00 0.  1.
</event>
<event>
 7    1  0.2744502E-011  0.5052892E+02  0.7816164E-02  0.1300439E+00
        -11   -1    0    0    0    0  0.00000000000E+00  0.00000000000E+00  0.45593999997E+02  0.45594000000E+02  0.51100000000E-03 0.  1.
         11   -1    0    0    0    0 -0.00000000000E+00 -0.00000000000E+00 -0.45593999997E+02  0.45594000000E+02  0.51100000000E-03 0. -1.
    9900012    2    1    2    0    0 -0.65429087465E+01 -0.16154142671E+01  0.40096653672E+02  0.50528919171E+02  0.30000180313E+02 0.  0.
         12    1    1    2    0    0  0.65429087465E+01  0.16154142671E+01 -0.40096653672E+02  0.40659080829E+02  0.00000000000E+00 0. -1.
         11    1    3    3    0    0 -0.47404047881E+01 -0.59554201711E+01  0.20109163844E+01  0.78728807902E+01  0.51100000000E-03 0. -1.
        -11    1    3    3    0    0  0.77220785033E+00 -0.67352902588E+01  0.79591753760E+01  0.10455090280E+02  0.51100000000E-03 0.  1.
        -12    1    3    3    0    0 -0.25747118087E+01  0.11075296163E+02  0.30126561912E+02  0.32200948101E+02  0.00000000000E+00 0.  1.
</event>
<event>
 7    1  0.2744502E-011  0.5052887E+02  0.7816164E-02  0.1300439E+00
        -11   -1    0    0    0    0  0.00000000000E+00  0.00000000000E+00  0.45593999997E+02  0.45594000000E+02  0.51100000000E-03 0.  1.
         11   -1    0    0    0    0 -0.00000000000E+00 -0.00000000000E+00 -0.45593999997E+02  0.45594000000E+02  0.51100000000E-03 0. -1.
    9900012    2    1    2    0    0  0.74051065031E+01  0.15657003584E+02  0.36785692651E+02  0.50528873750E+02  0.30000042251E+02 0.  0.
         12    1    1    2    0    0 -0.74051065031E+01 -0.15657003584E+02 -0.36785692651E+02  0.40659126250E+02  0.00000000000E+00 0. -1.
         11    1    3    3    0    0 -0.95910216221E+01  0.32418431758E+01  0.15845232855E+02  0.18803421163E+02  0.51100000000E-03 0. -1.
        -11    1    3    3    0    0  0.52103973595E+00  0.31849921655E+01  0.85504359443E+01  0.91392347929E+01  0.51100000000E-03 0.  1.
         12    1    3    3    0    0  0.16475088389E+02  0.92301682423E+01  0.12390023852E+02  0.22586217795E+02  0.00000000000E+00 0. -1.
</event>
<event>
 7    1  0.2744502E-011  0.5052886E+02  0.7816164E-02  0.1300439E+00
        -11   -1    0    0    0    0  0.00000000000E+00  0.00000000000E+00  0.45593999997E+02  0.45594000000E+02  0.51100000000E-03 0. -1.
         11   -1    0    0    0    0 -0.00000000000E+00 -0.00000000000E+00 -0.45593999997E+02  0.45594000000E+02  0.51100000000E-03 0.  1.
    9900012    2    1    2    0    0  0.21131021295E+02 -0.15587058217E+02 -0.31043345487E+02  0.50528859037E+02  0.29999997528E+02 0.  0.
         12    1    1    2    0    0 -0.21131021295E+02  0.15587058217E+02  0.31043345487E+02  0.40659140963E+02  0.00000000000E+00 0. -1.
         11    1    3    3    0    0  0.42373247070E+01  0.70125860330E+01 -0.92736281551E+00  0.82456828459E+01  0.51100000000E-03 0. -1.
        -11    1    3    3    0    0  0.34762906775E+01 -0.72633892083E+00 -0.15232134302E+01  0.38642391900E+01  0.51100000000E-03 0.  1.
        -12    1    3    3    0    0  0.13417405911E+02 -0.21873305329E+02 -0.28592769241E+02  0.38418937001E+02  0.00000000000E+00 0.  1.
</event>
<event>
 7    1  0.2744502E-011  0.5052886E+02  0.7816164E-02  0.1300439E+00
        -11   -1    0    0    0    0  0.00000000000E+00  0.00000000000E+00  0.45593999997E+02  0.45594000000E+02  0.51100000000E-03 0. -1.
         11   -1    0    0    0    0 -0.00000000000E+00 -0.00000000000E+00 -0.45593999997E+02  0.45594000000E+02  0.51100000000E-03 0.  1.
    9900012    2    1    2    0    0 -0.25300485496E+02  0.21610256137E+02  0.23367661941E+02  0.50528863742E+02  0.30000011831E+02 0.  0.
         12    1    1    2    0    0  0.25300485496E+02 -0.21610256137E+02 -0.23367661941E+02  0.40659136258E+02  0.00000000000E+00 0. -1.
         11    1    3    3    0    0 -0.15154921518E+02  0.16301277685E+02  0.13310378157E+02  0.25933944307E+02  0.51100000000E-03 0. -1.
        -11    1    3    3    0    0 -0.10375020215E+02  0.11927765658E+02  0.74707486232E+01  0.17484985654E+02  0.51100000000E-03 0.  1.
         12    1    3    3    0    0  0.22945623752E+00 -0.66187872058E+01  0.25865351611E+01  0.71099337817E+01  0.00000000000E+00 0. -1.
</event>
<event>
 7    1  0.2744502E-011  0.5052885E+02  0.7816164E-02  0.1300439E+00
        -11   -1    0    0    0    0  0.00000000000E+00  0.00000000000E+00  0.45593999997E+02  0.45594000000E+02  0.51100000000E-03 0.  1.
         11   -1    0    0    0    0 -0.00000000000E+00 -0.00000000000E+00 -0.45593999997E+02  0.45594000000E+02  0.51100000000E-03 0. -1.
    9900012    2    1    2    0    0 -0.34800865447E+01 -0.40492905662E+02  0.11746624482E+01  0.50528852897E+02  0.29999978864E+02 0.  0.
         12    1    1    2    0    0  0.34800865447E+01  0.40492905662E+02 -0.11746624482E+01  0.40659147103E+02  0.00000000000E+00 0. -1.
         11    1    3    3    0    0  0.69251205946E+01 -0.87833278057E+01 -0.70418369541E+00  0.11207141363E+02  0.51100000000E-03 0.  1.
        -11    1    3    3    0    0  0.16348447365E+01  0.72018636111E-01  0.49345774759E+01  0.51988420944E+01  0.51100000000E-03 0. -1.
        -12    1    3    3    0    0 -0.12040051876E+02 -0.31781596492E+02 -0.30557313323E+01  0.34122869439E+02  0.00000000000E+00 0.  1.
</event>
<event>
 7    1  0.2744502E-011  0.5052886E+02  0.7816164E-02  0.1300439E+00
        -11   -1    0    0    0    0  0.00000000000E+00  0.00000000000E+00  0.45593999997E+02  0.45594000000E+02  0.51100000000E-03 0. -1.
         11   -1    0    0    0    0 -0.00000000000E+00 -0.00000000000E+00 -0.45593999997E+02  0.45594000000E+02  0.51100000000E-03 0.  1.
    9900012    2    1    2    0    0 -0.17134648013E+02 -0.12410195950E+02 -0.34721129012E+02  0.50528856798E+02  0.29999990723E+02 0.  0.
         12    1    1    2    0    0  0.17134648013E+02  0.12410195950E+02  0.34721129012E+02  0.40659143202E+02  0.00000000000E+00 0. -1.
         11    1    3    3    0    0 -0.74481544640E+01 -0.86828722946E+01 -0.24184115115E+02  0.26753293262E+02  0.51100000000E-03 0. -1.
        -11    1    3    3    0    0 -0.11574719411E+02 -0.77116397388E+01 -0.12726953276E+02  0.18852555712E+02  0.51100000000E-03 0.  1.
         12    1    3    3    0    0  0.18882258624E+01  0.39843160830E+01  0.21899393788E+01  0.49230078245E+01  0.00000000000E+00 0. -1.
</event>
<event>
 7    1  0.2744502E-011  0.5052888E+02  0.7816164E-02  0.1300439E+00
        -11   -1    0    0    0    0  0.00000000000E+00  0.00000000000E+00  0.45593999997E+02  0.45594000000E+02  0.51100000000E-03 0. -1.
         11   -1    0    0    0    0 -0.00000000000E+00 -0.00000000000E+00 -0.45593999997E+02  0.45594000000E+02  0.51100000000E-03 0.  1.
    9900012    2    1    2    0    0  0.19365592644E+02 -0.35701963234E+02  0.18729746445E+01  0.50528875671E+02  0.30000048090E+02 0.  0.
         12    1    1    2    0    0 -0.19365592644E+02  0.35701963234E+02 -0.18729746445E+01  0.40659124329E+02  0.00000000000E+00 0. -1.
         11    1    3    3    0    0  0.27429681432E+01 -0.20758852899E+02  0.11268842304E+02  0.23778996090E+02  0.51100000000E-03 0. -1.
        -11    1    3    3    0    0  0.10598602025E+02 -0.13366450370E+02 -0.21460382347E+01  0.17192959046E+02  0.51100000000E-03 0.  1.
        -12    1    3    3    0    0  0.60240224751E+01 -0.15766599641E+01 -0.72498294246E+01  0.95569205348E+01  0.00000000000E+00 0.  1.
</event>
<event>
 7    1  0.2744502E-011  0.5052885E+02  0.7816164E-02  0.1300439E+00
        -11   -1    0    0    0    0  0.00000000000E+00  0.00000000000E+00  0.45593999997E+02  0.45594000000E+02  0.51100000000E-03 0.  1.
         11   -1    0    0    0    0 -0.00000000000E+00 -0.00000000000E+00 -0.45593999997E+02  0.45594000000E+02  0.51100000000E-03 0. -1.
    9900012    2    1    2    0    0  0.27182875847E+01 -0.37703942591E+02  0.14972977798E+02  0.50528850496E+02  0.29999971566E+02 0.  0.
         12    1    1    2    0    0 -0.27182875847E+01  0.37703942591E+02 -0.14972977798E+02  0.40659149504E+02  0.00000000000E+00 0. -1.
         11    1    3    3    0    0  0.36673450436E+01 -0.56675272894E+00  0.36262454724E+01  0.51884761551E+01  0.51100000000E-03 0. -1.
        -11    1    3    3    0    0  0.10763996406E+02 -0.14897036748E+02  0.18564947410E+01  0.18472463168E+02  0.51100000000E-03 0.  1.
         12    1    3    3    0    0 -0.11713053865E+02 -0.22240153114E+02  0.94902375842E+01  0.26867911173E+02  0.00000000000E+00 0. -1.
</event>
<event>
 7    1  0.2744502E-011  0.5052886E+02  0.7816164E-02  0.1300439E+00
        -11   -1    0    0    0    0  0.00000000000E+00  0.00000000000E+00  0.45593999997E+02  0.45594000000E+02  0.51100000000E-03 0. -1.
         11   -1    0    0    0    0 -0.00000000000E+00 -0.00000000000E+00 -0.45593999997E+02  0.45594000000E+02  0.51100000000E-03 0.  1.
    9900012    2    1    2    0    0  0.21387596402E+02  0.15349825717E+02 -0.30985786193E+02  0.50528863569E+02  0.30000011303E+02 0.  0.
         12    1    1    2    0    0 -0.21387596402E+02 -0.15349825717E+02  0.30985786193E+02  0.40659136431E+02  0.00000000000E+00 0. -1.
         11    1    3    3    0    0  0.10279482095E+01  0.16231007795E+02 -0.88512842420E+01  0.18516142270E+02  0.51100000000E-03 0. -1.
        -11    1    3    3    0    0  0.48348318014E+01  0.40523492334E+01 -0.33293425767E+01  0.71331378167E+01  0.51100000000E-03 0.  1.
        -12    1    3    3    0    0  0.15524816391E+02 -0.49335313114E+01 -0.18805159374E+02  0.24879583482E+02  0.00000000000E+00 0.  1.
</event>
<event>
 7    1  0.2744502E-011  0.5052881E+02  0.7816164E-02  0.1300439E+00
        -11   -1    0    0    0    0  0.00000000000E+00  0.00000000000E+00  0.45593999997E+02  0.45594000000E+02  0.51100000000E-03 0. -1.
         11   -1    0    0    0    0 -0.00000000000E+00 -0.00000000000E+00 -0.45593999997E+02  0.45594000000E+02  0.51100000000E-03 0.  1.
    9900012    2    1    2    0    0 -0.38910232420E+02 -0.11000687632E+02 -0.42601154297E+01  0.50528807942E+02  0.29999842220E+02 0.  0.
         12    1    1    2    0    0  0.38910232420E+02  0.11000687632E+02  0.42601154297E+01  0.40659192058E+02  0.00000000000E+00 0. -1.
         11    1    3    3    0    0  0.19388066891E+01 -0.57715024366E+00  0.20586009452E+01  0.28861586745E+01  0.51100000000E-03 0. -1.
        -11    1    3    3    0    0 -0.16119342693E+01  0.24227125229E+01 -0.56446998826E+01  0.63506302902E+01  0.51100000000E-03 0.  1.
        -12    1    3    3    0    0 -0.39237104840E+02 -0.12846249912E+02 -0.67401649239E+00  0.41292018977E+02  0.00000000000E+00 0.  1.
</event>
<event>
 7    1  0.2744502E-011  0.5052886E+02  0.7816164E-02  0.1300439E+00
        -11   -1    0    0    0    0  0.00000000000E+00  0.00000000000E+00  0.45593999997E+02  0.45594000000E+02  0.51100000000E-03 0.  1.
         11   -1    0    0    0    0 -0.00000000000E+00 -0.00000000000E+00 -0.45593999997E+02  0.45594000000E+02  0.51100000000E-03 0. -1.
    9900012    2    1    2    0    0  0.36626659156E+02 -0.12636835260E+02 -0.12327367771E+02  0.50528858808E+02  0.29999996833E+02 0.  0.
         12    1    1    2    0    0 -0.36626659156E+02  0.12636835260E+02  0.12327367771E+02  0.40659141192E+02  0.00000000000E+00 0. -1.
         11    1    3    3    0    0 -0.10785644003E+01 -0.73521440842E+00 -0.98765333400E+00  0.16368569764E+01  0.51100000000E-03 0.  1.
        -11    1    3    3    0    0 -0.31746897463E+01  0.18326577008E+01  0.14004988665E+01  0.39241160240E+01  0.51100000000E-03 0. -1.
        -12    1    3    3    0    0  0.40879913303E+02 -0.13734278552E+02 -0.12740213303E+02  0.44967885808E+02  0.00000000000E+00 0.  1.
</event>
<event>
 7    1  0.2744502E-011  0.5052888E+02  0.7816164E-02  0.1300439E+00
        -11   -1    0    0    0    0  0.00000000000E+00  0.00000000000E+00  0.45593999997E+02  0.45594000000E+02  0.51100000000E-03 0.  1.
         11   -1    0    0    0    0 -0.00000000000E+00 -0.00000000000E+00 -0.45593999997E+02  0.45594000000E+02  0.51100000000E-03 0. -1.
    9900012    2    1    2    0    0  0.24826984252E+02 -0.81298225331E+01  0.31155911894E+02  0.50528880390E+02  0.30000062434E+02 0.  0.
         12    1    1    2    0    0 -0.24826984252E+02  0.81298225331E+01 -0.31155911894E+02  0.40659119610E+02  0.00000000000E+00 0. -1.
         11    1    3    3    0    0  0.41573862223E+00  0.40425060332E+01  0.38004424235E+01  0.55639964509E+01  0.51100000000E-03 0. -1.
        -11    1    3    3    0    0  0.20426793343E+02 -0.46989049954E+01  0.29537809529E+02  0.36218997591E+02  0.51100000000E-03 0.  1.
         12    1    3    3    0    0  0.39844522867E+01 -0.74734235709E+01 -0.21823400582E+01  0.87458863487E+01  0.00000000000E+00 0. -1.
</event>
<event>
 7    1  0.2744502E-011  0.5052886E+02  0.7816164E-02  0.1300439E+00
        -11   -1    0    0    0    0  0.00000000000E+00  0.00000000000E+00  0.45593999997E+02  0.45594000000E+02  0.51100000000E-03 0.  1.
         11   -1    0    0    0    0 -0.00000000000E+00 -0.00000000000E+00 -0.45593999997E+02  0.45594000000E+02  0.51100000000E-03 0. -1.
    9900012    2    1    2    0    0 -0.72981291865E+00 -0.19192974902E+02  0.35836615577E+02  0.50528856767E+02  0.29999990628E+02 0.  0.
         12    1    1    2    0    0  0.72981291865E+00  0.19192974902E+02 -0.35836615577E+02  0.40659143233E+02  0.00000000000E+00 0. -1.
         11    1    3    3    0    0 -0.36635516764E+01 -0.13977909239E+02  0.18316626180E+01  0.14565663246E+02  0.51100000000E-03 0. -1.
        -11    1    3    3    0    0  0.48835511525E+01  0.20796172277E+00  0.84083950937E+01  0.97259152911E+01  0.51100000000E-03 0.  1.
        -12    1    3    3    0    0 -0.19498123947E+01 -0.54230273856E+01  0.25596557865E+02  0.26237278230E+02  0.00000000000E+00 0.  1.
</event>
<event>
 7    1  0.2744502E-011  0.5052886E+02  0.7816164E-02  0.1300439E+00
        -11   -1    0    0    0    0  0.00000000000E+00  0.00000000000E+00  0.45593999997E+02  0.45594000000E+02  0.51100000000E-03 0.  1.
         11   -1    0    0    0    0 -0.00000000000E+00 -0.00000000000E+00 -0.45593999997E+02  0.45594000000E+02  0.51100000000E-03 0. -1.
    9900012    2    1    2    0    0 -0.16679426281E+02  0.14893147334E+01  0.37050563973E+02  0.50528860681E+02  0.30000002526E+02 0.  0.
         12    1    1    2    0    0  0.16679426281E+02 -0.14893147334E+01 -0.37050563973E+02  0.40659139319E+02  0.00000000000E+00 0. -1.
         11    1    3    3    0    0 -0.11979141678E+02 -0.54952752918E+00  0.56238707671E+01  0.13244989185E+02  0.51100000000E-03 0. -1.
        -11    1    3    3    0    0 -0.10031203538E+02  0.66503278414E+01  0.24995429313E+02  0.27742087009E+02  0.51100000000E-03 0.  1.
         12    1    3    3    0    0  0.53309189346E+01 -0.46114855788E+01  0.64312638933E+01  0.95417844870E+01  0.00000000000E+00 0. -1.
</event>
<event>
 7    1  0.2744502E-011  0.5052887E+02  0.7816164E-02  0.1300439E+00
        -11   -1    0    0    0    0  0.00000000000E+00  0.00000000000E+00  0.45593999997E+02  0.45594000000E+02  0.51100000000E-03 0. -1.
         11   -1    0    0    0    0 -0.00000000000E+00 -0.00000000000E+00 -0.45593999997E+02  0.45594000000E+02  0.51100000000E-03 0.  1.
    9900012    2    1    2    0    0 -0.39445976262E+02 -0.97585629591E+01 -0.13964701503E+01  0.50528871589E+02  0.30000035682E+02 0.  0.
         12    1    1    2    0    0  0.39445976262E+02  0.97585629591E+01  0.13964701503E+01  0.40659128411E+02  0.00000000000E+00 0. -1.
         11    1    3    3    0    0 -0.30731794101E+02 -0.10084347131E+01 -0.45174714386E+01  0.31078411441E+02  0.51100000000E-03 0. -1.
        -11    1    3    3    0    0 -0.22251313641E+01  0.81406210635E+00 -0.48587001914E+01  0.54056335902E+01  0.51100000000E-03 0.  1.
         12    1    3    3    0    0 -0.64890507962E+01 -0.95641903523E+01  0.79797014797E+01  0.14044826558E+02  0.00000000000E+00 0. -1.
</event>
<event>
 7    1  0.2744502E-011  0.5052886E+02  0.7816164E-02  0.1300439E+00
        -11   -1    0    0    0    0  0.00000000000E+00  0.00000000000E+00  0.45593999997E+02  0.45594000000E+02  0.51100000000E-03 0. -1.
         11   -1    0    0    0    0 -0.00000000000E+00 -0.00000000000E+00 -0.45593999997E+02  0.45594000000E+02  0.51100000000E-03 0.  1.
    9900012    2    1    2    0    0 -0.25866234348E+02  0.31127316040E+02 -0.38979456923E+01  0.50528857561E+02  0.29999993044E+02 0.  0.
         12    1    1    2    0    0  0.25866234348E+02 -0.31127316040E+02  0.38979456923E+01  0.40659142439E+02  0.00000000000E+00 0. -1.
         11    1    3    3    0    0 -0.40863023073E+01 -0.93948042888E-01  0.48688665954E+01  0.63570869875E+01  0.51100000000E-03 0. -1.
        -11    1    3    3    0    0  0.25561532235E+01  0.93648425592E+01 -0.58454178457E+01  0.11331509410E+02  0.51100000000E-03 0.  1.
        -12    1    3    3    0    0 -0.24336085264E+02  0.21856421524E+02 -0.29213944420E+01  0.32840261164E+02  0.00000000000E+00 0.  1.
</event>
<event>
 7    1  0.2744502E-011  0.5052886E+02  0.7816164E-02  0.1300439E+00
        -11   -1    0    0    0    0  0.00000000000E+00  0.00000000000E+00  0.45593999997E+02  0.45594000000E+02  0.51100000000E-03 0.  1.
         11   -1    0    0    0    0 -0.00000000000E+00 -0.00000000000E+00 -0.45593999997E+02  0.45594000000E+02  0.51100000000E-03 0. -1.
    9900012    2    1    2    0    0 -0.34724203145E+02  0.39735674384E+01  0.20775126753E+02  0.50528863095E+02  0.30000009864E+02 0.  0.
         12    1    1    2    0    0  0.34724203145E+02 -0.39735674384E+01 -0.20775126753E+02  0.40659136905E+02  0.00000000000E+00 0. -1.
         11    1    3    3    0    0 -0.61430357352E+01 -0.39399974193E+01  0.56751504269E+01  0.92448796821E+01  0.51100000000E-03 0.  1.
        -11    1    3    3    0    0 -0.84542173490E+01 -0.76960844838E+01 -0.45065097791E+00  0.11441441952E+02  0.51100000000E-03 0. -1.
        -12    1    3    3    0    0 -0.20126950061E+02  0.15609649341E+02  0.15550627304E+02  0.29842541461E+02  0.00000000000E+00 0.  1.
</event>
<event>
 7    1  0.2744502E-011  0.5052886E+02  0.7816164E-02  0.1300439E+00
        -11   -1    0    0    0    0  0.00000000000E+00  0.00000000000E+00  0.45593999997E+02  0.45594000000E+02  0.51100000000E-03 0. -1.
         11   -1    0    0    0    0 -0.00000000000E+00 -0.00000000000E+00 -0.45593999997E+02  0.45594000000E+02  0.51100000000E-03 0.  1.
    9900012    2    1    2    0    0  0.18337469244E+02  0.26007657372E+02 -0.25308199802E+02  0.50528855918E+02  0.29999988048E+02 0.  0.
         12    1    1    2    0    0 -0.18337469244E+02 -0.26007657372E+02  0.25308199802E+02  0.40659144082E+02  0.00000000000E+00 0. -1.
         11    1    3    3    0    0  0.15419010506E+02  0.46155593262E+01 -0.93303329833E+01  0.18603880959E+02  0.51100000000E-03 0. -1.
        -11    1    3    3    0    0  0.91492287749E+01  0.15507541063E+02 -0.64896422438E+01  0.19139165962E+02  0.51100000000E-03 0.  1.
         12    1    3    3    0    0 -0.62307700370E+01  0.58845569833E+01 -0.94882245749E+01  0.12785808998E+02  0.00000000000E+00 0. -1.
</event>
<event>
 7    1  0.2744502E-011  0.5052886E+02  0.7816164E-02  0.1300439E+00
        -11   -1    0    0    0    0  0.00000000000E+00  0.00000000000E+00  0.45593999997E+02  0.45594000000E+02  0.51100000000E-03 0.  1.
         11   -1    0    0    0    0 -0.00000000000E+00 -0.00000000000E+00 -0.45593999997E+02  0.45594000000E+02  0.51100000000E-03 0. -1.
    9900012    2    1    2    0    0 -0.39552870542E+02 -0.48906120708E+01  0.80509544444E+01  0.50528861765E+02  0.30000005822E+02 0.  0.
         12    1    1    2    0    0  0.39552870542E+02  0.48906120708E+01 -0.80509544444E+01  0.40659138235E+02  0.00000000000E+00 0. -1.
         11    1    3    3    0    0 -0.15530113273E+02  0.57306590424E+01  0.30618877769E+01  0.16834489251E+02  0.51100000000E-03 0. -1.
        -11    1    3    3    0    0 -0.24993358627E+02 -0.10945423448E+02 -0.13064405989E+01  0.27316241638E+02  0.51100000000E-03 0.  1.
        -12    1    3    3    0    0  0.97060135861E+00  0.32415233450E+00  0.62955072664E+01  0.63781308763E+01  0.00000000000E+00 0.  1.
</event>
<event>
 7    1  0.2744502E-011  0.5052886E+02  0.7816164E-02  0.1300439E+00
        -11   -1    0    0    0    0  0.00000000000E+00  0.00000000000E+00  0.45593999997E+02  0.45594000000E+02  0.51100000000E-03 0.  1.
         11   -1    0    0    0    0 -0.00000000000E+00 -0.00000000000E+00 -0.45593999997E+02  0.45594000000E+02  0.51100000000E-03 0. -1.
    9900012    2    1    2    0    0  0.54811723839E+00 -0.39777521504E+02  0.84031976244E+01  0.50528863514E+02  0.30000011136E+02 0.  0.
         12    1    1    2    0    0 -0.54811723839E+00  0.39777521504E+02 -0.84031976244E+01  0.40659136486E+02  0.00000000000E+00 0. -1.
         11    1    3    3    0    0  0.97091577534E+00 -0.12091595223E+02  0.24458546505E+01  0.12374633640E+02  0.51100000000E-03 0. -1.
        -11    1    3    3    0    0  0.91985295872E+01 -0.21188323725E+02  0.10893334455E+02  0.25538651974E+02  0.51100000000E-03 0.  1.
         12    1    3    3    0    0 -0.96213281241E+01 -0.64976025552E+01 -0.49359914811E+01  0.12615577900E+02  0.00000000000E+00 0. -1.
</event>
<event>
 7    1  0.2744502E-011  0.5052887E+02  0.7816164E-02  0.1300439E+00
        -11   -1    0    0    0    0  0.00000000000E+00  0.00000000000E+00  0.45593999997E+02  0.45594000000E+02  0.51100000000E-03 0.  1.
         11   -1    0    0    0    0 -0.00000000000E+00 -0.00000000000E+00 -0.45593999997E+02  0.45594000000E+02  0.51100000000E-03 0. -1.
    9900012    2    1    2    0    0 -0.18400635992E+02  0.31962014894E+02  0.17117576138E+02  0.50528865555E+02  0.30000017341E+02 0.  0.
         12    1    1    2    0    0  0.18400635992E+02 -0.31962014894E+02 -0.17117576138E+02  0.40659134445E+02  0.00000000000E+00 0. -1.
         11    1    3    3    0    0 -0.22106484084E+01  0.16096377143E+02  0.10378738723E+02  0.19279484985E+02  0.51100000000E-03 0. -1.
        -11    1    3    3    0    0  0.38355962011E+01  0.15853677178E+01  0.51334281501E+01  0.66013084954E+01  0.51100000000E-03 0.  1.
        -12    1    3    3    0    0 -0.20025583784E+02  0.14280270033E+02  0.16054092646E+01  0.24648072075E+02  0.00000000000E+00 0.  1.
</event>
<event>
 7    1  0.2744502E-011  0.5052886E+02  0.7816164E-02  0.1300439E+00
        -11   -1    0    0    0    0  0.00000000000E+00  0.00000000000E+00  0.45593999997E+02  0.45594000000E+02  0.51100000000E-03 0.  1.
         11   -1    0    0    0    0 -0.00000000000E+00 -0.00000000000E+00 -0.45593999997E+02  0.45594000000E+02  0.51100000000E-03 0. -1.
    9900012    2    1    2    0    0 -0.16036338388E+02  0.10227391906E+02  0.35936080795E+02  0.50528860843E+02  0.30000003018E+02 0.  0.
         12    1    1    2    0    0  0.16036338388E+02 -0.10227391906E+02 -0.35936080795E+02  0.40659139157E+02  0.00000000000E+00 0. -1.
         11    1    3    3    0    0 -0.43713447377E+01  0.65966074599E+01 -0.99323751996E+00  0.79756131945E+01  0.51100000000E-03 0. -1.
        -11    1    3    3    0    0 -0.56139492459E+01  0.89992241070E+01  0.10544411126E+02  0.14956171533E+02  0.51100000000E-03 0.  1.
        -12    1    3    3    0    0 -0.60510444040E+01 -0.53684396604E+01  0.26384907189E+02  0.27597076116E+02  0.00000000000E+00 0.  1.
</event>
<event>
 7    1  0.2744502E-011  0.5052886E+02  0.7816164E-02  0.1300439E+00
        -11   -1    0    0    0    0  0.00000000000E+00  0.00000000000E+00  0.45593999997E+02  0.45594000000E+02  0.51100000000E-03 0. -1.
         11   -1    0    0    0    0 -0.00000000000E+00 -0.00000000000E+00 -0.45593999997E+02  0.45594000000E+02  0.51100000000E-03 0.  1.
    9900012    2    1    2    0    0 -0.16785976177E+02 -0.25798927305E+02 -0.26567130469E+02  0.50528855055E+02  0.29999985425E+02 0.  0.
         12    1    1    2    0    0  0.16785976177E+02  0.25798927305E+02  0.26567130469E+02  0.40659144945E+02  0.00000000000E+00 0. -1.
         11    1    3    3    0    0 -0.33457946103E+01 -0.61331005690E+00 -0.14020941382E+02  0.14427657062E+02  0.51100000000E-03 0. -1.
        -11    1    3    3    0    0 -0.20614787000E+01 -0.22827373675E+01 -0.99282676863E+01  0.10393800259E+02  0.51100000000E-03 0.  1.
         12    1    3    3    0    0 -0.11378702867E+02 -0.22902879880E+02 -0.26179214007E+01  0.25707397733E+02  0.00000000000E+00 0. -1.
</event>
<event>
 7    1  0.2744502E-011  0.5052886E+02  0.7816164E-02  0.1300439E+00
        -11   -1    0    0    0    0  0.00000000000E+00  0.00000000000E+00  0.45593999997E+02  0.45594000000E+02  0.51100000000E-03 0.  1.
         11   -1    0    0    0    0 -0.00000000000E+00 -0.00000000000E+00 -0.45593999997E+02  0.45594000000E+02  0.51100000000E-03 0. -1.
    9900012    2    1    2    0    0  0.19027754253E+00 -0.38172228230E+01  0.40479111724E+02  0.50528857343E+02  0.29999992379E+02 0.  0.
         12    1    1    2    0    0 -0.19027754253E+00  0.38172228230E+01 -0.40479111724E+02  0.40659142657E+02  0.00000000000E+00 0. -1.
         11    1    3    3    0    0  0.74079773771E+00 -0.27752224049E+00 -0.59511224967E+00  0.98992865045E+00  0.51100000000E-03 0. -1.
        -11    1    3    3    0    0 -0.93165010310E+01  0.85362235910E+01  0.21302658754E+02  0.24768277592E+02  0.51100000000E-03 0.  1.
         12    1    3    3    0    0  0.87659808358E+01 -0.12075924174E+02  0.19771565220E+02  0.24770651100E+02  0.00000000000E+00 0. -1.
</event>
<event>
 7    1  0.2744502E-011  0.5052888E+02  0.7816164E-02  0.1300439E+00
        -11   -1    0    0    0    0  0.00000000000E+00  0.00000000000E+00  0.45593999997E+02  0.45594000000E+02  0.51100000000E-03 0.  1.
         11   -1    0    0    0    0 -0.00000000000E+00 -0.00000000000E+00 -0.45593999997E+02  0.45594000000E+02  0.51100000000E-03 0. -1.
    9900012    2    1    2    0    0  0.30705889199E+02  0.12015449211E+02  0.23789518066E+02  0.50528882682E+02  0.30000069401E+02 0.  0.
         12    1    1    2    0    0 -0.30705889199E+02 -0.12015449211E+02 -0.23789518066E+02  0.40659117318E+02  0.00000000000E+00 0. -1.
         11    1    3    3    0    0  0.43195161546E+01  0.84494665651E+01  0.39914833653E+00  0.94979484469E+01  0.51100000000E-03 0. -1.
        -11    1    3    3    0    0  0.13203639995E+02  0.12165243980E+02  0.11795428999E+02  0.21481653003E+02  0.51100000000E-03 0.  1.
        -12    1    3    3    0    0  0.13182733049E+02 -0.85992613345E+01  0.11594940730E+02  0.19549281232E+02  0.00000000000E+00 0.  1.
</event>
<event>
 7    1  0.2744502E-011  0.5052887E+02  0.7816164E-02  0.1300439E+00
        -11   -1    0    0    0    0  0.00000000000E+00  0.00000000000E+00  0.45593999997E+02  0.45594000000E+02  0.51100000000E-03 0. -1.
         11   -1    0    0    0    0 -0.00000000000E+00 -0.00000000000E+00 -0.45593999997E+02  0.45594000000E+02  0.51100000000E-03 0.  1.
    9900012    2    1    2    0    0 -0.10189937157E+02 -0.10242873627E+02 -0.38005445178E+02  0.50528866431E+02  0.30000020004E+02 0.  0.
         12    1    1    2    0    0  0.10189937157E+02  0.10242873627E+02  0.38005445178E+02  0.40659133569E+02  0.00000000000E+00 0. -1.
         11    1    3    3    0    0  0.77915294160E+01 -0.19071382781E+01 -0.35627625786E+01  0.87771512750E+01  0.51100000000E-03 0. -1.
        -11    1    3    3    0    0  0.17702317161E+01 -0.13496870188E+01 -0.61935347788E+01  0.65814321157E+01  0.51100000000E-03 0.  1.
        -12    1    3    3    0    0 -0.19751698289E+02 -0.69860483297E+01 -0.28249147821E+02  0.35170283040E+02  0.00000000000E+00 0.  1.
</event>
<event>
 7    1  0.2744502E-011  0.5052886E+02  0.7816164E-02  0.1300439E+00
        -11   -1    0    0    0    0  0.00000000000E+00  0.00000000000E+00  0.45593999997E+02  0.45594000000E+02  0.51100000000E-03 0.  1.
         11   -1    0    0    0    0 -0.00000000000E+00 -0.00000000000E+00 -0.45593999997E+02  0.45594000000E+02  0.51100000000E-03 0. -1.
    9900012    2    1    2    0    0 -0.20877430190E+02 -0.13455870357E+02  0.32190647662E+02  0.50528864061E+02  0.30000012798E+02 0.  0.
         12    1    1    2    0    0  0.20877430190E+02  0.13455870357E+02 -0.32190647662E+02  0.40659135939E+02  0.00000000000E+00 0. -1.
         11    1    3    3    0    0 -0.68731789715E+01 -0.34699711349E+01  0.29611159505E+02  0.30595784944E+02  0.51100000000E-03 0.  1.
        -11    1    3    3    0    0 -0.10196942740E+02 -0.13152200066E+01  0.17214445187E+01  0.10424529553E+02  0.51100000000E-03 0. -1.
        -12    1    3    3    0    0 -0.38073084788E+01 -0.86706792158E+01  0.85804363850E+00  0.95085495635E+01  0.00000000000E+00 0.  1.
</event>
<event>
 7    1  0.2744502E-011  0.5052885E+02  0.7816164E-02  0.1300439E+00
        -11   -1    0    0    0    0  0.00000000000E+00  0.00000000000E+00  0.45593999997E+02  0.45594000000E+02  0.51100000000E-03 0. -1.
         11   -1    0    0    0    0 -0.00000000000E+00 -0.00000000000E+00 -0.45593999997E+02  0.45594000000E+02  0.51100000000E-03 0.  1.
    9900012    2    1    2    0    0 -0.19113818918E+02  0.73460726940E+01 -0.35126389370E+02  0.50528854807E+02  0.29999984672E+02 0.  0.
         12    1    1    2    0    0  0.19113818918E+02 -0.73460726940E+01  0.35126389370E+02  0.40659145193E+02  0.00000000000E+00 0. -1.
         11    1    3    3    0    0 -0.56989072426E+01  0.10144049777E+02 -0.19097199648E+02  0.22362520527E+02  0.51100000000E-03 0. -1.
        -11    1    3    3    0    0  0.50623395645E+00 -0.43468461885E+01 -0.13159851398E+02  0.13868418572E+02  0.51100000000E-03 0.  1.
         12    1    3    3    0    0 -0.13921145631E+02  0.15488691053E+01 -0.28693383235E+01  0.14297915709E+02  0.00000000000E+00 0. -1.
</event>
<event>
 7    1  0.2744502E-011  0.5052886E+02  0.7816164E-02  0.1300439E+00
        -11   -1    0    0    0    0  0.00000000000E+00  0.00000000000E+00  0.45593999997E+02  0.45594000000E+02  0.51100000000E-03 0.  1.
         11   -1    0    0    0    0 -0.00000000000E+00 -0.00000000000E+00 -0.45593999997E+02  0.45594000000E+02  0.51100000000E-03 0. -1.
    9900012    2    1    2    0    0 -0.28729183265E+02 -0.12991537585E+02  0.25671372444E+02  0.50528863474E+02  0.30000011015E+02 0.  0.
         12    1    1    2    0    0  0.28729183265E+02  0.12991537585E+02 -0.25671372444E+02  0.40659136526E+02  0.00000000000E+00 0. -1.
         11    1    3    3    0    0 -0.11665778964E+02 -0.74865653058E+01  0.14662234215E+01  0.13938754259E+02  0.51100000000E-03 0. -1.
        -11    1    3    3    0    0 -0.51019036442E+01 -0.57797443900E+01 -0.18420184656E+01  0.79264051308E+01  0.51100000000E-03 0.  1.
        -12    1    3    3    0    0 -0.11961500657E+02  0.27477211053E+00  0.26047167488E+02  0.28663704084E+02  0.00000000000E+00 0.  1.
</event>
<event>
 7    1  0.2744502E-011  0.5052887E+02  0.7816164E-02  0.1300439E+00
        -11   -1    0    0    0    0  0.00000000000E+00  0.00000000000E+00  0.45593999997E+02  0.45594000000E+02  0.51100000000E-03 0.  1.
         11   -1    0    0    0    0 -0.00000000000E+00 -0.00000000000E+00 -0.45593999997E+02  0.45594000000E+02  0.51100000000E-03 0. -1.
    9900012    2    1    2    0    0 -0.55097948423E+01 -0.60049322630E+01  0.39833999510E+02  0.50528873501E+02  0.30000041493E+02 0.  0.
         12    1    1    2    0    0  0.55097948423E+01  0.60049322630E+01 -0.39833999510E+02  0.40659126499E+02  0.00000000000E+00 0. -1.
         11    1    3    3    0    0 -0.18542161632E+01  0.15959014477E+01 -0.24171047413E+01  0.34391008421E+01  0.51100000000E-03 0. -1.
        -11    1    3    3    0    0  0.15156923634E+00 -0.37253769069E+01 -0.70242966133E+00  0.37940498181E+01  0.51100000000E-03 0.  1.
        -12    1    3    3    0    0 -0.38071479154E+01 -0.38754568038E+01  0.42953533913E+02  0.43295722841E+02  0.00000000000E+00 0.  1.
</event>
<event>
 7    1  0.2744502E-011  0.5052886E+02  0.7816164E-02  0.1300439E+00
        -11   -1    0    0    0    0  0.00000000000E+00  0.00000000000E+00  0.45593999997E+02  0.45594000000E+02  0.51100000000E-03 0. -1.
         11   -1    0    0    0    0 -0.00000000000E+00 -0.00000000000E+00 -0.45593999997E+02  0.45594000000E+02  0.51100000000E-03 0.  1.
    9900012    2    1    2    0    0  0.30498621289E+02 -0.15052874774E+02 -0.22280283733E+02  0.50528856099E+02  0.29999988600E+02 0.  0.
         12    1    1    2    0    0 -0.30498621289E+02  0.15052874774E+02  0.22280283733E+02  0.40659143901E+02  0.00000000000E+00 0. -1.
         11    1    3    3    0    0  0.15354534867E+02  0.49801908826E+01 -0.10888549569E+02  0.19471121031E+02  0.51100000000E-03 0. -1.
        -11    1    3    3    0    0  0.10634111953E+02 -0.26877860250E+01 -0.41244732530E+01  0.11718353580E+02  0.51100000000E-03 0.  1.
         12    1    3    3    0    0  0.45099744687E+01 -0.17345279632E+02 -0.72672609111E+01  0.19339381489E+02  0.00000000000E+00 0. -1.
</event>
<event>
 7    1  0.2744502E-011  0.5052872E+02  0.7816164E-02  0.1300439E+00
        -11   -1    0    0    0    0  0.00000000000E+00  0.00000000000E+00  0.45593999997E+02  0.45594000000E+02  0.51100000000E-03 0.  1.
         11   -1    0    0    0    0 -0.00000000000E+00 -0.00000000000E+00 -0.45593999997E+02  0.45594000000E+02  0.51100000000E-03 0. -1.
    9900012    2    1    2    0    0  0.10196329339E+02  0.22516833853E+02  0.32283185505E+02  0.50528720553E+02  0.29999576591E+02 0.  0.
         12    1    1    2    0    0 -0.10196329339E+02 -0.22516833853E+02 -0.32283185505E+02  0.40659279447E+02  0.00000000000E+00 0. -1.
         11    1    3    3    0    0 -0.13021935432E+01  0.13346981007E+01 -0.34804148575E+01  0.39484699423E+01  0.51100000000E-03 0. -1.
        -11    1    3    3    0    0  0.26096128362E+01 -0.30357074047E+01  0.39832531192E+01  0.56472917646E+01  0.51100000000E-03 0.  1.
        -12    1    3    3    0    0  0.88889100455E+01  0.24217843157E+02  0.31780347244E+02  0.40932958846E+02  0.00000000000E+00 0.  1.
</event>
<event>
 7    1  0.2744502E-011  0.5052887E+02  0.7816164E-02  0.1300439E+00
        -11   -1    0    0    0    0  0.00000000000E+00  0.00000000000E+00  0.45593999997E+02  0.45594000000E+02  0.51100000000E-03 0. -1.
         11   -1    0    0    0    0 -0.00000000000E+00 -0.00000000000E+00 -0.45593999997E+02  0.45594000000E+02  0.51100000000E-03 0.  1.
    9900012    2    1    2    0    0  0.35968717138E+02 -0.43303600928E+01  0.18457085071E+02  0.50528872852E+02  0.30000039522E+02 0.  0.
         12    1    1    2    0    0 -0.35968717138E+02  0.43303600928E+01 -0.18457085071E+02  0.40659127148E+02  0.00000000000E+00 0. -1.
         11    1    3    3    0    0 -0.16999377010E+01 -0.76287334309E+00 -0.37595422733E+01  0.41959411686E+01  0.51100000000E-03 0. -1.
        -11    1    3    3    0    0  0.64235997481E+01 -0.61568448547E+01  0.77685542633E+01  0.11811850316E+02  0.51100000000E-03 0.  1.
         12    1    3    3    0    0  0.31245055091E+02  0.25893581049E+01  0.14448073081E+02  0.34521081368E+02  0.00000000000E+00 0. -1.
</event>
<event>
 7    1  0.2744502E-011  0.5052885E+02  0.7816164E-02  0.1300439E+00
        -11   -1    0    0    0    0  0.00000000000E+00  0.00000000000E+00  0.45593999997E+02  0.45594000000E+02  0.51100000000E-03 0. -1.
         11   -1    0    0    0    0 -0.00000000000E+00 -0.00000000000E+00 -0.45593999997E+02  0.45594000000E+02  0.51100000000E-03 0.  1.
    9900012    2    1    2    0    0 -0.10484060792E+02  0.32239480183E+02 -0.22446971358E+02  0.50528854211E+02  0.29999982859E+02 0.  0.
         12    1    1    2    0    0  0.10484060792E+02 -0.32239480183E+02  0.22446971358E+02  0.40659145789E+02  0.00000000000E+00 0. -1.
         11    1    3    3    0    0 -0.65195502447E+01  0.10716171257E+02 -0.85925042438E+01  0.15204341197E+02  0.51100000000E-03 0. -1.
        -11    1    3    3    0    0  0.17198062275E+00  0.19243525374E+02 -0.19879842739E+02  0.27668592189E+02  0.51100000000E-03 0.  1.
         12    1    3    3    0    0 -0.41364911704E+01  0.22797835519E+01  0.60253756248E+01  0.76559208242E+01  0.00000000000E+00 0. -1.
</event>
<event>
 7    1  0.2744502E-011  0.5052885E+02  0.7816164E-02  0.1300439E+00
        -11   -1    0    0    0    0  0.00000000000E+00  0.00000000000E+00  0.45593999997E+02  0.45594000000E+02  0.51100000000E-03 0.  1.
         11   -1    0    0    0    0 -0.00000000000E+00 -0.00000000000E+00 -0.45593999997E+02  0.45594000000E+02  0.51100000000E-03 0. -1.
    9900012    2    1    2    0    0 -0.15343601972E+02  0.14029543594E+02  0.34941553604E+02  0.50528851175E+02  0.29999973630E+02 0.  0.
         12    1    1    2    0    0  0.15343601972E+02 -0.14029543594E+02 -0.34941553604E+02  0.40659148825E+02  0.00000000000E+00 0. -1.
         11    1    3    3    0    0 -0.11319579968E+01  0.95802400257E+01  0.77062485085E+01  0.12347007499E+02  0.51100000000E-03 0. -1.
        -11    1    3    3    0    0 -0.60222407057E+01  0.68221607533E+01  0.28171108577E+02  0.29604402024E+02  0.51100000000E-03 0.  1.
        -12    1    3    3    0    0 -0.81894032695E+01 -0.23728571847E+01 -0.93580348122E+00  0.85774416514E+01  0.00000000000E+00 0.  1.
</event>
<event>
 7    1  0.2744502E-011  0.5052886E+02  0.7816164E-02  0.1300439E+00
        -11   -1    0    0    0    0  0.00000000000E+00  0.00000000000E+00  0.45593999997E+02  0.45594000000E+02  0.51100000000E-03 0.  1.
         11   -1    0    0    0    0 -0.00000000000E+00 -0.00000000000E+00 -0.45593999997E+02  0.45594000000E+02  0.51100000000E-03 0. -1.
    9900012    2    1    2    0    0  0.10736225415E+02 -0.69630013146E+01  0.38592951996E+02  0.50528857520E+02  0.29999992916E+02 0.  0.
         12    1    1    2    0    0 -0.10736225415E+02  0.69630013146E+01 -0.38592951996E+02  0.40659142480E+02  0.00000000000E+00 0. -1.
         11    1    3    3    0    0  0.73773451984E+01  0.61205833403E+01  0.22181517923E+02  0.24164157346E+02  0.51100000000E-03 0. -1.
        -11    1    3    3    0    0  0.43709985374E+01 -0.72219751088E+00  0.12651182006E+02  0.13404462088E+02  0.51100000000E-03 0.  1.
         12    1    3    3    0    0 -0.10121183204E+01 -0.12361387144E+02  0.37602520661E+01  0.12960238085E+02  0.00000000000E+00 0. -1.
</event>
<event>
 7    1  0.2744502E-011  0.5052886E+02  0.7816164E-02  0.1300439E+00
        -11   -1    0    0    0    0  0.00000000000E+00  0.00000000000E+00  0.45593999997E+02  0.45594000000E+02  0.51100000000E-03 0.  1.
         11   -1    0    0    0    0 -0.00000000000E+00 -0.00000000000E+00 -0.45593999997E+02  0.45594000000E+02  0.51100000000E-03 0. -1.
    9900012    2    1    2    0    0  0.23796245941E+02  0.93461111449E+01  0.31615731888E+02  0.50528860594E+02  0.30000002262E+02 0.  0.
         12    1    1    2    0    0 -0.23796245941E+02 -0.93461111449E+01 -0.31615731888E+02  0.40659139406E+02  0.00000000000E+00 0. -1.
         11    1    3    3    0    0  0.28952907768E+01  0.13434196373E+02  0.14328121687E+02  0.19853347632E+02  0.51100000000E-03 0. -1.
        -11    1    3    3    0    0  0.18961694307E+02  0.14835616445E+00  0.17775188949E+02  0.25990867684E+02  0.51100000000E-03 0.  1.
        -12    1    3    3    0    0  0.19392608574E+01 -0.42364413927E+01 -0.48757874779E+00  0.46846452781E+01  0.00000000000E+00 0.  1.
</event>
<event>
 7    1  0.2744502E-011  0.5052886E+02  0.7816164E-02  0.1300439E+00
        -11   -1    0    0    0    0  0.00000000000E+00  0.00000000000E+00  0.45593999997E+02  0.45594000000E+02  0.51100000000E-03 0.  1.
         11   -1    0    0    0    0 -0.00000000000E+00 -0.00000000000E+00 -0.45593999997E+02  0.45594000000E+02  0.51100000000E-03 0. -1.
    9900012    2    1    2    0    0  0.75851599875E+01 -0.39860797596E+02  0.25976510984E+01  0.50528860459E+02  0.30000001851E+02 0.  0.
         12    1    1    2    0    0 -0.75851599875E+01  0.39860797596E+02 -0.25976510984E+01  0.40659139541E+02  0.00000000000E+00 0. -1.
         11    1    3    3    0    0  0.52337187864E+00 -0.81408390591E+01 -0.36339833083E+01  0.89304542805E+01  0.51100000000E-03 0. -1.
        -11    1    3    3    0    0 -0.52421218735E+01 -0.26917276244E+00 -0.36701811333E+01  0.64048829439E+01  0.51100000000E-03 0.  1.
        -12    1    3    3    0    0  0.12303909982E+02 -0.31450785774E+02  0.99018155401E+01  0.35193523234E+02  0.00000000000E+00 0.  1.
</event>
<event>
 7    1  0.2744502E-011  0.5052886E+02  0.7816164E-02  0.1300439E+00
        -11   -1    0    0    0    0  0.00000000000E+00  0.00000000000E+00  0.45593999997E+02  0.45594000000E+02  0.51100000000E-03 0.  1.
         11   -1    0    0    0    0 -0.00000000000E+00 -0.00000000000E+00 -0.45593999997E+02  0.45594000000E+02  0.51100000000E-03 0. -1.
    9900012    2    1    2    0    0  0.23954455537E+02  0.76440492844E+01  0.31951807018E+02  0.50528863250E+02  0.30000010334E+02 0.  0.
         12    1    1    2    0    0 -0.23954455537E+02 -0.76440492844E+01 -0.31951807018E+02  0.40659136750E+02  0.00000000000E+00 0. -1.
         11    1    3    3    0    0  0.22998779724E+02  0.11264332032E+02  0.17508830885E+02  0.31022382309E+02  0.51100000000E-03 0. -1.
        -11    1    3    3    0    0  0.57162302174E+01  0.11866241627E+01  0.94119186429E+01  0.11075539608E+02  0.51100000000E-03 0.  1.
         12    1    3    3    0    0 -0.47605544044E+01 -0.48069069106E+01  0.50310574901E+01  0.84309413326E+01  0.00000000000E+00 0. -1.
</event>
<event>
 7    1  0.2744502E-011  0.5052887E+02  0.7816164E-02  0.1300439E+00
        -11   -1    0    0    0    0  0.00000000000E+00  0.00000000000E+00  0.45593999997E+02  0.45594000000E+02  0.51100000000E-03 0.  1.
         11   -1    0    0    0    0 -0.00000000000E+00 -0.00000000000E+00 -0.45593999997E+02  0.45594000000E+02  0.51100000000E-03 0. -1.
    9900012    2    1    2    0    0  0.27669045939E+01 -0.22729826599E+01  0.40501143286E+02  0.50528870415E+02  0.30000032112E+02 0.  0.
         12    1    1    2    0    0 -0.27669045939E+01  0.22729826599E+01 -0.40501143286E+02  0.40659129585E+02  0.00000000000E+00 0. -1.
         11    1    3    3    0    0 -0.18967613032E+01  0.55631772604E+01  0.58420412688E+01  0.82871039042E+01  0.51100000000E-03 0. -1.
        -11    1    3    3    0    0  0.92477362781E+01  0.27338066299E+00  0.30798316053E+02  0.32157917147E+02  0.51100000000E-03 0.  1.
         12    1    3    3    0    0 -0.45840703810E+01 -0.81095405833E+01  0.38607859640E+01  0.10083849364E+02  0.00000000000E+00 0. -1.
</event>
<event>
 7    1  0.2744502E-011  0.5052886E+02  0.7816164E-02  0.1300439E+00
        -11   -1    0    0    0    0  0.00000000000E+00  0.00000000000E+00  0.45593999997E+02  0.45594000000E+02  0.51100000000E-03 0.  1.
         11   -1    0    0    0    0 -0.00000000000E+00 -0.00000000000E+00 -0.45593999997E+02  0.45594000000E+02  0.51100000000E-03 0. -1.
    9900012    2    1    2    0    0  0.93677025457E+01  0.17340828274E+02  0.35562728750E+02  0.50528857702E+02  0.29999993471E+02 0.  0.
         12    1    1    2    0    0 -0.93677025457E+01 -0.17340828274E+02 -0.35562728750E+02  0.40659142298E+02  0.00000000000E+00 0. -1.
         11    1    3    3    0    0  0.55335372120E+01 -0.45686400927E+01  0.10102751849E+02  0.12391856259E+02  0.51100000000E-03 0. -1.
        -11    1    3    3    0    0 -0.39449044900E+01 -0.89052842598E+00  0.56455736260E+01  0.69446248380E+01  0.51100000000E-03 0.  1.
        -12    1    3    3    0    0  0.77790698237E+01  0.22799996793E+02  0.19814403276E+02  0.31192376605E+02  0.00000000000E+00 0.  1.
</event>
<event>
 7    1  0.2744502E-011  0.5052886E+02  0.7816164E-02  0.1300439E+00
        -11   -1    0    0    0    0  0.00000000000E+00  0.00000000000E+00  0.45593999997E+02  0.45594000000E+02  0.51100000000E-03 0. -1.
         11   -1    0    0    0    0 -0.00000000000E+00 -0.00000000000E+00 -0.45593999997E+02  0.45594000000E+02  0.51100000000E-03 0.  1.
    9900012    2    1    2    0    0 -0.37676494218E+01  0.38155975806E+02 -0.13531139286E+02  0.50528863238E+02  0.30000010298E+02 0.  0.
         12    1    1    2    0    0  0.37676494218E+01 -0.38155975806E+02  0.13531139286E+02  0.40659136762E+02  0.00000000000E+00 0. -1.
         11    1    3    3    0    0  0.60517774069E+00  0.20173672085E+01  0.38782902169E+01  0.44132919481E+01  0.51100000000E-03 0. -1.
        -11    1    3    3    0    0  0.83079557730E+01  0.70452054148E+01 -0.56416887178E+01  0.12267261321E+02  0.51100000000E-03 0.  1.
         12    1    3    3    0    0 -0.12680782935E+02  0.29093403182E+02 -0.11767740785E+02  0.33848309969E+02  0.00000000000E+00 0. -1.
</event>
<event>
 7    1  0.2744502E-011  0.5052886E+02  0.7816164E-02  0.1300439E+00
        -11   -1    0    0    0    0  0.00000000000E+00  0.00000000000E+00  0.45593999997E+02  0.45594000000E+02  0.51100000000E-03 0.  1.
         11   -1    0    0    0    0 -0.00000000000E+00 -0.00000000000E+00 -0.45593999997E+02  0.45594000000E+02  0.51100000000E-03 0. -1.
    9900012    2    1    2    0    0 -0.22316923466E+02 -0.40637795722E+01  0.33743237611E+02  0.50528862505E+02  0.30000008069E+02 0.  0.
         12    1    1    2    0    0  0.22316923466E+02  0.40637795722E+01 -0.33743237611E+02  0.40659137495E+02  0.00000000000E+00 0. -1.
         11    1    3    3    0    0 -0.64303269422E+01  0.86639323640E+01  0.43826658344E+01  0.11645625302E+02  0.51100000000E-03 0. -1.
        -11    1    3    3    0    0 -0.15561177208E+01  0.27160509722E+01  0.92196689087E+01  0.97365666583E+01  0.51100000000E-03 0.  1.
        -12    1    3    3    0    0 -0.14330478803E+02 -0.15443762908E+02  0.20140902868E+02  0.29146670544E+02  0.00000000000E+00 0.  1.
</event>
<event>
 7    1  0.2744502E-011  0.5052881E+02  0.7816164E-02  0.1300439E+00
        -11   -1    0    0    0    0  0.00000000000E+00  0.00000000000E+00  0.45593999997E+02  0.45594000000E+02  0.51100000000E-03 0. -1.
         11   -1    0    0    0    0 -0.00000000000E+00 -0.00000000000E+00 -0.45593999997E+02  0.45594000000E+02  0.51100000000E-03 0.  1.
    9900012    2    1    2    0    0  0.17936411833E+02 -0.32453545272E+02 -0.16680006062E+02  0.50528805808E+02  0.29999835733E+02 0.  0.
         12    1    1    2    0    0 -0.17936411833E+02  0.32453545272E+02  0.16680006062E+02  0.40659194192E+02  0.00000000000E+00 0. -1.
         11    1    3    3    0    0 -0.11867071194E+01 -0.39677118249E+01  0.46422548430E+01  0.62210562770E+01  0.51100000000E-03 0. -1.
        -11    1    3    3    0    0  0.89321769247E+01 -0.10714890108E+02 -0.19171552884E+02  0.23709514860E+02  0.51100000000E-03 0.  1.
         12    1    3    3    0    0  0.10190942027E+02 -0.17770943339E+02 -0.21507080208E+01  0.20598234671E+02  0.00000000000E+00 0. -1.
</event>
<event>
 7    1  0.2744502E-011  0.5052895E+02  0.7816164E-02  0.1300438E+00
        -11   -1    0    0    0    0  0.00000000000E+00  0.00000000000E+00  0.45593999997E+02  0.45594000000E+02  0.51100000000E-03 0.  1.
         11   -1    0    0    0    0 -0.00000000000E+00 -0.00000000000E+00 -0.45593999997E+02  0.45594000000E+02  0.51100000000E-03 0. -1.
    9900012    2    1    2    0    0  0.35149664659E+02  0.38688438631E+01  0.20067172865E+02  0.50528950512E+02  0.30000275575E+02 0.  0.
         12    1    1    2    0    0 -0.35149664659E+02 -0.38688438631E+01 -0.20067172865E+02  0.40659049488E+02  0.00000000000E+00 0. -1.
         11    1    3    3    0    0  0.14540963953E+01  0.44197205923E+01  0.34299217737E+01  0.57803711019E+01  0.51100000000E-03 0. -1.
        -11    1    3    3    0    0 -0.34864430953E+01  0.23553155008E+00  0.43528132266E+01  0.55819122005E+01  0.51100000000E-03 0.  1.
         12    1    3    3    0    0  0.37182011359E+02 -0.78640827925E+00  0.12284437865E+02  0.39166667210E+02  0.00000000000E+00 0. -1.
</event>
<event>
 7    1  0.2744502E-011  0.5052887E+02  0.7816164E-02  0.1300439E+00
        -11   -1    0    0    0    0  0.00000000000E+00  0.00000000000E+00  0.45593999997E+02  0.45594000000E+02  0.51100000000E-03 0.  1.
         11   -1    0    0    0    0 -0.00000000000E+00 -0.00000000000E+00 -0.45593999997E+02  0.45594000000E+02  0.51100000000E-03 0. -1.
    9900012    2    1    2    0    0  0.13260883695E+02  0.33195491925E+02  0.19374558596E+02  0.50528865217E+02  0.30000016313E+02 0.  0.
         12    1    1    2    0    0 -0.13260883695E+02 -0.33195491925E+02 -0.19374558596E+02  0.40659134783E+02  0.00000000000E+00 0. -1.
         11    1    3    3    0    0 -0.66163482783E+01  0.59760035613E+01 -0.28779853101E+01  0.93686435950E+01  0.51100000000E-03 0. -1.
        -11    1    3    3    0    0  0.26932564945E+01  0.51349513294E+01  0.76429150553E+01  0.95935137726E+01  0.51100000000E-03 0.  1.
        -12    1    3    3    0    0  0.17183975479E+02  0.22084537035E+02  0.14609628851E+02  0.31566707849E+02  0.00000000000E+00 0.  1.
</event>
<event>
 7    1  0.2744502E-011  0.5052887E+02  0.7816164E-02  0.1300439E+00
        -11   -1    0    0    0    0  0.00000000000E+00  0.00000000000E+00  0.45593999997E+02  0.45594000000E+02  0.51100000000E-03 0.  1.
         11   -1    0    0    0    0 -0.00000000000E+00 -0.00000000000E+00 -0.45593999997E+02  0.45594000000E+02  0.51100000000E-03 0. -1.
    9900012    2    1    2    0    0  0.10965630435E+02  0.16210896439E+02  0.35638841091E+02  0.50528865620E+02  0.30000017539E+02 0.  0.
         12    1    1    2    0    0 -0.10965630435E+02 -0.16210896439E+02 -0.35638841091E+02  0.40659134380E+02  0.00000000000E+00 0. -1.
         11    1    3    3    0    0  0.29346422286E+01  0.71458543632E+01  0.67108682484E+01  0.10232844790E+02  0.51100000000E-03 0. -1.
        -11    1    3    3    0    0 -0.71886187026E+01  0.64073489881E+01  0.20611366560E+02  0.22749918497E+02  0.51100000000E-03 0.  1.
        -12    1    3    3    0    0  0.15219606909E+02  0.26576930879E+01  0.83166062829E+01  0.17546102333E+02  0.00000000000E+00 0.  1.
</event>
<event>
 7    1  0.2744502E-011  0.5052886E+02  0.7816164E-02  0.1300439E+00
        -11   -1    0    0    0    0  0.00000000000E+00  0.00000000000E+00  0.45593999997E+02  0.45594000000E+02  0.51100000000E-03 0.  1.
         11   -1    0    0    0    0 -0.00000000000E+00 -0.00000000000E+00 -0.45593999997E+02  0.45594000000E+02  0.51100000000E-03 0. -1.
    9900012    2    1    2    0    0  0.23844655392E+02 -0.22672725664E+02  0.23886098916E+02  0.50528858331E+02  0.29999995384E+02 0.  0.
         12    1    1    2    0    0 -0.23844655392E+02  0.22672725664E+02 -0.23886098916E+02  0.40659141669E+02  0.00000000000E+00 0. -1.
         11    1    3    3    0    0  0.21388747985E+02 -0.16750888675E+02  0.26018459973E+02  0.37616898747E+02  0.51100000000E-03 0. -1.
        -11    1    3    3    0    0  0.52488024604E+01 -0.37681247523E+01  0.26382727054E+01  0.69791958381E+01  0.51100000000E-03 0.  1.
         12    1    3    3    0    0 -0.27928950528E+01 -0.21537122364E+01 -0.47706337621E+01  0.59327637459E+01  0.00000000000E+00 0. -1.
</event>
<event>
 7    1  0.2744502E-011  0.5052886E+02  0.7816164E-02  0.1300439E+00
        -11   -1    0    0    0    0  0.00000000000E+00  0.00000000000E+00  0.45593999997E+02  0.45594000000E+02  0.51100000000E-03 0.  1.
         11   -1    0    0    0    0 -0.00000000000E+00 -0.00000000000E+00 -0.45593999997E+02  0.45594000000E+02  0.51100000000E-03 0. -1.
    9900012    2    1    2    0    0 -0.19156685564E+02 -0.34796930049E+02  0.86810599294E+01  0.50528859034E+02  0.29999997518E+02 0.  0.
         12    1    1    2    0    0  0.19156685564E+02  0.34796930049E+02 -0.86810599294E+01  0.40659140966E+02  0.00000000000E+00 0. -1.
         11    1    3    3    0    0 -0.10571452185E+01 -0.52838300815E+01 -0.40085573949E+01  0.67160218130E+01  0.51100000000E-03 0. -1.
        -11    1    3    3    0    0 -0.23286540797E+02 -0.27358656347E+02  0.88251661743E+01  0.36995170194E+02  0.51100000000E-03 0.  1.
         12    1    3    3    0    0  0.51870004515E+01 -0.21544436203E+01  0.38644511500E+01  0.68176670267E+01  0.00000000000E+00 0. -1.
</event>
<event>
 7    1  0.2744502E-011  0.5052886E+02  0.7816164E-02  0.1300439E+00
        -11   -1    0    0    0    0  0.00000000000E+00  0.00000000000E+00  0.45593999997E+02  0.45594000000E+02  0.51100000000E-03 0.  1.
         11   -1    0    0    0    0 -0.00000000000E+00 -0.00000000000E+00 -0.45593999997E+02  0.45594000000E+02  0.51100000000E-03 0. -1.
    9900012    2    1    2    0    0  0.66412923217E+01  0.37567435184E+02  0.14062257496E+02  0.50528855445E+02  0.29999986611E+02 0.  0.
         12    1    1    2    0    0 -0.66412923217E+01 -0.37567435184E+02 -0.14062257496E+02  0.40659144555E+02  0.00000000000E+00 0. -1.
         11    1    3    3    0    0  0.66726372570E+01  0.25550521641E+02  0.19229236835E+01  0.26477365424E+02  0.51100000000E-03 0. -1.
        -11    1    3    3    0    0  0.75998166403E-01  0.16018115748E+02  0.68577094536E+01  0.17424522577E+02  0.51100000000E-03 0.  1.
         12    1    3    3    0    0 -0.10734310170E+00 -0.40012022042E+01  0.52816243593E+01  0.66269674432E+01  0.00000000000E+00 0. -1.
</event>
<event>
 7    1  0.2744502E-011  0.5052885E+02  0.7816164E-02  0.1300439E+00
        -11   -1    0    0    0    0  0.00000000000E+00  0.00000000000E+00  0.45593999997E+02  0.45594000000E+02  0.51100000000E-03 0. -1.
         11   -1    0    0    0    0 -0.00000000000E+00 -0.00000000000E+00 -0.45593999997E+02  0.45594000000E+02  0.51100000000E-03 0.  1.
    9900012    2    1    2    0    0 -0.31950211912E+02  0.25120609963E+02 -0.11424512637E+01  0.50528852431E+02  0.29999977449E+02 0.  0.
         12    1    1    2    0    0  0.31950211912E+02 -0.25120609963E+02  0.11424512637E+01  0.40659147569E+02  0.00000000000E+00 0. -1.
         11    1    3    3    0    0 -0.22388479370E+02  0.10281655775E+02  0.44676537313E+01  0.25038298347E+02  0.51100000000E-03 0. -1.
        -11    1    3    3    0    0 -0.10125210426E+02  0.13033081206E+02  0.29138310177E+01  0.16759221442E+02  0.51100000000E-03 0.  1.
         12    1    3    3    0    0  0.56347788377E+00  0.18058729821E+01 -0.85239360128E+01  0.87313326418E+01  0.00000000000E+00 0. -1.
</event>
<event>
 7    1  0.2744502E-011  0.5052887E+02  0.7816164E-02  0.1300439E+00
        -11   -1    0    0    0    0  0.00000000000E+00  0.00000000000E+00  0.45593999997E+02  0.45594000000E+02  0.51100000000E-03 0. -1.
         11   -1    0    0    0    0 -0.00000000000E+00 -0.00000000000E+00 -0.45593999997E+02  0.45594000000E+02  0.51100000000E-03 0.  1.
    9900012    2    1    2    0    0  0.48590570825E+00 -0.28778369329E+02 -0.28718192619E+02  0.50528865320E+02  0.30000016627E+02 0.  0.
         12    1    1    2    0    0 -0.48590570825E+00  0.28778369329E+02  0.28718192619E+02  0.40659134680E+02  0.00000000000E+00 0. -1.
         11    1    3    3    0    0 -0.20202224497E+01 -0.61019409973E+01 -0.29089911456E+01  0.70552967639E+01  0.51100000000E-03 0. -1.
        -11    1    3    3    0    0 -0.61028767130E+00 -0.14471259723E+01  0.53866672596E+01  0.56109543794E+01  0.51100000000E-03 0.  1.
        -12    1    3    3    0    0  0.31164158292E+01 -0.21229302360E+02 -0.31195868733E+02  0.37862614177E+02  0.00000000000E+00 0.  1.
</event>
<event>
 7    1  0.2744502E-011  0.5052886E+02  0.7816164E-02  0.1300439E+00
        -11   -1    0    0    0    0  0.00000000000E+00  0.00000000000E+00  0.45593999997E+02  0.45594000000E+02  0.51100000000E-03 0.  1.
         11   -1    0    0    0    0 -0.00000000000E+00 -0.00000000000E+00 -0.45593999997E+02  0.45594000000E+02  0.51100000000E-03 0. -1.
    9900012    2    1    2    0    0  0.20981937643E+02 -0.34762845705E+02  0.21139538663E+01  0.50528856506E+02  0.29999989835E+02 0.  0.
         12    1    1    2    0    0 -0.20981937643E+02  0.34762845705E+02 -0.21139538663E+01  0.40659143494E+02  0.00000000000E+00 0. -1.
         11    1    3    3    0    0 -0.34645514430E+01 -0.10354950996E+02  0.80065055605E+00  0.10948477904E+02  0.51100000000E-03 0. -1.
        -11    1    3    3    0    0 -0.25497377491E+00 -0.11255681714E+01  0.52802178962E+01  0.54048697141E+01  0.51100000000E-03 0.  1.
        -12    1    3    3    0    0  0.24701462861E+02 -0.23282326537E+02 -0.39669145859E+01  0.34175508888E+02  0.00000000000E+00 0.  1.
</event>
<event>
 7    1  0.2744502E-011  0.5052886E+02  0.7816164E-02  0.1300439E+00
        -11   -1    0    0    0    0  0.00000000000E+00  0.00000000000E+00  0.45593999997E+02  0.45594000000E+02  0.51100000000E-03 0.  1.
         11   -1    0    0    0    0 -0.00000000000E+00 -0.00000000000E+00 -0.45593999997E+02  0.45594000000E+02  0.51100000000E-03 0. -1.
    9900012    2    1    2    0    0 -0.12118176994E+02 -0.19676625177E+02  0.33453639673E+02  0.50528858354E+02  0.29999995454E+02 0.  0.
         12    1    1    2    0    0  0.12118176994E+02  0.19676625177E+02 -0.33453639673E+02  0.40659141646E+02  0.00000000000E+00 0. -1.
         11    1    3    3    0    0  0.22368852531E+01  0.68297873346E+00  0.46773148974E+01  0.52294732523E+01  0.51100000000E-03 0. -1.
        -11    1    3    3    0    0 -0.46396789416E+01 -0.57512983021E+01 -0.37925220571E+01  0.83058579722E+01  0.51100000000E-03 0.  1.
        -12    1    3    3    0    0 -0.97153833050E+01 -0.14608305608E+02  0.32568846833E+02  0.36993527130E+02  0.00000000000E+00 0.  1.
</event>
<event>
 7    1  0.2744502E-011  0.5052886E+02  0.7816164E-02  0.1300439E+00
        -11   -1    0    0    0    0  0.00000000000E+00  0.00000000000E+00  0.45593999997E+02  0.45594000000E+02  0.51100000000E-03 0. -1.
         11   -1    0    0    0    0 -0.00000000000E+00 -0.00000000000E+00 -0.45593999997E+02  0.45594000000E+02  0.51100000000E-03 0.  1.
    9900012    2    1    2    0    0  0.24695078144E+02  0.21270486041E+01 -0.32230338279E+02  0.50528856799E+02  0.29999990725E+02 0.  0.
         12    1    1    2    0    0 -0.24695078144E+02 -0.21270486041E+01  0.32230338279E+02  0.40659143201E+02  0.00000000000E+00 0. -1.
         11    1    3    3    0    0  0.16986093270E+00 -0.48855051207E+01 -0.68992820380E+01  0.84555961305E+01  0.51100000000E-03 0. -1.
        -11    1    3    3    0    0  0.12814015668E+02 -0.74155225496E+01 -0.13557030449E+02  0.20074412745E+02  0.51100000000E-03 0.  1.
        -12    1    3    3    0    0  0.11711201544E+02  0.14428076274E+02 -0.11774025792E+02  0.21998847923E+02  0.00000000000E+00 0.  1.
</event>
<event>
 7    1  0.2744502E-011  0.5052887E+02  0.7816164E-02  0.1300439E+00
        -11   -1    0    0    0    0  0.00000000000E+00  0.00000000000E+00  0.45593999997E+02  0.45594000000E+02  0.51100000000E-03 0. -1.
         11   -1    0    0    0    0 -0.00000000000E+00 -0.00000000000E+00 -0.45593999997E+02  0.45594000000E+02  0.51100000000E-03 0.  1.
    9900012    2    1    2    0    0  0.31305692270E+02 -0.21795515158E+02  0.14073878352E+02  0.50528869397E+02  0.30000029020E+02 0.  0.
         12    1    1    2    0    0 -0.31305692270E+02  0.21795515158E+02 -0.14073878352E+02  0.40659130603E+02  0.00000000000E+00 0. -1.
         11    1    3    3    0    0  0.99376595275E+01 -0.37204260068E+00 -0.46418032749E+01  0.10974599331E+02  0.51100000000E-03 0.  1.
        -11    1    3    3    0    0  0.74191601530E+01 -0.16612217790E+02  0.38254684334E+01  0.18591501453E+02  0.51100000000E-03 0. -1.
         12    1    3    3    0    0  0.13948872590E+02 -0.48112547665E+01  0.14890213194E+02  0.20962768612E+02  0.00000000000E+00 0. -1.
</event>
<event>
 7    1  0.2744502E-011  0.5052885E+02  0.7816164E-02  0.1300439E+00
        -11   -1    0    0    0    0  0.00000000000E+00  0.00000000000E+00  0.45593999997E+02  0.45594000000E+02  0.51100000000E-03 0. -1.
         11   -1    0    0    0    0 -0.00000000000E+00 -0.00000000000E+00 -0.45593999997E+02  0.45594000000E+02  0.51100000000E-03 0.  1.
    9900012    2    1    2    0    0 -0.75727364112E+01  0.34232509164E+02 -0.20590170297E+02  0.50528854248E+02  0.29999982973E+02 0.  0.
         12    1    1    2    0    0  0.75727364112E+01 -0.34232509164E+02  0.20590170297E+02  0.40659145752E+02  0.00000000000E+00 0. -1.
         11    1    3    3    0    0  0.38245175711E+01  0.11793901492E+02 -0.60547656605E+01  0.13797943127E+02  0.51100000000E-03 0. -1.
        -11    1    3    3    0    0 -0.60606057765E+01  0.17592772301E+02  0.19784600239E+01  0.18712319042E+02  0.51100000000E-03 0.  1.
         12    1    3    3    0    0 -0.53366482057E+01  0.48458353710E+01 -0.16513864660E+02  0.18018592079E+02  0.00000000000E+00 0. -1.
</event>
<event>
 7    1  0.2744502E-011  0.5052888E+02  0.7816164E-02  0.1300439E+00
        -11   -1    0    0    0    0  0.00000000000E+00  0.00000000000E+00  0.45593999997E+02  0.45594000000E+02  0.51100000000E-03 0. -1.
         11   -1    0    0    0    0 -0.00000000000E+00 -0.00000000000E+00 -0.45593999997E+02  0.45594000000E+02  0.51100000000E-03 0.  1.
    9900012    2    1    2    0    0 -0.19095866960E+02  0.23643960096E+02 -0.27008799852E+02  0.50528877365E+02  0.30000053239E+02 0.  0.
         12    1    1    2    0    0  0.19095866960E+02 -0.23643960096E+02  0.27008799852E+02  0.40659122635E+02  0.00000000000E+00 0. -1.
         11    1    3    3    0    0  0.29479043419E+01  0.32470051848E+01  0.37981262477E+00  0.44019814368E+01  0.51100000000E-03 0. -1.
        -11    1    3    3    0    0 -0.73056129731E+01 -0.13464712128E+01  0.94711198294E+00  0.74887907574E+01  0.51100000000E-03 0.  1.
         12    1    3    3    0    0 -0.14738158329E+02  0.21743426124E+02 -0.28335724459E+02  0.38638105171E+02  0.00000000000E+00 0. -1.
</event>
<event>
 7    1  0.2744502E-011  0.5052886E+02  0.7816164E-02  0.1300439E+00
        -11   -1    0    0    0    0  0.00000000000E+00  0.00000000000E+00  0.45593999997E+02  0.45594000000E+02  0.51100000000E-03 0. -1.
         11   -1    0    0    0    0 -0.00000000000E+00 -0.00000000000E+00 -0.45593999997E+02  0.45594000000E+02  0.51100000000E-03 0.  1.
    9900012    2    1    2    0    0 -0.89784255146E+01 -0.37379301456E+02 -0.13241665693E+02  0.50528855735E+02  0.29999987491E+02 0.  0.
         12    1    1    2    0    0  0.89784255146E+01  0.37379301456E+02  0.13241665693E+02  0.40659144265E+02  0.00000000000E+00 0. -1.
         11    1    3    3    0    0 -0.41257543046E+01 -0.10980722716E+02 -0.11688461891E+02  0.16559536877E+02  0.51100000000E-03 0. -1.
        -11    1    3    3    0    0 -0.43488562799E+01 -0.29487451030E+02 -0.38959015452E+01  0.30059946246E+02  0.51100000000E-03 0.  1.
         12    1    3    3    0    0 -0.50381493006E+00  0.30888722898E+01  0.23426977426E+01  0.39093726120E+01  0.00000000000E+00 0. -1.
</event>
<event>
 7    1  0.2744502E-011  0.5052888E+02  0.7816164E-02  0.1300439E+00
        -11   -1    0    0    0    0  0.00000000000E+00  0.00000000000E+00  0.45593999997E+02  0.45594000000E+02  0.51100000000E-03 0.  1.
         11   -1    0    0    0    0 -0.00000000000E+00 -0.00000000000E+00 -0.45593999997E+02  0.45594000000E+02  0.51100000000E-03 0. -1.
    9900012    2    1    2    0    0  0.42209375895E+01 -0.32807033292E+02  0.23644161823E+02  0.50528878811E+02  0.30000057634E+02 0.  0.
         12    1    1    2    0    0 -0.42209375895E+01  0.32807033292E+02 -0.23644161823E+02  0.40659121189E+02  0.00000000000E+00 0. -1.
         11    1    3    3    0    0  0.11519127192E+01  0.22083756214E+01 -0.86663071908E+00  0.26372096736E+01  0.51100000000E-03 0. -1.
        -11    1    3    3    0    0  0.20177320795E+01 -0.13579503684E+01  0.11560263798E+02  0.11813338702E+02  0.51100000000E-03 0.  1.
         12    1    3    3    0    0  0.10512927908E+01 -0.33657458545E+02  0.12950528744E+02  0.36078330435E+02  0.00000000000E+00 0. -1.
</event>
<event>
 7    1  0.2744502E-011  0.5052885E+02  0.7816164E-02  0.1300439E+00
        -11   -1    0    0    0    0  0.00000000000E+00  0.00000000000E+00  0.45593999997E+02  0.45594000000E+02  0.51100000000E-03 0.  1.
         11   -1    0    0    0    0 -0.00000000000E+00 -0.00000000000E+00 -0.45593999997E+02  0.45594000000E+02  0.51100000000E-03 0. -1.
    9900012    2    1    2    0    0 -0.82177484385E+01 -0.34545779106E+02  0.19804656320E+02  0.50528847828E+02  0.29999963458E+02 0.  0.
         12    1    1    2    0    0  0.82177484385E+01  0.34545779106E+02 -0.19804656320E+02  0.40659152172E+02  0.00000000000E+00 0. -1.
         11    1    3    3    0    0 -0.51238268868E+01 -0.17551100513E+02 -0.40084997441E+01  0.18717980705E+02  0.51100000000E-03 0. -1.
        -11    1    3    3    0    0  0.11725438608E+01 -0.92471378767E+01  0.40580913513E+01  0.10166244326E+02  0.51100000000E-03 0.  1.
         12    1    3    3    0    0 -0.42664654125E+01 -0.77475407156E+01  0.19755064712E+02  0.21644622797E+02  0.00000000000E+00 0. -1.
</event>
<event>
 7    1  0.2744502E-011  0.5052885E+02  0.7816164E-02  0.1300439E+00
        -11   -1    0    0    0    0  0.00000000000E+00  0.00000000000E+00  0.45593999997E+02  0.45594000000E+02  0.51100000000E-03 0.  1.
         11   -1    0    0    0    0 -0.00000000000E+00 -0.00000000000E+00 -0.45593999997E+02  0.45594000000E+02  0.51100000000E-03 0. -1.
    9900012    2    1    2    0    0 -0.40516226449E+02  0.27412601828E+01 -0.20217576515E+01  0.50528848299E+02  0.29999964889E+02 0.  0.
         12    1    1    2    0    0  0.40516226449E+02 -0.27412601828E+01  0.20217576515E+01  0.40659151701E+02  0.00000000000E+00 0. -1.
         11    1    3    3    0    0 -0.30587094316E+02  0.19605429750E+01  0.54369689031E+01  0.31128358430E+02  0.51100000000E-03 0. -1.
        -11    1    3    3    0    0 -0.85448282828E+01  0.53869972632E+01  0.48642864418E+00  0.10112884998E+02  0.51100000000E-03 0.  1.
         12    1    3    3    0    0 -0.13843038502E+01 -0.46062800554E+01 -0.79451551988E+01  0.92876048706E+01  0.00000000000E+00 0. -1.
</event>
<event>
 7    1  0.2744502E-011  0.5052886E+02  0.7816164E-02  0.1300439E+00
        -11   -1    0    0    0    0  0.00000000000E+00  0.00000000000E+00  0.45593999997E+02  0.45594000000E+02  0.51100000000E-03 0.  1.
         11   -1    0    0    0    0 -0.00000000000E+00 -0.00000000000E+00 -0.45593999997E+02  0.45594000000E+02  0.51100000000E-03 0. -1.
    9900012    2    1    2    0    0  0.83646836251E+01 -0.87208846361E+00  0.39779854191E+02  0.50528864865E+02  0.30000015244E+02 0.  0.
         12    1    1    2    0    0 -0.83646836251E+01  0.87208846361E+00 -0.39779854191E+02  0.40659135135E+02  0.00000000000E+00 0. -1.
         11    1    3    3    0    0  0.12617128030E+02 -0.46638418226E+00  0.15376271203E+02  0.19895706831E+02  0.51100000000E-03 0. -1.
        -11    1    3    3    0    0  0.62065210494E+01  0.10122088432E+01  0.15835967435E+02  0.17038877168E+02  0.51100000000E-03 0.  1.
         12    1    3    3    0    0 -0.10458965454E+02 -0.14179131246E+01  0.85676155531E+01  0.13594280866E+02  0.00000000000E+00 0. -1.
</event>
<event>
 7    1  0.2744502E-011  0.5052887E+02  0.7816164E-02  0.1300439E+00
        -11   -1    0    0    0    0  0.00000000000E+00  0.00000000000E+00  0.45593999997E+02  0.45594000000E+02  0.51100000000E-03 0. -1.
         11   -1    0    0    0    0 -0.00000000000E+00 -0.00000000000E+00 -0.45593999997E+02  0.45594000000E+02  0.51100000000E-03 0.  1.
    9900012    2    1    2    0    0 -0.24597720550E+02  0.32372207784E+02 -0.39670781092E+00  0.50528867322E+02  0.30000022711E+02 0.  0.
         12    1    1    2    0    0  0.24597720550E+02 -0.32372207784E+02  0.39670781092E+00  0.40659132678E+02  0.00000000000E+00 0. -1.
         11    1    3    3    0    0 -0.84660512190E+01  0.19788200489E+01  0.42057205107E+00  0.87044030892E+01  0.51100000000E-03 0. -1.
        -11    1    3    3    0    0  0.23436173058E+00 -0.17717368512E+01  0.49631421536E+01  0.52751073154E+01  0.51100000000E-03 0.  1.
        -12    1    3    3    0    0 -0.16366031062E+02  0.32165124586E+02 -0.57804220156E+01  0.36549356917E+02  0.00000000000E+00 0.  1.
</event>
<event>
 7    1  0.2744502E-011  0.5052884E+02  0.7816164E-02  0.1300439E+00
        -11   -1    0    0    0    0  0.00000000000E+00  0.00000000000E+00  0.45593999997E+02  0.45594000000E+02  0.51100000000E-03 0. -1.
         11   -1    0    0    0    0 -0.00000000000E+00 -0.00000000000E+00 -0.45593999997E+02  0.45594000000E+02  0.51100000000E-03 0.  1.
    9900012    2    1    2    0    0  0.33234621395E+02  0.17817061586E+02 -0.15204590044E+02  0.50528839885E+02  0.29999939314E+02 0.  0.
         12    1    1    2    0    0 -0.33234621395E+02 -0.17817061586E+02  0.15204590044E+02  0.40659160115E+02  0.00000000000E+00 0. -1.
         11    1    3    3    0    0  0.17395588856E+02  0.10477436117E+02 -0.98368944110E+01  0.22564300812E+02  0.51100000000E-03 0. -1.
        -11    1    3    3    0    0  0.20963620792E+02  0.59153971690E+01 -0.60381239684E+01  0.22603633816E+02  0.51100000000E-03 0.  1.
         12    1    3    3    0    0 -0.51245882530E+01  0.14242283006E+01  0.67042833545E+00  0.53609052564E+01  0.00000000000E+00 0. -1.
</event>
<event>
 7    1  0.2744502E-011  0.5052887E+02  0.7816164E-02  0.1300439E+00
        -11   -1    0    0    0    0  0.00000000000E+00  0.00000000000E+00  0.45593999997E+02  0.45594000000E+02  0.51100000000E-03 0.  1.
         11   -1    0    0    0    0 -0.00000000000E+00 -0.00000000000E+00 -0.45593999997E+02  0.45594000000E+02  0.51100000000E-03 0. -1.
    9900012    2    1    2    0    0  0.19700488771E+02 -0.21202252068E+01  0.35504373328E+02  0.50528866486E+02  0.30000020171E+02 0.  0.
         12    1    1    2    0    0 -0.19700488771E+02  0.21202252068E+01 -0.35504373328E+02  0.40659133514E+02  0.00000000000E+00 0. -1.
         11    1    3    3    0    0  0.28519885656E+01 -0.92604281577E+01  0.81202473818E+01  0.12642301462E+02  0.51100000000E-03 0. -1.
        -11    1    3    3    0    0 -0.17149689881E+01 -0.41139963996E+01  0.51808369278E+01  0.68342634234E+01  0.51100000000E-03 0.  1.
         12    1    3    3    0    0  0.18563469193E+02  0.11254199350E+02  0.22203289018E+02  0.31052301601E+02  0.00000000000E+00 0. -1.
</event>
<event>
 7    1  0.2744502E-011  0.5052885E+02  0.7816164E-02  0.1300439E+00
        -11   -1    0    0    0    0  0.00000000000E+00  0.00000000000E+00  0.45593999997E+02  0.45594000000E+02  0.51100000000E-03 0. -1.
         11   -1    0    0    0    0 -0.00000000000E+00 -0.00000000000E+00 -0.45593999997E+02  0.45594000000E+02  0.51100000000E-03 0.  1.
    9900012    2    1    2    0    0 -0.34493986928E+02 -0.21056544378E+02  0.44668964222E+01  0.50528851472E+02  0.29999974536E+02 0.  0.
         12    1    1    2    0    0  0.34493986928E+02  0.21056544378E+02 -0.44668964222E+01  0.40659148528E+02  0.00000000000E+00 0. -1.
         11    1    3    3    0    0 -0.86045957817E+00 -0.98827110859E+01  0.36755925684E+01  0.10579146945E+02  0.51100000000E-03 0. -1.
        -11    1    3    3    0    0 -0.94234012954E+01 -0.10133899316E+02  0.61315556417E+01  0.15135798035E+02  0.51100000000E-03 0.  1.
        -12    1    3    3    0    0 -0.24210126054E+02 -0.10399339766E+01 -0.53402517878E+01  0.24813906492E+02  0.00000000000E+00 0.  1.
</event>
<event>
 7    1  0.2744502E-011  0.5052883E+02  0.7816164E-02  0.1300439E+00
        -11   -1    0    0    0    0  0.00000000000E+00  0.00000000000E+00  0.45593999997E+02  0.45594000000E+02  0.51100000000E-03 0.  1.
         11   -1    0    0    0    0 -0.00000000000E+00 -0.00000000000E+00 -0.45593999997E+02  0.45594000000E+02  0.51100000000E-03 0. -1.
    9900012    2    1    2    0    0 -0.62432561936E+01 -0.36580835254E+02  0.16614212051E+02  0.50528833778E+02  0.29999920751E+02 0.  0.
         12    1    1    2    0    0  0.62432561936E+01  0.36580835254E+02 -0.16614212051E+02  0.40659166222E+02  0.00000000000E+00 0. -1.
         11    1    3    3    0    0 -0.17529510544E+01  0.30517590856E+01  0.47074616035E+01  0.58776071598E+01  0.51100000000E-03 0. -1.
        -11    1    3    3    0    0 -0.37347822125E+01 -0.92784226380E+00  0.31206153838E+01  0.49545665881E+01  0.51100000000E-03 0.  1.
        -12    1    3    3    0    0 -0.75552292672E+00 -0.38704752076E+02  0.87861350642E+01  0.39696660030E+02  0.00000000000E+00 0.  1.
</event>
<event>
 7    1  0.2744502E-011  0.5052886E+02  0.7816164E-02  0.1300439E+00
        -11   -1    0    0    0    0  0.00000000000E+00  0.00000000000E+00  0.45593999997E+02  0.45594000000E+02  0.51100000000E-03 0.  1.
         11   -1    0    0    0    0 -0.00000000000E+00 -0.00000000000E+00 -0.45593999997E+02  0.45594000000E+02  0.51100000000E-03 0. -1.
    9900012    2    1    2    0    0 -0.19515169059E+01 -0.14292484610E+02  0.38014234513E+02  0.50528861296E+02  0.30000004396E+02 0.  0.
         12    1    1    2    0    0  0.19515169059E+01  0.14292484610E+02 -0.38014234513E+02  0.40659138704E+02  0.00000000000E+00 0. -1.
         11    1    3    3    0    0 -0.57045036493E+00  0.42294637292E+01 -0.90433011477E+00  0.43625210915E+01  0.51100000000E-03 0. -1.
        -11    1    3    3    0    0 -0.40955768364E+01 -0.97643381587E+00  0.10453543121E+01  0.43381953066E+01  0.51100000000E-03 0.  1.
        -12    1    3    3    0    0  0.27145102954E+01 -0.17545514523E+02  0.37873210315E+02  0.41828144898E+02  0.00000000000E+00 0.  1.
</event>
<event>
 7    1  0.2744502E-011  0.5052886E+02  0.7816164E-02  0.1300439E+00
        -11   -1    0    0    0    0  0.00000000000E+00  0.00000000000E+00  0.45593999997E+02  0.45594000000E+02  0.51100000000E-03 0. -1.
         11   -1    0    0    0    0 -0.00000000000E+00 -0.00000000000E+00 -0.45593999997E+02  0.45594000000E+02  0.51100000000E-03 0.  1.
    9900012    2    1    2    0    0 -0.30977098554E+02 -0.92000675858E+01 -0.24676785787E+02  0.50528860373E+02  0.30000001591E+02 0.  0.
         12    1    1    2    0    0  0.30977098554E+02  0.92000675858E+01  0.24676785787E+02  0.40659139627E+02  0.00000000000E+00 0. -1.
         11    1    3    3    0    0 -0.18954406792E+02 -0.27912579603E+01 -0.13610284413E+02  0.23501074441E+02  0.51100000000E-03 0. -1.
        -11    1    3    3    0    0 -0.48655548176E+01 -0.98670928522E+01 -0.14639753492E+02  0.18312714916E+02  0.51100000000E-03 0.  1.
         12    1    3    3    0    0 -0.71571369446E+01  0.34582832267E+01  0.35732521177E+01  0.87150710161E+01  0.00000000000E+00 0. -1.
</event>
<event>
 7    1  0.2744502E-011  0.5052886E+02  0.7816164E-02  0.1300439E+00
        -11   -1    0    0    0    0  0.00000000000E+00  0.00000000000E+00  0.45593999997E+02  0.45594000000E+02  0.51100000000E-03 0.  1.
         11   -1    0    0    0    0 -0.00000000000E+00 -0.00000000000E+00 -0.45593999997E+02  0.45594000000E+02  0.51100000000E-03 0. -1.
    9900012    2    1    2    0    0  0.32542214444E+02  0.15065799921E+02  0.19162249272E+02  0.50528857789E+02  0.29999993734E+02 0.  0.
         12    1    1    2    0    0 -0.32542214444E+02 -0.15065799921E+02 -0.19162249272E+02  0.40659142211E+02  0.00000000000E+00 0. -1.
         11    1    3    3    0    0  0.13465716450E+02  0.18929473747E+02  0.49529520647E+01  0.23752520504E+02  0.51100000000E-03 0. -1.
        -11    1    3    3    0    0  0.33717513491E+01  0.34180142011E+01  0.58052273055E+01  0.75334051111E+01  0.51100000000E-03 0.  1.
         12    1    3    3    0    0  0.15704746645E+02 -0.72816880274E+01  0.84040699018E+01  0.19242932174E+02  0.00000000000E+00 0. -1.
</event>
<event>
 7    1  0.2744502E-011  0.5052886E+02  0.7816164E-02  0.1300439E+00
        -11   -1    0    0    0    0  0.00000000000E+00  0.00000000000E+00  0.45593999997E+02  0.45594000000E+02  0.51100000000E-03 0.  1.
         11   -1    0    0    0    0 -0.00000000000E+00 -0.00000000000E+00 -0.45593999997E+02  0.45594000000E+02  0.51100000000E-03 0. -1.
    9900012    2    1    2    0    0 -0.14799809829E+01  0.11913972275E+02  0.38846266900E+02  0.50528861653E+02  0.30000005480E+02 0.  0.
         12    1    1    2    0    0  0.14799809829E+01 -0.11913972275E+02 -0.38846266900E+02  0.40659138347E+02  0.00000000000E+00 0. -1.
         11    1    3    3    0    0 -0.48213886364E+01  0.26925221886E+01  0.84180016329E+00  0.55860622889E+01  0.51100000000E-03 0. -1.
        -11    1    3    3    0    0 -0.68693539647E+01  0.73054045958E+01  0.69609809299E+01  0.12207055991E+02  0.51100000000E-03 0.  1.
        -12    1    3    3    0    0  0.10210761618E+02  0.19160454909E+01  0.31043485807E+02  0.32735743373E+02  0.00000000000E+00 0.  1.
</event>
<event>
 7    1  0.2744502E-011  0.5052887E+02  0.7816164E-02  0.1300439E+00
        -11   -1    0    0    0    0  0.00000000000E+00  0.00000000000E+00  0.45593999997E+02  0.45594000000E+02  0.51100000000E-03 0.  1.
         11   -1    0    0    0    0 -0.00000000000E+00 -0.00000000000E+00 -0.45593999997E+02  0.45594000000E+02  0.51100000000E-03 0. -1.
    9900012    2    1    2    0    0 -0.36390843809E+02  0.10117245601E+02 -0.15050349520E+02  0.50528865819E+02  0.30000018144E+02 0.  0.
         12    1    1    2    0    0  0.36390843809E+02 -0.10117245601E+02  0.15050349520E+02  0.40659134181E+02  0.00000000000E+00 0. -1.
         11    1    3    3    0    0 -0.86146654850E+01 -0.24257653823E+01 -0.17854683897E+01  0.91260449670E+01  0.51100000000E-03 0. -1.
        -11    1    3    3    0    0 -0.17592610129E+02  0.77742885973E+01  0.50732091630E+01  0.19891630044E+02  0.51100000000E-03 0.  1.
         12    1    3    3    0    0 -0.10183568194E+02  0.47687223865E+01 -0.18338090293E+02  0.21511190808E+02  0.00000000000E+00 0. -1.
</event>
<event>
 7    1  0.2744502E-011  0.5052887E+02  0.7816164E-02  0.1300439E+00
        -11   -1    0    0    0    0  0.00000000000E+00  0.00000000000E+00  0.45593999997E+02  0.45594000000E+02  0.51100000000E-03 0.  1.
         11   -1    0    0    0    0 -0.00000000000E+00 -0.00000000000E+00 -0.45593999997E+02  0.45594000000E+02  0.51100000000E-03 0. -1.
    9900012    2    1    2    0    0 -0.20392158693E+02 -0.33273877665E+02  0.11409380011E+02  0.50528867898E+02  0.30000024463E+02 0.  0.
         12    1    1    2    0    0  0.20392158693E+02  0.33273877665E+02 -0.11409380011E+02  0.40659132102E+02  0.00000000000E+00 0. -1.
         11    1    3    3    0    0 -0.96378017431E+01 -0.27144900364E+02  0.43241514962E+01  0.29127841057E+02  0.51100000000E-03 0. -1.
        -11    1    3    3    0    0 -0.81227520461E+01 -0.11312676587E+02  0.28680367433E+01  0.14219050158E+02  0.51100000000E-03 0.  1.
         12    1    3    3    0    0 -0.26316049043E+01  0.51836992853E+01  0.42171917713E+01  0.71819766839E+01  0.00000000000E+00 0. -1.
</event>
<event>
 7    1  0.2744502E-011  0.5052886E+02  0.7816164E-02  0.1300439E+00
        -11   -1    0    0    0    0  0.00000000000E+00  0.00000000000E+00  0.45593999997E+02  0.45594000000E+02  0.51100000000E-03 0.  1.
         11   -1    0    0    0    0 -0.00000000000E+00 -0.00000000000E+00 -0.45593999997E+02  0.45594000000E+02  0.51100000000E-03 0. -1.
    9900012    2    1    2    0    0  0.22898652065E+02  0.27310258671E+02  0.19569551333E+02  0.50528857922E+02  0.29999994141E+02 0.  0.
         12    1    1    2    0    0 -0.22898652065E+02 -0.27310258671E+02 -0.19569551333E+02  0.40659142078E+02  0.00000000000E+00 0. -1.
         11    1    3    3    0    0  0.28810296880E+01  0.23326179483E+01  0.82392258358E+01  0.90347264038E+01  0.51100000000E-03 0. -1.
        -11    1    3    3    0    0  0.82147645942E+01  0.26287546719E+02  0.10873658686E+02  0.29610030789E+02  0.51100000000E-03 0.  1.
        -12    1    3    3    0    0  0.11802857783E+02 -0.13099059960E+01  0.45666681085E+00  0.11884100729E+02  0.00000000000E+00 0.  1.
</event>
<event>
 7    1  0.2744502E-011  0.5052885E+02  0.7816164E-02  0.1300439E+00
        -11   -1    0    0    0    0  0.00000000000E+00  0.00000000000E+00  0.45593999997E+02  0.45594000000E+02  0.51100000000E-03 0. -1.
         11   -1    0    0    0    0 -0.00000000000E+00 -0.00000000000E+00 -0.45593999997E+02  0.45594000000E+02  0.51100000000E-03 0.  1.
    9900012    2    1    2    0    0 -0.91613616247E+00  0.10915101766E+02 -0.39155940739E+02  0.50528850388E+02  0.29999971238E+02 0.  0.
         12    1    1    2    0    0  0.91613616247E+00 -0.10915101766E+02  0.39155940739E+02  0.40659149612E+02  0.00000000000E+00 0. -1.
         11    1    3    3    0    0 -0.62520772026E+01  0.35838786665E+01 -0.15266174459E+02  0.16881609476E+02  0.51100000000E-03 0. -1.
        -11    1    3    3    0    0  0.13929039458E+00  0.13680008474E+02 -0.20767783453E+02  0.24868913597E+02  0.51100000000E-03 0.  1.
         12    1    3    3    0    0  0.51966506456E+01 -0.63487853747E+01 -0.31219828274E+01  0.87783273145E+01  0.00000000000E+00 0. -1.
</event>
<event>
 7    1  0.2744502E-011  0.5052886E+02  0.7816164E-02  0.1300439E+00
        -11   -1    0    0    0    0  0.00000000000E+00  0.00000000000E+00  0.45593999997E+02  0.45594000000E+02  0.51100000000E-03 0.  1.
         11   -1    0    0    0    0 -0.00000000000E+00 -0.00000000000E+00 -0.45593999997E+02  0.45594000000E+02  0.51100000000E-03 0. -1.
    9900012    2    1    2    0    0  0.23094165287E+02  0.29408334413E+02  0.15967933613E+02  0.50528861948E+02  0.30000006378E+02 0.  0.
         12    1    1    2    0    0 -0.23094165287E+02 -0.29408334413E+02 -0.15967933613E+02  0.40659138052E+02  0.00000000000E+00 0. -1.
         11    1    3    3    0    0  0.12650276511E+01  0.90224921300E+01  0.58204499601E+01  0.10811257891E+02  0.51100000000E-03 0. -1.
        -11    1    3    3    0    0  0.81656401611E+01  0.13193893797E+02  0.16831515583E+02  0.22892278827E+02  0.51100000000E-03 0.  1.
         12    1    3    3    0    0  0.13663497475E+02  0.71919484856E+01 -0.66840319304E+01  0.16825325230E+02  0.00000000000E+00 0. -1.
</event>
<event>
 7    1  0.2744502E-011  0.5052887E+02  0.7816164E-02  0.1300439E+00
        -11   -1    0    0    0    0  0.00000000000E+00  0.00000000000E+00  0.45593999997E+02  0.45594000000E+02  0.51100000000E-03 0.  1.
         11   -1    0    0    0    0 -0.00000000000E+00 -0.00000000000E+00 -0.45593999997E+02  0.45594000000E+02  0.51100000000E-03 0. -1.
    9900012    2    1    2    0    0  0.27624451923E+02 -0.26176467326E+02  0.14312490098E+02  0.50528866235E+02  0.30000019409E+02 0.  0.
         12    1    1    2    0    0 -0.27624451923E+02  0.26176467326E+02 -0.14312490098E+02  0.40659133765E+02  0.00000000000E+00 0. -1.
         11    1    3    3    0    0  0.19859206566E+02 -0.35214888355E+01  0.31545329636E+01  0.20414211901E+02  0.51100000000E-03 0. -1.
        -11    1    3    3    0    0  0.27447039119E+01  0.11909343077E+01  0.34264223842E+01  0.45488564173E+01  0.51100000000E-03 0.  1.
        -12    1    3    3    0    0  0.50205414452E+01 -0.23845912798E+02  0.77315347497E+01  0.25565797917E+02  0.00000000000E+00 0.  1.
</event>
<event>
 7    1  0.2744502E-011  0.5052884E+02  0.7816164E-02  0.1300439E+00
        -11   -1    0    0    0    0  0.00000000000E+00  0.00000000000E+00  0.45593999997E+02  0.45594000000E+02  0.51100000000E-03 0.  1.
         11   -1    0    0    0    0 -0.00000000000E+00 -0.00000000000E+00 -0.45593999997E+02  0.45594000000E+02  0.51100000000E-03 0. -1.
    9900012    2    1    2    0    0 -0.12070151433E+02 -0.18663176240E+02  0.34046502920E+02  0.50528842802E+02  0.29999948181E+02 0.  0.
         12    1    1    2    0    0  0.12070151433E+02  0.18663176240E+02 -0.34046502920E+02  0.40659157198E+02  0.00000000000E+00 0. -1.
         11    1    3    3    0    0  0.15139889864E+01 -0.11456985341E+02  0.20707151040E+02  0.23713725566E+02  0.51100000000E-03 0. -1.
        -11    1    3    3    0    0 -0.41954684454E+01 -0.31250589920E+01  0.15494137211E+02  0.16353477837E+02  0.51100000000E-03 0.  1.
         12    1    3    3    0    0 -0.93886719744E+01 -0.40811319065E+01 -0.21547853319E+01  0.10461639399E+02  0.00000000000E+00 0. -1.
</event>
<event>
 7    1  0.2744502E-011  0.5052886E+02  0.7816164E-02  0.1300439E+00
        -11   -1    0    0    0    0  0.00000000000E+00  0.00000000000E+00  0.45593999997E+02  0.45594000000E+02  0.51100000000E-03 0. -1.
         11   -1    0    0    0    0 -0.00000000000E+00 -0.00000000000E+00 -0.45593999997E+02  0.45594000000E+02  0.51100000000E-03 0.  1.
    9900012    2    1    2    0    0  0.25788763410E+02  0.29221907584E+02 -0.11583846525E+02  0.50528859559E+02  0.29999999115E+02 0.  0.
         12    1    1    2    0    0 -0.25788763410E+02 -0.29221907584E+02  0.11583846525E+02  0.40659140441E+02  0.00000000000E+00 0. -1.
         11    1    3    3    0    0  0.23236025524E+01 -0.27568790346E+01 -0.22008361570E+01  0.42241201313E+01  0.51100000000E-03 0. -1.
        -11    1    3    3    0    0  0.18005984779E+02  0.66053283308E+01 -0.17894653794E+01  0.19262607217E+02  0.51100000000E-03 0.  1.
        -12    1    3    3    0    0  0.54591760795E+01  0.25373458288E+02 -0.75935449887E+01  0.27042132210E+02  0.00000000000E+00 0.  1.
</event>
<event>
 7    1  0.2744502E-011  0.5052886E+02  0.7816164E-02  0.1300439E+00
        -11   -1    0    0    0    0  0.00000000000E+00  0.00000000000E+00  0.45593999997E+02  0.45594000000E+02  0.51100000000E-03 0.  1.
         11   -1    0    0    0    0 -0.00000000000E+00 -0.00000000000E+00 -0.45593999997E+02  0.45594000000E+02  0.51100000000E-03 0. -1.
    9900012    2    1    2    0    0 -0.77980389933E+01 -0.20159608969E+02  0.34437575824E+02  0.50528857430E+02  0.29999992645E+02 0.  0.
         12    1    1    2    0    0  0.77980389933E+01  0.20159608969E+02 -0.34437575824E+02  0.40659142570E+02  0.00000000000E+00 0. -1.
         11    1    3    3    0    0 -0.12202111531E+02 -0.39176084440E+01  0.12994431229E+02  0.18250874635E+02  0.51100000000E-03 0. -1.
        -11    1    3    3    0    0 -0.39430314987E+01  0.13077212813E+01  0.67058068175E+01  0.78883127273E+01  0.51100000000E-03 0.  1.
        -12    1    3    3    0    0  0.83471040359E+01 -0.17549721806E+02  0.14737337777E+02  0.24389670068E+02  0.00000000000E+00 0.  1.
</event>
<event>
 7    1  0.2744502E-011  0.5052887E+02  0.7816164E-02  0.1300439E+00
        -11   -1    0    0    0    0  0.00000000000E+00  0.00000000000E+00  0.45593999997E+02  0.45594000000E+02  0.51100000000E-03 0. -1.
         11   -1    0    0    0    0 -0.00000000000E+00 -0.00000000000E+00 -0.45593999997E+02  0.45594000000E+02  0.51100000000E-03 0.  1.
    9900012    2    1    2    0    0 -0.11402032649E+02 -0.49356261566E+01 -0.38714316461E+02  0.50528867531E+02  0.30000023347E+02 0.  0.
         12    1    1    2    0    0  0.11402032649E+02  0.49356261566E+01  0.38714316461E+02  0.40659132469E+02  0.00000000000E+00 0. -1.
         11    1    3    3    0    0  0.27605530544E+01  0.65769937922E+01 -0.17393975257E+01  0.73418665557E+01  0.51100000000E-03 0. -1.
        -11    1    3    3    0    0 -0.89225888774E+01  0.19385241797E+00 -0.10583939369E+02  0.13844491463E+02  0.51100000000E-03 0.  1.
         12    1    3    3    0    0 -0.52399968262E+01 -0.11706472367E+02 -0.26390979566E+02  0.29342509512E+02  0.00000000000E+00 0. -1.
</event>
<event>
 7    1  0.2744502E-011  0.5052886E+02  0.7816164E-02  0.1300439E+00
        -11   -1    0    0    0    0  0.00000000000E+00  0.00000000000E+00  0.45593999997E+02  0.45594000000E+02  0.51100000000E-03 0. -1.
         11   -1    0    0    0    0 -0.00000000000E+00 -0.00000000000E+00 -0.45593999997E+02  0.45594000000E+02  0.51100000000E-03 0.  1.
    9900012    2    1    2    0    0 -0.35607660536E+02  0.19320177317E+02  0.34627399050E+01  0.50528864396E+02  0.30000013817E+02 0.  0.
         12    1    1    2    0    0  0.35607660536E+02 -0.19320177317E+02 -0.34627399050E+01  0.40659135604E+02  0.00000000000E+00 0. -1.
         11    1    3    3    0    0 -0.13634770272E+02  0.42574906717E+01 -0.37345766906E+00  0.14288899821E+02  0.51100000000E-03 0. -1.
        -11    1    3    3    0    0 -0.18404070843E+02  0.20071111575E+02 -0.25786413590E+01  0.27353404449E+02  0.51100000000E-03 0.  1.
         12    1    3    3    0    0 -0.35688194215E+01 -0.50084249293E+01  0.64148389331E+01  0.88865601260E+01  0.00000000000E+00 0. -1.
</event>
<event>
 7    1  0.2744502E-011  0.5052887E+02  0.7816164E-02  0.1300439E+00
        -11   -1    0    0    0    0  0.00000000000E+00  0.00000000000E+00  0.45593999997E+02  0.45594000000E+02  0.51100000000E-03 0.  1.
         11   -1    0    0    0    0 -0.00000000000E+00 -0.00000000000E+00 -0.45593999997E+02  0.45594000000E+02  0.51100000000E-03 0. -1.
    9900012    2    1    2    0    0 -0.11914984011E+02 -0.36867285747E+01  0.38698917246E+02  0.50528868091E+02  0.30000025049E+02 0.  0.
         12    1    1    2    0    0  0.11914984011E+02  0.36867285747E+01 -0.38698917246E+02  0.40659131909E+02  0.00000000000E+00 0. -1.
         11    1    3    3    0    0 -0.24486295514E+01  0.82934497218E+01  0.16904386690E+02  0.18987769342E+02  0.51100000000E-03 0. -1.
        -11    1    3    3    0    0 -0.69926357959E+01  0.24593662376E+01  0.11323080266E+02  0.13533572501E+02  0.51100000000E-03 0.  1.
         12    1    3    3    0    0 -0.24737186640E+01 -0.14439544534E+02  0.10471450291E+02  0.18007526248E+02  0.00000000000E+00 0. -1.
</event>
<event>
 7    1  0.2744502E-011  0.5052875E+02  0.7816164E-02  0.1300439E+00
        -11   -1    0    0    0    0  0.00000000000E+00  0.00000000000E+00  0.45593999997E+02  0.45594000000E+02  0.51100000000E-03 0.  1.
         11   -1    0    0    0    0 -0.00000000000E+00 -0.00000000000E+00 -0.45593999997E+02  0.45594000000E+02  0.51100000000E-03 0. -1.
    9900012    2    1    2    0    0  0.35427014350E+02 -0.16613750586E+02 -0.11049177025E+02  0.50528752992E+02  0.29999675194E+02 0.  0.
         12    1    1    2    0    0 -0.35427014350E+02  0.16613750586E+02  0.11049177025E+02  0.40659247008E+02  0.00000000000E+00 0. -1.
         11    1    3    3    0    0  0.68101031931E+01 -0.67928381252E+01 -0.88892318964E+01  0.13097274498E+02  0.51100000000E-03 0. -1.
        -11    1    3    3    0    0  0.22013306929E+02 -0.14434724043E+02 -0.79644739681E+01  0.27502359644E+02  0.51100000000E-03 0.  1.
         12    1    3    3    0    0  0.66036042276E+01  0.46138115815E+01  0.58045288390E+01  0.99291188505E+01  0.00000000000E+00 0. -1.
</event>
<event>
 7    1  0.2744502E-011  0.5052885E+02  0.7816164E-02  0.1300439E+00
        -11   -1    0    0    0    0  0.00000000000E+00  0.00000000000E+00  0.45593999997E+02  0.45594000000E+02  0.51100000000E-03 0.  1.
         11   -1    0    0    0    0 -0.00000000000E+00 -0.00000000000E+00 -0.45593999997E+02  0.45594000000E+02  0.51100000000E-03 0. -1.
    9900012    2    1    2    0    0  0.19112175633E+02 -0.28452961859E+02  0.21870523030E+02  0.50528854982E+02  0.29999985203E+02 0.  0.
         12    1    1    2    0    0 -0.19112175633E+02  0.28452961859E+02 -0.21870523030E+02  0.40659145018E+02  0.00000000000E+00 0. -1.
         11    1    3    3    0    0  0.32019373491E+00  0.75298855207E+00 -0.74130054668E+00  0.11041025990E+01  0.51100000000E-03 0. -1.
        -11    1    3    3    0    0  0.10119465103E+02  0.51960348669E+00 -0.14155361673E+01  0.10231192728E+02  0.51100000000E-03 0.  1.
        -12    1    3    3    0    0  0.86725167959E+01 -0.29725553898E+02  0.24027359744E+02  0.39193559654E+02  0.00000000000E+00 0.  1.
</event>
<event>
 7    1  0.2744502E-011  0.5052888E+02  0.7816164E-02  0.1300439E+00
        -11   -1    0    0    0    0  0.00000000000E+00  0.00000000000E+00  0.45593999997E+02  0.45594000000E+02  0.51100000000E-03 0.  1.
         11   -1    0    0    0    0 -0.00000000000E+00 -0.00000000000E+00 -0.45593999997E+02  0.45594000000E+02  0.51100000000E-03 0. -1.
    9900012    2    1    2    0    0 -0.94649817808E+01  0.17619829087E+02  0.35399436370E+02  0.50528876147E+02  0.30000049537E+02 0.  0.
         12    1    1    2    0    0  0.94649817808E+01 -0.17619829087E+02 -0.35399436370E+02  0.40659123853E+02  0.00000000000E+00 0. -1.
         11    1    3    3    0    0 -0.78746009224E+00 -0.17337141470E+01  0.10425056304E+02  0.10597530720E+02  0.51100000000E-03 0. -1.
        -11    1    3    3    0    0 -0.59196411247E+01  0.35560266192E+01  0.22708913193E+02  0.23735673890E+02  0.51100000000E-03 0.  1.
         12    1    3    3    0    0 -0.27578805638E+01  0.15797516615E+02  0.22654668728E+01  0.16195671538E+02  0.00000000000E+00 0. -1.
</event>
<event>
 7    1  0.2744502E-011  0.5052886E+02  0.7816164E-02  0.1300439E+00
        -11   -1    0    0    0    0  0.00000000000E+00  0.00000000000E+00  0.45593999997E+02  0.45594000000E+02  0.51100000000E-03 0.  1.
         11   -1    0    0    0    0 -0.00000000000E+00 -0.00000000000E+00 -0.45593999997E+02  0.45594000000E+02  0.51100000000E-03 0. -1.
    9900012    2    1    2    0    0 -0.16348349641E+02  0.20036400740E+01  0.37173682656E+02  0.50528858448E+02  0.29999995738E+02 0.  0.
         12    1    1    2    0    0  0.16348349641E+02 -0.20036400740E+01 -0.37173682656E+02  0.40659141552E+02  0.00000000000E+00 0. -1.
         11    1    3    3    0    0 -0.28381573640E+01  0.56566308580E+01  0.44665992313E+01  0.77461680101E+01  0.51100000000E-03 0. -1.
        -11    1    3    3    0    0  0.34022042535E+00  0.12666631026E+01  0.26974148649E+02  0.27006015644E+02  0.51100000000E-03 0.  1.
        -12    1    3    3    0    0 -0.13850412702E+02 -0.49196538867E+01  0.57329347757E+01  0.15776674793E+02  0.00000000000E+00 0.  1.
</event>
<event>
 7    1  0.2744502E-011  0.5052888E+02  0.7816164E-02  0.1300439E+00
        -11   -1    0    0    0    0  0.00000000000E+00  0.00000000000E+00  0.45593999997E+02  0.45594000000E+02  0.51100000000E-03 0.  1.
         11   -1    0    0    0    0 -0.00000000000E+00 -0.00000000000E+00 -0.45593999997E+02  0.45594000000E+02  0.51100000000E-03 0. -1.
    9900012    2    1    2    0    0 -0.34011013607E+02 -0.70562698253E+01  0.21133479065E+02  0.50528881370E+02  0.30000065411E+02 0.  0.
         12    1    1    2    0    0  0.34011013607E+02  0.70562698253E+01 -0.21133479065E+02  0.40659118630E+02  0.00000000000E+00 0. -1.
         11    1    3    3    0    0 -0.22860252143E+02  0.12179669070E+01  0.23749841316E+02  0.32986808488E+02  0.51100000000E-03 0. -1.
        -11    1    3    3    0    0 -0.75441263047E+01 -0.42228948302E+01  0.35353855201E+01  0.93405371090E+01  0.51100000000E-03 0.  1.
         12    1    3    3    0    0 -0.36066351588E+01 -0.40513419021E+01 -0.61517477717E+01  0.82015357722E+01  0.00000000000E+00 0. -1.
</event>
<event>
 7    1  0.2744502E-011  0.5052885E+02  0.7816164E-02  0.1300439E+00
        -11   -1    0    0    0    0  0.00000000000E+00  0.00000000000E+00  0.45593999997E+02  0.45594000000E+02  0.51100000000E-03 0.  1.
         11   -1    0    0    0    0 -0.00000000000E+00 -0.00000000000E+00 -0.45593999997E+02  0.45594000000E+02  0.51100000000E-03 0. -1.
    9900012    2    1    2    0    0 -0.11539718589E+02 -0.29289919874E+02  0.25731337708E+02  0.50528852794E+02  0.29999978552E+02 0.  0.
         12    1    1    2    0    0  0.11539718589E+02  0.29289919874E+02 -0.25731337708E+02  0.40659147206E+02  0.00000000000E+00 0. -1.
         11    1    3    3    0    0  0.39325657891E+01 -0.57712179365E+01  0.71896661290E+00  0.70206084784E+01  0.51100000000E-03 0. -1.
        -11    1    3    3    0    0 -0.12800444519E+01 -0.36083779777E+01 -0.40199481953E+01  0.55514763066E+01  0.51100000000E-03 0.  1.
        -12    1    3    3    0    0 -0.14192239926E+02 -0.19910323959E+02  0.29032319290E+02  0.37956768009E+02  0.00000000000E+00 0.  1.
</event>
<event>
 7    1  0.2744502E-011  0.5052886E+02  0.7816164E-02  0.1300439E+00
        -11   -1    0    0    0    0  0.00000000000E+00  0.00000000000E+00  0.45593999997E+02  0.45594000000E+02  0.51100000000E-03 0.  1.
         11   -1    0    0    0    0 -0.00000000000E+00 -0.00000000000E+00 -0.45593999997E+02  0.45594000000E+02  0.51100000000E-03 0. -1.
    9900012    2    1    2    0    0  0.21844708779E+02  0.16587131993E+02  0.30014021307E+02  0.50528859276E+02  0.29999998255E+02 0.  0.
         12    1    1    2    0    0 -0.21844708779E+02 -0.16587131993E+02 -0.30014021307E+02  0.40659140724E+02  0.00000000000E+00 0. -1.
         11    1    3    3    0    0  0.18809294418E+02  0.10850978210E+02  0.96461778433E+01  0.23760934995E+02  0.51100000000E-03 0. -1.
        -11    1    3    3    0    0  0.48433223112E+01  0.87397694435E+01  0.53258654965E+01  0.11322816985E+02  0.51100000000E-03 0.  1.
        -12    1    3    3    0    0 -0.18079079502E+01 -0.30036156604E+01  0.15041977967E+02  0.15445107295E+02  0.00000000000E+00 0.  1.
</event>
<event>
 7    1  0.2744502E-011  0.5052886E+02  0.7816164E-02  0.1300439E+00
        -11   -1    0    0    0    0  0.00000000000E+00  0.00000000000E+00  0.45593999997E+02  0.45594000000E+02  0.51100000000E-03 0.  1.
         11   -1    0    0    0    0 -0.00000000000E+00 -0.00000000000E+00 -0.45593999997E+02  0.45594000000E+02  0.51100000000E-03 0. -1.
    9900012    2    1    2    0    0  0.20758254320E+02 -0.32256657846E+02  0.13482154010E+02  0.50528861119E+02  0.30000003857E+02 0.  0.
         12    1    1    2    0    0 -0.20758254320E+02  0.32256657846E+02 -0.13482154010E+02  0.40659138881E+02  0.00000000000E+00 0. -1.
         11    1    3    3    0    0 -0.22185684955E+01 -0.32901530553E+00  0.30739695698E+01  0.38052051742E+01  0.51100000000E-03 0. -1.
        -11    1    3    3    0    0 -0.28899583245E+01 -0.11322527097E+02 -0.10301597146E+01  0.11730844312E+02  0.51100000000E-03 0.  1.
        -12    1    3    3    0    0  0.25866781140E+02 -0.20605115444E+02  0.11438344155E+02  0.34992811633E+02  0.00000000000E+00 0.  1.
</event>
<event>
 7    1  0.2744502E-011  0.5052886E+02  0.7816164E-02  0.1300439E+00
        -11   -1    0    0    0    0  0.00000000000E+00  0.00000000000E+00  0.45593999997E+02  0.45594000000E+02  0.51100000000E-03 0.  1.
         11   -1    0    0    0    0 -0.00000000000E+00 -0.00000000000E+00 -0.45593999997E+02  0.45594000000E+02  0.51100000000E-03 0. -1.
    9900012    2    1    2    0    0 -0.10881924796E+02  0.38517372818E+02 -0.71527069239E+01  0.50528861883E+02  0.30000006180E+02 0.  0.
         12    1    1    2    0    0  0.10881924796E+02 -0.38517372818E+02  0.71527069239E+01  0.40659138117E+02  0.00000000000E+00 0. -1.
         11    1    3    3    0    0 -0.46038794500E+01  0.85076914307E+01  0.52956373321E+01  0.11028159161E+02  0.51100000000E-03 0. -1.
        -11    1    3    3    0    0 -0.12030507038E+02  0.20395864644E+02 -0.13303291076E+01  0.23716959543E+02  0.51100000000E-03 0.  1.
         12    1    3    3    0    0  0.57524616923E+01  0.96138167430E+01 -0.11118015148E+02  0.15783743179E+02  0.00000000000E+00 0. -1.
</event>
<event>
 7    1  0.2744502E-011  0.5052886E+02  0.7816164E-02  0.1300439E+00
        -11   -1    0    0    0    0  0.00000000000E+00  0.00000000000E+00  0.45593999997E+02  0.45594000000E+02  0.51100000000E-03 0. -1.
         11   -1    0    0    0    0 -0.00000000000E+00 -0.00000000000E+00 -0.45593999997E+02  0.45594000000E+02  0.51100000000E-03 0.  1.
    9900012    2    1    2    0    0  0.42345479480E+01 -0.96618991278E+01 -0.39266804244E+02  0.50528860724E+02  0.30000002658E+02 0.  0.
         12    1    1    2    0    0 -0.42345479480E+01  0.96618991278E+01  0.39266804244E+02  0.40659139276E+02  0.00000000000E+00 0. -1.
         11    1    3    3    0    0 -0.30206620199E+01 -0.17814888424E+01  0.53396995365E+00  0.35472842720E+01  0.51100000000E-03 0. -1.
        -11    1    3    3    0    0  0.88281812185E+01  0.33412690961E+01 -0.56524980643E+01  0.11002345088E+02  0.51100000000E-03 0.  1.
         12    1    3    3    0    0 -0.15729712506E+01 -0.11221679382E+02 -0.34148276134E+02  0.35979231365E+02  0.00000000000E+00 0. -1.
</event>
<event>
 7    1  0.2744502E-011  0.5052886E+02  0.7816164E-02  0.1300439E+00
        -11   -1    0    0    0    0  0.00000000000E+00  0.00000000000E+00  0.45593999997E+02  0.45594000000E+02  0.51100000000E-03 0. -1.
         11   -1    0    0    0    0 -0.00000000000E+00 -0.00000000000E+00 -0.45593999997E+02  0.45594000000E+02  0.51100000000E-03 0.  1.
    9900012    2    1    2    0    0  0.52544197580E+01  0.14570608808E+02 -0.37593274778E+02  0.50528857405E+02  0.29999992569E+02 0.  0.
         12    1    1    2    0    0 -0.52544197580E+01 -0.14570608808E+02  0.37593274778E+02  0.40659142595E+02  0.00000000000E+00 0. -1.
         11    1    3    3    0    0 -0.26917472142E+01 -0.78672558552E+01 -0.97889617358E+01  0.12843791881E+02  0.51100000000E-03 0. -1.
        -11    1    3    3    0    0  0.27370186098E+01  0.13929329113E+01 -0.69715175248E+01  0.76179780668E+01  0.51100000000E-03 0.  1.
        -12    1    3    3    0    0  0.52091483624E+01  0.21044931752E+02 -0.20832795517E+02  0.30067087457E+02  0.00000000000E+00 0.  1.
</event>
<event>
 7    1  0.2744502E-011  0.5052885E+02  0.7816164E-02  0.1300439E+00
        -11   -1    0    0    0    0  0.00000000000E+00  0.00000000000E+00  0.45593999997E+02  0.45594000000E+02  0.51100000000E-03 0. -1.
         11   -1    0    0    0    0 -0.00000000000E+00 -0.00000000000E+00 -0.45593999997E+02  0.45594000000E+02  0.51100000000E-03 0.  1.
    9900012    2    1    2    0    0  0.19545966456E+02  0.90484833188E+01 -0.34485455909E+02  0.50528849439E+02  0.29999968356E+02 0.  0.
         12    1    1    2    0    0 -0.19545966456E+02 -0.90484833188E+01  0.34485455909E+02  0.40659150561E+02  0.00000000000E+00 0. -1.
         11    1    3    3    0    0  0.77916934362E+01 -0.26132081436E+01 -0.32167964866E+01  0.88253681681E+01  0.51100000000E-03 0. -1.
        -11    1    3    3    0    0  0.10927601634E+02 -0.37733963064E+01 -0.92754856631E+01  0.14821795833E+02  0.51100000000E-03 0.  1.
         12    1    3    3    0    0  0.82667138542E+00  0.15435087769E+02 -0.21993173759E+02  0.26881685439E+02  0.00000000000E+00 0. -1.
</event>
<event>
 7    1  0.2744502E-011  0.5052885E+02  0.7816164E-02  0.1300439E+00
        -11   -1    0    0    0    0  0.00000000000E+00  0.00000000000E+00  0.45593999997E+02  0.45594000000E+02  0.51100000000E-03 0.  1.
         11   -1    0    0    0    0 -0.00000000000E+00 -0.00000000000E+00 -0.45593999997E+02  0.45594000000E+02  0.51100000000E-03 0. -1.
    9900012    2    1    2    0    0 -0.15277730464E+02 -0.37177683641E+02  0.61300377179E+01  0.50528848859E+02  0.29999966593E+02 0.  0.
         12    1    1    2    0    0  0.15277730464E+02  0.37177683641E+02 -0.61300377179E+01  0.40659151141E+02  0.00000000000E+00 0. -1.
         11    1    3    3    0    0  0.18767744515E+01 -0.79464046592E+01 -0.15128659577E+01  0.83039986161E+01  0.51100000000E-03 0. -1.
        -11    1    3    3    0    0  0.33162665796E+01 -0.75270658529E+00 -0.40186833097E+01  0.52644094669E+01  0.51100000000E-03 0.  1.
        -12    1    3    3    0    0 -0.20470771495E+02 -0.28478572397E+02  0.11661586985E+02  0.36960440776E+02  0.00000000000E+00 0.  1.
</event>
<event>
 7    1  0.2744502E-011  0.5052888E+02  0.7816164E-02  0.1300439E+00
        -11   -1    0    0    0    0  0.00000000000E+00  0.00000000000E+00  0.45593999997E+02  0.45594000000E+02  0.51100000000E-03 0.  1.
         11   -1    0    0    0    0 -0.00000000000E+00 -0.00000000000E+00 -0.45593999997E+02  0.45594000000E+02  0.51100000000E-03 0. -1.
    9900012    2    1    2    0    0 -0.13637264927E+02  0.93036771045E+01  0.37156843164E+02  0.50528875609E+02  0.30000047901E+02 0.  0.
         12    1    1    2    0    0  0.13637264927E+02 -0.93036771045E+01 -0.37156843164E+02  0.40659124391E+02  0.00000000000E+00 0. -1.
         11    1    3    3    0    0 -0.90038798898E+00  0.97988482013E+00 -0.49689119079E+00  0.14204836881E+01  0.51100000000E-03 0. -1.
        -11    1    3    3    0    0 -0.15019853510E+02 -0.55855147102E-01  0.58149578067E+01  0.16106298576E+02  0.51100000000E-03 0.  1.
        -12    1    3    3    0    0  0.22829765716E+01  0.83796474315E+01  0.31838776548E+02  0.33002093345E+02  0.00000000000E+00 0.  1.
</event>
<event>
 7    1  0.2744502E-011  0.5052879E+02  0.7816164E-02  0.1300439E+00
        -11   -1    0    0    0    0  0.00000000000E+00  0.00000000000E+00  0.45593999997E+02  0.45594000000E+02  0.51100000000E-03 0. -1.
         11   -1    0    0    0    0 -0.00000000000E+00 -0.00000000000E+00 -0.45593999997E+02  0.45594000000E+02  0.51100000000E-03 0.  1.
    9900012    2    1    2    0    0 -0.14706904803E+02  0.39917371152E+01 -0.37695411235E+02  0.50528793880E+02  0.29999799478E+02 0.  0.
         12    1    1    2    0    0  0.14706904803E+02 -0.39917371152E+01  0.37695411235E+02  0.40659206120E+02  0.00000000000E+00 0. -1.
         11    1    3    3    0    0 -0.10770064561E+02 -0.10108768049E+02 -0.15538507068E+02  0.21438905855E+02  0.51100000000E-03 0. -1.
        -11    1    3    3    0    0  0.82235975894E-01  0.17870734150E+01 -0.13250098534E+02  0.13370321819E+02  0.51100000000E-03 0.  1.
         12    1    3    3    0    0 -0.40190762181E+01  0.12313431749E+02 -0.89068056336E+01  0.15719566205E+02  0.00000000000E+00 0. -1.
</event>
<event>
 7    1  0.2744502E-011  0.5052886E+02  0.7816164E-02  0.1300439E+00
        -11   -1    0    0    0    0  0.00000000000E+00  0.00000000000E+00  0.45593999997E+02  0.45594000000E+02  0.51100000000E-03 0.  1.
         11   -1    0    0    0    0 -0.00000000000E+00 -0.00000000000E+00 -0.45593999997E+02  0.45594000000E+02  0.51100000000E-03 0. -1.
    9900012    2    1    2    0    0  0.77753565046E+01 -0.46265337601E+01  0.39639684991E+02  0.50528860688E+02  0.30000002549E+02 0.  0.
         12    1    1    2    0    0 -0.77753565046E+01  0.46265337601E+01 -0.39639684991E+02  0.40659139312E+02  0.00000000000E+00 0. -1.
         11    1    3    3    0    0  0.70770972879E+01  0.60011295991E+01  0.48438938056E+01  0.10467194942E+02  0.51100000000E-03 0. -1.
        -11    1    3    3    0    0  0.50885867104E+01  0.24619860230E+01  0.67701939406E+01  0.88198988736E+01  0.51100000000E-03 0.  1.
         12    1    3    3    0    0 -0.43903274937E+01 -0.13089649382E+02  0.28025597244E+02  0.31241766873E+02  0.00000000000E+00 0. -1.
</event>
<event>
 7    1  0.2744502E-011  0.5052887E+02  0.7816164E-02  0.1300439E+00
        -11   -1    0    0    0    0  0.00000000000E+00  0.00000000000E+00  0.45593999997E+02  0.45594000000E+02  0.51100000000E-03 0. -1.
         11   -1    0    0    0    0 -0.00000000000E+00 -0.00000000000E+00 -0.45593999997E+02  0.45594000000E+02  0.51100000000E-03 0.  1.
    9900012    2    1    2    0    0  0.49371305021E+01 -0.35828004822E+02 -0.18578046516E+02  0.50528868190E+02  0.30000025352E+02 0.  0.
         12    1    1    2    0    0 -0.49371305021E+01  0.35828004822E+02  0.18578046516E+02  0.40659131810E+02  0.00000000000E+00 0. -1.
         11    1    3    3    0    0 -0.10704093544E+02 -0.13698933352E+02 -0.10871755977E+02  0.20504474435E+02  0.51100000000E-03 0.  1.
        -11    1    3    3    0    0  0.82116193499E+01 -0.38692876124E+01 -0.41978863329E+01  0.10001216371E+02  0.51100000000E-03 0. -1.
        -12    1    3    3    0    0  0.74296046962E+01 -0.18259783858E+02 -0.35084042064E+01  0.20023177384E+02  0.00000000000E+00 0.  1.
</event>
<event>
 7    1  0.2744502E-011  0.5052885E+02  0.7816164E-02  0.1300439E+00
        -11   -1    0    0    0    0  0.00000000000E+00  0.00000000000E+00  0.45593999997E+02  0.45594000000E+02  0.51100000000E-03 0.  1.
         11   -1    0    0    0    0 -0.00000000000E+00 -0.00000000000E+00 -0.45593999997E+02  0.45594000000E+02  0.51100000000E-03 0. -1.
    9900012    2    1    2    0    0 -0.16327751807E+02  0.24628123218E+02  0.27928956562E+02  0.50528849161E+02  0.29999967510E+02 0.  0.
         12    1    1    2    0    0  0.16327751807E+02 -0.24628123218E+02 -0.27928956562E+02  0.40659150839E+02  0.00000000000E+00 0. -1.
         11    1    3    3    0    0  0.55454871662E+01  0.12304644905E+02  0.99210157506E+01  0.16750619927E+02  0.51100000000E-03 0. -1.
        -11    1    3    3    0    0 -0.14080058806E+01  0.58869944131E+01  0.47509769524E+00  0.60716473762E+01  0.51100000000E-03 0.  1.
        -12    1    3    3    0    0 -0.20465233092E+02  0.64364838995E+01  0.17532843116E+02  0.27706581858E+02  0.00000000000E+00 0.  1.
</event>
<event>
 7    1  0.2744502E-011  0.5052887E+02  0.7816164E-02  0.1300439E+00
        -11   -1    0    0    0    0  0.00000000000E+00  0.00000000000E+00  0.45593999997E+02  0.45594000000E+02  0.51100000000E-03 0.  1.
         11   -1    0    0    0    0 -0.00000000000E+00 -0.00000000000E+00 -0.45593999997E+02  0.45594000000E+02  0.51100000000E-03 0. -1.
    9900012    2    1    2    0    0  0.15117605334E+01  0.83985945933E+01  0.39753523897E+02  0.50528874661E+02  0.30000045020E+02 0.  0.
         12    1    1    2    0    0 -0.15117605334E+01 -0.83985945933E+01 -0.39753523897E+02  0.40659125339E+02  0.00000000000E+00 0. -1.
         11    1    3    3    0    0 -0.39154811679E+01  0.55047805989E+01  0.21677547288E+02  0.22705718639E+02  0.51100000000E-03 0.  1.
        -11    1    3    3    0    0  0.22690831229E+01  0.10226877637E+02  0.16711197446E+02  0.19723130704E+02  0.51100000000E-03 0. -1.
         12    1    3    3    0    0  0.31581585783E+01 -0.73330636428E+01  0.13647791632E+01  0.81000253185E+01  0.00000000000E+00 0. -1.
</event>
<event>
 7    1  0.2744502E-011  0.5052887E+02  0.7816164E-02  0.1300439E+00
        -11   -1    0    0    0    0  0.00000000000E+00  0.00000000000E+00  0.45593999997E+02  0.45594000000E+02  0.51100000000E-03 0.  1.
         11   -1    0    0    0    0 -0.00000000000E+00 -0.00000000000E+00 -0.45593999997E+02  0.45594000000E+02  0.51100000000E-03 0. -1.
    9900012    2    1    2    0    0  0.14822793096E+02  0.24181337615E+02  0.29132674604E+02  0.50528868017E+02  0.30000024825E+02 0.  0.
         12    1    1    2    0    0 -0.14822793096E+02 -0.24181337615E+02 -0.29132674604E+02  0.40659131983E+02  0.00000000000E+00 0. -1.
         11    1    3    3    0    0  0.10822832262E+02  0.53501515888E+01  0.17480183957E+02  0.21244167473E+02  0.51100000000E-03 0. -1.
        -11    1    3    3    0    0  0.10188199169E+02  0.12904689757E+02  0.12529265792E+02  0.20671548601E+02  0.51100000000E-03 0.  1.
         12    1    3    3    0    0 -0.61882383358E+01  0.59264962694E+01 -0.87677514455E+00  0.86131519426E+01  0.00000000000E+00 0. -1.
</event>
<event>
 7    1  0.2744502E-011  0.5052886E+02  0.7816164E-02  0.1300439E+00
        -11   -1    0    0    0    0  0.00000000000E+00  0.00000000000E+00  0.45593999997E+02  0.45594000000E+02  0.51100000000E-03 0.  1.
         11   -1    0    0    0    0 -0.00000000000E+00 -0.00000000000E+00 -0.45593999997E+02  0.45594000000E+02  0.51100000000E-03 0. -1.
    9900012    2    1    2    0    0 -0.64149299033E+01  0.18589982699E+02  0.35586892371E+02  0.50528859687E+02  0.29999999504E+02 0.  0.
         12    1    1    2    0    0  0.64149299033E+01 -0.18589982699E+02 -0.35586892371E+02  0.40659140313E+02  0.00000000000E+00 0. -1.
         11    1    3    3    0    0  0.18695420288E+01  0.16654694972E+02  0.32210871237E+02  0.36309974912E+02  0.51100000000E-03 0.  1.
        -11    1    3    3    0    0  0.31906466274E+00 -0.31160237369E+01 -0.10510603709E+01  0.33039573775E+01  0.51100000000E-03 0. -1.
        -12    1    3    3    0    0 -0.86035365949E+01  0.50513114635E+01  0.44270815043E+01  0.10914927397E+02  0.00000000000E+00 0.  1.
</event>
<event>
 7    1  0.2744502E-011  0.5052886E+02  0.7816164E-02  0.1300439E+00
        -11   -1    0    0    0    0  0.00000000000E+00  0.00000000000E+00  0.45593999997E+02  0.45594000000E+02  0.51100000000E-03 0.  1.
         11   -1    0    0    0    0 -0.00000000000E+00 -0.00000000000E+00 -0.45593999997E+02  0.45594000000E+02  0.51100000000E-03 0. -1.
    9900012    2    1    2    0    0 -0.10387774319E+02 -0.17599881133E+02  0.35149732871E+02  0.50528863362E+02  0.30000010676E+02 0.  0.
         12    1    1    2    0    0  0.10387774319E+02  0.17599881133E+02 -0.35149732871E+02  0.40659136638E+02  0.00000000000E+00 0. -1.
         11    1    3    3    0    0 -0.25566681814E+00 -0.13250992189E+01  0.79606466708E+01  0.80742274640E+01  0.51100000000E-03 0.  1.
        -11    1    3    3    0    0  0.26084979161E+01 -0.16482018577E+02  0.24150831449E+02  0.29355133413E+02  0.51100000000E-03 0. -1.
        -12    1    3    3    0    0 -0.12740605417E+02  0.20723666239E+00  0.30382547508E+01  0.13099502485E+02  0.00000000000E+00 0.  1.
</event>
<event>
 7    1  0.2744502E-011  0.5052887E+02  0.7816164E-02  0.1300439E+00
        -11   -1    0    0    0    0  0.00000000000E+00  0.00000000000E+00  0.45593999997E+02  0.45594000000E+02  0.51100000000E-03 0.  1.
         11   -1    0    0    0    0 -0.00000000000E+00 -0.00000000000E+00 -0.45593999997E+02  0.45594000000E+02  0.51100000000E-03 0. -1.
    9900012    2    1    2    0    0 -0.70536717556E+01 -0.12476625830E+02  0.38049237315E+02  0.50528868952E+02  0.30000027666E+02 0.  0.
         12    1    1    2    0    0  0.70536717556E+01  0.12476625830E+02 -0.38049237315E+02  0.40659131048E+02  0.00000000000E+00 0. -1.
         11    1    3    3    0    0 -0.28949010253E+01  0.57191649793E+01  0.66050239769E+00  0.64440331847E+01  0.51100000000E-03 0. -1.
        -11    1    3    3    0    0  0.35314173573E+01 -0.30053777529E+00  0.34036563405E+01  0.49138689697E+01  0.51100000000E-03 0.  1.
        -12    1    3    3    0    0 -0.76901880876E+01 -0.17895253034E+02  0.33985078577E+02  0.39170966797E+02  0.00000000000E+00 0.  1.
</event>
<event>
 7    1  0.2744502E-011  0.5052887E+02  0.7816164E-02  0.1300439E+00
        -11   -1    0    0    0    0  0.00000000000E+00  0.00000000000E+00  0.45593999997E+02  0.45594000000E+02  0.51100000000E-03 0. -1.
         11   -1    0    0    0    0 -0.00000000000E+00 -0.00000000000E+00 -0.45593999997E+02  0.45594000000E+02  0.51100000000E-03 0.  1.
    9900012    2    1    2    0    0  0.72893718414E+01 -0.39185951477E+02 -0.80306111301E+01  0.50528874946E+02  0.30000045887E+02 0.  0.
         12    1    1    2    0    0 -0.72893718414E+01  0.39185951477E+02  0.80306111301E+01  0.40659125054E+02  0.00000000000E+00 0. -1.
         11    1    3    3    0    0 -0.19975813255E+01 -0.13513062108E+01 -0.52067003374E+01  0.57381258519E+01  0.51100000000E-03 0. -1.
        -11    1    3    3    0    0 -0.62912120515E+01 -0.71265627378E+01  0.27797802500E+01  0.99042629223E+01  0.51100000000E-03 0.  1.
        -12    1    3    3    0    0  0.15578165219E+02 -0.30708082528E+02 -0.56036910427E+01  0.34886486172E+02  0.00000000000E+00 0.  1.
</event>
<event>
 7    1  0.2744502E-011  0.5052890E+02  0.7816164E-02  0.1300439E+00
        -11   -1    0    0    0    0  0.00000000000E+00  0.00000000000E+00  0.45593999997E+02  0.45594000000E+02  0.51100000000E-03 0.  1.
         11   -1    0    0    0    0 -0.00000000000E+00 -0.00000000000E+00 -0.45593999997E+02  0.45594000000E+02  0.51100000000E-03 0. -1.
    9900012    2    1    2    0    0  0.92357622293E+01 -0.22294844777E+02  0.32723126954E+02  0.50528899602E+02  0.30000120829E+02 0.  0.
         12    1    1    2    0    0 -0.92357622293E+01  0.22294844777E+02 -0.32723126954E+02  0.40659100398E+02  0.00000000000E+00 0. -1.
         11    1    3    3    0    0  0.16066851128E+01 -0.45534413867E+01  0.89190974819E+01  0.10142266298E+02  0.51100000000E-03 0. -1.
        -11    1    3    3    0    0  0.11339792709E+01 -0.89716198104E+00  0.22216886233E+02  0.22263891007E+02  0.51100000000E-03 0.  1.
         12    1    3    3    0    0  0.64950978455E+01 -0.16844241409E+02  0.15871432384E+01  0.18122742296E+02  0.00000000000E+00 0. -1.
</event>
<event>
 7    1  0.2744502E-011  0.5052886E+02  0.7816164E-02  0.1300439E+00
        -11   -1    0    0    0    0  0.00000000000E+00  0.00000000000E+00  0.45593999997E+02  0.45594000000E+02  0.51100000000E-03 0.  1.
         11   -1    0    0    0    0 -0.00000000000E+00 -0.00000000000E+00 -0.45593999997E+02  0.45594000000E+02  0.51100000000E-03 0. -1.
    9900012    2    1    2    0    0  0.89907021324E+01  0.99015449780E+01  0.38396513562E+02  0.50528861156E+02  0.30000003971E+02 0.  0.
         12    1    1    2    0    0 -0.89907021324E+01 -0.99015449780E+01 -0.38396513562E+02  0.40659138844E+02  0.00000000000E+00 0. -1.
         11    1    3    3    0    0  0.84374765936E+01  0.41979739861E+01  0.24056396306E+02  0.25836489706E+02  0.51100000000E-03 0. -1.
        -11    1    3    3    0    0  0.67828624351E+01  0.95972328375E+01  0.12420808555E+02  0.17099432341E+02  0.51100000000E-03 0.  1.
         12    1    3    3    0    0 -0.62296368963E+01 -0.38936618456E+01  0.19193087007E+01  0.75929391092E+01  0.00000000000E+00 0. -1.
</event>
<event>
 7    1  0.2744502E-011  0.5052874E+02  0.7816164E-02  0.1300439E+00
        -11   -1    0    0    0    0  0.00000000000E+00  0.00000000000E+00  0.45593999997E+02  0.45594000000E+02  0.51100000000E-03 0.  1.
         11   -1    0    0    0    0 -0.00000000000E+00 -0.00000000000E+00 -0.45593999997E+02  0.45594000000E+02  0.51100000000E-03 0. -1.
    9900012    2    1    2    0    0 -0.94312485319E+01  0.96079343200E+01  0.38365535178E+02  0.50528743486E+02  0.29999646298E+02 0.  0.
         12    1    1    2    0    0  0.94312485319E+01 -0.96079343200E+01 -0.38365535178E+02  0.40659256514E+02  0.00000000000E+00 0. -1.
         11    1    3    3    0    0 -0.70679126480E+01 -0.68454824912E+00  0.65112179449E+01  0.96343113346E+01  0.51100000000E-03 0. -1.
        -11    1    3    3    0    0  0.10656828706E-01 -0.63232612133E+01  0.19766800283E+01  0.66250290667E+01  0.51100000000E-03 0.  1.
         12    1    3    3    0    0 -0.23739927126E+01  0.16615743782E+02  0.29877637205E+02  0.34269403085E+02  0.00000000000E+00 0. -1.
</event>
<event>
 7    1  0.2744502E-011  0.5052896E+02  0.7816164E-02  0.1300438E+00
        -11   -1    0    0    0    0  0.00000000000E+00  0.00000000000E+00  0.45593999997E+02  0.45594000000E+02  0.51100000000E-03 0.  1.
         11   -1    0    0    0    0 -0.00000000000E+00 -0.00000000000E+00 -0.45593999997E+02  0.45594000000E+02  0.51100000000E-03 0. -1.
    9900012    2    1    2    0    0 -0.20235840931E+02 -0.28105497854E+02  0.21301399082E+02  0.50528955856E+02  0.30000291818E+02 0.  0.
         12    1    1    2    0    0  0.20235840931E+02  0.28105497854E+02 -0.21301399082E+02  0.40659044144E+02  0.00000000000E+00 0. -1.
         11    1    3    3    0    0 -0.14622113456E+01 -0.18693526169E+01 -0.15702055940E+01  0.28457138110E+01  0.51100000000E-03 0. -1.
        -11    1    3    3    0    0 -0.51353455517E+01 -0.19674719034E+02  0.91753420734E-01  0.20334078832E+02  0.51100000000E-03 0.  1.
        -12    1    3    3    0    0 -0.13638284034E+02 -0.65614262036E+01  0.22779851255E+02  0.27349163213E+02  0.00000000000E+00 0.  1.
</event>
<event>
 7    1  0.2744502E-011  0.5052886E+02  0.7816164E-02  0.1300439E+00
        -11   -1    0    0    0    0  0.00000000000E+00  0.00000000000E+00  0.45593999997E+02  0.45594000000E+02  0.51100000000E-03 0.  1.
         11   -1    0    0    0    0 -0.00000000000E+00 -0.00000000000E+00 -0.45593999997E+02  0.45594000000E+02  0.51100000000E-03 0. -1.
    9900012    2    1    2    0    0  0.34894246370E+02  0.26685187991E+01  0.20698702468E+02  0.50528859500E+02  0.29999998937E+02 0.  0.
         12    1    1    2    0    0 -0.34894246370E+02 -0.26685187991E+01 -0.20698702468E+02  0.40659140500E+02  0.00000000000E+00 0. -1.
         11    1    3    3    0    0  0.46045564432E+01 -0.51904073257E+01  0.96921784157E+01  0.11919756329E+02  0.51100000000E-03 0. -1.
        -11    1    3    3    0    0  0.90002503961E+01 -0.18345571452E+01  0.12099671000E+02  0.15191186447E+02  0.51100000000E-03 0.  1.
         12    1    3    3    0    0  0.21289439531E+02  0.96934832700E+01 -0.10931469471E+01  0.23417916724E+02  0.00000000000E+00 0. -1.
</event>
<event>
 7    1  0.2744502E-011  0.5052886E+02  0.7816164E-02  0.1300439E+00
        -11   -1    0    0    0    0  0.00000000000E+00  0.00000000000E+00  0.45593999997E+02  0.45594000000E+02  0.51100000000E-03 0.  1.
         11   -1    0    0    0    0 -0.00000000000E+00 -0.00000000000E+00 -0.45593999997E+02  0.45594000000E+02  0.51100000000E-03 0. -1.
    9900012    2    1    2    0    0  0.33269581824E+02  0.23436898015E+01  0.23255275732E+02  0.50528858273E+02  0.29999995206E+02 0.  0.
         12    1    1    2    0    0 -0.33269581824E+02 -0.23436898015E+01 -0.23255275732E+02  0.40659141727E+02  0.00000000000E+00 0. -1.
         11    1    3    3    0    0  0.48433709200E+00 -0.15409952616E+01  0.79755371032E+01  0.81374714231E+01  0.51100000000E-03 0. -1.
        -11    1    3    3    0    0  0.15345913273E+02 -0.34962203785E+01  0.17251091682E+02  0.23352104308E+02  0.51100000000E-03 0.  1.
         12    1    3    3    0    0  0.17439331459E+02  0.73809054416E+01 -0.19713530531E+01  0.19039282542E+02  0.00000000000E+00 0. -1.
</event>
<event>
 7    1  0.2744502E-011  0.5052886E+02  0.7816164E-02  0.1300439E+00
        -11   -1    0    0    0    0  0.00000000000E+00  0.00000000000E+00  0.45593999997E+02  0.45594000000E+02  0.51100000000E-03 0.  1.
         11   -1    0    0    0    0 -0.00000000000E+00 -0.00000000000E+00 -0.45593999997E+02  0.45594000000E+02  0.51100000000E-03 0. -1.
    9900012    2    1    2    0    0  0.68457964192E+01  0.77083487489E+01  0.39330421196E+02  0.50528860800E+02  0.30000002886E+02 0.  0.
         12    1    1    2    0    0 -0.68457964192E+01 -0.77083487489E+01 -0.39330421196E+02  0.40659139200E+02  0.00000000000E+00 0. -1.
         11    1    3    3    0    0 -0.24451777736E+01 -0.76550339464E+01  0.51319310676E+01  0.95349439332E+01  0.51100000000E-03 0. -1.
        -11    1    3    3    0    0  0.16045223891E+01  0.39782496085E+01  0.22635160149E+02  0.23038043260E+02  0.51100000000E-03 0.  1.
        -12    1    3    3    0    0  0.76864518037E+01  0.11385133087E+02  0.11563329980E+02  0.17955873606E+02  0.00000000000E+00 0.  1.
</event>
<event>
 7    1  0.2744502E-011  0.5052885E+02  0.7816164E-02  0.1300439E+00
        -11   -1    0    0    0    0  0.00000000000E+00  0.00000000000E+00  0.45593999997E+02  0.45594000000E+02  0.51100000000E-03 0. -1.
         11   -1    0    0    0    0 -0.00000000000E+00 -0.00000000000E+00 -0.45593999997E+02  0.45594000000E+02  0.51100000000E-03 0.  1.
    9900012    2    1    2    0    0 -0.12508083841E+02 -0.24071061222E+02 -0.30286937820E+02  0.50528846637E+02  0.29999959837E+02 0.  0.
         12    1    1    2    0    0  0.12508083841E+02  0.24071061222E+02  0.30286937820E+02  0.40659153363E+02  0.00000000000E+00 0. -1.
         11    1    3    3    0    0 -0.95757013040E+00 -0.22462797560E+02 -0.13739236466E+02  0.26348829836E+02  0.51100000000E-03 0. -1.
        -11    1    3    3    0    0 -0.81471370462E+01 -0.98879652918E+00 -0.10181437300E+01  0.82698353999E+01  0.51100000000E-03 0.  1.
        -12    1    3    3    0    0 -0.34033766645E+01 -0.61946713276E+00 -0.15529557623E+02  0.15910181401E+02  0.00000000000E+00 0.  1.
</event>
<event>
 7    1  0.2744502E-011  0.5052885E+02  0.7816164E-02  0.1300439E+00
        -11   -1    0    0    0    0  0.00000000000E+00  0.00000000000E+00  0.45593999997E+02  0.45594000000E+02  0.51100000000E-03 0.  1.
         11   -1    0    0    0    0 -0.00000000000E+00 -0.00000000000E+00 -0.45593999997E+02  0.45594000000E+02  0.51100000000E-03 0. -1.
    9900012    2    1    2    0    0 -0.21637268045E+02 -0.25478990008E+02  0.23147706887E+02  0.50528848085E+02  0.29999964240E+02 0.  0.
         12    1    1    2    0    0  0.21637268045E+02  0.25478990008E+02 -0.23147706887E+02  0.40659151915E+02  0.00000000000E+00 0. -1.
         11    1    3    3    0    0  0.61292308858E+01 -0.43348419625E+01 -0.13510086478E+01  0.76278142819E+01  0.51100000000E-03 0. -1.
        -11    1    3    3    0    0 -0.36110032066E+01 -0.42952968016E+01  0.25126355138E+01  0.61483539470E+01  0.51100000000E-03 0.  1.
         12    1    3    3    0    0 -0.24155495724E+02 -0.16848851244E+02  0.21986080021E+02  0.36752679856E+02  0.00000000000E+00 0. -1.
</event>
<event>
 7    1  0.2744502E-011  0.5052887E+02  0.7816164E-02  0.1300439E+00
        -11   -1    0    0    0    0  0.00000000000E+00  0.00000000000E+00  0.45593999997E+02  0.45594000000E+02  0.51100000000E-03 0. -1.
         11   -1    0    0    0    0 -0.00000000000E+00 -0.00000000000E+00 -0.45593999997E+02  0.45594000000E+02  0.51100000000E-03 0.  1.
    9900012    2    1    2    0    0  0.15168476386E+02  0.10146561508E+01 -0.37710117393E+02  0.50528866257E+02  0.30000019474E+02 0.  0.
         12    1    1    2    0    0 -0.15168476386E+02 -0.10146561508E+01  0.37710117393E+02  0.40659133743E+02  0.00000000000E+00 0. -1.
         11    1    3    3    0    0 -0.55604987357E+00  0.13671404328E+01 -0.23812704476E+02  0.23858398084E+02  0.51100000000E-03 0. -1.
        -11    1    3    3    0    0  0.11985186145E+02 -0.69087202322E+01 -0.13148862354E+02  0.19085797957E+02  0.51100000000E-03 0.  1.
        -12    1    3    3    0    0  0.37393401153E+01  0.65562359502E+01 -0.74855056213E+00  0.75846702154E+01  0.00000000000E+00 0.  1.
</event>
<event>
 7    1  0.2744502E-011  0.5052886E+02  0.7816164E-02  0.1300439E+00
        -11   -1    0    0    0    0  0.00000000000E+00  0.00000000000E+00  0.45593999997E+02  0.45594000000E+02  0.51100000000E-03 0. -1.
         11   -1    0    0    0    0 -0.00000000000E+00 -0.00000000000E+00 -0.45593999997E+02  0.45594000000E+02  0.51100000000E-03 0.  1.
    9900012    2    1    2    0    0 -0.97852157368E+00  0.40626392697E+02  0.13054797686E+01  0.50528861231E+02  0.30000004197E+02 0.  0.
         12    1    1    2    0    0  0.97852157368E+00 -0.40626392697E+02 -0.13054797686E+01  0.40659138769E+02  0.00000000000E+00 0. -1.
         11    1    3    3    0    0  0.41472834854E+01  0.58094828838E+01  0.34563528195E+01  0.79307267485E+01  0.51100000000E-03 0. -1.
        -11    1    3    3    0    0 -0.28165730932E+01  0.24825744867E+02 -0.12578892697E+02  0.27972830281E+02  0.51100000000E-03 0.  1.
         12    1    3    3    0    0 -0.23092319659E+01  0.99911649455E+01  0.10428019646E+02  0.14625304201E+02  0.00000000000E+00 0. -1.
</event>
<event>
 7    1  0.2744502E-011  0.5052886E+02  0.7816164E-02  0.1300439E+00
        -11   -1    0    0    0    0  0.00000000000E+00  0.00000000000E+00  0.45593999997E+02  0.45594000000E+02  0.51100000000E-03 0. -1.
         11   -1    0    0    0    0 -0.00000000000E+00 -0.00000000000E+00 -0.45593999997E+02  0.45594000000E+02  0.51100000000E-03 0.  1.
    9900012    2    1    2    0    0 -0.63636142507E+01  0.18750815690E+02 -0.35511649155E+02  0.50528857104E+02  0.29999991652E+02 0.  0.
         12    1    1    2    0    0  0.63636142507E+01 -0.18750815690E+02  0.35511649155E+02  0.40659142896E+02  0.00000000000E+00 0. -1.
         11    1    3    3    0    0 -0.10026307085E+02  0.67455021259E+01 -0.33696318075E+01  0.12545240192E+02  0.51100000000E-03 0. -1.
        -11    1    3    3    0    0  0.40930605743E+01  0.13517027263E+02 -0.14392011156E+02  0.20164155233E+02  0.51100000000E-03 0.  1.
         12    1    3    3    0    0 -0.43036773962E+00 -0.15117136990E+01 -0.17750006191E+02  0.17819461678E+02  0.00000000000E+00 0. -1.
</event>
<event>
 7    1  0.2744502E-011  0.5052886E+02  0.7816164E-02  0.1300439E+00
        -11   -1    0    0    0    0  0.00000000000E+00  0.00000000000E+00  0.45593999997E+02  0.45594000000E+02  0.51100000000E-03 0.  1.
         11   -1    0    0    0    0 -0.00000000000E+00 -0.00000000000E+00 -0.45593999997E+02  0.45594000000E+02  0.51100000000E-03 0. -1.
    9900012    2    1    2    0    0 -0.45269392702E+01 -0.15121196008E+02  0.37470280060E+02  0.50528860368E+02  0.30000001573E+02 0.  0.
         12    1    1    2    0    0  0.45269392702E+01  0.15121196008E+02 -0.37470280060E+02  0.40659139632E+02  0.00000000000E+00 0. -1.
         11    1    3    3    0    0  0.12038134399E+01  0.86560596300E+00  0.12556857831E+02  0.12644094248E+02  0.51100000000E-03 0. -1.
        -11    1    3    3    0    0 -0.58349082076E+01  0.45251399618E+00  0.19832309944E+02  0.20677800673E+02  0.51100000000E-03 0.  1.
         12    1    3    3    0    0  0.10415549750E+00 -0.16439315968E+02  0.50811122849E+01  0.17206965447E+02  0.00000000000E+00 0. -1.
</event>
<event>
 7    1  0.2744502E-011  0.5052886E+02  0.7816164E-02  0.1300439E+00
        -11   -1    0    0    0    0  0.00000000000E+00  0.00000000000E+00  0.45593999997E+02  0.45594000000E+02  0.51100000000E-03 0.  1.
         11   -1    0    0    0    0 -0.00000000000E+00 -0.00000000000E+00 -0.45593999997E+02  0.45594000000E+02  0.51100000000E-03 0. -1.
    9900012    2    1    2    0    0 -0.61116365917E+01  0.23305089151E+02  0.32751893082E+02  0.50528858560E+02  0.29999996080E+02 0.  0.
         12    1    1    2    0    0  0.61116365917E+01 -0.23305089151E+02 -0.32751893082E+02  0.40659141440E+02  0.00000000000E+00 0. -1.
         11    1    3    3    0    0 -0.22219592965E+01  0.14173867729E+02  0.10752285638E+02  0.17928950784E+02  0.51100000000E-03 0.  1.
        -11    1    3    3    0    0  0.37881494940E+01  0.37568304597E+01 -0.28450787273E+01  0.60463480645E+01  0.51100000000E-03 0. -1.
         12    1    3    3    0    0 -0.76778267892E+01  0.53743909621E+01  0.24844686171E+02  0.26553559712E+02  0.00000000000E+00 0. -1.
</event>
<event>
 7    1  0.2744502E-011  0.5052886E+02  0.7816164E-02  0.1300439E+00
        -11   -1    0    0    0    0  0.00000000000E+00  0.00000000000E+00  0.45593999997E+02  0.45594000000E+02  0.51100000000E-03 0. -1.
         11   -1    0    0    0    0 -0.00000000000E+00 -0.00000000000E+00 -0.45593999997E+02  0.45594000000E+02  0.51100000000E-03 0.  1.
    9900012    2    1    2    0    0 -0.27486661716E+02 -0.15035413099E+02 -0.25914970249E+02  0.50528857088E+02  0.29999991604E+02 0.  0.
         12    1    1    2    0    0  0.27486661716E+02  0.15035413099E+02  0.25914970249E+02  0.40659142912E+02  0.00000000000E+00 0. -1.
         11    1    3    3    0    0  0.15882588385E+01 -0.19795713136E+00  0.23441158983E+01  0.28384208232E+01  0.51100000000E-03 0. -1.
        -11    1    3    3    0    0  0.19498551935E+01 -0.54865138087E+01 -0.61121814683E+01  0.84417137840E+01  0.51100000000E-03 0.  1.
        -12    1    3    3    0    0 -0.31024775748E+02 -0.93509421594E+01 -0.22146904679E+02  0.39248722480E+02  0.00000000000E+00 0.  1.
</event>
<event>
 7    1  0.2744502E-011  0.5052887E+02  0.7816164E-02  0.1300439E+00
        -11   -1    0    0    0    0  0.00000000000E+00  0.00000000000E+00  0.45593999997E+02  0.45594000000E+02  0.51100000000E-03 0.  1.
         11   -1    0    0    0    0 -0.00000000000E+00 -0.00000000000E+00 -0.45593999997E+02  0.45594000000E+02  0.51100000000E-03 0. -1.
    9900012    2    1    2    0    0  0.78209659018E+01  0.10396568418E+02  0.38521539037E+02  0.50528866804E+02  0.30000021137E+02 0.  0.
         12    1    1    2    0    0 -0.78209659018E+01 -0.10396568418E+02 -0.38521539037E+02  0.40659133196E+02  0.00000000000E+00 0. -1.
         11    1    3    3    0    0 -0.56024588256E+01  0.35748205791E+00  0.21069153380E+02  0.21804232679E+02  0.51100000000E-03 0. -1.
        -11    1    3    3    0    0 -0.79815062740E+00 -0.32525079119E+01  0.25502443638E+01  0.42094653719E+01  0.51100000000E-03 0.  1.
        -12    1    3    3    0    0  0.14221575355E+02  0.13291594272E+02  0.14902141293E+02  0.24515168753E+02  0.00000000000E+00 0.  1.
</event>
<event>
 7    1  0.2744502E-011  0.5052882E+02  0.7816164E-02  0.1300439E+00
        -11   -1    0    0    0    0  0.00000000000E+00  0.00000000000E+00  0.45593999997E+02  0.45594000000E+02  0.51100000000E-03 0. -1.
         11   -1    0    0    0    0 -0.00000000000E+00 -0.00000000000E+00 -0.45593999997E+02  0.45594000000E+02  0.51100000000E-03 0.  1.
    9900012    2    1    2    0    0  0.27316597763E+02 -0.33213924034E+01 -0.29932263920E+02  0.50528824108E+02  0.29999891358E+02 0.  0.
         12    1    1    2    0    0 -0.27316597763E+02  0.33213924034E+01  0.29932263920E+02  0.40659175892E+02  0.00000000000E+00 0. -1.
         11    1    3    3    0    0 -0.14462188777E+01 -0.30518130611E+01  0.26854949869E+01  0.43147416594E+01  0.51100000000E-03 0. -1.
        -11    1    3    3    0    0  0.14863445820E+02 -0.76173141077E+01 -0.19988640339E+02  0.26047864380E+02  0.51100000000E-03 0.  1.
         12    1    3    3    0    0  0.13899370821E+02  0.73477347654E+01 -0.12629118568E+02  0.20166218068E+02  0.00000000000E+00 0. -1.
</event>
<event>
 7    1  0.2744502E-011  0.5052885E+02  0.7816164E-02  0.1300439E+00
        -11   -1    0    0    0    0  0.00000000000E+00  0.00000000000E+00  0.45593999997E+02  0.45594000000E+02  0.51100000000E-03 0. -1.
         11   -1    0    0    0    0 -0.00000000000E+00 -0.00000000000E+00 -0.45593999997E+02  0.45594000000E+02  0.51100000000E-03 0.  1.
    9900012    2    1    2    0    0 -0.34862644873E+02 -0.16440414386E+01 -0.20858073578E+02  0.50528854495E+02  0.29999983724E+02 0.  0.
         12    1    1    2    0    0  0.34862644873E+02  0.16440414386E+01  0.20858073578E+02  0.40659145505E+02  0.00000000000E+00 0. -1.
         11    1    3    3    0    0 -0.13367000769E+02  0.70289860105E+01 -0.98622477176E+01  0.18037385736E+02  0.51100000000E-03 0. -1.
        -11    1    3    3    0    0 -0.23042593039E+02 -0.78593139704E+01 -0.14668909941E+02  0.28423701890E+02  0.51100000000E-03 0.  1.
         12    1    3    3    0    0  0.15469489351E+01 -0.81371347875E+00  0.36730840804E+01  0.40677668683E+01  0.00000000000E+00 0. -1.
</event>
<event>
 7    1  0.2744502E-011  0.5052884E+02  0.7816164E-02  0.1300439E+00
        -11   -1    0    0    0    0  0.00000000000E+00  0.00000000000E+00  0.45593999997E+02  0.45594000000E+02  0.51100000000E-03 0. -1.
         11   -1    0    0    0    0 -0.00000000000E+00 -0.00000000000E+00 -0.45593999997E+02  0.45594000000E+02  0.51100000000E-03 0.  1.
    9900012    2    1    2    0    0  0.34757683079E+02 -0.11069441757E+02 -0.17959344782E+02  0.50528841883E+02  0.29999945386E+02 0.  0.
         12    1    1    2    0    0 -0.34757683079E+02  0.11069441757E+02  0.17959344782E+02  0.40659158117E+02  0.00000000000E+00 0. -1.
         11    1    3    3    0    0 -0.21168442044E+01  0.22045494381E+01 -0.31621427217E+01  0.43977510690E+01  0.51100000000E-03 0. -1.
        -11    1    3    3    0    0  0.85927985323E+01 -0.71284506396E+01  0.37251203453E+01  0.11769771323E+02  0.51100000000E-03 0.  1.
        -12    1    3    3    0    0  0.28281728751E+02 -0.61455405557E+01 -0.18522322406E+02  0.34361319491E+02  0.00000000000E+00 0.  1.
</event>
<event>
 7    1  0.2744502E-011  0.5052886E+02  0.7816164E-02  0.1300439E+00
        -11   -1    0    0    0    0  0.00000000000E+00  0.00000000000E+00  0.45593999997E+02  0.45594000000E+02  0.51100000000E-03 0.  1.
         11   -1    0    0    0    0 -0.00000000000E+00 -0.00000000000E+00 -0.45593999997E+02  0.45594000000E+02  0.51100000000E-03 0. -1.
    9900012    2    1    2    0    0  0.35057853745E+02 -0.14081952977E+02  0.15027013222E+02  0.50528860373E+02  0.30000001588E+02 0.  0.
         12    1    1    2    0    0 -0.35057853745E+02  0.14081952977E+02 -0.15027013222E+02  0.40659139627E+02  0.00000000000E+00 0. -1.
         11    1    3    3    0    0 -0.23718499536E+01 -0.11374732072E+01  0.30453922652E+01  0.40241684619E+01  0.51100000000E-03 0. -1.
        -11    1    3    3    0    0  0.17931963088E+01 -0.37303671912E+01 -0.45529393844E+01  0.61530845665E+01  0.51100000000E-03 0.  1.
        -12    1    3    3    0    0  0.35636507390E+02 -0.92141125786E+01  0.16534560341E+02  0.40351607344E+02  0.00000000000E+00 0.  1.
</event>
<event>
 7    1  0.2744502E-011  0.5052890E+02  0.7816164E-02  0.1300439E+00
        -11   -1    0    0    0    0  0.00000000000E+00  0.00000000000E+00  0.45593999997E+02  0.45594000000E+02  0.51100000000E-03 0.  1.
         11   -1    0    0    0    0 -0.00000000000E+00 -0.00000000000E+00 -0.45593999997E+02  0.45594000000E+02  0.51100000000E-03 0. -1.
    9900012    2    1    2    0    0 -0.37889238995E+02 -0.13587719567E+02  0.57395212740E+01  0.50528896971E+02  0.30000112832E+02 0.  0.
         12    1    1    2    0    0  0.37889238995E+02  0.13587719567E+02 -0.57395212740E+01  0.40659103029E+02  0.00000000000E+00 0. -1.
         11    1    3    3    0    0  0.11966218734E+00 -0.23384661172E+01 -0.30955296079E+01  0.38813717466E+01  0.51100000000E-03 0. -1.
        -11    1    3    3    0    0 -0.31131609079E+02 -0.67104785643E+01 -0.32592660885E+01  0.32012972715E+02  0.51100000000E-03 0.  1.
         12    1    3    3    0    0 -0.68772921041E+01 -0.45387748859E+01  0.12094316970E+02  0.14634552509E+02  0.00000000000E+00 0. -1.
</event>
<event>
 7    1  0.2744502E-011  0.5052886E+02  0.7816164E-02  0.1300439E+00
        -11   -1    0    0    0    0  0.00000000000E+00  0.00000000000E+00  0.45593999997E+02  0.45594000000E+02  0.51100000000E-03 0.  1.
         11   -1    0    0    0    0 -0.00000000000E+00 -0.00000000000E+00 -0.45593999997E+02  0.45594000000E+02  0.51100000000E-03 0. -1.
    9900012    2    1    2    0    0  0.12352079076E+02  0.29839910288E+02  0.24701644554E+02  0.50528863915E+02  0.30000012356E+02 0.  0.
         12    1    1    2    0    0 -0.12352079076E+02 -0.29839910288E+02 -0.24701644554E+02  0.40659136085E+02  0.00000000000E+00 0. -1.
         11    1    3    3    0    0 -0.16419599749E+01 -0.40822465946E+00 -0.70549260715E+00  0.18331393868E+01  0.51100000000E-03 0. -1.
        -11    1    3    3    0    0 -0.40460897312E+01  0.13755195309E+02  0.13525120207E+01  0.14401580785E+02  0.51100000000E-03 0.  1.
        -12    1    3    3    0    0  0.18040128782E+02  0.16492939639E+02  0.24054625141E+02  0.34294143743E+02  0.00000000000E+00 0.  1.
</event>
<event>
 7    1  0.2744502E-011  0.5052885E+02  0.7816164E-02  0.1300439E+00
        -11   -1    0    0    0    0  0.00000000000E+00  0.00000000000E+00  0.45593999997E+02  0.45594000000E+02  0.51100000000E-03 0.  1.
         11   -1    0    0    0    0 -0.00000000000E+00 -0.00000000000E+00 -0.45593999997E+02  0.45594000000E+02  0.51100000000E-03 0. -1.
    9900012    2    1    2    0    0  0.31052948856E+02  0.62444905963E+00  0.26239105439E+02  0.50528853139E+02  0.29999979601E+02 0.  0.
         12    1    1    2    0    0 -0.31052948856E+02 -0.62444905963E+00 -0.26239105439E+02  0.40659146861E+02  0.00000000000E+00 0. -1.
         11    1    3    3    0    0  0.99012277673E+01  0.11095307044E+02  0.12496160087E+02  0.19424061544E+02  0.51100000000E-03 0. -1.
        -11    1    3    3    0    0  0.12447792661E+02  0.14206515745E+01  0.96389334375E+01  0.15807429617E+02  0.51100000000E-03 0.  1.
         12    1    3    3    0    0  0.87039284270E+01 -0.11891509559E+02  0.41040119147E+01  0.15297361977E+02  0.00000000000E+00 0. -1.
</event>
<event>
 7    1  0.2744502E-011  0.5052886E+02  0.7816164E-02  0.1300439E+00
        -11   -1    0    0    0    0  0.00000000000E+00  0.00000000000E+00  0.45593999997E+02  0.45594000000E+02  0.51100000000E-03 0.  1.
         11   -1    0    0    0    0 -0.00000000000E+00 -0.00000000000E+00 -0.45593999997E+02  0.45594000000E+02  0.51100000000E-03 0. -1.
    9900012    2    1    2    0    0  0.21237962151E+02  0.25794415163E+02  0.23168137058E+02  0.50528862470E+02  0.30000007964E+02 0.  0.
         12    1    1    2    0    0 -0.21237962151E+02 -0.25794415163E+02 -0.23168137058E+02  0.40659137530E+02  0.00000000000E+00 0. -1.
         11    1    3    3    0    0  0.11558210815E+02  0.31479120164E+01  0.23015285288E+01  0.12198304027E+02  0.51100000000E-03 0. -1.
        -11    1    3    3    0    0  0.12059285866E+02  0.14098080446E+02  0.35726751084E+01  0.18893021345E+02  0.51100000000E-03 0.  1.
        -12    1    3    3    0    0 -0.23795345303E+01  0.85484227007E+01  0.17293933421E+02  0.19437537097E+02  0.00000000000E+00 0.  1.
</event>
<event>
 7    1  0.2744502E-011  0.5052886E+02  0.7816164E-02  0.1300439E+00
        -11   -1    0    0    0    0  0.00000000000E+00  0.00000000000E+00  0.45593999997E+02  0.45594000000E+02  0.51100000000E-03 0.  1.
         11   -1    0    0    0    0 -0.00000000000E+00 -0.00000000000E+00 -0.45593999997E+02  0.45594000000E+02  0.51100000000E-03 0. -1.
    9900012    2    1    2    0    0 -0.11812925381E+02 -0.81340545992E+01  0.38045463686E+02  0.50528863790E+02  0.30000011975E+02 0.  0.
         12    1    1    2    0    0  0.11812925381E+02  0.81340545992E+01 -0.38045463686E+02  0.40659136210E+02  0.00000000000E+00 0. -1.
         11    1    3    3    0    0  0.47412583501E+00 -0.82148086927E+00  0.95080668372E+01  0.95552583098E+01  0.51100000000E-03 0. -1.
        -11    1    3    3    0    0 -0.14072585573E+02 -0.60877373599E+01  0.32792046750E+02  0.36199675982E+02  0.51100000000E-03 0.  1.
         12    1    3    3    0    0  0.17855343566E+01 -0.12248363700E+01 -0.42546499010E+01  0.47739294980E+01  0.00000000000E+00 0. -1.
</event>
<event>
 7    1  0.2744502E-011  0.5052887E+02  0.7816164E-02  0.1300439E+00
        -11   -1    0    0    0    0  0.00000000000E+00  0.00000000000E+00  0.45593999997E+02  0.45594000000E+02  0.51100000000E-03 0.  1.
         11   -1    0    0    0    0 -0.00000000000E+00 -0.00000000000E+00 -0.45593999997E+02  0.45594000000E+02  0.51100000000E-03 0. -1.
    9900012    2    1    2    0    0  0.35590849815E+02  0.39435174084E+01  0.19258901177E+02  0.50528865791E+02  0.30000018058E+02 0.  0.
         12    1    1    2    0    0 -0.35590849815E+02 -0.39435174084E+01 -0.19258901177E+02  0.40659134209E+02  0.00000000000E+00 0. -1.
         11    1    3    3    0    0 -0.43407762791E+01 -0.78445506681E-01  0.19345698519E+01  0.47530046471E+01  0.51100000000E-03 0. -1.
        -11    1    3    3    0    0  0.93137294394E+01  0.46647276622E+01 -0.33970250213E+00  0.10422122542E+02  0.51100000000E-03 0.  1.
        -12    1    3    3    0    0  0.30617896654E+02 -0.64276474712E+00  0.17664033828E+02  0.35353738602E+02  0.00000000000E+00 0.  1.
</event>
<event>
 7    1  0.2744502E-011  0.5052886E+02  0.7816164E-02  0.1300439E+00
        -11   -1    0    0    0    0  0.00000000000E+00  0.00000000000E+00  0.45593999997E+02  0.45594000000E+02  0.51100000000E-03 0. -1.
         11   -1    0    0    0    0 -0.00000000000E+00 -0.00000000000E+00 -0.45593999997E+02  0.45594000000E+02  0.51100000000E-03 0.  1.
    9900012    2    1    2    0    0 -0.39807780668E+02  0.13961930775E+01 -0.81582574627E+01  0.50528856850E+02  0.29999990882E+02 0.  0.
         12    1    1    2    0    0  0.39807780668E+02 -0.13961930775E+01  0.81582574627E+01  0.40659143150E+02  0.00000000000E+00 0. -1.
         11    1    3    3    0    0  0.71878186731E+00  0.46691474090E+01 -0.15536068909E+01  0.49730553518E+01  0.51100000000E-03 0. -1.
        -11    1    3    3    0    0 -0.12551085552E+02  0.80318927342E+01 -0.21250697083E+01  0.15051809557E+02  0.51100000000E-03 0.  1.
         12    1    3    3    0    0 -0.27975476984E+02 -0.11304847066E+02 -0.44795808635E+01  0.30503991941E+02  0.00000000000E+00 0. -1.
</event>
<event>
 7    1  0.2744502E-011  0.5052886E+02  0.7816164E-02  0.1300439E+00
        -11   -1    0    0    0    0  0.00000000000E+00  0.00000000000E+00  0.45593999997E+02  0.45594000000E+02  0.51100000000E-03 0.  1.
         11   -1    0    0    0    0 -0.00000000000E+00 -0.00000000000E+00 -0.45593999997E+02  0.45594000000E+02  0.51100000000E-03 0. -1.
    9900012    2    1    2    0    0 -0.97952700398E+00 -0.20891216229E+02  0.34867797828E+02  0.50528859403E+02  0.29999998642E+02 0.  0.
         12    1    1    2    0    0  0.97952700398E+00  0.20891216229E+02 -0.34867797828E+02  0.40659140597E+02  0.00000000000E+00 0. -1.
         11    1    3    3    0    0  0.66003107952E+00 -0.31338503261E+01  0.12098319181E+02  0.12515030410E+02  0.51100000000E-03 0.  1.
        -11    1    3    3    0    0 -0.84613085769E+00 -0.22570958638E+02  0.24026127057E+02  0.32976035130E+02  0.51100000000E-03 0. -1.
         12    1    3    3    0    0 -0.79342722582E+00  0.48135927353E+01 -0.12566484099E+01  0.50377938634E+01  0.00000000000E+00 0. -1.
</event>
<event>
 7    1  0.2744502E-011  0.5052886E+02  0.7816164E-02  0.1300439E+00
        -11   -1    0    0    0    0  0.00000000000E+00  0.00000000000E+00  0.45593999997E+02  0.45594000000E+02  0.51100000000E-03 0.  1.
         11   -1    0    0    0    0 -0.00000000000E+00 -0.00000000000E+00 -0.45593999997E+02  0.45594000000E+02  0.51100000000E-03 0. -1.
    9900012    2    1    2    0    0  0.19838278327E+02  0.10606541178E+02  0.33869006292E+02  0.50528860929E+02  0.30000003280E+02 0.  0.
         12    1    1    2    0    0 -0.19838278327E+02 -0.10606541178E+02 -0.33869006292E+02  0.40659139071E+02  0.00000000000E+00 0. -1.
         11    1    3    3    0    0  0.94428762301E+01 -0.45443154082E+01  0.18426935418E+02  0.21198364635E+02  0.51100000000E-03 0. -1.
        -11    1    3    3    0    0  0.11728547653E+02  0.24532409942E+01  0.92693779907E+01  0.15149210871E+02  0.51100000000E-03 0.  1.
        -12    1    3    3    0    0 -0.13331455561E+01  0.12697615592E+02  0.61726928837E+01  0.14181285423E+02  0.00000000000E+00 0.  1.
</event>
<event>
 7    1  0.2744502E-011  0.5052886E+02  0.7816164E-02  0.1300439E+00
        -11   -1    0    0    0    0  0.00000000000E+00  0.00000000000E+00  0.45593999997E+02  0.45594000000E+02  0.51100000000E-03 0. -1.
         11   -1    0    0    0    0 -0.00000000000E+00 -0.00000000000E+00 -0.45593999997E+02  0.45594000000E+02  0.51100000000E-03 0.  1.
    9900012    2    1    2    0    0  0.35987657678E+02 -0.18686069654E+02 -0.29807572249E+01  0.50528860586E+02  0.30000002237E+02 0.  0.
         12    1    1    2    0    0 -0.35987657678E+02  0.18686069654E+02  0.29807572249E+01  0.40659139414E+02  0.00000000000E+00 0. -1.
         11    1    3    3    0    0  0.31200898111E+01  0.38681477068E-01  0.14837483055E+01  0.34551361740E+01  0.51100000000E-03 0.  1.
        -11    1    3    3    0    0  0.15509387489E+02 -0.75055171150E+01  0.11706820722E+02  0.20830831455E+02  0.51100000000E-03 0. -1.
        -12    1    3    3    0    0  0.17358180378E+02 -0.11219234016E+02 -0.16171326253E+02  0.26242892956E+02  0.00000000000E+00 0.  1.
</event>
<event>
 7    1  0.2744502E-011  0.5052887E+02  0.7816164E-02  0.1300439E+00
        -11   -1    0    0    0    0  0.00000000000E+00  0.00000000000E+00  0.45593999997E+02  0.45594000000E+02  0.51100000000E-03 0.  1.
         11   -1    0    0    0    0 -0.00000000000E+00 -0.00000000000E+00 -0.45593999997E+02  0.45594000000E+02  0.51100000000E-03 0. -1.
    9900012    2    1    2    0    0  0.39022924372E+02  0.92811448661E+01  0.66510453082E+01  0.50528872117E+02  0.30000037286E+02 0.  0.
         12    1    1    2    0    0 -0.39022924372E+02 -0.92811448661E+01 -0.66510453082E+01  0.40659127883E+02  0.00000000000E+00 0. -1.
         11    1    3    3    0    0 -0.22926740727E+01  0.22549157834E+01  0.17825910410E+01  0.36767690537E+01  0.51100000000E-03 0. -1.
        -11    1    3    3    0    0  0.21293344028E+01  0.69767940480E+01  0.19855591981E+01  0.75599051434E+01  0.51100000000E-03 0.  1.
        -12    1    3    3    0    0  0.39186264042E+02  0.49435034742E-01  0.28828950692E+01  0.39292197920E+02  0.00000000000E+00 0.  1.
</event>
<event>
 7    1  0.2744502E-011  0.5052886E+02  0.7816164E-02  0.1300439E+00
        -11   -1    0    0    0    0  0.00000000000E+00  0.00000000000E+00  0.45593999997E+02  0.45594000000E+02  0.51100000000E-03 0.  1.
         11   -1    0    0    0    0 -0.00000000000E+00 -0.00000000000E+00 -0.45593999997E+02  0.45594000000E+02  0.51100000000E-03 0. -1.
    9900012    2    1    2    0    0 -0.33045870121E+01  0.40324439415E+02  0.40230751461E+01  0.50528857816E+02  0.29999993819E+02 0.  0.
         12    1    1    2    0    0  0.33045870121E+01 -0.40324439415E+02 -0.40230751461E+01  0.40659142184E+02  0.00000000000E+00 0. -1.
         11    1    3    3    0    0 -0.11827301523E+01  0.21017373051E+02  0.11006488150E+02  0.23754401744E+02  0.51100000000E-03 0.  1.
        -11    1    3    3    0    0  0.43741814675E+01  0.30919372887E+01 -0.75971821951E+01  0.92957365106E+01  0.51100000000E-03 0. -1.
         12    1    3    3    0    0 -0.64960383273E+01  0.16215129076E+02  0.61376919085E+00  0.17478719562E+02  0.00000000000E+00 0. -1.
</event>
<event>
 7    1  0.2744502E-011  0.5052885E+02  0.7816164E-02  0.1300439E+00
        -11   -1    0    0    0    0  0.00000000000E+00  0.00000000000E+00  0.45593999997E+02  0.45594000000E+02  0.51100000000E-03 0.  1.
         11   -1    0    0    0    0 -0.00000000000E+00 -0.00000000000E+00 -0.45593999997E+02  0.45594000000E+02  0.51100000000E-03 0. -1.
    9900012    2    1    2    0    0  0.17319114904E+01 -0.14394306111E+01  0.40596731386E+02  0.50528854939E+02  0.29999985072E+02 0.  0.
         12    1    1    2    0    0 -0.17319114904E+01  0.14394306111E+01 -0.40596731386E+02  0.40659145061E+02  0.00000000000E+00 0. -1.
         11    1    3    3    0    0 -0.27857537390E+01 -0.11151776711E+01  0.12245187212E+02  0.12607484097E+02  0.51100000000E-03 0. -1.
        -11    1    3    3    0    0 -0.87074126763E+00 -0.11388953371E+02  0.20053044141E+02  0.23077933807E+02  0.51100000000E-03 0.  1.
         12    1    3    3    0    0  0.53884064970E+01  0.11064700431E+02  0.82985000326E+01  0.14843437034E+02  0.00000000000E+00 0. -1.
</event>
<event>
 7    1  0.2744502E-011  0.5052886E+02  0.7816164E-02  0.1300439E+00
        -11   -1    0    0    0    0  0.00000000000E+00  0.00000000000E+00  0.45593999997E+02  0.45594000000E+02  0.51100000000E-03 0.  1.
         11   -1    0    0    0    0 -0.00000000000E+00 -0.00000000000E+00 -0.45593999997E+02  0.45594000000E+02  0.51100000000E-03 0. -1.
    9900012    2    1    2    0    0  0.86438283771E+01  0.11205425059E+02  0.38116772185E+02  0.50528860295E+02  0.30000001354E+02 0.  0.
         12    1    1    2    0    0 -0.86438283771E+01 -0.11205425059E+02 -0.38116772185E+02  0.40659139705E+02  0.00000000000E+00 0. -1.
         11    1    3    3    0    0  0.12002777925E+02 -0.16312408887E+01  0.12157012758E+02  0.17161602029E+02  0.51100000000E-03 0. -1.
        -11    1    3    3    0    0  0.59106225655E+01  0.12525193993E+01  0.89206417366E+01  0.10774140950E+02  0.51100000000E-03 0.  1.
        -12    1    3    3    0    0 -0.92695721131E+01  0.11584146548E+02  0.17039117690E+02  0.22593117316E+02  0.00000000000E+00 0.  1.
</event>
<event>
 7    1  0.2744502E-011  0.5052886E+02  0.7816164E-02  0.1300439E+00
        -11   -1    0    0    0    0  0.00000000000E+00  0.00000000000E+00  0.45593999997E+02  0.45594000000E+02  0.51100000000E-03 0.  1.
         11   -1    0    0    0    0 -0.00000000000E+00 -0.00000000000E+00 -0.45593999997E+02  0.45594000000E+02  0.51100000000E-03 0. -1.
    9900012    2    1    2    0    0 -0.17867838697E+02 -0.35995868138E+01  0.36344864716E+02  0.50528857410E+02  0.29999992583E+02 0.  0.
         12    1    1    2    0    0  0.17867838697E+02  0.35995868138E+01 -0.36344864716E+02  0.40659142590E+02  0.00000000000E+00 0. -1.
         11    1    3    3    0    0 -0.13996503128E+01 -0.39147130324E+01  0.58294336131E+01  0.71600485776E+01  0.51100000000E-03 0. -1.
        -11    1    3    3    0    0 -0.22755565442E+02 -0.24332005812E+01  0.27753231803E+02  0.35971907086E+02  0.51100000000E-03 0.  1.
         12    1    3    3    0    0  0.62873770580E+01  0.27483267998E+01  0.27621993002E+01  0.73969017461E+01  0.00000000000E+00 0. -1.
</event>
<event>
 7    1  0.2744502E-011  0.5052886E+02  0.7816164E-02  0.1300439E+00
        -11   -1    0    0    0    0  0.00000000000E+00  0.00000000000E+00  0.45593999997E+02  0.45594000000E+02  0.51100000000E-03 0. -1.
         11   -1    0    0    0    0 -0.00000000000E+00 -0.00000000000E+00 -0.45593999997E+02  0.45594000000E+02  0.51100000000E-03 0.  1.
    9900012    2    1    2    0    0  0.27065031682E+02 -0.23093434992E+02 -0.19681026937E+02  0.50528862024E+02  0.30000006608E+02 0.  0.
         12    1    1    2    0    0 -0.27065031682E+02  0.23093434992E+02  0.19681026937E+02  0.40659137976E+02  0.00000000000E+00 0. -1.
         11    1    3    3    0    0 -0.30716840141E+01  0.65388786255E+00 -0.52528292972E+01  0.61200512993E+01  0.51100000000E-03 0. -1.
        -11    1    3    3    0    0  0.13212695114E+02 -0.50266941912E+01  0.20274112136E+01  0.14281224148E+02  0.51100000000E-03 0.  1.
        -12    1    3    3    0    0  0.16924020582E+02 -0.18720628663E+02 -0.16455608853E+02  0.30127586577E+02  0.00000000000E+00 0.  1.
</event>
<event>
 7    1  0.2744502E-011  0.5052887E+02  0.7816164E-02  0.1300439E+00
        -11   -1    0    0    0    0  0.00000000000E+00  0.00000000000E+00  0.45593999997E+02  0.45594000000E+02  0.51100000000E-03 0.  1.
         11   -1    0    0    0    0 -0.00000000000E+00 -0.00000000000E+00 -0.45593999997E+02  0.45594000000E+02  0.51100000000E-03 0. -1.
    9900012    2    1    2    0    0  0.11372546272E+02  0.15432982363E+02  0.35856003651E+02  0.50528871245E+02  0.30000034636E+02 0.  0.
         12    1    1    2    0    0 -0.11372546272E+02 -0.15432982363E+02 -0.35856003651E+02  0.40659128755E+02  0.00000000000E+00 0. -1.
         11    1    3    3    0    0 -0.45617414427E+01  0.94419452726E+01  0.62601395265E+01  0.12212664029E+02  0.51100000000E-03 0. -1.
        -11    1    3    3    0    0  0.12905439017E+01  0.78862619783E+01  0.17464685169E+02  0.19206089136E+02  0.51100000000E-03 0.  1.
         12    1    3    3    0    0  0.14643743813E+02 -0.18952248881E+01  0.12131178955E+02  0.19110118081E+02  0.00000000000E+00 0. -1.
</event>
<event>
 7    1  0.2744502E-011  0.5052886E+02  0.7816164E-02  0.1300439E+00
        -11   -1    0    0    0    0  0.00000000000E+00  0.00000000000E+00  0.45593999997E+02  0.45594000000E+02  0.51100000000E-03 0.  1.
         11   -1    0    0    0    0 -0.00000000000E+00 -0.00000000000E+00 -0.45593999997E+02  0.45594000000E+02  0.51100000000E-03 0. -1.
    9900012    2    1    2    0    0  0.50982452297E+00  0.55923543268E+01  0.40269485067E+02  0.50528858647E+02  0.29999996343E+02 0.  0.
         12    1    1    2    0    0 -0.50982452297E+00 -0.55923543268E+01 -0.40269485067E+02  0.40659141353E+02  0.00000000000E+00 0. -1.
         11    1    3    3    0    0 -0.92387280573E+00 -0.26318763650E+01  0.94380929579E+00  0.29446715283E+01  0.51100000000E-03 0. -1.
        -11    1    3    3    0    0  0.11371903369E+02  0.87916890472E+00  0.80640500100E+01  0.13968608629E+02  0.51100000000E-03 0.  1.
         12    1    3    3    0    0 -0.99382060403E+01  0.73450617871E+01  0.31261625762E+02  0.33615578490E+02  0.00000000000E+00 0. -1.
</event>
<event>
 7    1  0.2744502E-011  0.5052885E+02  0.7816164E-02  0.1300439E+00
        -11   -1    0    0    0    0  0.00000000000E+00  0.00000000000E+00  0.45593999997E+02  0.45594000000E+02  0.51100000000E-03 0. -1.
         11   -1    0    0    0    0 -0.00000000000E+00 -0.00000000000E+00 -0.45593999997E+02  0.45594000000E+02  0.51100000000E-03 0.  1.
    9900012    2    1    2    0    0 -0.35276875693E+02 -0.11256100677E+02  0.16793103723E+02  0.50528854734E+02  0.29999984450E+02 0.  0.
         12    1    1    2    0    0  0.35276875693E+02  0.11256100677E+02 -0.16793103723E+02  0.40659145266E+02  0.00000000000E+00 0. -1.
         11    1    3    3    0    0 -0.39071583029E+01 -0.64995361471E+01  0.15713167003E+02  0.17447448915E+02  0.51100000000E-03 0.  1.
        -11    1    3    3    0    0 -0.94925123903E+00 -0.48370882971E-01  0.20753604003E+01  0.22826604455E+01  0.51100000000E-03 0. -1.
        -12    1    3    3    0    0 -0.30420466151E+02 -0.47081936470E+01 -0.99542368004E+00  0.30798745373E+02  0.00000000000E+00 0.  1.
</event>
<event>
 7    1  0.2744502E-011  0.5052887E+02  0.7816164E-02  0.1300439E+00
        -11   -1    0    0    0    0  0.00000000000E+00  0.00000000000E+00  0.45593999997E+02  0.45594000000E+02  0.51100000000E-03 0.  1.
         11   -1    0    0    0    0 -0.00000000000E+00 -0.00000000000E+00 -0.45593999997E+02  0.45594000000E+02  0.51100000000E-03 0. -1.
    9900012    2    1    2    0    0 -0.36783925548E+02 -0.14954754927E+02  0.87443031913E+01  0.50528871726E+02  0.30000036099E+02 0.  0.
         12    1    1    2    0    0  0.36783925548E+02  0.14954754927E+02 -0.87443031913E+01  0.40659128274E+02  0.00000000000E+00 0. -1.
         11    1    3    3    0    0 -0.93388084288E+01 -0.40164399197E+01 -0.14412744439E+01  0.10267541321E+02  0.51100000000E-03 0.  1.
        -11    1    3    3    0    0 -0.18710314800E+02 -0.11419181083E+02 -0.52313966191E+01  0.22535329759E+02  0.51100000000E-03 0. -1.
         12    1    3    3    0    0 -0.87348023198E+01  0.48086607540E+00  0.15416974254E+02  0.17726000646E+02  0.00000000000E+00 0. -1.
</event>
<event>
 7    1  0.2744502E-011  0.5052886E+02  0.7816164E-02  0.1300439E+00
        -11   -1    0    0    0    0  0.00000000000E+00  0.00000000000E+00  0.45593999997E+02  0.45594000000E+02  0.51100000000E-03 0.  1.
         11   -1    0    0    0    0 -0.00000000000E+00 -0.00000000000E+00 -0.45593999997E+02  0.45594000000E+02  0.51100000000E-03 0. -1.
    9900012    2    1    2    0    0  0.11999774191E+02 -0.33265126845E+02  0.20064956879E+02  0.50528859095E+02  0.29999997704E+02 0.  0.
         12    1    1    2    0    0 -0.11999774191E+02  0.33265126845E+02 -0.20064956879E+02  0.40659140905E+02  0.00000000000E+00 0. -1.
         11    1    3    3    0    0 -0.21916935290E+01 -0.95039876891E+00  0.26424790847E+00  0.24034570025E+01  0.51100000000E-03 0. -1.
        -11    1    3    3    0    0  0.25320039351E+01 -0.39599257963E+01 -0.63009002591E+01  0.78608778502E+01  0.51100000000E-03 0.  1.
        -12    1    3    3    0    0  0.11659463785E+02 -0.28354802279E+02  0.26101609229E+02  0.40264524242E+02  0.00000000000E+00 0.  1.
</event>
<event>
 7    1  0.2744502E-011  0.5052885E+02  0.7816164E-02  0.1300439E+00
        -11   -1    0    0    0    0  0.00000000000E+00  0.00000000000E+00  0.45593999997E+02  0.45594000000E+02  0.51100000000E-03 0.  1.
         11   -1    0    0    0    0 -0.00000000000E+00 -0.00000000000E+00 -0.45593999997E+02  0.45594000000E+02  0.51100000000E-03 0. -1.
    9900012    2    1    2    0    0 -0.23519942775E+02  0.31607045056E+02  0.10048539603E+02  0.50528854000E+02  0.29999982219E+02 0.  0.
         12    1    1    2    0    0  0.23519942775E+02 -0.31607045056E+02 -0.10048539603E+02  0.40659146000E+02  0.00000000000E+00 0. -1.
         11    1    3    3    0    0  0.34397695961E+01  0.76638563328E+01  0.20693184607E+01  0.86515193993E+01  0.51100000000E-03 0.  1.
        -11    1    3    3    0    0 -0.12909633369E+02  0.88880109540E+01 -0.62213054942E+01  0.16862977636E+02  0.51100000000E-03 0. -1.
        -12    1    3    3    0    0 -0.14050079002E+02  0.15055177769E+02  0.14200526636E+02  0.25014356965E+02  0.00000000000E+00 0.  1.
</event>
<event>
 7    1  0.2744502E-011  0.5052885E+02  0.7816164E-02  0.1300439E+00
        -11   -1    0    0    0    0  0.00000000000E+00  0.00000000000E+00  0.45593999997E+02  0.45594000000E+02  0.51100000000E-03 0.  1.
         11   -1    0    0    0    0 -0.00000000000E+00 -0.00000000000E+00 -0.45593999997E+02  0.45594000000E+02  0.51100000000E-03 0. -1.
    9900012    2    1    2    0    0 -0.10191601065E+02 -0.20819383787E+02  0.33404351589E+02  0.50528853690E+02  0.29999981276E+02 0.  0.
         12    1    1    2    0    0  0.10191601065E+02  0.20819383787E+02 -0.33404351589E+02  0.40659146310E+02  0.00000000000E+00 0. -1.
         11    1    3    3    0    0 -0.91570109686E+01  0.17806059627E+01  0.47261218777E+01  0.10457420128E+02  0.51100000000E-03 0. -1.
        -11    1    3    3    0    0  0.22058997093E+01 -0.38922435209E+01  0.17448013454E+02  0.18012460323E+02  0.51100000000E-03 0.  1.
         12    1    3    3    0    0 -0.32404898058E+01 -0.18707746229E+02  0.11230216258E+02  0.22058973239E+02  0.00000000000E+00 0. -1.
</event>
<event>
 7    1  0.2744502E-011  0.5052882E+02  0.7816164E-02  0.1300439E+00
        -11   -1    0    0    0    0  0.00000000000E+00  0.00000000000E+00  0.45593999997E+02  0.45594000000E+02  0.51100000000E-03 0.  1.
         11   -1    0    0    0    0 -0.00000000000E+00 -0.00000000000E+00 -0.45593999997E+02  0.45594000000E+02  0.51100000000E-03 0. -1.
    9900012    2    1    2    0    0 -0.33102913223E+02 -0.23117783006E+02 -0.47889638000E+01  0.50528819865E+02  0.29999878460E+02 0.  0.
         12    1    1    2    0    0  0.33102913223E+02  0.23117783006E+02  0.47889638000E+01  0.40659180135E+02  0.00000000000E+00 0. -1.
         11    1    3    3    0    0 -0.89399559834E+01 -0.13473146867E+02 -0.12873118346E+02  0.20667986736E+02  0.51100000000E-03 0. -1.
        -11    1    3    3    0    0 -0.87029160737E+01  0.25346578591E+01  0.25736329103E+01  0.94227822466E+01  0.51100000000E-03 0.  1.
        -12    1    3    3    0    0 -0.15460041166E+02 -0.12179293998E+02  0.55105216361E+01  0.20438050882E+02  0.00000000000E+00 0.  1.
</event>
<event>
 7    1  0.2744502E-011  0.5052888E+02  0.7816164E-02  0.1300439E+00
        -11   -1    0    0    0    0  0.00000000000E+00  0.00000000000E+00  0.45593999997E+02  0.45594000000E+02  0.51100000000E-03 0. -1.
         11   -1    0    0    0    0 -0.00000000000E+00 -0.00000000000E+00 -0.45593999997E+02  0.45594000000E+02  0.51100000000E-03 0.  1.
    9900012    2    1    2    0    0  0.40381151518E+02  0.43579556077E+01 -0.18801520177E+01  0.50528878678E+02  0.30000057231E+02 0.  0.
         12    1    1    2    0    0 -0.40381151518E+02 -0.43579556077E+01  0.18801520177E+01  0.40659121322E+02  0.00000000000E+00 0. -1.
         11    1    3    3    0    0  0.15685450554E+01 -0.10311216843E+01  0.56529056016E+01  0.59564156605E+01  0.51100000000E-03 0. -1.
        -11    1    3    3    0    0  0.11994962035E+02 -0.65229761304E+01 -0.67176081527E+01  0.15216917933E+02  0.51100000000E-03 0.  1.
        -12    1    3    3    0    0  0.26817644428E+02  0.11912053422E+02 -0.81544946656E+00  0.29355545085E+02  0.00000000000E+00 0.  1.
</event>
<event>
 7    1  0.3971539E-011  0.5052887E+02  0.7816164E-02  0.1300439E+00
        -11   -1    0    0    0    0  0.00000000000E+00  0.00000000000E+00  0.45593999997E+02  0.45594000000E+02  0.51100000000E-03 0. -1.
         11   -1    0    0    0    0 -0.00000000000E+00 -0.00000000000E+00 -0.45593999997E+02  0.45594000000E+02  0.51100000000E-03 0.  1.
    9900012    2    1    2    0    0  0.28077236070E+02  0.15882488511E+02 -0.24750365895E+02  0.50528865250E+02  0.30000016415E+02 0.  0.
         12    1    1    2    0    0 -0.28077236070E+02 -0.15882488511E+02  0.24750365895E+02  0.40659134750E+02  0.00000000000E+00 0. -1.
         11    1    3    3    0    0  0.88995439974E+01  0.14994162681E+02 -0.96000546019E+01  0.19904468003E+02  0.51100000000E-03 0.  1.
        -11    1    3    3    0    0  0.22873963943E+02  0.11806896087E+01 -0.12905904407E+02  0.26290200137E+02  0.51100000000E-03 0. -1.
         12    1    3    3    0    0 -0.36962718702E+01 -0.29236377894E+00 -0.22444068866E+01  0.43341971102E+01  0.00000000000E+00 0. -1.
</event>
<event>
 7    1  0.2744502E-011  0.5052887E+02  0.7816164E-02  0.1300439E+00
        -11   -1    0    0    0    0  0.00000000000E+00  0.00000000000E+00  0.45593999997E+02  0.45594000000E+02  0.51100000000E-03 0. -1.
         11   -1    0    0    0    0 -0.00000000000E+00 -0.00000000000E+00 -0.45593999997E+02  0.45594000000E+02  0.51100000000E-03 0.  1.
    9900012    2    1    2    0    0  0.29161741977E+02  0.26591471146E+02  0.97801390433E+01  0.50528872457E+02  0.30000038321E+02 0.  0.
         12    1    1    2    0    0 -0.29161741977E+02 -0.26591471146E+02 -0.97801390433E+01  0.40659127543E+02  0.00000000000E+00 0. -1.
         11    1    3    3    0    0  0.19155145421E+02  0.18797065877E+02  0.13164507664E+02  0.29892365982E+02  0.51100000000E-03 0. -1.
        -11    1    3    3    0    0  0.80199970098E+01  0.11750171155E+02 -0.60610058019E+01  0.15463591620E+02  0.51100000000E-03 0.  1.
        -12    1    3    3    0    0  0.19865995458E+01 -0.39557658859E+01  0.26766371816E+01  0.51729148554E+01  0.00000000000E+00 0.  1.
</event>
<event>
 7    1  0.2744502E-011  0.5052887E+02  0.7816164E-02  0.1300439E+00
        -11   -1    0    0    0    0  0.00000000000E+00  0.00000000000E+00  0.45593999997E+02  0.45594000000E+02  0.51100000000E-03 0. -1.
         11   -1    0    0    0    0 -0.00000000000E+00 -0.00000000000E+00 -0.45593999997E+02  0.45594000000E+02  0.51100000000E-03 0.  1.
    9900012    2    1    2    0    0 -0.21590528026E+02 -0.22420860017E+02 -0.26159496536E+02  0.50528866667E+02  0.30000020721E+02 0.  0.
         12    1    1    2    0    0  0.21590528026E+02  0.22420860017E+02  0.26159496536E+02  0.40659133333E+02  0.00000000000E+00 0. -1.
         11    1    3    3    0    0  0.23427852243E+01 -0.11773894179E+02 -0.11170095581E+02  0.16397690761E+02  0.51100000000E-03 0. -1.
        -11    1    3    3    0    0 -0.22054052989E+01 -0.60871692906E+01 -0.90891561716E+01  0.11159310134E+02  0.51100000000E-03 0.  1.
        -12    1    3    3    0    0 -0.21727907952E+02 -0.45597965475E+01 -0.59002447831E+01  0.22971865771E+02  0.00000000000E+00 0.  1.
</event>
<event>
 7    1  0.2744502E-011  0.5052887E+02  0.7816164E-02  0.1300439E+00
        -11   -1    0    0    0    0  0.00000000000E+00  0.00000000000E+00  0.45593999997E+02  0.45594000000E+02  0.51100000000E-03 0.  1.
         11   -1    0    0    0    0 -0.00000000000E+00 -0.00000000000E+00 -0.45593999997E+02  0.45594000000E+02  0.51100000000E-03 0. -1.
    9900012    2    1    2    0    0  0.34938139835E+01 -0.17418057771E+02  0.36572800460E+02  0.50528865649E+02  0.30000017628E+02 0.  0.
         12    1    1    2    0    0 -0.34938139835E+01  0.17418057771E+02 -0.36572800460E+02  0.40659134351E+02  0.00000000000E+00 0. -1.
         11    1    3    3    0    0  0.42628053136E+00 -0.12512956673E+01  0.15244157710E+02  0.15301365968E+02  0.51100000000E-03 0. -1.
        -11    1    3    3    0    0  0.56542168301E+01 -0.73923209379E+01  0.23963923355E+02  0.25707707009E+02  0.51100000000E-03 0.  1.
        -12    1    3    3    0    0 -0.25866833780E+01 -0.87744411659E+01 -0.26352806051E+01  0.95197926731E+01  0.00000000000E+00 0.  1.
</event>
<event>
 7    1  0.2744502E-011  0.5052887E+02  0.7816164E-02  0.1300439E+00
        -11   -1    0    0    0    0  0.00000000000E+00  0.00000000000E+00  0.45593999997E+02  0.45594000000E+02  0.51100000000E-03 0.  1.
         11   -1    0    0    0    0 -0.00000000000E+00 -0.00000000000E+00 -0.45593999997E+02  0.45594000000E+02  0.51100000000E-03 0. -1.
    9900012    2    1    2    0    0  0.29869182872E+02 -0.94716284652E+01  0.25909175534E+02  0.50528865625E+02  0.30000017555E+02 0.  0.
         12    1    1    2    0    0 -0.29869182872E+02  0.94716284652E+01 -0.25909175534E+02  0.40659134375E+02  0.00000000000E+00 0. -1.
         11    1    3    3    0    0 -0.22585135744E+01  0.40668885470E+01 -0.96666431821E+00  0.47513057347E+01  0.51100000000E-03 0. -1.
        -11    1    3    3    0    0  0.32449188226E+01 -0.55373747534E+01  0.83943218923E+01  0.10566771390E+02  0.51100000000E-03 0.  1.
         12    1    3    3    0    0  0.28882777624E+02 -0.80011422588E+01  0.18481517960E+02  0.35210788500E+02  0.00000000000E+00 0. -1.
</event>
<event>
 7    1  0.2744502E-011  0.5052888E+02  0.7816164E-02  0.1300439E+00
        -11   -1    0    0    0    0  0.00000000000E+00  0.00000000000E+00  0.45593999997E+02  0.45594000000E+02  0.51100000000E-03 0.  1.
         11   -1    0    0    0    0 -0.00000000000E+00 -0.00000000000E+00 -0.45593999997E+02  0.45594000000E+02  0.51100000000E-03 0. -1.
    9900012    2    1    2    0    0  0.43622428255E+01  0.21780708020E+02  0.34054888578E+02  0.50528882444E+02  0.30000068678E+02 0.  0.
         12    1    1    2    0    0 -0.43622428255E+01 -0.21780708020E+02 -0.34054888578E+02  0.40659117556E+02  0.00000000000E+00 0. -1.
         11    1    3    3    0    0 -0.44603103379E+01  0.12216808320E+02  0.13044502964E+02  0.18420201727E+02  0.51100000000E-03 0. -1.
        -11    1    3    3    0    0  0.13215125082E+02  0.59981089523E+01  0.22009426306E+02  0.26363453653E+02  0.51100000000E-03 0.  1.
         12    1    3    3    0    0 -0.43925719184E+01  0.35657907479E+01 -0.99904069161E+00  0.57452270643E+01  0.00000000000E+00 0. -1.
</event>
<event>
 7    1  0.2744502E-011  0.5052888E+02  0.7816164E-02  0.1300439E+00
        -11   -1    0    0    0    0  0.00000000000E+00  0.00000000000E+00  0.45593999997E+02  0.45594000000E+02  0.51100000000E-03 0.  1.
         11   -1    0    0    0    0 -0.00000000000E+00 -0.00000000000E+00 -0.45593999997E+02  0.45594000000E+02  0.51100000000E-03 0. -1.
    9900012    2    1    2    0    0  0.29249609616E+02  0.53916560618E+01  0.27722820095E+02  0.50528875909E+02  0.30000048814E+02 0.  0.
         12    1    1    2    0    0 -0.29249609616E+02 -0.53916560618E+01 -0.27722820095E+02  0.40659124091E+02  0.00000000000E+00 0. -1.
         11    1    3    3    0    0  0.50770885934E+01 -0.31437124150E+01 -0.32431248966E+01  0.67954113702E+01  0.51100000000E-03 0. -1.
        -11    1    3    3    0    0 -0.27149008165E+01  0.80840528191E+00  0.20289129375E+01  0.34843497977E+01  0.51100000000E-03 0.  1.
         12    1    3    3    0    0  0.26887421840E+02  0.77269631949E+01  0.28937032054E+02  0.40249114742E+02  0.00000000000E+00 0. -1.
</event>
<event>
 7    1  0.2744502E-011  0.5052886E+02  0.7816164E-02  0.1300439E+00
        -11   -1    0    0    0    0  0.00000000000E+00  0.00000000000E+00  0.45593999997E+02  0.45594000000E+02  0.51100000000E-03 0.  1.
         11   -1    0    0    0    0 -0.00000000000E+00 -0.00000000000E+00 -0.45593999997E+02  0.45594000000E+02  0.51100000000E-03 0. -1.
    9900012    2    1    2    0    0  0.20748636805E+02  0.85309028771E+01  0.33909928348E+02  0.50528862359E+02  0.30000007626E+02 0.  0.
         12    1    1    2    0    0 -0.20748636805E+02 -0.85309028771E+01 -0.33909928348E+02  0.40659137641E+02  0.00000000000E+00 0. -1.
         11    1    3    3    0    0  0.64500717095E+01  0.76658338841E+01  0.12033110212E+02  0.15657719369E+02  0.51100000000E-03 0. -1.
        -11    1    3    3    0    0  0.11932057568E+02  0.35808983003E+01  0.26338904923E+02  0.29136484744E+02  0.51100000000E-03 0.  1.
         12    1    3    3    0    0  0.23665075273E+01 -0.27158293073E+01 -0.44620867872E+01  0.57346582461E+01  0.00000000000E+00 0. -1.
</event>
<event>
 7    1  0.2744502E-011  0.5052886E+02  0.7816164E-02  0.1300439E+00
        -11   -1    0    0    0    0  0.00000000000E+00  0.00000000000E+00  0.45593999997E+02  0.45594000000E+02  0.51100000000E-03 0. -1.
         11   -1    0    0    0    0 -0.00000000000E+00 -0.00000000000E+00 -0.45593999997E+02  0.45594000000E+02  0.51100000000E-03 0.  1.
    9900012    2    1    2    0    0  0.27771802933E+02 -0.78016641679E+01 -0.28653567048E+02  0.50528857037E+02  0.29999991449E+02 0.  0.
         12    1    1    2    0    0 -0.27771802933E+02  0.78016641679E+01  0.28653567048E+02  0.40659142963E+02  0.00000000000E+00 0. -1.
         11    1    3    3    0    0 -0.16237860637E+01  0.60358348482E+01 -0.19814944224E+01  0.65570041865E+01  0.51100000000E-03 0. -1.
        -11    1    3    3    0    0  0.49265227928E+01  0.17423011352E+01 -0.77173023794E+01  0.93200319930E+01  0.51100000000E-03 0.  1.
        -12    1    3    3    0    0  0.24469066204E+02 -0.15579800151E+02 -0.18954770246E+02  0.34651820857E+02  0.00000000000E+00 0.  1.
</event>
<event>
 7    1  0.2744502E-011  0.5052886E+02  0.7816164E-02  0.1300439E+00
        -11   -1    0    0    0    0  0.00000000000E+00  0.00000000000E+00  0.45593999997E+02  0.45594000000E+02  0.51100000000E-03 0.  1.
         11   -1    0    0    0    0 -0.00000000000E+00 -0.00000000000E+00 -0.45593999997E+02  0.45594000000E+02  0.51100000000E-03 0. -1.
    9900012    2    1    2    0    0  0.43336553142E+01 -0.22482421536E+02  0.33599492486E+02  0.50528859062E+02  0.29999997606E+02 0.  0.
         12    1    1    2    0    0 -0.43336553142E+01  0.22482421536E+02 -0.33599492486E+02  0.40659140938E+02  0.00000000000E+00 0. -1.
         11    1    3    3    0    0  0.47585417921E+01  0.16136591528E+01  0.94536275077E+01  0.10706011823E+02  0.51100000000E-03 0. -1.
        -11    1    3    3    0    0  0.41697638542E+01 -0.13224415439E+02  0.24346670976E+02  0.28018431115E+02  0.51100000000E-03 0.  1.
        -12    1    3    3    0    0 -0.45946503320E+01 -0.10871665250E+02 -0.20080599799E+00  0.11804416124E+02  0.00000000000E+00 0.  1.
</event>
<event>
 7    1  0.2744502E-011  0.5052886E+02  0.7816164E-02  0.1300439E+00
        -11   -1    0    0    0    0  0.00000000000E+00  0.00000000000E+00  0.45593999997E+02  0.45594000000E+02  0.51100000000E-03 0.  1.
         11   -1    0    0    0    0 -0.00000000000E+00 -0.00000000000E+00 -0.45593999997E+02  0.45594000000E+02  0.51100000000E-03 0. -1.
    9900012    2    1    2    0    0  0.34269670951E+02  0.12874539345E+02  0.17691854318E+02  0.50528858105E+02  0.29999994696E+02 0.  0.
         12    1    1    2    0    0 -0.34269670951E+02 -0.12874539345E+02 -0.17691854318E+02  0.40659141895E+02  0.00000000000E+00 0. -1.
         11    1    3    3    0    0  0.74722430954E+01  0.62062184739E+01 -0.39679773391E+01  0.10492683596E+02  0.51100000000E-03 0. -1.
        -11    1    3    3    0    0  0.11504533962E+02  0.12155538170E+02  0.69610207021E+01  0.18126423237E+02  0.51100000000E-03 0.  1.
        -12    1    3    3    0    0  0.15292893894E+02 -0.54872172993E+01  0.14698810955E+02  0.21909751272E+02  0.00000000000E+00 0.  1.
</event>
<event>
 7    1  0.2744502E-011  0.5052886E+02  0.7816164E-02  0.1300439E+00
        -11   -1    0    0    0    0  0.00000000000E+00  0.00000000000E+00  0.45593999997E+02  0.45594000000E+02  0.51100000000E-03 0. -1.
         11   -1    0    0    0    0 -0.00000000000E+00 -0.00000000000E+00 -0.45593999997E+02  0.45594000000E+02  0.51100000000E-03 0.  1.
    9900012    2    1    2    0    0  0.34621623959E+02  0.21315407813E+02 -0.40298546533E+00  0.50528857694E+02  0.29999993446E+02 0.  0.
         12    1    1    2    0    0 -0.34621623959E+02 -0.21315407813E+02  0.40298546533E+00  0.40659142306E+02  0.00000000000E+00 0. -1.
         11    1    3    3    0    0  0.17988737210E+02  0.27210739430E+01  0.55346395617E+01  0.19016601829E+02  0.51100000000E-03 0. -1.
        -11    1    3    3    0    0  0.15818569472E+02  0.10711641887E+02 -0.11061512538E+02  0.22075404231E+02  0.51100000000E-03 0.  1.
        -12    1    3    3    0    0  0.81431727730E+00  0.78826919831E+01  0.51238875112E+01  0.94368516337E+01  0.00000000000E+00 0.  1.
</event>
<event>
 7    1  0.2744502E-011  0.5052886E+02  0.7816164E-02  0.1300439E+00
        -11   -1    0    0    0    0  0.00000000000E+00  0.00000000000E+00  0.45593999997E+02  0.45594000000E+02  0.51100000000E-03 0.  1.
         11   -1    0    0    0    0 -0.00000000000E+00 -0.00000000000E+00 -0.45593999997E+02  0.45594000000E+02  0.51100000000E-03 0. -1.
    9900012    2    1    2    0    0 -0.35388180696E+02 -0.18514026030E+02  0.76205503462E+01  0.50528864736E+02  0.30000014853E+02 0.  0.
         12    1    1    2    0    0  0.35388180696E+02  0.18514026030E+02 -0.76205503462E+01  0.40659135264E+02  0.00000000000E+00 0. -1.
         11    1    3    3    0    0 -0.56310396463E+01 -0.12681362273E+02  0.90812314982E+01  0.16582952765E+02  0.51100000000E-03 0. -1.
        -11    1    3    3    0    0 -0.61429533697E+01 -0.52247977976E+01  0.49590089326E+01  0.94671092728E+01  0.51100000000E-03 0.  1.
         12    1    3    3    0    0 -0.23614187680E+02 -0.60786595909E+00 -0.64196900846E+01  0.24478802699E+02  0.00000000000E+00 0. -1.
</event>
<event>
 7    1  0.2744502E-011  0.5052886E+02  0.7816164E-02  0.1300439E+00
        -11   -1    0    0    0    0  0.00000000000E+00  0.00000000000E+00  0.45593999997E+02  0.45594000000E+02  0.51100000000E-03 0.  1.
         11   -1    0    0    0    0 -0.00000000000E+00 -0.00000000000E+00 -0.45593999997E+02  0.45594000000E+02  0.51100000000E-03 0. -1.
    9900012    2    1    2    0    0 -0.34006362980E+02 -0.13635636600E+02  0.17629593611E+02  0.50528857369E+02  0.29999992459E+02 0.  0.
         12    1    1    2    0    0  0.34006362980E+02  0.13635636600E+02 -0.17629593611E+02  0.40659142631E+02  0.00000000000E+00 0. -1.
         11    1    3    3    0    0 -0.10092252526E+02 -0.52599480872E+01  0.89449190869E+01  0.14475226860E+02  0.51100000000E-03 0. -1.
        -11    1    3    3    0    0 -0.25802407968E+02 -0.36613223198E+00  0.10085952420E+02  0.27706041692E+02  0.51100000000E-03 0.  1.
         12    1    3    3    0    0  0.18882975137E+01 -0.80095562808E+01 -0.14012778957E+01  0.83475888170E+01  0.00000000000E+00 0. -1.
</event>
<event>
 7    1  0.2744502E-011  0.5052885E+02  0.7816164E-02  0.1300439E+00
        -11   -1    0    0    0    0  0.00000000000E+00  0.00000000000E+00  0.45593999997E+02  0.45594000000E+02  0.51100000000E-03 0.  1.
         11   -1    0    0    0    0 -0.00000000000E+00 -0.00000000000E+00 -0.45593999997E+02  0.45594000000E+02  0.51100000000E-03 0. -1.
    9900012    2    1    2    0    0  0.47093048747E+01 -0.25296637518E+02  0.31481247955E+02  0.50528851030E+02  0.29999973192E+02 0.  0.
         12    1    1    2    0    0 -0.47093048747E+01  0.25296637518E+02 -0.31481247955E+02  0.40659148970E+02  0.00000000000E+00 0. -1.
         11    1    3    3    0    0 -0.78310705338E+01 -0.94925063295E+01  0.72910054803E+01  0.14303569600E+02  0.51100000000E-03 0. -1.
        -11    1    3    3    0    0  0.26108994018E+01 -0.67247457111E+01  0.21266304542E+02  0.22456507068E+02  0.51100000000E-03 0.  1.
        -12    1    3    3    0    0  0.99294760067E+01 -0.90793854773E+01  0.29239379333E+01  0.13768774363E+02  0.00000000000E+00 0.  1.
</event>
<event>
 7    1  0.2744502E-011  0.5052883E+02  0.7816164E-02  0.1300439E+00
        -11   -1    0    0    0    0  0.00000000000E+00  0.00000000000E+00  0.45593999997E+02  0.45594000000E+02  0.51100000000E-03 0.  1.
         11   -1    0    0    0    0 -0.00000000000E+00 -0.00000000000E+00 -0.45593999997E+02  0.45594000000E+02  0.51100000000E-03 0. -1.
    9900012    2    1    2    0    0  0.10977573478E+02  0.16636962507E+02  0.35438288067E+02  0.50528832497E+02  0.29999916858E+02 0.  0.
         12    1    1    2    0    0 -0.10977573478E+02 -0.16636962507E+02 -0.35438288067E+02  0.40659167503E+02  0.00000000000E+00 0. -1.
         11    1    3    3    0    0  0.13513587957E+02  0.71475772801E+01  0.33390032285E+01  0.15647806980E+02  0.51100000000E-03 0. -1.
        -11    1    3    3    0    0 -0.89117734116E+00  0.43377136705E+01  0.31584809478E+01  0.54392976660E+01  0.51100000000E-03 0.  1.
        -12    1    3    3    0    0 -0.16448371382E+01  0.51516715561E+01  0.28940803891E+02  0.29441727851E+02  0.00000000000E+00 0.  1.
</event>
<event>
 7    1  0.2744502E-011  0.5052886E+02  0.7816164E-02  0.1300439E+00
        -11   -1    0    0    0    0  0.00000000000E+00  0.00000000000E+00  0.45593999997E+02  0.45594000000E+02  0.51100000000E-03 0.  1.
         11   -1    0    0    0    0 -0.00000000000E+00 -0.00000000000E+00 -0.45593999997E+02  0.45594000000E+02  0.51100000000E-03 0. -1.
    9900012    2    1    2    0    0 -0.47287632587E+01  0.23069938305E+02  0.33144870874E+02  0.50528859323E+02  0.29999998398E+02 0.  0.
         12    1    1    2    0    0  0.47287632587E+01 -0.23069938305E+02 -0.33144870874E+02  0.40659140677E+02  0.00000000000E+00 0. -1.
         11    1    3    3    0    0 -0.61461620543E+00  0.26391931353E+01  0.63641547771E+01  0.69170484871E+01  0.51100000000E-03 0. -1.
        -11    1    3    3    0    0  0.98330867977E+01  0.17198915881E+02  0.18310016188E+02  0.26976823322E+02  0.51100000000E-03 0.  1.
         12    1    3    3    0    0 -0.13947233851E+02  0.32318292883E+01  0.84706999091E+01  0.16634987514E+02  0.00000000000E+00 0. -1.
</event>
<event>
 7    1  0.2744502E-011  0.5052885E+02  0.7816164E-02  0.1300439E+00
        -11   -1    0    0    0    0  0.00000000000E+00  0.00000000000E+00  0.45593999997E+02  0.45594000000E+02  0.51100000000E-03 0.  1.
         11   -1    0    0    0    0 -0.00000000000E+00 -0.00000000000E+00 -0.45593999997E+02  0.45594000000E+02  0.51100000000E-03 0. -1.
    9900012    2    1    2    0    0 -0.35051289980E+01 -0.14719320791E+02  0.37738869030E+02  0.50528848884E+02  0.29999966667E+02 0.  0.
         12    1    1    2    0    0  0.35051289980E+01  0.14719320791E+02 -0.37738869030E+02  0.40659151116E+02  0.00000000000E+00 0. -1.
         11    1    3    3    0    0  0.17946451083E+01 -0.46427630113E+01 -0.11904488637E+01  0.51179261622E+01  0.51100000000E-03 0. -1.
        -11    1    3    3    0    0  0.75652956981E+01 -0.26832574240E+01  0.93832312221E+01  0.12348222456E+02  0.51100000000E-03 0.  1.
        -12    1    3    3    0    0 -0.12865069804E+02 -0.73933003552E+01  0.29546086672E+02  0.33062700265E+02  0.00000000000E+00 0.  1.
</event>
<event>
 7    1  0.2744502E-011  0.5052886E+02  0.7816164E-02  0.1300439E+00
        -11   -1    0    0    0    0  0.00000000000E+00  0.00000000000E+00  0.45593999997E+02  0.45594000000E+02  0.51100000000E-03 0. -1.
         11   -1    0    0    0    0 -0.00000000000E+00 -0.00000000000E+00 -0.45593999997E+02  0.45594000000E+02  0.51100000000E-03 0.  1.
    9900012    2    1    2    0    0 -0.13636335039E+02  0.26863148395E+02 -0.27305449948E+02  0.50528856233E+02  0.29999989007E+02 0.  0.
         12    1    1    2    0    0  0.13636335039E+02 -0.26863148395E+02  0.27305449948E+02  0.40659143767E+02  0.00000000000E+00 0. -1.
         11    1    3    3    0    0 -0.57358592115E+01  0.13607268742E+02 -0.26670679905E+02  0.30485783742E+02  0.51100000000E-03 0.  1.
        -11    1    3    3    0    0  0.22727751949E+01  0.83036186658E+01  0.76150847719E+00  0.86426550004E+01  0.51100000000E-03 0. -1.
        -12    1    3    3    0    0 -0.10173251023E+02  0.49522609875E+01 -0.13962785195E+01  0.11400417491E+02  0.00000000000E+00 0.  1.
</event>
<event>
 7    1  0.2744502E-011  0.5052886E+02  0.7816164E-02  0.1300439E+00
        -11   -1    0    0    0    0  0.00000000000E+00  0.00000000000E+00  0.45593999997E+02  0.45594000000E+02  0.51100000000E-03 0.  1.
         11   -1    0    0    0    0 -0.00000000000E+00 -0.00000000000E+00 -0.45593999997E+02  0.45594000000E+02  0.51100000000E-03 0. -1.
    9900012    2    1    2    0    0  0.25911724918E+02  0.21916007210E+02  0.22392783778E+02  0.50528860491E+02  0.30000001949E+02 0.  0.
         12    1    1    2    0    0 -0.25911724918E+02 -0.21916007210E+02 -0.22392783778E+02  0.40659139509E+02  0.00000000000E+00 0. -1.
         11    1    3    3    0    0  0.12339783767E+02 -0.20501168861E+01  0.72094778516E+01  0.14437791169E+02  0.51100000000E-03 0. -1.
        -11    1    3    3    0    0  0.96108070392E+01  0.39901147910E+01  0.11295576522E+02  0.15358342268E+02  0.51100000000E-03 0.  1.
        -12    1    3    3    0    0  0.39611341113E+01  0.19976009305E+02  0.38877294043E+01  0.20732727055E+02  0.00000000000E+00 0.  1.
</event>
<event>
 7    1  0.2744502E-011  0.5052886E+02  0.7816164E-02  0.1300439E+00
        -11   -1    0    0    0    0  0.00000000000E+00  0.00000000000E+00  0.45593999997E+02  0.45594000000E+02  0.51100000000E-03 0. -1.
         11   -1    0    0    0    0 -0.00000000000E+00 -0.00000000000E+00 -0.45593999997E+02  0.45594000000E+02  0.51100000000E-03 0.  1.
    9900012    2    1    2    0    0 -0.28692927413E+02  0.20536950845E+01 -0.28734364777E+02  0.50528862452E+02  0.30000007908E+02 0.  0.
         12    1    1    2    0    0  0.28692927413E+02 -0.20536950845E+01  0.28734364777E+02  0.40659137548E+02  0.00000000000E+00 0. -1.
         11    1    3    3    0    0 -0.85590738253E+00  0.54027631523E+01 -0.12034140709E+01  0.56009492779E+01  0.51100000000E-03 0. -1.
        -11    1    3    3    0    0 -0.29047380843E+01  0.11518699808E+01  0.36153320404E+01  0.47785911955E+01  0.51100000000E-03 0.  1.
        -12    1    3    3    0    0 -0.24932281946E+02 -0.45009380486E+01 -0.31146282747E+02  0.40149321978E+02  0.00000000000E+00 0.  1.
</event>
<event>
 7    1  0.2744502E-011  0.5052886E+02  0.7816164E-02  0.1300439E+00
        -11   -1    0    0    0    0  0.00000000000E+00  0.00000000000E+00  0.45593999997E+02  0.45594000000E+02  0.51100000000E-03 0.  1.
         11   -1    0    0    0    0 -0.00000000000E+00 -0.00000000000E+00 -0.45593999997E+02  0.45594000000E+02  0.51100000000E-03 0. -1.
    9900012    2    1    2    0    0 -0.14365773462E+02  0.48010127970E+01  0.37732484136E+02  0.50528861666E+02  0.30000005519E+02 0.  0.
         12    1    1    2    0    0  0.14365773462E+02 -0.48010127970E+01 -0.37732484136E+02  0.40659138334E+02  0.00000000000E+00 0. -1.
         11    1    3    3    0    0  0.46529666042E+01 -0.34316870894E+01  0.21322480158E+01  0.61622281978E+01  0.51100000000E-03 0. -1.
        -11    1    3    3    0    0  0.28600926558E+01  0.21703832157E+01  0.32366294455E+01  0.48338870209E+01  0.51100000000E-03 0.  1.
         12    1    3    3    0    0 -0.21878832722E+02  0.60623166707E+01  0.32363606674E+02  0.39532746447E+02  0.00000000000E+00 0. -1.
</event>
<event>
 7    1  0.2744502E-011  0.5052885E+02  0.7816164E-02  0.1300439E+00
        -11   -1    0    0    0    0  0.00000000000E+00  0.00000000000E+00  0.45593999997E+02  0.45594000000E+02  0.51100000000E-03 0.  1.
         11   -1    0    0    0    0 -0.00000000000E+00 -0.00000000000E+00 -0.45593999997E+02  0.45594000000E+02  0.51100000000E-03 0. -1.
    9900012    2    1    2    0    0  0.40015991098E+02 -0.65518966926E+01 -0.29932079293E+01  0.50528853581E+02  0.29999980943E+02 0.  0.
         12    1    1    2    0    0 -0.40015991098E+02  0.65518966926E+01  0.29932079293E+01  0.40659146419E+02  0.00000000000E+00 0. -1.
         11    1    3    3    0    0  0.15677441308E+02 -0.92416647665E+00 -0.93370224349E+01  0.18270638682E+02  0.51100000000E-03 0. -1.
        -11    1    3    3    0    0  0.23844930218E+02 -0.10229406370E+02  0.82884212567E+01  0.27238197058E+02  0.51100000000E-03 0.  1.
         12    1    3    3    0    0  0.49361957257E+00  0.46016761536E+01 -0.19446067512E+01  0.50200178408E+01  0.00000000000E+00 0. -1.
</event>
<event>
 7    1  0.2744502E-011  0.5052885E+02  0.7816164E-02  0.1300439E+00
        -11   -1    0    0    0    0  0.00000000000E+00  0.00000000000E+00  0.45593999997E+02  0.45594000000E+02  0.51100000000E-03 0.  1.
         11   -1    0    0    0    0 -0.00000000000E+00 -0.00000000000E+00 -0.45593999997E+02  0.45594000000E+02  0.51100000000E-03 0. -1.
    9900012    2    1    2    0    0  0.10960490422E+02  0.12421907283E+02  0.37131253848E+02  0.50528854127E+02  0.29999982603E+02 0.  0.
         12    1    1    2    0    0 -0.10960490422E+02 -0.12421907283E+02 -0.37131253848E+02  0.40659145873E+02  0.00000000000E+00 0. -1.
         11    1    3    3    0    0  0.12904984543E+02 -0.14310419765E+01  0.16856939950E+02  0.21277756741E+02  0.51100000000E-03 0. -1.
        -11    1    3    3    0    0  0.67207655452E+01  0.69020965018E+01  0.12059568435E+02  0.15435051563E+02  0.51100000000E-03 0.  1.
         12    1    3    3    0    0 -0.86652596669E+01  0.69508527576E+01  0.82147454631E+01  0.13816045823E+02  0.00000000000E+00 0. -1.
</event>
<event>
 7    1  0.2744502E-011  0.5052886E+02  0.7816164E-02  0.1300439E+00
        -11   -1    0    0    0    0  0.00000000000E+00  0.00000000000E+00  0.45593999997E+02  0.45594000000E+02  0.51100000000E-03 0.  1.
         11   -1    0    0    0    0 -0.00000000000E+00 -0.00000000000E+00 -0.45593999997E+02  0.45594000000E+02  0.51100000000E-03 0. -1.
    9900012    2    1    2    0    0 -0.28439332711E+02 -0.24858375519E+02  0.15047632710E+02  0.50528859223E+02  0.29999998094E+02 0.  0.
         12    1    1    2    0    0  0.28439332711E+02  0.24858375519E+02 -0.15047632710E+02  0.40659140777E+02  0.00000000000E+00 0. -1.
         11    1    3    3    0    0 -0.76532059203E+01 -0.12742827476E+02 -0.35510365736E+01  0.15282705060E+02  0.51100000000E-03 0. -1.
        -11    1    3    3    0    0 -0.12319848025E+02 -0.42343955928E+00  0.83325050675E+00  0.12355252450E+02  0.51100000000E-03 0.  1.
         12    1    3    3    0    0 -0.84662787660E+01 -0.11692108485E+02  0.17765418777E+02  0.22890901714E+02  0.00000000000E+00 0. -1.
</event>
<event>
 7    1  0.2744502E-011  0.5052886E+02  0.7816164E-02  0.1300439E+00
        -11   -1    0    0    0    0  0.00000000000E+00  0.00000000000E+00  0.45593999997E+02  0.45594000000E+02  0.51100000000E-03 0.  1.
         11   -1    0    0    0    0 -0.00000000000E+00 -0.00000000000E+00 -0.45593999997E+02  0.45594000000E+02  0.51100000000E-03 0. -1.
    9900012    2    1    2    0    0  0.39102939873E+01 -0.89487066603E+01  0.39468923716E+02  0.50528859709E+02  0.29999999571E+02 0.  0.
         12    1    1    2    0    0 -0.39102939873E+01  0.89487066603E+01 -0.39468923716E+02  0.40659140291E+02  0.00000000000E+00 0. -1.
         11    1    3    3    0    0  0.32957489018E+01 -0.73546027252E+00  0.42581388469E+01  0.54345753594E+01  0.51100000000E-03 0. -1.
        -11    1    3    3    0    0 -0.11970395882E+02 -0.35097676621E+01  0.82042468512E+01  0.14930455896E+02  0.51100000000E-03 0.  1.
        -12    1    3    3    0    0  0.12584940967E+02 -0.47034787257E+01  0.27006538017E+02  0.30163828453E+02  0.00000000000E+00 0.  1.
</event>
<event>
 7    1  0.2744502E-011  0.5052886E+02  0.7816164E-02  0.1300439E+00
        -11   -1    0    0    0    0  0.00000000000E+00  0.00000000000E+00  0.45593999997E+02  0.45594000000E+02  0.51100000000E-03 0.  1.
         11   -1    0    0    0    0 -0.00000000000E+00 -0.00000000000E+00 -0.45593999997E+02  0.45594000000E+02  0.51100000000E-03 0. -1.
    9900012    2    1    2    0    0  0.30636717168E+02 -0.24805908548E+02  0.99611133445E+01  0.50528864289E+02  0.30000013492E+02 0.  0.
         12    1    1    2    0    0 -0.30636717168E+02  0.24805908548E+02 -0.99611133445E+01  0.40659135711E+02  0.00000000000E+00 0. -1.
         11    1    3    3    0    0  0.12859922945E+02 -0.22258154962E+02  0.35298935739E+01  0.25947316419E+02  0.51100000000E-03 0. -1.
        -11    1    3    3    0    0  0.11662505002E+02 -0.79726039324E+01 -0.86092902968E-01  0.14127414790E+02  0.51100000000E-03 0.  1.
         12    1    3    3    0    0  0.61142892211E+01  0.54248503468E+01  0.65173126735E+01  0.10454133080E+02  0.00000000000E+00 0. -1.
</event>
<event>
 7    1  0.2744502E-011  0.5052890E+02  0.7816164E-02  0.1300439E+00
        -11   -1    0    0    0    0  0.00000000000E+00  0.00000000000E+00  0.45593999997E+02  0.45594000000E+02  0.51100000000E-03 0.  1.
         11   -1    0    0    0    0 -0.00000000000E+00 -0.00000000000E+00 -0.45593999997E+02  0.45594000000E+02  0.51100000000E-03 0. -1.
    9900012    2    1    2    0    0 -0.71344400121E+01 -0.23808715245E+02  0.32177747265E+02  0.50528898006E+02  0.30000115978E+02 0.  0.
         12    1    1    2    0    0  0.71344400121E+01  0.23808715245E+02 -0.32177747265E+02  0.40659101994E+02  0.00000000000E+00 0. -1.
         11    1    3    3    0    0 -0.45383275672E+01 -0.23188454972E+01  0.22429323549E+02  0.23001043817E+02  0.51100000000E-03 0. -1.
        -11    1    3    3    0    0  0.47390223795E+01 -0.48558988023E+01  0.57960742082E+01  0.89237079054E+01  0.51100000000E-03 0.  1.
         12    1    3    3    0    0 -0.73351348244E+01 -0.16633970946E+02  0.39523495082E+01  0.18604146284E+02  0.00000000000E+00 0. -1.
</event>
<event>
 7    1  0.2744502E-011  0.5052883E+02  0.7816164E-02  0.1300439E+00
        -11   -1    0    0    0    0  0.00000000000E+00  0.00000000000E+00  0.45593999997E+02  0.45594000000E+02  0.51100000000E-03 0.  1.
         11   -1    0    0    0    0 -0.00000000000E+00 -0.00000000000E+00 -0.45593999997E+02  0.45594000000E+02  0.51100000000E-03 0. -1.
    9900012    2    1    2    0    0  0.39625089070E+02  0.70482131482E+01  0.57743267394E+01  0.50528833239E+02  0.29999919114E+02 0.  0.
         12    1    1    2    0    0 -0.39625089070E+02 -0.70482131482E+01 -0.57743267394E+01  0.40659166761E+02  0.00000000000E+00 0. -1.
         11    1    3    3    0    0  0.71271286487E+01  0.68233625350E+01  0.38672787453E+01  0.10597645220E+02  0.51100000000E-03 0. -1.
        -11    1    3    3    0    0  0.11242496007E+02  0.11276389779E+02  0.10858238324E+01  0.15960253650E+02  0.51100000000E-03 0.  1.
        -12    1    3    3    0    0  0.21255464414E+02 -0.11051539166E+02  0.82122416176E+00  0.23970934369E+02  0.00000000000E+00 0.  1.
</event>
<event>
 7    1  0.2744502E-011  0.5052886E+02  0.7816164E-02  0.1300439E+00
        -11   -1    0    0    0    0  0.00000000000E+00  0.00000000000E+00  0.45593999997E+02  0.45594000000E+02  0.51100000000E-03 0.  1.
         11   -1    0    0    0    0 -0.00000000000E+00 -0.00000000000E+00 -0.45593999997E+02  0.45594000000E+02  0.51100000000E-03 0. -1.
    9900012    2    1    2    0    0 -0.14591309130E+02  0.92081303569E+01  0.36816699431E+02  0.50528864202E+02  0.30000013229E+02 0.  0.
         12    1    1    2    0    0  0.14591309130E+02 -0.92081303569E+01 -0.36816699431E+02  0.40659135798E+02  0.00000000000E+00 0. -1.
         11    1    3    3    0    0  0.23898181194E+01  0.20689979104E+01 -0.36042453648E+01  0.47940137576E+01  0.51100000000E-03 0. -1.
        -11    1    3    3    0    0 -0.68464247834E+01  0.11268752697E+01  0.26988542042E+02  0.27866194251E+02  0.51100000000E-03 0.  1.
        -12    1    3    3    0    0 -0.10134702466E+02  0.60122571768E+01  0.13432402754E+02  0.17868656194E+02  0.00000000000E+00 0.  1.
</event>
<event>
 7    1  0.2744502E-011  0.5052885E+02  0.7816164E-02  0.1300439E+00
        -11   -1    0    0    0    0  0.00000000000E+00  0.00000000000E+00  0.45593999997E+02  0.45594000000E+02  0.51100000000E-03 0.  1.
         11   -1    0    0    0    0 -0.00000000000E+00 -0.00000000000E+00 -0.45593999997E+02  0.45594000000E+02  0.51100000000E-03 0. -1.
    9900012    2    1    2    0    0  0.14347315602E+02  0.23708619661E+02  0.29752682116E+02  0.50528853374E+02  0.29999980316E+02 0.  0.
         12    1    1    2    0    0 -0.14347315602E+02 -0.23708619661E+02 -0.29752682116E+02  0.40659146626E+02  0.00000000000E+00 0. -1.
         11    1    3    3    0    0 -0.32079650013E+01  0.32906177711E+01  0.52711384438E+01  0.69931470397E+01  0.51100000000E-03 0. -1.
        -11    1    3    3    0    0 -0.52160398184E+01  0.35903540014E+01  0.97299585568E+01  0.11609039884E+02  0.51100000000E-03 0.  1.
        -12    1    3    3    0    0  0.22771320422E+02  0.16827647889E+02  0.14751585116E+02  0.31926666451E+02  0.00000000000E+00 0.  1.
</event>
<event>
 7    1  0.2744502E-011  0.5052886E+02  0.7816164E-02  0.1300439E+00
        -11   -1    0    0    0    0  0.00000000000E+00  0.00000000000E+00  0.45593999997E+02  0.45594000000E+02  0.51100000000E-03 0. -1.
         11   -1    0    0    0    0 -0.00000000000E+00 -0.00000000000E+00 -0.45593999997E+02  0.45594000000E+02  0.51100000000E-03 0.  1.
    9900012    2    1    2    0    0  0.21612289024E+02  0.34400388143E+02 -0.16394503979E+01  0.50528861558E+02  0.30000005191E+02 0.  0.
         12    1    1    2    0    0 -0.21612289024E+02 -0.34400388143E+02  0.16394503979E+01  0.40659138442E+02  0.00000000000E+00 0. -1.
         11    1    3    3    0    0  0.17868699478E+01  0.20191463808E+02  0.92636798951E+01  0.22286854430E+02  0.51100000000E-03 0. -1.
        -11    1    3    3    0    0  0.58908847991E+00  0.29683854719E+01 -0.37991057970E+01  0.48571125852E+01  0.51100000000E-03 0.  1.
        -12    1    3    3    0    0  0.19236330596E+02  0.11240538863E+02 -0.71040244960E+01  0.23384894543E+02  0.00000000000E+00 0.  1.
</event>
<event>
 7    1  0.2744502E-011  0.5052887E+02  0.7816164E-02  0.1300439E+00
        -11   -1    0    0    0    0  0.00000000000E+00  0.00000000000E+00  0.45593999997E+02  0.45594000000E+02  0.51100000000E-03 0.  1.
         11   -1    0    0    0    0 -0.00000000000E+00 -0.00000000000E+00 -0.45593999997E+02  0.45594000000E+02  0.51100000000E-03 0. -1.
    9900012    2    1    2    0    0 -0.23786196084E+02 -0.31841560533E+02 -0.85730389889E+01  0.50528866969E+02  0.30000021638E+02 0.  0.
         12    1    1    2    0    0  0.23786196084E+02  0.31841560533E+02  0.85730389889E+01  0.40659133031E+02  0.00000000000E+00 0. -1.
         11    1    3    3    0    0 -0.14760904907E+02 -0.11444029811E+02  0.14625763776E+01  0.18734707414E+02  0.51100000000E-03 0.  1.
        -11    1    3    3    0    0 -0.39175193554E+01 -0.23642486725E+02 -0.66974633476E+01  0.24883129867E+02  0.51100000000E-03 0. -1.
         12    1    3    3    0    0 -0.51077718220E+01  0.32449560020E+01 -0.33381520188E+01  0.69110296875E+01  0.00000000000E+00 0. -1.
</event>
<event>
 7    1  0.2744502E-011  0.5052886E+02  0.7816164E-02  0.1300439E+00
        -11   -1    0    0    0    0  0.00000000000E+00  0.00000000000E+00  0.45593999997E+02  0.45594000000E+02  0.51100000000E-03 0. -1.
         11   -1    0    0    0    0 -0.00000000000E+00 -0.00000000000E+00 -0.45593999997E+02  0.45594000000E+02  0.51100000000E-03 0.  1.
    9900012    2    1    2    0    0 -0.18919525743E+02 -0.35979379226E+02  0.83748923869E+00  0.50528861149E+02  0.30000003950E+02 0.  0.
         12    1    1    2    0    0  0.18919525743E+02  0.35979379226E+02 -0.83748923869E+00  0.40659138851E+02  0.00000000000E+00 0. -1.
         11    1    3    3    0    0 -0.16135544406E+00 -0.41258540790E+01  0.60063538880E+01  0.72886895083E+01  0.51100000000E-03 0. -1.
        -11    1    3    3    0    0 -0.15988044266E+02 -0.24120531498E+02  0.58229364043E+01  0.29518200958E+02  0.51100000000E-03 0.  1.
        -12    1    3    3    0    0 -0.27701260327E+01 -0.77329936498E+01 -0.10991801054E+02  0.13721970683E+02  0.00000000000E+00 0.  1.
</event>
<event>
 7    1  0.2744502E-011  0.5052885E+02  0.7816164E-02  0.1300439E+00
        -11   -1    0    0    0    0  0.00000000000E+00  0.00000000000E+00  0.45593999997E+02  0.45594000000E+02  0.51100000000E-03 0.  1.
         11   -1    0    0    0    0 -0.00000000000E+00 -0.00000000000E+00 -0.45593999997E+02  0.45594000000E+02  0.51100000000E-03 0. -1.
    9900012    2    1    2    0    0 -0.22101108488E+02  0.19514958310E+02  0.27997748619E+02  0.50528849468E+02  0.29999968444E+02 0.  0.
         12    1    1    2    0    0  0.22101108488E+02 -0.19514958310E+02 -0.27997748619E+02  0.40659150532E+02  0.00000000000E+00 0. -1.
         11    1    3    3    0    0 -0.36076599371E+01 -0.54445406806E+01  0.15011891631E+02  0.16371167462E+02  0.51100000000E-03 0.  1.
        -11    1    3    3    0    0 -0.50240817952E+01  0.96966809170E+01  0.68718294740E+01  0.12903063949E+02  0.51100000000E-03 0. -1.
        -12    1    3    3    0    0 -0.13469366755E+02  0.15262818073E+02  0.61140275139E+01  0.21254618058E+02  0.00000000000E+00 0.  1.
</event>
<event>
 7    1  0.2744502E-011  0.5052885E+02  0.7816164E-02  0.1300439E+00
        -11   -1    0    0    0    0  0.00000000000E+00  0.00000000000E+00  0.45593999997E+02  0.45594000000E+02  0.51100000000E-03 0.  1.
         11   -1    0    0    0    0 -0.00000000000E+00 -0.00000000000E+00 -0.45593999997E+02  0.45594000000E+02  0.51100000000E-03 0. -1.
    9900012    2    1    2    0    0  0.69889362459E+01  0.17096504821E+02  0.36221963203E+02  0.50528851888E+02  0.29999975798E+02 0.  0.
         12    1    1    2    0    0 -0.69889362459E+01 -0.17096504821E+02 -0.36221963203E+02  0.40659148112E+02  0.00000000000E+00 0. -1.
         11    1    3    3    0    0  0.31622443344E+00  0.61345754634E+01  0.82932307405E+01  0.10320401658E+02  0.51100000000E-03 0.  1.
        -11    1    3    3    0    0  0.27811434812E+01 -0.67859895836E+01  0.55678686891E+00  0.73548912684E+01  0.51100000000E-03 0. -1.
         12    1    3    3    0    0  0.38915683313E+01  0.17747918942E+02  0.27371945593E+02  0.32853558961E+02  0.00000000000E+00 0. -1.
</event>
<event>
 7    1  0.2744502E-011  0.5052887E+02  0.7816164E-02  0.1300439E+00
        -11   -1    0    0    0    0  0.00000000000E+00  0.00000000000E+00  0.45593999997E+02  0.45594000000E+02  0.51100000000E-03 0.  1.
         11   -1    0    0    0    0 -0.00000000000E+00 -0.00000000000E+00 -0.45593999997E+02  0.45594000000E+02  0.51100000000E-03 0. -1.
    9900012    2    1    2    0    0 -0.71142493199E+01  0.93273930944E+01  0.38930096330E+02  0.50528865656E+02  0.30000017649E+02 0.  0.
         12    1    1    2    0    0  0.71142493199E+01 -0.93273930944E+01 -0.38930096330E+02  0.40659134344E+02  0.00000000000E+00 0. -1.
         11    1    3    3    0    0  0.47076167099E+00  0.13936142592E+02  0.26476780771E+02  0.29924197686E+02  0.51100000000E-03 0. -1.
        -11    1    3    3    0    0 -0.15886968007E+01 -0.58061021789E+01  0.13138395060E+02  0.14451719796E+02  0.51100000000E-03 0.  1.
         12    1    3    3    0    0 -0.59963141902E+01  0.11973526818E+01 -0.68507950212E+00  0.61529481744E+01  0.00000000000E+00 0. -1.
</event>
<event>
 7    1  0.2744502E-011  0.5052900E+02  0.7816164E-02  0.1300438E+00
        -11   -1    0    0    0    0  0.00000000000E+00  0.00000000000E+00  0.45593999997E+02  0.45594000000E+02  0.51100000000E-03 0. -1.
         11   -1    0    0    0    0 -0.00000000000E+00 -0.00000000000E+00 -0.45593999997E+02  0.45594000000E+02  0.51100000000E-03 0.  1.
    9900012    2    1    2    0    0 -0.17632877245E+01 -0.40443437965E+02 -0.37911852794E+01  0.50529004146E+02  0.30000438600E+02 0.  0.
         12    1    1    2    0    0  0.17632877245E+01  0.40443437965E+02  0.37911852794E+01  0.40658995854E+02  0.00000000000E+00 0. -1.
         11    1    3    3    0    0 -0.12699365455E+01 -0.74384243260E+00 -0.15598300251E+00  0.14799903217E+01  0.51100000000E-03 0. -1.
        -11    1    3    3    0    0 -0.20280407921E+01 -0.26401307503E+02 -0.15906151195E+02  0.30889280234E+02  0.51100000000E-03 0.  1.
         12    1    3    3    0    0  0.15346896132E+01 -0.13298288029E+02  0.12270948918E+02  0.18159733590E+02  0.00000000000E+00 0. -1.
</event>
<event>
 7    1  0.2744502E-011  0.5052886E+02  0.7816164E-02  0.1300439E+00
        -11   -1    0    0    0    0  0.00000000000E+00  0.00000000000E+00  0.45593999997E+02  0.45594000000E+02  0.51100000000E-03 0. -1.
         11   -1    0    0    0    0 -0.00000000000E+00 -0.00000000000E+00 -0.45593999997E+02  0.45594000000E+02  0.51100000000E-03 0.  1.
    9900012    2    1    2    0    0 -0.30417038723E+01 -0.31387984247E+02 -0.25665313666E+02  0.50528857816E+02  0.29999993817E+02 0.  0.
         12    1    1    2    0    0  0.30417038723E+01  0.31387984247E+02  0.25665313666E+02  0.40659142184E+02  0.00000000000E+00 0. -1.
         11    1    3    3    0    0 -0.22510650599E+01 -0.17621790223E+02 -0.11941894162E+02  0.21405691322E+02  0.51100000000E-03 0. -1.
        -11    1    3    3    0    0  0.61520803936E-01 -0.14984293734E+02 -0.18680640097E+02  0.23947842454E+02  0.51100000000E-03 0.  1.
         12    1    3    3    0    0 -0.85215961634E+00  0.12180997099E+01  0.49572205920E+01  0.51753240394E+01  0.00000000000E+00 0. -1.
</event>
<event>
 7    1  0.2744502E-011  0.5052886E+02  0.7816164E-02  0.1300439E+00
        -11   -1    0    0    0    0  0.00000000000E+00  0.00000000000E+00  0.45593999997E+02  0.45594000000E+02  0.51100000000E-03 0.  1.
         11   -1    0    0    0    0 -0.00000000000E+00 -0.00000000000E+00 -0.45593999997E+02  0.45594000000E+02  0.51100000000E-03 0. -1.
    9900012    2    1    2    0    0 -0.21061325416E+01 -0.34734099468E+01  0.40455718739E+02  0.50528861426E+02  0.30000004789E+02 0.  0.
         12    1    1    2    0    0  0.21061325416E+01  0.34734099468E+01 -0.40455718739E+02  0.40659138574E+02  0.00000000000E+00 0. -1.
         11    1    3    3    0    0 -0.47250357717E+01  0.48827418427E+01  0.12477015171E+00  0.67957853703E+01  0.51100000000E-03 0. -1.
        -11    1    3    3    0    0  0.24269906370E+01 -0.55004543666E+00 -0.16230372815E+00  0.24938276396E+01  0.51100000000E-03 0.  1.
        -12    1    3    3    0    0  0.19191259305E+00 -0.78061063529E+01  0.40493252315E+02  0.41239248416E+02  0.00000000000E+00 0.  1.
</event>
<event>
 7    1  0.2744502E-011  0.5052886E+02  0.7816164E-02  0.1300439E+00
        -11   -1    0    0    0    0  0.00000000000E+00  0.00000000000E+00  0.45593999997E+02  0.45594000000E+02  0.51100000000E-03 0.  1.
         11   -1    0    0    0    0 -0.00000000000E+00 -0.00000000000E+00 -0.45593999997E+02  0.45594000000E+02  0.51100000000E-03 0. -1.
    9900012    2    1    2    0    0 -0.22998272556E+02  0.91490333015E+01  0.32257411121E+02  0.50528856832E+02  0.29999990827E+02 0.  0.
         12    1    1    2    0    0  0.22998272556E+02 -0.91490333015E+01 -0.32257411121E+02  0.40659143168E+02  0.00000000000E+00 0. -1.
         11    1    3    3    0    0 -0.64635303778E+01 -0.53959256456E+01  0.12875938570E+02  0.15384506259E+02  0.51100000000E-03 0. -1.
        -11    1    3    3    0    0 -0.15671127321E+02  0.14275431478E+02  0.23079395634E+02  0.31337368723E+02  0.51100000000E-03 0.  1.
         12    1    3    3    0    0 -0.86361485703E+00  0.26952746946E+00 -0.36979230832E+01  0.38069818501E+01  0.00000000000E+00 0. -1.
</event>
<event>
 7    1  0.2744502E-011  0.5052886E+02  0.7816164E-02  0.1300439E+00
        -11   -1    0    0    0    0  0.00000000000E+00  0.00000000000E+00  0.45593999997E+02  0.45594000000E+02  0.51100000000E-03 0.  1.
         11   -1    0    0    0    0 -0.00000000000E+00 -0.00000000000E+00 -0.45593999997E+02  0.45594000000E+02  0.51100000000E-03 0. -1.
    9900012    2    1    2    0    0  0.32570780279E+02  0.13095260160E+02  0.20513996123E+02  0.50528860762E+02  0.30000002773E+02 0.  0.
         12    1    1    2    0    0 -0.32570780279E+02 -0.13095260160E+02 -0.20513996123E+02  0.40659139238E+02  0.00000000000E+00 0. -1.
         11    1    3    3    0    0  0.82514621669E+01  0.24670666275E+01 -0.36147390298E+01  0.93402025755E+01  0.51100000000E-03 0. -1.
        -11    1    3    3    0    0  0.23719976056E+02  0.10372377452E+01  0.17944886883E+02  0.29761251515E+02  0.51100000000E-03 0.  1.
        -12    1    3    3    0    0  0.59934205537E+00  0.95909557876E+01  0.61838482691E+01  0.11427406671E+02  0.00000000000E+00 0.  1.
</event>
<event>
 7    1  0.2744502E-011  0.5052886E+02  0.7816164E-02  0.1300439E+00
        -11   -1    0    0    0    0  0.00000000000E+00  0.00000000000E+00  0.45593999997E+02  0.45594000000E+02  0.51100000000E-03 0. -1.
         11   -1    0    0    0    0 -0.00000000000E+00 -0.00000000000E+00 -0.45593999997E+02  0.45594000000E+02  0.51100000000E-03 0.  1.
    9900012    2    1    2    0    0 -0.26275359387E+02  0.18949561183E+02 -0.24570007788E+02  0.50528860036E+02  0.30000000564E+02 0.  0.
         12    1    1    2    0    0  0.26275359387E+02 -0.18949561183E+02  0.24570007788E+02  0.40659139964E+02  0.00000000000E+00 0. -1.
         11    1    3    3    0    0 -0.38278240945E+00  0.73212244544E+01 -0.10772747667E+02  0.13030692324E+02  0.51100000000E-03 0. -1.
        -11    1    3    3    0    0 -0.90741130988E+01  0.13845408806E+02 -0.11986194431E+02  0.20437801514E+02  0.51100000000E-03 0.  1.
        -12    1    3    3    0    0 -0.16818463879E+02 -0.22170720779E+01 -0.18110656897E+01  0.17060366197E+02  0.00000000000E+00 0.  1.
</event>
<event>
 7    1  0.2744502E-011  0.5052885E+02  0.7816164E-02  0.1300439E+00
        -11   -1    0    0    0    0  0.00000000000E+00  0.00000000000E+00  0.45593999997E+02  0.45594000000E+02  0.51100000000E-03 0.  1.
         11   -1    0    0    0    0 -0.00000000000E+00 -0.00000000000E+00 -0.45593999997E+02  0.45594000000E+02  0.51100000000E-03 0. -1.
    9900012    2    1    2    0    0  0.31161785426E+02 -0.23337413333E+02  0.11724965397E+02  0.50528849178E+02  0.29999967561E+02 0.  0.
         12    1    1    2    0    0 -0.31161785426E+02  0.23337413333E+02 -0.11724965397E+02  0.40659150822E+02  0.00000000000E+00 0. -1.
         11    1    3    3    0    0  0.32770890307E+01 -0.45501071675E+00 -0.33791798112E+01  0.47291863703E+01  0.51100000000E-03 0. -1.
        -11    1    3    3    0    0  0.18128230885E+02 -0.10546756970E+02 -0.36877217621E+01  0.21294744179E+02  0.51100000000E-03 0.  1.
        -12    1    3    3    0    0  0.97564655108E+01 -0.12335645646E+02  0.18791866970E+02  0.24504918628E+02  0.00000000000E+00 0.  1.
</event>
<event>
 7    1  0.2744502E-011  0.5052886E+02  0.7816164E-02  0.1300439E+00
        -11   -1    0    0    0    0  0.00000000000E+00  0.00000000000E+00  0.45593999997E+02  0.45594000000E+02  0.51100000000E-03 0.  1.
         11   -1    0    0    0    0 -0.00000000000E+00 -0.00000000000E+00 -0.45593999997E+02  0.45594000000E+02  0.51100000000E-03 0. -1.
    9900012    2    1    2    0    0 -0.39588296910E+02 -0.35014515014E+01  0.85832704082E+01  0.50528856554E+02  0.29999989981E+02 0.  0.
         12    1    1    2    0    0  0.39588296910E+02  0.35014515014E+01 -0.85832704082E+01  0.40659143446E+02  0.00000000000E+00 0. -1.
         11    1    3    3    0    0 -0.12427352314E+02  0.34514684515E+01  0.41943254137E+01  0.13562598790E+02  0.51100000000E-03 0. -1.
        -11    1    3    3    0    0 -0.12954501215E+02 -0.37097005594E+01  0.14061865630E+02  0.19476063391E+02  0.51100000000E-03 0.  1.
        -12    1    3    3    0    0 -0.14206443381E+02 -0.32432193935E+01 -0.96729206351E+01  0.17490194373E+02  0.00000000000E+00 0.  1.
</event>
<event>
 7    1  0.2744502E-011  0.5052890E+02  0.7816164E-02  0.1300439E+00
        -11   -1    0    0    0    0  0.00000000000E+00  0.00000000000E+00  0.45593999997E+02  0.45594000000E+02  0.51100000000E-03 0.  1.
         11   -1    0    0    0    0 -0.00000000000E+00 -0.00000000000E+00 -0.45593999997E+02  0.45594000000E+02  0.51100000000E-03 0. -1.
    9900012    2    1    2    0    0 -0.54057747104E+01  0.36268143840E+01  0.40134605228E+02  0.50528896227E+02  0.30000110571E+02 0.  0.
         12    1    1    2    0    0  0.54057747104E+01 -0.36268143840E+01 -0.40134605228E+02  0.40659103773E+02  0.00000000000E+00 0. -1.
         11    1    3    3    0    0  0.37600254926E+01  0.18333527865E+01  0.51261019344E-01  0.41834916156E+01  0.51100000000E-03 0. -1.
        -11    1    3    3    0    0  0.50335936334E+00 -0.66836613619E+01  0.34864967914E+01  0.75551545310E+01  0.51100000000E-03 0.  1.
        -12    1    3    3    0    0 -0.96691595664E+01  0.84771229594E+01  0.36596847418E+02  0.38790250080E+02  0.00000000000E+00 0.  1.
</event>
<event>
 7    1  0.2744502E-011  0.5052886E+02  0.7816164E-02  0.1300439E+00
        -11   -1    0    0    0    0  0.00000000000E+00  0.00000000000E+00  0.45593999997E+02  0.45594000000E+02  0.51100000000E-03 0. -1.
         11   -1    0    0    0    0 -0.00000000000E+00 -0.00000000000E+00 -0.45593999997E+02  0.45594000000E+02  0.51100000000E-03 0.  1.
    9900012    2    1    2    0    0  0.33845477002E+02  0.21138020880E+02  0.77995944464E+01  0.50528856948E+02  0.29999991179E+02 0.  0.
         12    1    1    2    0    0 -0.33845477002E+02 -0.21138020880E+02 -0.77995944464E+01  0.40659143052E+02  0.00000000000E+00 0. -1.
         11    1    3    3    0    0 -0.14224132010E+01  0.62746100546E+01  0.46776823438E+01  0.79545397744E+01  0.51100000000E-03 0. -1.
        -11    1    3    3    0    0  0.73812448436E+01  0.40131999653E+00  0.78775263940E+01  0.10802742963E+02  0.51100000000E-03 0.  1.
        -12    1    3    3    0    0  0.27886645359E+02  0.14462090829E+02 -0.47556142914E+01  0.31771574210E+02  0.00000000000E+00 0.  1.
</event>
<event>
 7    1  0.2744502E-011  0.5052886E+02  0.7816164E-02  0.1300439E+00
        -11   -1    0    0    0    0  0.00000000000E+00  0.00000000000E+00  0.45593999997E+02  0.45594000000E+02  0.51100000000E-03 0. -1.
         11   -1    0    0    0    0 -0.00000000000E+00 -0.00000000000E+00 -0.45593999997E+02  0.45594000000E+02  0.51100000000E-03 0.  1.
    9900012    2    1    2    0    0 -0.12248184507E+02 -0.26739684094E+02 -0.28073777987E+02  0.50528859088E+02  0.29999997685E+02 0.  0.
         12    1    1    2    0    0  0.12248184507E+02  0.26739684094E+02  0.28073777987E+02  0.40659140912E+02  0.00000000000E+00 0. -1.
         11    1    3    3    0    0 -0.79369809350E+01 -0.20620523186E+02 -0.15941549568E+02  0.27245818866E+02  0.51100000000E-03 0.  1.
        -11    1    3    3    0    0 -0.18543233248E+01 -0.12079922008E+02 -0.11539812125E+02  0.16808637508E+02  0.51100000000E-03 0. -1.
         12    1    3    3    0    0 -0.24568802475E+01  0.59607610998E+01 -0.59241629469E+00  0.64744027142E+01  0.00000000000E+00 0. -1.
</event>
<event>
 7    1  0.2744502E-011  0.5052886E+02  0.7816164E-02  0.1300439E+00
        -11   -1    0    0    0    0  0.00000000000E+00  0.00000000000E+00  0.45593999997E+02  0.45594000000E+02  0.51100000000E-03 0.  1.
         11   -1    0    0    0    0 -0.00000000000E+00 -0.00000000000E+00 -0.45593999997E+02  0.45594000000E+02  0.51100000000E-03 0. -1.
    9900012    2    1    2    0    0  0.14547608776E+02 -0.68001552981E+00  0.37961430260E+02  0.50528861671E+02  0.30000005536E+02 0.  0.
         12    1    1    2    0    0 -0.14547608776E+02  0.68001552981E+00 -0.37961430260E+02  0.40659138329E+02  0.00000000000E+00 0. -1.
         11    1    3    3    0    0  0.40586106431E+01  0.62301312303E+01  0.47346800513E+01  0.88149901276E+01  0.51100000000E-03 0. -1.
        -11    1    3    3    0    0 -0.10081871147E+01  0.18842116599E+01 -0.24270403617E+01  0.32337625169E+01  0.51100000000E-03 0.  1.
        -12    1    3    3    0    0  0.11497185248E+02 -0.87943584200E+01  0.35653790571E+02  0.38480109027E+02  0.00000000000E+00 0.  1.
</event>
<event>
 7    1  0.2744502E-011  0.5052887E+02  0.7816164E-02  0.1300439E+00
        -11   -1    0    0    0    0  0.00000000000E+00  0.00000000000E+00  0.45593999997E+02  0.45594000000E+02  0.51100000000E-03 0. -1.
         11   -1    0    0    0    0 -0.00000000000E+00 -0.00000000000E+00 -0.45593999997E+02  0.45594000000E+02  0.51100000000E-03 0.  1.
    9900012    2    1    2    0    0 -0.30060720113E+02 -0.26508220465E+02 -0.68434132140E+01  0.50528868795E+02  0.30000027189E+02 0.  0.
         12    1    1    2    0    0  0.30060720113E+02  0.26508220465E+02  0.68434132140E+01  0.40659131205E+02  0.00000000000E+00 0. -1.
         11    1    3    3    0    0 -0.17866147613E+02 -0.19136400454E+02 -0.61641452443E+01  0.26896054352E+02  0.51100000000E-03 0. -1.
        -11    1    3    3    0    0 -0.16090735339E+02 -0.87693113153E+01 -0.34563734544E+01  0.18648300255E+02  0.51100000000E-03 0.  1.
         12    1    3    3    0    0  0.38961628383E+01  0.13974913049E+01  0.27771054847E+01  0.49845141873E+01  0.00000000000E+00 0. -1.
</event>
<event>
 7    1  0.2744502E-011  0.5052887E+02  0.7816164E-02  0.1300439E+00
        -11   -1    0    0    0    0  0.00000000000E+00  0.00000000000E+00  0.45593999997E+02  0.45594000000E+02  0.51100000000E-03 0.  1.
         11   -1    0    0    0    0 -0.00000000000E+00 -0.00000000000E+00 -0.45593999997E+02  0.45594000000E+02  0.51100000000E-03 0. -1.
    9900012    2    1    2    0    0 -0.33459714818E+02 -0.71004699938E+01  0.21981718059E+02  0.50528866725E+02  0.30000020898E+02 0.  0.
         12    1    1    2    0    0  0.33459714818E+02  0.71004699938E+01 -0.21981718059E+02  0.40659133275E+02  0.00000000000E+00 0. -1.
         11    1    3    3    0    0 -0.71727618340E+01 -0.46746928467E+01 -0.50392614437E+01  0.99345569452E+01  0.51100000000E-03 0. -1.
        -11    1    3    3    0    0 -0.19120203128E+02  0.70819181659E+00  0.94051952165E+01  0.21319976563E+02  0.51100000000E-03 0.  1.
         12    1    3    3    0    0 -0.71667498555E+01 -0.31339689637E+01  0.17615784286E+02  0.19274333217E+02  0.00000000000E+00 0. -1.
</event>
<event>
 7    1  0.2744502E-011  0.5052886E+02  0.7816164E-02  0.1300439E+00
        -11   -1    0    0    0    0  0.00000000000E+00  0.00000000000E+00  0.45593999997E+02  0.45594000000E+02  0.51100000000E-03 0.  1.
         11   -1    0    0    0    0 -0.00000000000E+00 -0.00000000000E+00 -0.45593999997E+02  0.45594000000E+02  0.51100000000E-03 0. -1.
    9900012    2    1    2    0    0 -0.35010500473E+02 -0.10992232574E+02  0.17510046502E+02  0.50528855286E+02  0.29999986129E+02 0.  0.
         12    1    1    2    0    0  0.35010500473E+02  0.10992232574E+02 -0.17510046502E+02  0.40659144714E+02  0.00000000000E+00 0. -1.
         11    1    3    3    0    0 -0.24626500090E+00 -0.50659151437E+01  0.62246376526E+01  0.80293372616E+01  0.51100000000E-03 0. -1.
        -11    1    3    3    0    0 -0.15618481412E+02 -0.73543544777E+01  0.15088124852E+02  0.22927603521E+02  0.51100000000E-03 0.  1.
        -12    1    3    3    0    0 -0.19145754060E+02  0.14280370478E+01 -0.38027160027E+01  0.19571914503E+02  0.00000000000E+00 0.  1.
</event>
<event>
 7    1  0.2744502E-011  0.5052886E+02  0.7816164E-02  0.1300439E+00
        -11   -1    0    0    0    0  0.00000000000E+00  0.00000000000E+00  0.45593999997E+02  0.45594000000E+02  0.51100000000E-03 0. -1.
         11   -1    0    0    0    0 -0.00000000000E+00 -0.00000000000E+00 -0.45593999997E+02  0.45594000000E+02  0.51100000000E-03 0.  1.
    9900012    2    1    2    0    0 -0.35558861889E+02  0.16301346038E+02 -0.11090495229E+02  0.50528860487E+02  0.30000001938E+02 0.  0.
         12    1    1    2    0    0  0.35558861889E+02 -0.16301346038E+02  0.11090495229E+02  0.40659139513E+02  0.00000000000E+00 0. -1.
         11    1    3    3    0    0 -0.52385029328E+01  0.49753416649E+01 -0.18654193249E+01  0.74616169279E+01  0.51100000000E-03 0. -1.
        -11    1    3    3    0    0 -0.22677808857E+02  0.19008620848E+02 -0.11918766657E+02  0.31900904062E+02  0.51100000000E-03 0.  1.
         12    1    3    3    0    0 -0.76425500988E+01 -0.76826164744E+01  0.26936907526E+01  0.11166339498E+02  0.00000000000E+00 0. -1.
</event>
<event>
 7    1  0.2744502E-011  0.5052887E+02  0.7816164E-02  0.1300439E+00
        -11   -1    0    0    0    0  0.00000000000E+00  0.00000000000E+00  0.45593999997E+02  0.45594000000E+02  0.51100000000E-03 0.  1.
         11   -1    0    0    0    0 -0.00000000000E+00 -0.00000000000E+00 -0.45593999997E+02  0.45594000000E+02  0.51100000000E-03 0. -1.
    9900012    2    1    2    0    0 -0.14568439475E+02  0.37168028876E+02  0.77112439370E+01  0.50528867172E+02  0.30000022256E+02 0.  0.
         12    1    1    2    0    0  0.14568439475E+02 -0.37168028876E+02 -0.77112439370E+01  0.40659132828E+02  0.00000000000E+00 0. -1.
         11    1    3    3    0    0 -0.79586338156E+01  0.15991217762E+02  0.76660439461E+01  0.19437775793E+02  0.51100000000E-03 0.  1.
        -11    1    3    3    0    0 -0.90200472962E+01  0.66061136040E+01 -0.84853189535E+01  0.14035762472E+02  0.51100000000E-03 0. -1.
         12    1    3    3    0    0  0.24102416365E+01  0.14570697510E+02  0.85305189443E+01  0.17055328907E+02  0.00000000000E+00 0. -1.
</event>
<event>
 7    1  0.2744502E-011  0.5052884E+02  0.7816164E-02  0.1300439E+00
        -11   -1    0    0    0    0  0.00000000000E+00  0.00000000000E+00  0.45593999997E+02  0.45594000000E+02  0.51100000000E-03 0.  1.
         11   -1    0    0    0    0 -0.00000000000E+00 -0.00000000000E+00 -0.45593999997E+02  0.45594000000E+02  0.51100000000E-03 0. -1.
    9900012    2    1    2    0    0  0.15240943834E+02  0.36207024527E+02  0.10484863001E+02  0.50528839332E+02  0.29999937635E+02 0.  0.
         12    1    1    2    0    0 -0.15240943834E+02 -0.36207024527E+02 -0.10484863001E+02  0.40659160668E+02  0.00000000000E+00 0. -1.
         11    1    3    3    0    0 -0.17918872392E+01  0.12145560868E+02  0.99031839782E+01  0.15773349734E+02  0.51100000000E-03 0. -1.
        -11    1    3    3    0    0  0.80791308556E+01  0.24234030515E+02  0.22569673424E+01  0.25644775145E+02  0.51100000000E-03 0.  1.
        -12    1    3    3    0    0  0.89537002174E+01 -0.17256685546E+00 -0.16752883193E+01  0.91107144537E+01  0.00000000000E+00 0.  1.
</event>
<event>
 7    1  0.2744502E-011  0.5052886E+02  0.7816164E-02  0.1300439E+00
        -11   -1    0    0    0    0  0.00000000000E+00  0.00000000000E+00  0.45593999997E+02  0.45594000000E+02  0.51100000000E-03 0.  1.
         11   -1    0    0    0    0 -0.00000000000E+00 -0.00000000000E+00 -0.45593999997E+02  0.45594000000E+02  0.51100000000E-03 0. -1.
    9900012    2    1    2    0    0 -0.39614982901E+01 -0.15293838910E+02  0.37464260463E+02  0.50528858478E+02  0.29999995829E+02 0.  0.
         12    1    1    2    0    0  0.39614982901E+01  0.15293838910E+02 -0.37464260463E+02  0.40659141522E+02  0.00000000000E+00 0. -1.
         11    1    3    3    0    0 -0.54412712755E+01 -0.14097792700E+01  0.12560457637E+01  0.57595626488E+01  0.51100000000E-03 0. -1.
        -11    1    3    3    0    0 -0.36513595763E+01 -0.18389411562E+02  0.21326766498E+02  0.28396018275E+02  0.51100000000E-03 0.  1.
        -12    1    3    3    0    0  0.51311325617E+01  0.45053519221E+01  0.14881448201E+02  0.16373277554E+02  0.00000000000E+00 0.  1.
</event>
<event>
 7    1  0.2744502E-011  0.5052886E+02  0.7816164E-02  0.1300439E+00
        -11   -1    0    0    0    0  0.00000000000E+00  0.00000000000E+00  0.45593999997E+02  0.45594000000E+02  0.51100000000E-03 0. -1.
         11   -1    0    0    0    0 -0.00000000000E+00 -0.00000000000E+00 -0.45593999997E+02  0.45594000000E+02  0.51100000000E-03 0.  1.
    9900012    2    1    2    0    0  0.39893277015E+02 -0.73027027718E+01  0.28918794262E+01  0.50528856066E+02  0.29999988499E+02 0.  0.
         12    1    1    2    0    0 -0.39893277015E+02  0.73027027718E+01 -0.28918794262E+01  0.40659143934E+02  0.00000000000E+00 0. -1.
         11    1    3    3    0    0  0.12412938071E+02 -0.57902772068E+01 -0.24811551915E+01  0.13919930784E+02  0.51100000000E-03 0. -1.
        -11    1    3    3    0    0  0.46285678237E+01  0.85668596963E+01 -0.31256881253E+01  0.10226663761E+02  0.51100000000E-03 0.  1.
         12    1    3    3    0    0  0.22851771121E+02 -0.10079285261E+02  0.84987227430E+01  0.26382261522E+02  0.00000000000E+00 0. -1.
</event>
<event>
 7    1  0.2744502E-011  0.5052886E+02  0.7816164E-02  0.1300439E+00
        -11   -1    0    0    0    0  0.00000000000E+00  0.00000000000E+00  0.45593999997E+02  0.45594000000E+02  0.51100000000E-03 0.  1.
         11   -1    0    0    0    0 -0.00000000000E+00 -0.00000000000E+00 -0.45593999997E+02  0.45594000000E+02  0.51100000000E-03 0. -1.
    9900012    2    1    2    0    0 -0.11778302069E+02  0.10121947953E+02  0.37576369050E+02  0.50528859072E+02  0.29999997636E+02 0.  0.
         12    1    1    2    0    0  0.11778302069E+02 -0.10121947953E+02 -0.37576369050E+02  0.40659140928E+02  0.00000000000E+00 0. -1.
         11    1    3    3    0    0 -0.16255944597E+02  0.76650467771E+01  0.28093222744E+02  0.33350230003E+02  0.51100000000E-03 0.  1.
        -11    1    3    3    0    0  0.61224211139E+01  0.59126996496E+01  0.19543742287E+01  0.87329053773E+01  0.51100000000E-03 0. -1.
         12    1    3    3    0    0 -0.16447785851E+01 -0.34557984734E+01  0.75287720771E+01  0.84457236914E+01  0.00000000000E+00 0. -1.
</event>
<event>
 7    1  0.2744502E-011  0.5052888E+02  0.7816164E-02  0.1300439E+00
        -11   -1    0    0    0    0  0.00000000000E+00  0.00000000000E+00  0.45593999997E+02  0.45594000000E+02  0.51100000000E-03 0.  1.
         11   -1    0    0    0    0 -0.00000000000E+00 -0.00000000000E+00 -0.45593999997E+02  0.45594000000E+02  0.51100000000E-03 0. -1.
    9900012    2    1    2    0    0 -0.23680608117E+02 -0.14296965169E+02  0.29799149286E+02  0.50528884024E+02  0.30000073478E+02 0.  0.
         12    1    1    2    0    0  0.23680608117E+02  0.14296965169E+02 -0.29799149286E+02  0.40659115976E+02  0.00000000000E+00 0. -1.
         11    1    3    3    0    0  0.84573374028E+00 -0.11291804443E+01  0.24414611332E+01  0.28197600538E+01  0.51100000000E-03 0. -1.
        -11    1    3    3    0    0 -0.11409247675E+02 -0.19983206259E+02  0.22412247106E+02  0.32121772764E+02  0.51100000000E-03 0.  1.
         12    1    3    3    0    0 -0.13117094182E+02  0.68154215341E+01  0.49454410467E+01  0.15587351206E+02  0.00000000000E+00 0. -1.
</event>
<event>
 7    1  0.2744502E-011  0.5052886E+02  0.7816164E-02  0.1300439E+00
        -11   -1    0    0    0    0  0.00000000000E+00  0.00000000000E+00  0.45593999997E+02  0.45594000000E+02  0.51100000000E-03 0.  1.
         11   -1    0    0    0    0 -0.00000000000E+00 -0.00000000000E+00 -0.45593999997E+02  0.45594000000E+02  0.51100000000E-03 0. -1.
    9900012    2    1    2    0    0 -0.23717213499E+01 -0.12014389079E+02  0.38771055210E+02  0.50528864137E+02  0.30000013029E+02 0.  0.
         12    1    1    2    0    0  0.23717213499E+01  0.12014389079E+02 -0.38771055210E+02  0.40659135863E+02  0.00000000000E+00 0. -1.
         11    1    3    3    0    0  0.14856857045E+01  0.52160706260E+01  0.24959179506E+01  0.59702815231E+01  0.51100000000E-03 0. -1.
        -11    1    3    3    0    0 -0.11721392123E+01 -0.22126416868E+01 -0.20962798771E+01  0.32655907814E+01  0.51100000000E-03 0.  1.
        -12    1    3    3    0    0 -0.26852678421E+01 -0.15017818018E+02  0.38371417136E+02  0.41292991832E+02  0.00000000000E+00 0.  1.
</event>
<event>
 7    1  0.2744502E-011  0.5052887E+02  0.7816164E-02  0.1300439E+00
        -11   -1    0    0    0    0  0.00000000000E+00  0.00000000000E+00  0.45593999997E+02  0.45594000000E+02  0.51100000000E-03 0.  1.
         11   -1    0    0    0    0 -0.00000000000E+00 -0.00000000000E+00 -0.45593999997E+02  0.45594000000E+02  0.51100000000E-03 0. -1.
    9900012    2    1    2    0    0  0.16598839129E+02 -0.33492756365E+02  0.15996202219E+02  0.50528872183E+02  0.30000037489E+02 0.  0.
         12    1    1    2    0    0 -0.16598839129E+02  0.33492756365E+02 -0.15996202219E+02  0.40659127817E+02  0.00000000000E+00 0. -1.
         11    1    3    3    0    0  0.11072877538E+01 -0.19812447224E+02 -0.82876672717E+00  0.19860664786E+02  0.51100000000E-03 0. -1.
        -11    1    3    3    0    0  0.55370915440E+01 -0.13923639068E+02  0.65289578597E+01  0.16344858478E+02  0.51100000000E-03 0.  1.
         12    1    3    3    0    0  0.99544598309E+01  0.24332992730E+00  0.10296011087E+02  0.14323348920E+02  0.00000000000E+00 0. -1.
</event>
<event>
 7    1  0.2744502E-011  0.5052886E+02  0.7816164E-02  0.1300439E+00
        -11   -1    0    0    0    0  0.00000000000E+00  0.00000000000E+00  0.45593999997E+02  0.45594000000E+02  0.51100000000E-03 0.  1.
         11   -1    0    0    0    0 -0.00000000000E+00 -0.00000000000E+00 -0.45593999997E+02  0.45594000000E+02  0.51100000000E-03 0. -1.
    9900012    2    1    2    0    0  0.33968633496E+02  0.22213614104E+02  0.24192326678E+01  0.50528863267E+02  0.30000010387E+02 0.  0.
         12    1    1    2    0    0 -0.33968633496E+02 -0.22213614104E+02 -0.24192326678E+01  0.40659136733E+02  0.00000000000E+00 0. -1.
         11    1    3    3    0    0  0.29336830900E+01  0.55408576057E+01  0.92795246889E+01  0.11198981123E+02  0.51100000000E-03 0. -1.
        -11    1    3    3    0    0  0.14590992558E+02  0.15258893133E+02  0.81460005509E+00  0.21128049058E+02  0.51100000000E-03 0.  1.
         12    1    3    3    0    0  0.16443957848E+02  0.14138633652E+01 -0.76748920762E+01  0.18201833087E+02  0.00000000000E+00 0. -1.
</event>
<event>
 7    1  0.2744502E-011  0.5052885E+02  0.7816164E-02  0.1300439E+00
        -11   -1    0    0    0    0  0.00000000000E+00  0.00000000000E+00  0.45593999997E+02  0.45594000000E+02  0.51100000000E-03 0. -1.
         11   -1    0    0    0    0 -0.00000000000E+00 -0.00000000000E+00 -0.45593999997E+02  0.45594000000E+02  0.51100000000E-03 0.  1.
    9900012    2    1    2    0    0 -0.41829373005E+00 -0.29142157097E+02 -0.28350066600E+02  0.50528848925E+02  0.29999966791E+02 0.  0.
         12    1    1    2    0    0  0.41829373005E+00  0.29142157097E+02  0.28350066600E+02  0.40659151075E+02  0.00000000000E+00 0. -1.
         11    1    3    3    0    0  0.57738772955E+01 -0.73028719433E-01 -0.14796362773E+02  0.15883178013E+02  0.51100000000E-03 0. -1.
        -11    1    3    3    0    0  0.30155428180E+01 -0.35276846414E+01 -0.29434522091E+01  0.54956317730E+01  0.51100000000E-03 0.  1.
         12    1    3    3    0    0 -0.92077138436E+01 -0.25541443737E+02 -0.10610251618E+02  0.29150039138E+02  0.00000000000E+00 0. -1.
</event>
<event>
 7    1  0.2744502E-011  0.5052883E+02  0.7816164E-02  0.1300439E+00
        -11   -1    0    0    0    0  0.00000000000E+00  0.00000000000E+00  0.45593999997E+02  0.45594000000E+02  0.51100000000E-03 0.  1.
         11   -1    0    0    0    0 -0.00000000000E+00 -0.00000000000E+00 -0.45593999997E+02  0.45594000000E+02  0.51100000000E-03 0. -1.
    9900012    2    1    2    0    0 -0.76754244250E+00 -0.10053369016E+02  0.39389194265E+02  0.50528831602E+02  0.29999914137E+02 0.  0.
         12    1    1    2    0    0  0.76754244250E+00  0.10053369016E+02 -0.39389194265E+02  0.40659168398E+02  0.00000000000E+00 0. -1.
         11    1    3    3    0    0 -0.33752492786E+01 -0.49466034599E+01 -0.30223499534E+01  0.67078903527E+01  0.51100000000E-03 0. -1.
        -11    1    3    3    0    0  0.32701474089E+01 -0.38721676384E+01  0.86144191395E+01  0.99947868246E+01  0.51100000000E-03 0.  1.
        -12    1    3    3    0    0 -0.66244057273E+00 -0.12345979174E+01  0.33797125079E+02  0.33826154424E+02  0.00000000000E+00 0.  1.
</event>
<event>
 7    1  0.2744502E-011  0.5052886E+02  0.7816164E-02  0.1300439E+00
        -11   -1    0    0    0    0  0.00000000000E+00  0.00000000000E+00  0.45593999997E+02  0.45594000000E+02  0.51100000000E-03 0. -1.
         11   -1    0    0    0    0 -0.00000000000E+00 -0.00000000000E+00 -0.45593999997E+02  0.45594000000E+02  0.51100000000E-03 0.  1.
    9900012    2    1    2    0    0 -0.18160708030E+02  0.28584565098E+02 -0.22500593321E+02  0.50528863538E+02  0.30000011210E+02 0.  0.
         12    1    1    2    0    0  0.18160708030E+02 -0.28584565098E+02  0.22500593321E+02  0.40659136462E+02  0.00000000000E+00 0. -1.
         11    1    3    3    0    0  0.34670817617E+01  0.35671935151E+01 -0.38634339651E+01  0.62985433062E+01  0.51100000000E-03 0. -1.
        -11    1    3    3    0    0 -0.47000242063E+01  0.14121708597E+02 -0.18950922589E+02  0.24096687500E+02  0.51100000000E-03 0.  1.
         12    1    3    3    0    0 -0.16927765585E+02  0.10895662986E+02  0.31376323239E+00  0.20133632732E+02  0.00000000000E+00 0. -1.
</event>
<event>
 7    1  0.2744502E-011  0.5052887E+02  0.7816164E-02  0.1300439E+00
        -11   -1    0    0    0    0  0.00000000000E+00  0.00000000000E+00  0.45593999997E+02  0.45594000000E+02  0.51100000000E-03 0. -1.
         11   -1    0    0    0    0 -0.00000000000E+00 -0.00000000000E+00 -0.45593999997E+02  0.45594000000E+02  0.51100000000E-03 0.  1.
    9900012    2    1    2    0    0  0.88475808906E+01  0.38387828460E+02 -0.10062802230E+02  0.50528867567E+02  0.30000023455E+02 0.  0.
         12    1    1    2    0    0 -0.88475808906E+01 -0.38387828460E+02  0.10062802230E+02  0.40659132433E+02  0.00000000000E+00 0. -1.
         11    1    3    3    0    0 -0.74617335240E+00 -0.16965259282E+01  0.24092229874E+01  0.30396267141E+01  0.51100000000E-03 0. -1.
        -11    1    3    3    0    0 -0.29991953650E+01  0.50811713973E+01  0.36590382317E+01  0.69427686587E+01  0.51100000000E-03 0.  1.
        -12    1    3    3    0    0  0.12592949608E+02  0.35003182991E+02 -0.16131063449E+02  0.40546472194E+02  0.00000000000E+00 0.  1.
</event>
<event>
 7    1  0.2744502E-011  0.5052885E+02  0.7816164E-02  0.1300439E+00
        -11   -1    0    0    0    0  0.00000000000E+00  0.00000000000E+00  0.45593999997E+02  0.45594000000E+02  0.51100000000E-03 0. -1.
         11   -1    0    0    0    0 -0.00000000000E+00 -0.00000000000E+00 -0.45593999997E+02  0.45594000000E+02  0.51100000000E-03 0.  1.
    9900012    2    1    2    0    0 -0.46008706717E+01 -0.31831638483E+01 -0.40272397676E+02  0.50528849031E+02  0.29999967113E+02 0.  0.
         12    1    1    2    0    0  0.46008706717E+01  0.31831638483E+01  0.40272397676E+02  0.40659150969E+02  0.00000000000E+00 0. -1.
         11    1    3    3    0    0 -0.63591443602E+01  0.34306574640E+01 -0.66751747811E+01  0.98369754624E+01  0.51100000000E-03 0. -1.
        -11    1    3    3    0    0 -0.28721313497E+01  0.47068989828E+01 -0.25343548265E+02  0.25936450711E+02  0.51100000000E-03 0.  1.
         12    1    3    3    0    0  0.46304050383E+01 -0.11320720295E+02 -0.82536746289E+01  0.14755422857E+02  0.00000000000E+00 0. -1.
</event>
<event>
 7    1  0.2744502E-011  0.5052887E+02  0.7816164E-02  0.1300439E+00
        -11   -1    0    0    0    0  0.00000000000E+00  0.00000000000E+00  0.45593999997E+02  0.45594000000E+02  0.51100000000E-03 0.  1.
         11   -1    0    0    0    0 -0.00000000000E+00 -0.00000000000E+00 -0.45593999997E+02  0.45594000000E+02  0.51100000000E-03 0. -1.
    9900012    2    1    2    0    0  0.38907302759E+02  0.80942150713E+01  0.85947733880E+01  0.50528872425E+02  0.30000038222E+02 0.  0.
         12    1    1    2    0    0 -0.38907302759E+02 -0.80942150713E+01 -0.85947733880E+01  0.40659127575E+02  0.00000000000E+00 0. -1.
         11    1    3    3    0    0  0.76480504785E+01  0.23811405407E+01 -0.48585825208E+01  0.93684753706E+01  0.51100000000E-03 0. -1.
        -11    1    3    3    0    0  0.24661168862E+02  0.87446921772E+01  0.33652742033E+00  0.26167845572E+02  0.51100000000E-03 0.  1.
        -12    1    3    3    0    0  0.65980834184E+01 -0.30316176466E+01  0.13116828489E+02  0.14992551482E+02  0.00000000000E+00 0.  1.
</event>
<event>
 7    1  0.2744502E-011  0.5052886E+02  0.7816164E-02  0.1300439E+00
        -11   -1    0    0    0    0  0.00000000000E+00  0.00000000000E+00  0.45593999997E+02  0.45594000000E+02  0.51100000000E-03 0. -1.
         11   -1    0    0    0    0 -0.00000000000E+00 -0.00000000000E+00 -0.45593999997E+02  0.45594000000E+02  0.51100000000E-03 0.  1.
    9900012    2    1    2    0    0 -0.71157775576E+01 -0.12560325049E+02 -0.38010123117E+02  0.50528861852E+02  0.30000006085E+02 0.  0.
         12    1    1    2    0    0  0.71157775576E+01  0.12560325049E+02  0.38010123117E+02  0.40659138148E+02  0.00000000000E+00 0. -1.
         11    1    3    3    0    0  0.79643206339E+01  0.11565989288E+01 -0.50671097409E+01  0.95101906200E+01  0.51100000000E-03 0. -1.
        -11    1    3    3    0    0 -0.90068296062E+01  0.17787741315E+00 -0.94433208744E+01  0.13051089201E+02  0.51100000000E-03 0.  1.
        -12    1    3    3    0    0 -0.60732685853E+01 -0.13894801391E+02 -0.23499692502E+02  0.27967582031E+02  0.00000000000E+00 0.  1.
</event>
<event>
 7    1  0.2744502E-011  0.5052886E+02  0.7816164E-02  0.1300439E+00
        -11   -1    0    0    0    0  0.00000000000E+00  0.00000000000E+00  0.45593999997E+02  0.45594000000E+02  0.51100000000E-03 0.  1.
         11   -1    0    0    0    0 -0.00000000000E+00 -0.00000000000E+00 -0.45593999997E+02  0.45594000000E+02  0.51100000000E-03 0. -1.
    9900012    2    1    2    0    0 -0.10080176874E+02 -0.63962053023E+01  0.38867008711E+02  0.50528858664E+02  0.29999996394E+02 0.  0.
         12    1    1    2    0    0  0.10080176874E+02  0.63962053023E+01 -0.38867008711E+02  0.40659141336E+02  0.00000000000E+00 0. -1.
         11    1    3    3    0    0 -0.35917629699E+00 -0.10729067241E+01 -0.13428364938E+01  0.17559460587E+01  0.51100000000E-03 0. -1.
        -11    1    3    3    0    0  0.70167667252E+01 -0.72315087783E+01  0.10075503729E+02  0.14249403852E+02  0.51100000000E-03 0.  1.
        -12    1    3    3    0    0 -0.16737767302E+02  0.19082102001E+01  0.30134341475E+02  0.34523508753E+02  0.00000000000E+00 0.  1.
</event>
<event>
 7    1  0.2744502E-011  0.5052889E+02  0.7816164E-02  0.1300439E+00
        -11   -1    0    0    0    0  0.00000000000E+00  0.00000000000E+00  0.45593999997E+02  0.45594000000E+02  0.51100000000E-03 0.  1.
         11   -1    0    0    0    0 -0.00000000000E+00 -0.00000000000E+00 -0.45593999997E+02  0.45594000000E+02  0.51100000000E-03 0. -1.
    9900012    2    1    2    0    0 -0.36246000831E+01 -0.39697802722E+02 -0.80068728710E+01  0.50528889337E+02  0.30000089629E+02 0.  0.
         12    1    1    2    0    0  0.36246000831E+01  0.39697802722E+02  0.80068728710E+01  0.40659110663E+02  0.00000000000E+00 0. -1.
         11    1    3    3    0    0  0.22506375706E+01 -0.56811967176E+01  0.42542518267E+01  0.74458058318E+01  0.51100000000E-03 0. -1.
        -11    1    3    3    0    0 -0.33300534827E+00 -0.25044558997E+02  0.22467033554E+01  0.25147335926E+02  0.51100000000E-03 0.  1.
        -12    1    3    3    0    0 -0.55422323055E+01 -0.89720470070E+01 -0.14507828053E+02  0.17935747580E+02  0.00000000000E+00 0.  1.
</event>
<event>
 7    1  0.2744502E-011  0.5052888E+02  0.7816164E-02  0.1300439E+00
        -11   -1    0    0    0    0  0.00000000000E+00  0.00000000000E+00  0.45593999997E+02  0.45594000000E+02  0.51100000000E-03 0. -1.
         11   -1    0    0    0    0 -0.00000000000E+00 -0.00000000000E+00 -0.45593999997E+02  0.45594000000E+02  0.51100000000E-03 0.  1.
    9900012    2    1    2    0    0 -0.35720121985E+01 -0.84368750563E+01 -0.39613434779E+02  0.50528876217E+02  0.30000049749E+02 0.  0.
         12    1    1    2    0    0  0.35720121985E+01  0.84368750563E+01  0.39613434779E+02  0.40659123783E+02  0.00000000000E+00 0. -1.
         11    1    3    3    0    0 -0.23954367883E+01  0.80915895255E+01 -0.12759676348E+01  0.85346371992E+01  0.51100000000E-03 0. -1.
        -11    1    3    3    0    0 -0.11719269987E+00 -0.40189465793E+01 -0.14573072635E+02  0.15117543188E+02  0.51100000000E-03 0.  1.
        -12    1    3    3    0    0 -0.10593827103E+01 -0.12509518003E+02 -0.23764394508E+02  0.26876695830E+02  0.00000000000E+00 0.  1.
</event>
<event>
 7    1  0.2744502E-011  0.5052879E+02  0.7816164E-02  0.1300439E+00
        -11   -1    0    0    0    0  0.00000000000E+00  0.00000000000E+00  0.45593999997E+02  0.45594000000E+02  0.51100000000E-03 0.  1.
         11   -1    0    0    0    0 -0.00000000000E+00 -0.00000000000E+00 -0.45593999997E+02  0.45594000000E+02  0.51100000000E-03 0. -1.
    9900012    2    1    2    0    0  0.24938499107E+02 -0.31858059076E+02 -0.40381251452E+01  0.50528792919E+02  0.29999796556E+02 0.  0.
         12    1    1    2    0    0 -0.24938499107E+02  0.31858059076E+02  0.40381251452E+01  0.40659207081E+02  0.00000000000E+00 0. -1.
         11    1    3    3    0    0  0.13155994823E+02 -0.21465311803E+02  0.33028119485E+01  0.25391895904E+02  0.51100000000E-03 0. -1.
        -11    1    3    3    0    0  0.11914514993E+02 -0.12172850358E+02  0.55435896913E+00  0.17042337500E+02  0.51100000000E-03 0.  1.
         12    1    3    3    0    0 -0.13201070859E+00  0.17801030847E+01 -0.78952960628E+01  0.80945595148E+01  0.00000000000E+00 0. -1.
</event>
<event>
 7    1  0.2744502E-011  0.5052884E+02  0.7816164E-02  0.1300439E+00
        -11   -1    0    0    0    0  0.00000000000E+00  0.00000000000E+00  0.45593999997E+02  0.45594000000E+02  0.51100000000E-03 0. -1.
         11   -1    0    0    0    0 -0.00000000000E+00 -0.00000000000E+00 -0.45593999997E+02  0.45594000000E+02  0.51100000000E-03 0.  1.
    9900012    2    1    2    0    0 -0.39219951871E+02  0.10662192840E+02 -0.11315162631E+01  0.50528839778E+02  0.29999938988E+02 0.  0.
         12    1    1    2    0    0  0.39219951871E+02 -0.10662192840E+02  0.11315162631E+01  0.40659160222E+02  0.00000000000E+00 0. -1.
         11    1    3    3    0    0 -0.26391765363E+00 -0.11526906630E+01  0.29577469839E+00  0.12189467691E+01  0.51100000000E-03 0. -1.
        -11    1    3    3    0    0 -0.20063066449E+02  0.18705921589E+02 -0.72517209161E+01  0.28372972955E+02  0.51100000000E-03 0.  1.
        -12    1    3    3    0    0 -0.18892967769E+02 -0.68910380859E+01  0.58244299547E+01  0.20936920053E+02  0.00000000000E+00 0.  1.
</event>
<event>
 7    1  0.2744502E-011  0.5052886E+02  0.7816164E-02  0.1300439E+00
        -11   -1    0    0    0    0  0.00000000000E+00  0.00000000000E+00  0.45593999997E+02  0.45594000000E+02  0.51100000000E-03 0.  1.
         11   -1    0    0    0    0 -0.00000000000E+00 -0.00000000000E+00 -0.45593999997E+02  0.45594000000E+02  0.51100000000E-03 0. -1.
    9900012    2    1    2    0    0  0.21450947630E+02  0.33394351856E+02  0.88226898919E+01  0.50528858998E+02  0.29999997410E+02 0.  0.
         12    1    1    2    0    0 -0.21450947630E+02 -0.33394351856E+02 -0.88226898919E+01  0.40659141002E+02  0.00000000000E+00 0. -1.
         11    1    3    3    0    0  0.42445477152E+01  0.56512011073E+01 -0.62648106743E+01  0.94445811081E+01  0.51100000000E-03 0. -1.
        -11    1    3    3    0    0  0.21440270172E+02  0.23434143161E+02  0.10346298418E+02  0.33404941880E+02  0.51100000000E-03 0.  1.
        -12    1    3    3    0    0 -0.42338702577E+01  0.43090075877E+01  0.47412021479E+01  0.76793360101E+01  0.00000000000E+00 0.  1.
</event>
<event>
 7    1  0.2744502E-011  0.5052887E+02  0.7816164E-02  0.1300439E+00
        -11   -1    0    0    0    0  0.00000000000E+00  0.00000000000E+00  0.45593999997E+02  0.45594000000E+02  0.51100000000E-03 0.  1.
         11   -1    0    0    0    0 -0.00000000000E+00 -0.00000000000E+00 -0.45593999997E+02  0.45594000000E+02  0.51100000000E-03 0. -1.
    9900012    2    1    2    0    0 -0.71681361021E+00 -0.16118248914E+02  0.37320948301E+02  0.50528868776E+02  0.30000027131E+02 0.  0.
         12    1    1    2    0    0  0.71681361021E+00  0.16118248914E+02 -0.37320948301E+02  0.40659131224E+02  0.00000000000E+00 0. -1.
         11    1    3    3    0    0 -0.35810260059E+01 -0.32085605754E+01 -0.36157245967E+01  0.60159847774E+01  0.51100000000E-03 0. -1.
        -11    1    3    3    0    0 -0.24331294421E+01  0.91453791343E+00  0.47443303738E+01  0.54097291461E+01  0.51100000000E-03 0.  1.
         12    1    3    3    0    0  0.52973418378E+01 -0.13824226252E+02  0.36192342524E+02  0.39103154852E+02  0.00000000000E+00 0. -1.
</event>
